<event>
 7    1  0.6953847E-012  0.5930192E+02  0.7816164E-02  0.1266605E+00
        -11   -1    0    0    0    0  0.00000000000E+00  0.00000000000E+00  0.45593999997E+02  0.45594000000E+02  0.51100000000E-03 0. -1.
         11   -1    0    0    0    0 -0.00000000000E+00 -0.00000000000E+00 -0.45593999997E+02  0.45594000000E+02  0.51100000000E-03 0.  1.
    9900012    2    1    2    0    0 -0.69987684903E+01 -0.27666373238E+02  0.14223611905E+02  0.59301919900E+02  0.49999955997E+02 0.  0.
        -12    1    1    2    0    0  0.69987684903E+01  0.27666373238E+02 -0.14223611905E+02  0.31886080100E+02  0.00000000000E+00 0.  1.
         11    1    3    3    0    0  0.13326344100E+02 -0.94557436975E+01  0.22924158431E+02  0.28151724209E+02  0.51100000000E-03 0. -1.
        -11    1    3    3    0    0 -0.36203878791E+01  0.14677245559E+01 -0.23822737171E+01  0.45756586511E+01  0.51100000000E-03 0.  1.
        -12    1    3    3    0    0 -0.16704724711E+02 -0.19678354096E+02 -0.63182728090E+01  0.26574537040E+02  0.00000000000E+00 0.  1.
</event>
<event>
 7    1  0.6953847E-012  0.5930172E+02  0.7816164E-02  0.1266606E+00
        -11   -1    0    0    0    0  0.00000000000E+00  0.00000000000E+00  0.45593999997E+02  0.45594000000E+02  0.51100000000E-03 0. -1.
         11   -1    0    0    0    0 -0.00000000000E+00 -0.00000000000E+00 -0.45593999997E+02  0.45594000000E+02  0.51100000000E-03 0.  1.
    9900012    2    1    2    0    0 -0.15867250645E+02  0.16518801841E+02  0.22183207241E+02  0.59301715476E+02  0.49999583174E+02 0.  0.
        -12    1    1    2    0    0  0.15867250645E+02 -0.16518801841E+02 -0.22183207241E+02  0.31886284524E+02  0.00000000000E+00 0.  1.
         11    1    3    3    0    0 -0.17683323966E+02  0.28704785657E+02  0.95462718452E+01  0.35039919699E+02  0.51100000000E-03 0. -1.
        -11    1    3    3    0    0 -0.32041330733E+01  0.20605918805E+01 -0.97058600546E+00  0.39312269210E+01  0.51100000000E-03 0.  1.
        -12    1    3    3    0    0  0.50202063944E+01 -0.14246575697E+02  0.13607521401E+02  0.20330568856E+02  0.00000000000E+00 0.  1.
</event>
<event>
 7    1  0.6953847E-012  0.5930195E+02  0.7816164E-02  0.1266605E+00
        -11   -1    0    0    0    0  0.00000000000E+00  0.00000000000E+00  0.45593999997E+02  0.45594000000E+02  0.51100000000E-03 0.  1.
         11   -1    0    0    0    0 -0.00000000000E+00 -0.00000000000E+00 -0.45593999997E+02  0.45594000000E+02  0.51100000000E-03 0. -1.
    9900012    2    1    2    0    0  0.98441859868E+01 -0.13688096226E+02 -0.27063783264E+02  0.59301947554E+02  0.50000006431E+02 0.  0.
        -12    1    1    2    0    0 -0.98441859868E+01  0.13688096226E+02  0.27063783264E+02  0.31886052446E+02  0.00000000000E+00 0.  1.
         11    1    3    3    0    0  0.14677708414E+01 -0.13784268435E+02  0.13777894417E+00  0.13862878159E+02  0.51100000000E-03 0. -1.
        -11    1    3    3    0    0 -0.14269596343E+00  0.51912433543E+01  0.76249814772E+01  0.92254925337E+01  0.51100000000E-03 0.  1.
        -12    1    3    3    0    0  0.85191111089E+01 -0.50950711450E+01 -0.34826543685E+02  0.36213576862E+02  0.00000000000E+00 0.  1.
</event>
<event>
 7    1  0.6953847E-012  0.5930194E+02  0.7816164E-02  0.1266605E+00
        -11   -1    0    0    0    0  0.00000000000E+00  0.00000000000E+00  0.45593999997E+02  0.45594000000E+02  0.51100000000E-03 0. -1.
         11   -1    0    0    0    0 -0.00000000000E+00 -0.00000000000E+00 -0.45593999997E+02  0.45594000000E+02  0.51100000000E-03 0.  1.
    9900012    2    1    2    0    0  0.98884140276E+01 -0.16293653169E+02  0.25562810218E+02  0.59301935147E+02  0.49999983804E+02 0.  0.
        -12    1    1    2    0    0 -0.98884140276E+01  0.16293653169E+02 -0.25562810218E+02  0.31886064853E+02  0.00000000000E+00 0.  1.
         11    1    3    3    0    0 -0.21413819530E+01 -0.58047303055E+01  0.96188853532E+01  0.11436929933E+02  0.51100000000E-03 0. -1.
        -11    1    3    3    0    0  0.74073729161E+01 -0.26469076048E+02  0.14733277356E+02  0.31185743894E+02  0.51100000000E-03 0.  1.
        -12    1    3    3    0    0  0.46224230646E+01  0.15980153184E+02  0.12106475089E+01  0.16679261320E+02  0.00000000000E+00 0.  1.
</event>
<event>
 7    1  0.6953847E-012  0.5930192E+02  0.7816164E-02  0.1266605E+00
        -11   -1    0    0    0    0  0.00000000000E+00  0.00000000000E+00  0.45593999997E+02  0.45594000000E+02  0.51100000000E-03 0.  1.
         11   -1    0    0    0    0 -0.00000000000E+00 -0.00000000000E+00 -0.45593999997E+02  0.45594000000E+02  0.51100000000E-03 0. -1.
    9900012    2    1    2    0    0  0.18932389247E+02  0.16735937263E+01 -0.25602455314E+02  0.59301921585E+02  0.49999959070E+02 0.  0.
        -12    1    1    2    0    0 -0.18932389247E+02 -0.16735937263E+01  0.25602455314E+02  0.31886078415E+02  0.00000000000E+00 0.  1.
         11    1    3    3    0    0  0.98776431002E+01  0.12865995148E+02 -0.17668321516E+01  0.16316352548E+02  0.51100000000E-03 0. -1.
        -11    1    3    3    0    0  0.42517160989E+01 -0.22712013873E+02 -0.13358246754E+02  0.26689987271E+02  0.51100000000E-03 0.  1.
         12    1    3    3    0    0  0.48030300476E+01  0.11519612451E+02 -0.10477376409E+02  0.16295581765E+02  0.00000000000E+00 0. -1.
</event>
<event>
 7    1  0.6953847E-012  0.5930194E+02  0.7816164E-02  0.1266605E+00
        -11   -1    0    0    0    0  0.00000000000E+00  0.00000000000E+00  0.45593999997E+02  0.45594000000E+02  0.51100000000E-03 0. -1.
         11   -1    0    0    0    0 -0.00000000000E+00 -0.00000000000E+00 -0.45593999997E+02  0.45594000000E+02  0.51100000000E-03 0.  1.
    9900012    2    1    2    0    0  0.11006000896E+02  0.29879752470E+02 -0.16700015579E+01  0.59301943978E+02  0.49999999910E+02 0.  0.
        -12    1    1    2    0    0 -0.11006000896E+02 -0.29879752470E+02  0.16700015579E+01  0.31886056022E+02  0.00000000000E+00 0.  1.
         11    1    3    3    0    0 -0.82474400122E+01  0.63075014304E+01 -0.92466014562E+00  0.10424002959E+02  0.51100000000E-03 0. -1.
        -11    1    3    3    0    0 -0.97337364549E+01  0.90426132335E+00  0.59952926754E+01  0.11467643543E+02  0.51100000000E-03 0.  1.
        -12    1    3    3    0    0  0.28987177364E+02  0.22667989717E+02 -0.67406340876E+01  0.37410297475E+02  0.00000000000E+00 0.  1.
</event>
<event>
 7    1  0.6953847E-012  0.5930194E+02  0.7816164E-02  0.1266605E+00
        -11   -1    0    0    0    0  0.00000000000E+00  0.00000000000E+00  0.45593999997E+02  0.45594000000E+02  0.51100000000E-03 0.  1.
         11   -1    0    0    0    0 -0.00000000000E+00 -0.00000000000E+00 -0.45593999997E+02  0.45594000000E+02  0.51100000000E-03 0. -1.
    9900012    2    1    2    0    0  0.10512642959E+02  0.29743765675E+02 -0.46382726092E+01  0.59301939859E+02  0.49999992398E+02 0.  0.
        -12    1    1    2    0    0 -0.10512642959E+02 -0.29743765675E+02  0.46382726092E+01  0.31886060141E+02  0.00000000000E+00 0.  1.
         11    1    3    3    0    0  0.20187392177E+01 -0.54020963356E+01  0.43998257053E+01  0.72537176225E+01  0.51100000000E-03 0. -1.
        -11    1    3    3    0    0 -0.19593026408E+01 -0.22404629536E+01  0.88264487813E+01  0.93147592258E+01  0.51100000000E-03 0.  1.
         12    1    3    3    0    0  0.10453206382E+02  0.37386324964E+02 -0.17864547096E+02  0.42733463011E+02  0.00000000000E+00 0. -1.
</event>
<event>
 7    1  0.6953847E-012  0.5930193E+02  0.7816164E-02  0.1266605E+00
        -11   -1    0    0    0    0  0.00000000000E+00  0.00000000000E+00  0.45593999997E+02  0.45594000000E+02  0.51100000000E-03 0.  1.
         11   -1    0    0    0    0 -0.00000000000E+00 -0.00000000000E+00 -0.45593999997E+02  0.45594000000E+02  0.51100000000E-03 0. -1.
    9900012    2    1    2    0    0  0.17072504886E+02  0.54319131978E+00 -0.26925006447E+02  0.59301930125E+02  0.49999974645E+02 0.  0.
        -12    1    1    2    0    0 -0.17072504886E+02 -0.54319131978E+00  0.26925006447E+02  0.31886069875E+02  0.00000000000E+00 0.  1.
         11    1    3    3    0    0  0.26313215436E+02 -0.50751540743E+01 -0.24383295083E+02  0.36231030551E+02  0.51100000000E-03 0. -1.
        -11    1    3    3    0    0  0.12287507791E+01 -0.60180450247E+01  0.24919857424E+01  0.66284755108E+01  0.51100000000E-03 0.  1.
        -12    1    3    3    0    0 -0.10469461329E+02  0.11636390419E+02 -0.50336971065E+01  0.16442424063E+02  0.00000000000E+00 0.  1.
</event>
<event>
 7    1  0.6953847E-012  0.5930196E+02  0.7816164E-02  0.1266605E+00
        -11   -1    0    0    0    0  0.00000000000E+00  0.00000000000E+00  0.45593999997E+02  0.45594000000E+02  0.51100000000E-03 0. -1.
         11   -1    0    0    0    0 -0.00000000000E+00 -0.00000000000E+00 -0.45593999997E+02  0.45594000000E+02  0.51100000000E-03 0.  1.
    9900012    2    1    2    0    0 -0.16985456428E+01 -0.22099562641E+02  0.22922555233E+02  0.59301964425E+02  0.50000037201E+02 0.  0.
        -12    1    1    2    0    0  0.16985456428E+01  0.22099562641E+02 -0.22922555233E+02  0.31886035575E+02  0.00000000000E+00 0.  1.
         11    1    3    3    0    0 -0.40308909825E+01  0.10298293205E+02  0.18742354620E+02  0.21761865315E+02  0.51100000000E-03 0. -1.
        -11    1    3    3    0    0 -0.50065398859E+01 -0.12422879451E+01  0.17194419263E+01  0.54373892418E+01  0.51100000000E-03 0.  1.
        -12    1    3    3    0    0  0.73388852256E+01 -0.31155567901E+02  0.24607586873E+01  0.32102709869E+02  0.00000000000E+00 0.  1.
</event>
<event>
 7    1  0.6953847E-012  0.5930190E+02  0.7816164E-02  0.1266605E+00
        -11   -1    0    0    0    0  0.00000000000E+00  0.00000000000E+00  0.45593999997E+02  0.45594000000E+02  0.51100000000E-03 0. -1.
         11   -1    0    0    0    0 -0.00000000000E+00 -0.00000000000E+00 -0.45593999997E+02  0.45594000000E+02  0.51100000000E-03 0.  1.
    9900012    2    1    2    0    0 -0.18114511773E+02 -0.70676228480E+01  0.25271256544E+02  0.59301902139E+02  0.49999923604E+02 0.  0.
        -12    1    1    2    0    0  0.18114511773E+02  0.70676228480E+01 -0.25271256544E+02  0.31886097861E+02  0.00000000000E+00 0.  1.
         11    1    3    3    0    0 -0.10122021315E+02 -0.19557313496E+02 -0.32083404836E+01  0.22253927195E+02  0.51100000000E-03 0. -1.
        -11    1    3    3    0    0 -0.20724426880E+01  0.15120405782E+02  0.12239349386E+02  0.19563316778E+02  0.51100000000E-03 0.  1.
        -12    1    3    3    0    0 -0.59200477702E+01 -0.26307151338E+01  0.16240247642E+02  0.17484658166E+02  0.00000000000E+00 0.  1.
</event>
<event>
 7    1  0.6953847E-012  0.5930195E+02  0.7816164E-02  0.1266605E+00
        -11   -1    0    0    0    0  0.00000000000E+00  0.00000000000E+00  0.45593999997E+02  0.45594000000E+02  0.51100000000E-03 0. -1.
         11   -1    0    0    0    0 -0.00000000000E+00 -0.00000000000E+00 -0.45593999997E+02  0.45594000000E+02  0.51100000000E-03 0.  1.
    9900012    2    1    2    0    0 -0.22921332889E+02  0.86754189569E+01  0.20397794988E+02  0.59301946060E+02  0.50000003707E+02 0.  0.
        -12    1    1    2    0    0  0.22921332889E+02 -0.86754189569E+01 -0.20397794988E+02  0.31886053940E+02  0.00000000000E+00 0.  1.
         11    1    3    3    0    0 -0.19488752517E+02 -0.44470293815E+00 -0.57808945698E+01  0.20332928408E+02  0.51100000000E-03 0. -1.
        -11    1    3    3    0    0  0.67749893533E+01 -0.60018901483E+01  0.15156294732E+02  0.17653227363E+02  0.51100000000E-03 0.  1.
         12    1    3    3    0    0 -0.10207569725E+02  0.15122012043E+02  0.11022394826E+02  0.21315790289E+02  0.00000000000E+00 0. -1.
</event>
<event>
 7    1  0.6953847E-012  0.5930207E+02  0.7816164E-02  0.1266604E+00
        -11   -1    0    0    0    0  0.00000000000E+00  0.00000000000E+00  0.45593999997E+02  0.45594000000E+02  0.51100000000E-03 0.  1.
         11   -1    0    0    0    0 -0.00000000000E+00 -0.00000000000E+00 -0.45593999997E+02  0.45594000000E+02  0.51100000000E-03 0. -1.
    9900012    2    1    2    0    0  0.26870223755E+02  0.15693155817E+02 -0.69590656516E+01  0.59302068010E+02  0.50000226114E+02 0.  0.
        -12    1    1    2    0    0 -0.26870223755E+02 -0.15693155817E+02  0.69590656516E+01  0.31885931990E+02  0.00000000000E+00 0.  1.
         11    1    3    3    0    0  0.39237819102E+01  0.13711683125E+01  0.67376779500E+01  0.79165946871E+01  0.51100000000E-03 0. -1.
        -11    1    3    3    0    0  0.16135573383E+02  0.49492990930E+01  0.13636502672E+02  0.21698075843E+02  0.51100000000E-03 0.  1.
         12    1    3    3    0    0  0.68108684609E+01  0.93726884117E+01 -0.27333246274E+02  0.29687397480E+02  0.00000000000E+00 0. -1.
</event>
<event>
 7    1  0.6953847E-012  0.5930194E+02  0.7816164E-02  0.1266605E+00
        -11   -1    0    0    0    0  0.00000000000E+00  0.00000000000E+00  0.45593999997E+02  0.45594000000E+02  0.51100000000E-03 0. -1.
         11   -1    0    0    0    0 -0.00000000000E+00 -0.00000000000E+00 -0.45593999997E+02  0.45594000000E+02  0.51100000000E-03 0.  1.
    9900012    2    1    2    0    0 -0.19933328285E+02  0.24816895951E+02 -0.18722136672E+01  0.59301935878E+02  0.49999985137E+02 0.  0.
        -12    1    1    2    0    0  0.19933328285E+02 -0.24816895951E+02  0.18722136672E+01  0.31886064122E+02  0.00000000000E+00 0.  1.
         11    1    3    3    0    0 -0.10961321988E+02  0.34639143461E+01 -0.73596991670E+01  0.13649705287E+02  0.51100000000E-03 0. -1.
        -11    1    3    3    0    0 -0.19886614452E+02  0.25041425915E+02 -0.17863190769E+01  0.32027197541E+02  0.51100000000E-03 0.  1.
         12    1    3    3    0    0  0.10914608155E+02 -0.36884443099E+01  0.72738045767E+01  0.13625033051E+02  0.00000000000E+00 0. -1.
</event>
<event>
 7    1  0.6953847E-012  0.5930197E+02  0.7816164E-02  0.1266605E+00
        -11   -1    0    0    0    0  0.00000000000E+00  0.00000000000E+00  0.45593999997E+02  0.45594000000E+02  0.51100000000E-03 0.  1.
         11   -1    0    0    0    0 -0.00000000000E+00 -0.00000000000E+00 -0.45593999997E+02  0.45594000000E+02  0.51100000000E-03 0. -1.
    9900012    2    1    2    0    0  0.17263737789E+02 -0.16853568630E+02 -0.20848007495E+02  0.59301971170E+02  0.50000049501E+02 0.  0.
        -12    1    1    2    0    0 -0.17263737789E+02  0.16853568630E+02  0.20848007495E+02  0.31886028830E+02  0.00000000000E+00 0.  1.
         11    1    3    3    0    0  0.36085002333E+01 -0.57453650882E+01  0.11009278299E+02  0.12931925721E+02  0.51100000000E-03 0. -1.
        -11    1    3    3    0    0 -0.66638461079E+01  0.30955544258E+01 -0.21063383719E+01  0.76436878371E+01  0.51100000000E-03 0.  1.
         12    1    3    3    0    0  0.20319083664E+02 -0.14203757968E+02 -0.29750947422E+02  0.38726357612E+02  0.00000000000E+00 0. -1.
</event>
<event>
 7    1  0.6953847E-012  0.5930195E+02  0.7816164E-02  0.1266605E+00
        -11   -1    0    0    0    0  0.00000000000E+00  0.00000000000E+00  0.45593999997E+02  0.45594000000E+02  0.51100000000E-03 0.  1.
         11   -1    0    0    0    0 -0.00000000000E+00 -0.00000000000E+00 -0.45593999997E+02  0.45594000000E+02  0.51100000000E-03 0. -1.
    9900012    2    1    2    0    0  0.25664121066E+02  0.82746207472E+01 -0.17017749649E+02  0.59301948791E+02  0.50000008687E+02 0.  0.
        -12    1    1    2    0    0 -0.25664121066E+02 -0.82746207472E+01  0.17017749649E+02  0.31886051209E+02  0.00000000000E+00 0.  1.
         11    1    3    3    0    0  0.14511962648E+02  0.31525514927E+01 -0.26210297595E+02  0.30124995288E+02  0.51100000000E-03 0. -1.
        -11    1    3    3    0    0  0.39337568350E+01  0.35116793914E+01 -0.84988613561E+01  0.10001848809E+02  0.51100000000E-03 0.  1.
        -12    1    3    3    0    0  0.72184015828E+01  0.16103898631E+01  0.17691409302E+02  0.19175104694E+02  0.00000000000E+00 0.  1.
</event>
<event>
 7    1  0.6953847E-012  0.5930194E+02  0.7816164E-02  0.1266605E+00
        -11   -1    0    0    0    0  0.00000000000E+00  0.00000000000E+00  0.45593999997E+02  0.45594000000E+02  0.51100000000E-03 0. -1.
         11   -1    0    0    0    0 -0.00000000000E+00 -0.00000000000E+00 -0.45593999997E+02  0.45594000000E+02  0.51100000000E-03 0.  1.
    9900012    2    1    2    0    0  0.29076154934E+02 -0.47824194298E+01  0.12183045431E+02  0.59301938510E+02  0.49999989937E+02 0.  0.
        -12    1    1    2    0    0 -0.29076154934E+02  0.47824194298E+01 -0.12183045431E+02  0.31886061490E+02  0.00000000000E+00 0.  1.
         11    1    3    3    0    0 -0.29198238235E+01  0.53409793640E+00  0.30760840273E+01  0.42746841954E+01  0.51100000000E-03 0. -1.
        -11    1    3    3    0    0  0.39611638588E+02  0.52707686908E+01  0.11889310373E+02  0.41691949051E+02  0.51100000000E-03 0.  1.
         12    1    3    3    0    0 -0.76156598304E+01 -0.10587286057E+02 -0.27823489694E+01  0.13335305264E+02  0.00000000000E+00 0. -1.
</event>
<event>
 7    1  0.6953847E-012  0.5930198E+02  0.7816164E-02  0.1266605E+00
        -11   -1    0    0    0    0  0.00000000000E+00  0.00000000000E+00  0.45593999997E+02  0.45594000000E+02  0.51100000000E-03 0.  1.
         11   -1    0    0    0    0 -0.00000000000E+00 -0.00000000000E+00 -0.45593999997E+02  0.45594000000E+02  0.51100000000E-03 0. -1.
    9900012    2    1    2    0    0 -0.91582202542E+01  0.28378654642E+02 -0.11291465365E+02  0.59301980687E+02  0.50000066858E+02 0.  0.
        -12    1    1    2    0    0  0.91582202542E+01 -0.28378654642E+02  0.11291465365E+02  0.31886019313E+02  0.00000000000E+00 0.  1.
         11    1    3    3    0    0 -0.14230659467E+01 -0.33939746809E+01 -0.11079314015E+02  0.11674561239E+02  0.51100000000E-03 0. -1.
        -11    1    3    3    0    0 -0.23155068517E+01 -0.75306127405E+01 -0.10182150008E+01  0.79440834762E+01  0.51100000000E-03 0.  1.
        -12    1    3    3    0    0 -0.54196474558E+01  0.39303242063E+02  0.80606365055E+00  0.39683335972E+02  0.00000000000E+00 0.  1.
</event>
<event>
 7    1  0.6953847E-012  0.5930196E+02  0.7816164E-02  0.1266605E+00
        -11   -1    0    0    0    0  0.00000000000E+00  0.00000000000E+00  0.45593999997E+02  0.45594000000E+02  0.51100000000E-03 0.  1.
         11   -1    0    0    0    0 -0.00000000000E+00 -0.00000000000E+00 -0.45593999997E+02  0.45594000000E+02  0.51100000000E-03 0. -1.
    9900012    2    1    2    0    0 -0.21814803644E+02  0.82903881545E+01 -0.21727938868E+02  0.59301960402E+02  0.50000029863E+02 0.  0.
        -12    1    1    2    0    0  0.21814803644E+02 -0.82903881545E+01  0.21727938868E+02  0.31886039598E+02  0.00000000000E+00 0.  1.
         11    1    3    3    0    0  0.22495762422E+01  0.38981898284E+01 -0.37803053208E+01  0.58776854107E+01  0.51100000000E-03 0. -1.
        -11    1    3    3    0    0  0.18104396777E+01  0.12742616617E+02 -0.22437809692E+02  0.25867107958E+02  0.51100000000E-03 0.  1.
         12    1    3    3    0    0 -0.25874819564E+02 -0.83504182904E+01  0.44901761453E+01  0.27557167033E+02  0.00000000000E+00 0. -1.
</event>
<event>
 7    1  0.6953847E-012  0.5930193E+02  0.7816164E-02  0.1266605E+00
        -11   -1    0    0    0    0  0.00000000000E+00  0.00000000000E+00  0.45593999997E+02  0.45594000000E+02  0.51100000000E-03 0.  1.
         11   -1    0    0    0    0 -0.00000000000E+00 -0.00000000000E+00 -0.45593999997E+02  0.45594000000E+02  0.51100000000E-03 0. -1.
    9900012    2    1    2    0    0  0.10201404437E+02 -0.30198440206E+02  0.84078888191E+00  0.59301931423E+02  0.49999977012E+02 0.  0.
        -12    1    1    2    0    0 -0.10201404437E+02  0.30198440206E+02 -0.84078888191E+00  0.31886068577E+02  0.00000000000E+00 0.  1.
         11    1    3    3    0    0  0.69464717049E+01  0.14253685033E+01 -0.72090122787E+01  0.10112121578E+02  0.51100000000E-03 0.  1.
        -11    1    3    3    0    0  0.47255600425E+01  0.49044786554E+01 -0.68983461012E+01  0.96939160193E+01  0.51100000000E-03 0. -1.
         12    1    3    3    0    0 -0.14706273106E+01 -0.36528287365E+02  0.14948147262E+02  0.39495893825E+02  0.00000000000E+00 0. -1.
</event>
<event>
 7    1  0.6953847E-012  0.5930193E+02  0.7816164E-02  0.1266605E+00
        -11   -1    0    0    0    0  0.00000000000E+00  0.00000000000E+00  0.45593999997E+02  0.45594000000E+02  0.51100000000E-03 0.  1.
         11   -1    0    0    0    0 -0.00000000000E+00 -0.00000000000E+00 -0.45593999997E+02  0.45594000000E+02  0.51100000000E-03 0. -1.
    9900012    2    1    2    0    0 -0.15283050647E+02 -0.45627728836E+01 -0.27610342088E+02  0.59301929002E+02  0.49999972596E+02 0.  0.
        -12    1    1    2    0    0  0.15283050647E+02  0.45627728836E+01  0.27610342088E+02  0.31886070998E+02  0.00000000000E+00 0.  1.
         11    1    3    3    0    0 -0.56598412395E+01 -0.62121140984E+01 -0.65362073486E+00  0.84291983459E+01  0.51100000000E-03 0. -1.
        -11    1    3    3    0    0 -0.21370812682E+01 -0.18573760979E+02 -0.35201051202E+01  0.19024795757E+02  0.51100000000E-03 0.  1.
         12    1    3    3    0    0 -0.74861281396E+01  0.20223102194E+02 -0.23436616233E+02  0.31847934899E+02  0.00000000000E+00 0. -1.
</event>
<event>
 7    1  0.6953847E-012  0.5930199E+02  0.7816164E-02  0.1266605E+00
        -11   -1    0    0    0    0  0.00000000000E+00  0.00000000000E+00  0.45593999997E+02  0.45594000000E+02  0.51100000000E-03 0. -1.
         11   -1    0    0    0    0 -0.00000000000E+00 -0.00000000000E+00 -0.45593999997E+02  0.45594000000E+02  0.51100000000E-03 0.  1.
    9900012    2    1    2    0    0  0.20867995730E+01  0.14171290902E+02  0.28487494419E+02  0.59301991210E+02  0.50000086050E+02 0.  0.
        -12    1    1    2    0    0 -0.20867995730E+01 -0.14171290902E+02 -0.28487494419E+02  0.31886008790E+02  0.00000000000E+00 0.  1.
         11    1    3    3    0    0  0.17316930204E+02 -0.19117433667E+01  0.27441892862E+02  0.32505204483E+02  0.51100000000E-03 0. -1.
        -11    1    3    3    0    0  0.14187417531E+00  0.14154355358E+01 -0.45979745768E+01  0.48129987022E+01  0.51100000000E-03 0.  1.
        -12    1    3    3    0    0 -0.15372004806E+02  0.14667598733E+02  0.56435761333E+01  0.21983788025E+02  0.00000000000E+00 0.  1.
</event>
<event>
 7    1  0.6953847E-012  0.5930180E+02  0.7816164E-02  0.1266605E+00
        -11   -1    0    0    0    0  0.00000000000E+00  0.00000000000E+00  0.45593999997E+02  0.45594000000E+02  0.51100000000E-03 0.  1.
         11   -1    0    0    0    0 -0.00000000000E+00 -0.00000000000E+00 -0.45593999997E+02  0.45594000000E+02  0.51100000000E-03 0. -1.
    9900012    2    1    2    0    0  0.22447063306E+02 -0.20917281304E+02 -0.86790850265E+01  0.59301798829E+02  0.49999735192E+02 0.  0.
        -12    1    1    2    0    0 -0.22447063306E+02  0.20917281304E+02  0.86790850265E+01  0.31886201171E+02  0.00000000000E+00 0.  1.
         11    1    3    3    0    0  0.96039143400E+01  0.12625461698E+01 -0.10204911148E+02  0.14070160102E+02  0.51100000000E-03 0. -1.
        -11    1    3    3    0    0  0.52984203346E+01  0.10120185567E+02 -0.28535798814E+01  0.11774308148E+02  0.51100000000E-03 0.  1.
         12    1    3    3    0    0  0.75447286308E+01 -0.32300013041E+02  0.43794060031E+01  0.33457330580E+02  0.00000000000E+00 0. -1.
</event>
<event>
 7    1  0.6953847E-012  0.5930198E+02  0.7816164E-02  0.1266605E+00
        -11   -1    0    0    0    0  0.00000000000E+00  0.00000000000E+00  0.45593999997E+02  0.45594000000E+02  0.51100000000E-03 0.  1.
         11   -1    0    0    0    0 -0.00000000000E+00 -0.00000000000E+00 -0.45593999997E+02  0.45594000000E+02  0.51100000000E-03 0. -1.
    9900012    2    1    2    0    0 -0.18878513924E+02 -0.11306715994E+02 -0.23075492351E+02  0.59301977015E+02  0.50000060161E+02 0.  0.
        -12    1    1    2    0    0  0.18878513924E+02  0.11306715994E+02  0.23075492351E+02  0.31886022985E+02  0.00000000000E+00 0.  1.
         11    1    3    3    0    0 -0.74099866920E+01  0.42612863300E+01 -0.21239316423E+02  0.22894868996E+02  0.51100000000E-03 0. -1.
        -11    1    3    3    0    0  0.37269780735E+00  0.89463394997E+01 -0.20330496775E+01  0.91820033409E+01  0.51100000000E-03 0.  1.
         12    1    3    3    0    0 -0.11841225039E+02 -0.24514341824E+02  0.19687374924E+00  0.27225104679E+02  0.00000000000E+00 0. -1.
</event>
<event>
 7    1  0.6953847E-012  0.5930191E+02  0.7816164E-02  0.1266605E+00
        -11   -1    0    0    0    0  0.00000000000E+00  0.00000000000E+00  0.45593999997E+02  0.45594000000E+02  0.51100000000E-03 0.  1.
         11   -1    0    0    0    0 -0.00000000000E+00 -0.00000000000E+00 -0.45593999997E+02  0.45594000000E+02  0.51100000000E-03 0. -1.
    9900012    2    1    2    0    0  0.16705487690E+01 -0.50151770799E+01 -0.31444876409E+02  0.59301906061E+02  0.49999930757E+02 0.  0.
        -12    1    1    2    0    0 -0.16705487690E+01  0.50151770799E+01  0.31444876409E+02  0.31886093939E+02  0.00000000000E+00 0.  1.
         11    1    3    3    0    0 -0.10249700506E+02 -0.20089064924E+00 -0.14536636494E+02  0.17787931818E+02  0.51100000000E-03 0. -1.
        -11    1    3    3    0    0 -0.12659509688E+02  0.26011084351E+00 -0.39247075569E+01  0.13256476638E+02  0.51100000000E-03 0.  1.
        -12    1    3    3    0    0  0.24579758963E+02 -0.50743972742E+01 -0.12983532358E+02  0.28257497605E+02  0.00000000000E+00 0.  1.
</event>
<event>
 7    1  0.6953847E-012  0.5930196E+02  0.7816164E-02  0.1266605E+00
        -11   -1    0    0    0    0  0.00000000000E+00  0.00000000000E+00  0.45593999997E+02  0.45594000000E+02  0.51100000000E-03 0.  1.
         11   -1    0    0    0    0 -0.00000000000E+00 -0.00000000000E+00 -0.45593999997E+02  0.45594000000E+02  0.51100000000E-03 0. -1.
    9900012    2    1    2    0    0  0.12581139099E+02  0.71902039870E+01 -0.28403093454E+02  0.59301955840E+02  0.50000021543E+02 0.  0.
        -12    1    1    2    0    0 -0.12581139099E+02 -0.71902039870E+01  0.28403093454E+02  0.31886044160E+02  0.00000000000E+00 0.  1.
         11    1    3    3    0    0  0.40554505534E+01  0.73394446371E+01 -0.69058575339E+01  0.10863010417E+02  0.51100000000E-03 0. -1.
        -11    1    3    3    0    0  0.21408513957E+02 -0.12287484460E+02 -0.72785874188E+01  0.25734890310E+02  0.51100000000E-03 0.  1.
         12    1    3    3    0    0 -0.12882825412E+02  0.12138243809E+02 -0.14218648501E+02  0.22704055113E+02  0.00000000000E+00 0. -1.
</event>
<event>
 7    1  0.6953847E-012  0.5930192E+02  0.7816164E-02  0.1266605E+00
        -11   -1    0    0    0    0  0.00000000000E+00  0.00000000000E+00  0.45593999997E+02  0.45594000000E+02  0.51100000000E-03 0. -1.
         11   -1    0    0    0    0 -0.00000000000E+00 -0.00000000000E+00 -0.45593999997E+02  0.45594000000E+02  0.51100000000E-03 0.  1.
    9900012    2    1    2    0    0  0.98797656758E+01  0.27598155797E+02  0.12548069454E+02  0.59301921216E+02  0.49999958396E+02 0.  0.
        -12    1    1    2    0    0 -0.98797656758E+01 -0.27598155797E+02 -0.12548069454E+02  0.31886078784E+02  0.00000000000E+00 0.  1.
         11    1    3    3    0    0  0.63641750962E+01 -0.37679846436E+01 -0.19483860735E+01  0.76483097140E+01  0.51100000000E-03 0. -1.
        -11    1    3    3    0    0 -0.12964343578E+02  0.19258212040E+02 -0.46081921750E+01  0.23668298857E+02  0.51100000000E-03 0.  1.
         12    1    3    3    0    0  0.16479934157E+02  0.12107928400E+02  0.19104647703E+02  0.27985312645E+02  0.00000000000E+00 0. -1.
</event>
<event>
 7    1  0.6953847E-012  0.5930195E+02  0.7816164E-02  0.1266605E+00
        -11   -1    0    0    0    0  0.00000000000E+00  0.00000000000E+00  0.45593999997E+02  0.45594000000E+02  0.51100000000E-03 0. -1.
         11   -1    0    0    0    0 -0.00000000000E+00 -0.00000000000E+00 -0.45593999997E+02  0.45594000000E+02  0.51100000000E-03 0.  1.
    9900012    2    1    2    0    0 -0.69669660023E+01 -0.21500483243E+02  0.22492466227E+02  0.59301946121E+02  0.50000003818E+02 0.  0.
        -12    1    1    2    0    0  0.69669660023E+01  0.21500483243E+02 -0.22492466227E+02  0.31886053879E+02  0.00000000000E+00 0.  1.
         11    1    3    3    0    0 -0.26802983500E+01 -0.22901815492E+02  0.30934450460E+01  0.23264706200E+02  0.51100000000E-03 0. -1.
        -11    1    3    3    0    0  0.12451789461E+02 -0.32521787310E+01  0.98989976623E+01  0.16236190509E+02  0.51100000000E-03 0.  1.
         12    1    3    3    0    0 -0.16738457113E+02  0.46535109794E+01  0.95000235192E+01  0.19801049412E+02  0.00000000000E+00 0. -1.
</event>
<event>
 7    1  0.6953847E-012  0.5930195E+02  0.7816164E-02  0.1266605E+00
        -11   -1    0    0    0    0  0.00000000000E+00  0.00000000000E+00  0.45593999997E+02  0.45594000000E+02  0.51100000000E-03 0. -1.
         11   -1    0    0    0    0 -0.00000000000E+00 -0.00000000000E+00 -0.45593999997E+02  0.45594000000E+02  0.51100000000E-03 0.  1.
    9900012    2    1    2    0    0 -0.13392904115E+02  0.15307293685E+02  0.24556816860E+02  0.59301947016E+02  0.50000005450E+02 0.  0.
        -12    1    1    2    0    0  0.13392904115E+02 -0.15307293685E+02 -0.24556816860E+02  0.31886052984E+02  0.00000000000E+00 0.  1.
         11    1    3    3    0    0 -0.11782287800E+02 -0.88394548670E+01  0.98217893777E+01  0.17703836166E+02  0.51100000000E-03 0. -1.
        -11    1    3    3    0    0 -0.24724056000E+01 -0.66729497686E+01 -0.64083158849E+00  0.71450481770E+01  0.51100000000E-03 0.  1.
         12    1    3    3    0    0  0.86178928498E+00  0.30819698321E+02  0.15375859071E+02  0.34453062673E+02  0.00000000000E+00 0. -1.
</event>
<event>
 7    1  0.6953847E-012  0.5930194E+02  0.7816164E-02  0.1266605E+00
        -11   -1    0    0    0    0  0.00000000000E+00  0.00000000000E+00  0.45593999997E+02  0.45594000000E+02  0.51100000000E-03 0. -1.
         11   -1    0    0    0    0 -0.00000000000E+00 -0.00000000000E+00 -0.45593999997E+02  0.45594000000E+02  0.51100000000E-03 0.  1.
    9900012    2    1    2    0    0 -0.30488277597E+02 -0.58678206145E+01  0.72632055030E+01  0.59301944368E+02  0.50000000620E+02 0.  0.
        -12    1    1    2    0    0  0.30488277597E+02  0.58678206145E+01 -0.72632055030E+01  0.31886055632E+02  0.00000000000E+00 0.  1.
         11    1    3    3    0    0 -0.26704267263E+02  0.20235165833E+01 -0.93753597713E+00  0.26797229025E+02  0.51100000000E-03 0. -1.
        -11    1    3    3    0    0 -0.13797389317E+02  0.41640263763E+01 -0.79647207676E+00  0.14434037400E+02  0.51100000000E-03 0.  1.
        -12    1    3    3    0    0  0.10013378983E+02 -0.12055363574E+02  0.89972135569E+01  0.18070677944E+02  0.00000000000E+00 0.  1.
</event>
<event>
 7    1  0.6953847E-012  0.5930194E+02  0.7816164E-02  0.1266605E+00
        -11   -1    0    0    0    0  0.00000000000E+00  0.00000000000E+00  0.45593999997E+02  0.45594000000E+02  0.51100000000E-03 0. -1.
         11   -1    0    0    0    0 -0.00000000000E+00 -0.00000000000E+00 -0.45593999997E+02  0.45594000000E+02  0.51100000000E-03 0.  1.
    9900012    2    1    2    0    0  0.36618545916E+01 -0.51023934970E-01  0.31675056949E+02  0.59301936975E+02  0.49999987138E+02 0.  0.
        -12    1    1    2    0    0 -0.36618545916E+01  0.51023934970E-01 -0.31675056949E+02  0.31886063025E+02  0.00000000000E+00 0.  1.
         11    1    3    3    0    0 -0.70276069926E+01 -0.18081626497E+02  0.26333733280E+02  0.32707766441E+02  0.51100000000E-03 0. -1.
        -11    1    3    3    0    0  0.35909073842E-01  0.47667316609E+00  0.60298704490E+01  0.60487886938E+01  0.51100000000E-03 0.  1.
        -12    1    3    3    0    0  0.10653552510E+02  0.17553929396E+02 -0.68854678005E+00  0.20545381841E+02  0.00000000000E+00 0.  1.
</event>
<event>
 7    1  0.6953847E-012  0.5930195E+02  0.7816164E-02  0.1266605E+00
        -11   -1    0    0    0    0  0.00000000000E+00  0.00000000000E+00  0.45593999997E+02  0.45594000000E+02  0.51100000000E-03 0.  1.
         11   -1    0    0    0    0 -0.00000000000E+00 -0.00000000000E+00 -0.45593999997E+02  0.45594000000E+02  0.51100000000E-03 0. -1.
    9900012    2    1    2    0    0 -0.76382422516E+01 -0.22727733663E+01 -0.30874127727E+02  0.59301952795E+02  0.50000015990E+02 0.  0.
        -12    1    1    2    0    0  0.76382422516E+01  0.22727733663E+01  0.30874127727E+02  0.31886047205E+02  0.00000000000E+00 0.  1.
         11    1    3    3    0    0  0.13711914101E+02 -0.88887694226E-01 -0.77193707430E+01  0.15735729225E+02  0.51100000000E-03 0. -1.
        -11    1    3    3    0    0  0.56248685739E+01  0.50035996776E+01 -0.37903526458E+00  0.75378262251E+01  0.51100000000E-03 0.  1.
         12    1    3    3    0    0 -0.26975024926E+02 -0.71874853497E+01 -0.22775721719E+02  0.36028397345E+02  0.00000000000E+00 0. -1.
</event>
<event>
 7    1  0.6953847E-012  0.5930193E+02  0.7816164E-02  0.1266605E+00
        -11   -1    0    0    0    0  0.00000000000E+00  0.00000000000E+00  0.45593999997E+02  0.45594000000E+02  0.51100000000E-03 0. -1.
         11   -1    0    0    0    0 -0.00000000000E+00 -0.00000000000E+00 -0.45593999997E+02  0.45594000000E+02  0.51100000000E-03 0.  1.
    9900012    2    1    2    0    0  0.14345786279E+02  0.27073492553E+02  0.88286799224E+01  0.59301934514E+02  0.49999982649E+02 0.  0.
        -12    1    1    2    0    0 -0.14345786279E+02 -0.27073492553E+02 -0.88286799224E+01  0.31886065486E+02  0.00000000000E+00 0.  1.
         11    1    3    3    0    0  0.34205803339E+01 -0.61322601180E+00  0.50041784030E+01  0.60924722168E+01  0.51100000000E-03 0. -1.
        -11    1    3    3    0    0 -0.24139587153E+01  0.14334281005E+02  0.22416096496E+02  0.26716665042E+02  0.51100000000E-03 0.  1.
        -12    1    3    3    0    0  0.13339164661E+02  0.13352437560E+02 -0.18591594976E+02  0.26492797255E+02  0.00000000000E+00 0.  1.
</event>
<event>
 7    1  0.6953847E-012  0.5930192E+02  0.7816164E-02  0.1266605E+00
        -11   -1    0    0    0    0  0.00000000000E+00  0.00000000000E+00  0.45593999997E+02  0.45594000000E+02  0.51100000000E-03 0.  1.
         11   -1    0    0    0    0 -0.00000000000E+00 -0.00000000000E+00 -0.45593999997E+02  0.45594000000E+02  0.51100000000E-03 0. -1.
    9900012    2    1    2    0    0 -0.24296336651E+02 -0.20177914387E+02  0.43888102521E+01  0.59301923742E+02  0.49999963004E+02 0.  0.
        -12    1    1    2    0    0  0.24296336651E+02  0.20177914387E+02 -0.43888102521E+01  0.31886076258E+02  0.00000000000E+00 0.  1.
         11    1    3    3    0    0 -0.30925274432E+02 -0.57224962528E+01 -0.12041604591E+02  0.33676695258E+02  0.51100000000E-03 0. -1.
        -11    1    3    3    0    0 -0.10089333701E+01 -0.30956540649E+01 -0.10516404150E+01  0.34215447474E+01  0.51100000000E-03 0.  1.
        -12    1    3    3    0    0  0.76378711515E+01 -0.11359764069E+02  0.17482055258E+02  0.22203683737E+02  0.00000000000E+00 0.  1.
</event>
<event>
 7    1  0.6953847E-012  0.5930195E+02  0.7816164E-02  0.1266605E+00
        -11   -1    0    0    0    0  0.00000000000E+00  0.00000000000E+00  0.45593999997E+02  0.45594000000E+02  0.51100000000E-03 0. -1.
         11   -1    0    0    0    0 -0.00000000000E+00 -0.00000000000E+00 -0.45593999997E+02  0.45594000000E+02  0.51100000000E-03 0.  1.
    9900012    2    1    2    0    0  0.85219057362E+01 -0.23846156625E+02  0.19376735249E+02  0.59301953960E+02  0.50000018114E+02 0.  0.
        -12    1    1    2    0    0 -0.85219057362E+01  0.23846156625E+02 -0.19376735249E+02  0.31886046040E+02  0.00000000000E+00 0.  1.
         11    1    3    3    0    0  0.81550554053E+01 -0.39192498189E+01 -0.85092009341E+01  0.12420625934E+02  0.51100000000E-03 0. -1.
        -11    1    3    3    0    0  0.15474824332E+01  0.31799771028E+00 -0.66481020178E+01  0.68332338703E+01  0.51100000000E-03 0.  1.
         12    1    3    3    0    0 -0.11806321023E+01 -0.20244904516E+02  0.34534038201E+02  0.40048094155E+02  0.00000000000E+00 0. -1.
</event>
<event>
 7    1  0.6953847E-012  0.5930197E+02  0.7816164E-02  0.1266605E+00
        -11   -1    0    0    0    0  0.00000000000E+00  0.00000000000E+00  0.45593999997E+02  0.45594000000E+02  0.51100000000E-03 0.  1.
         11   -1    0    0    0    0 -0.00000000000E+00 -0.00000000000E+00 -0.45593999997E+02  0.45594000000E+02  0.51100000000E-03 0. -1.
    9900012    2    1    2    0    0  0.12425734001E+01 -0.31337161461E+02 -0.57582551331E+01  0.59301965765E+02  0.50000039643E+02 0.  0.
        -12    1    1    2    0    0 -0.12425734001E+01  0.31337161461E+02  0.57582551331E+01  0.31886034235E+02  0.00000000000E+00 0.  1.
         11    1    3    3    0    0  0.15569495050E+01 -0.25965989086E+02 -0.87716506688E-01  0.26012773312E+02  0.51100000000E-03 0. -1.
        -11    1    3    3    0    0 -0.10860799995E+02 -0.14955853136E+02 -0.42644112253E+01  0.18968914647E+02  0.51100000000E-03 0.  1.
         12    1    3    3    0    0  0.10546423890E+02  0.95846807604E+01 -0.14061274011E+01  0.14320277805E+02  0.00000000000E+00 0. -1.
</event>
<event>
 7    1  0.6953847E-012  0.5930192E+02  0.7816164E-02  0.1266605E+00
        -11   -1    0    0    0    0  0.00000000000E+00  0.00000000000E+00  0.45593999997E+02  0.45594000000E+02  0.51100000000E-03 0.  1.
         11   -1    0    0    0    0 -0.00000000000E+00 -0.00000000000E+00 -0.45593999997E+02  0.45594000000E+02  0.51100000000E-03 0. -1.
    9900012    2    1    2    0    0 -0.18276785823E+02  0.23675054283E+01 -0.26020685321E+02  0.59301920803E+02  0.49999957644E+02 0.  0.
        -12    1    1    2    0    0  0.18276785823E+02 -0.23675054283E+01  0.26020685321E+02  0.31886079197E+02  0.00000000000E+00 0.  1.
         11    1    3    3    0    0  0.40339795474E+01  0.25717437920E+01  0.46327885910E+01  0.66595485966E+01  0.51100000000E-03 0. -1.
        -11    1    3    3    0    0 -0.19100669335E+02  0.32309679106E+01  0.21615608332E+01  0.19492230970E+02  0.51100000000E-03 0.  1.
         12    1    3    3    0    0 -0.32100960354E+01 -0.34352062744E+01 -0.32815034745E+02  0.33150141237E+02  0.00000000000E+00 0. -1.
</event>
<event>
 7    1  0.6953847E-012  0.5930204E+02  0.7816164E-02  0.1266604E+00
        -11   -1    0    0    0    0  0.00000000000E+00  0.00000000000E+00  0.45593999997E+02  0.45594000000E+02  0.51100000000E-03 0.  1.
         11   -1    0    0    0    0 -0.00000000000E+00 -0.00000000000E+00 -0.45593999997E+02  0.45594000000E+02  0.51100000000E-03 0. -1.
    9900012    2    1    2    0    0 -0.30073759664E+02  0.10570200536E+02 -0.74447156587E+00  0.59302040745E+02  0.50000176389E+02 0.  0.
        -12    1    1    2    0    0  0.30073759664E+02 -0.10570200536E+02  0.74447156587E+00  0.31885959255E+02  0.00000000000E+00 0.  1.
         11    1    3    3    0    0  0.15354866771E+01 -0.11909840803E+02 -0.17626813446E+01  0.12137094919E+02  0.51100000000E-03 0. -1.
        -11    1    3    3    0    0  0.30849766845E+01 -0.87968024546E+00  0.41235322176E+01  0.52244077836E+01  0.51100000000E-03 0.  1.
        -12    1    3    3    0    0 -0.34694223025E+02  0.23359721585E+02 -0.31053224389E+01  0.41940538043E+02  0.00000000000E+00 0.  1.
</event>
<event>
 7    1  0.6953847E-012  0.5930215E+02  0.7816164E-02  0.1266604E+00
        -11   -1    0    0    0    0  0.00000000000E+00  0.00000000000E+00  0.45593999997E+02  0.45594000000E+02  0.51100000000E-03 0.  1.
         11   -1    0    0    0    0 -0.00000000000E+00 -0.00000000000E+00 -0.45593999997E+02  0.45594000000E+02  0.51100000000E-03 0. -1.
    9900012    2    1    2    0    0 -0.18676692296E+02  0.16471857906E+02 -0.19913977430E+02  0.59302149924E+02  0.50000375504E+02 0.  0.
        -12    1    1    2    0    0  0.18676692296E+02 -0.16471857906E+02  0.19913977430E+02  0.31885850076E+02  0.00000000000E+00 0.  1.
         11    1    3    3    0    0  0.24876138312E+01  0.56033510644E+01 -0.17327401456E+02  0.18380005636E+02  0.51100000000E-03 0. -1.
        -11    1    3    3    0    0 -0.13636651073E+02 -0.81369305846E+01 -0.10461235786E+02  0.19015923492E+02  0.51100000000E-03 0.  1.
        -12    1    3    3    0    0 -0.75276550538E+01  0.19005437426E+02  0.78746598120E+01  0.21906220795E+02  0.00000000000E+00 0.  1.
</event>
<event>
 7    1  0.6953847E-012  0.5930199E+02  0.7816164E-02  0.1266605E+00
        -11   -1    0    0    0    0  0.00000000000E+00  0.00000000000E+00  0.45593999997E+02  0.45594000000E+02  0.51100000000E-03 0. -1.
         11   -1    0    0    0    0 -0.00000000000E+00 -0.00000000000E+00 -0.45593999997E+02  0.45594000000E+02  0.51100000000E-03 0.  1.
    9900012    2    1    2    0    0  0.28910990166E+02  0.12933358563E+02  0.36878725675E+01  0.59301991781E+02  0.50000087090E+02 0.  0.
        -12    1    1    2    0    0 -0.28910990166E+02 -0.12933358563E+02 -0.36878725675E+01  0.31886008219E+02  0.00000000000E+00 0.  1.
         11    1    3    3    0    0  0.36817126180E+02  0.15354221330E+02  0.98447925952E+01  0.41087380475E+02  0.51100000000E-03 0. -1.
        -11    1    3    3    0    0 -0.54315465818E+01  0.68066332987E+00  0.43445518702E+01  0.69885715316E+01  0.51100000000E-03 0.  1.
        -12    1    3    3    0    0 -0.24745894325E+01 -0.31015260967E+01 -0.10501471898E+02  0.11226039774E+02  0.00000000000E+00 0.  1.
</event>
<event>
 7    1  0.6953847E-012  0.5930198E+02  0.7816164E-02  0.1266605E+00
        -11   -1    0    0    0    0  0.00000000000E+00  0.00000000000E+00  0.45593999997E+02  0.45594000000E+02  0.51100000000E-03 0. -1.
         11   -1    0    0    0    0 -0.00000000000E+00 -0.00000000000E+00 -0.45593999997E+02  0.45594000000E+02  0.51100000000E-03 0.  1.
    9900012    2    1    2    0    0  0.14658478853E+02 -0.21575856034E+02  0.18339298705E+02  0.59301977312E+02  0.50000060703E+02 0.  0.
        -12    1    1    2    0    0 -0.14658478853E+02  0.21575856034E+02 -0.18339298705E+02  0.31886022688E+02  0.00000000000E+00 0.  1.
         11    1    3    3    0    0 -0.58292385675E+01 -0.30807726241E+01  0.62515336207E+01  0.90858601744E+01  0.51100000000E-03 0. -1.
        -11    1    3    3    0    0 -0.52340483682E+01  0.73941209454E+01  0.10243760290E+02  0.13674900805E+02  0.51100000000E-03 0.  1.
         12    1    3    3    0    0  0.25721765788E+02 -0.25889204355E+02  0.18440047943E+01  0.36541216333E+02  0.00000000000E+00 0. -1.
</event>
<event>
 7    1  0.6953847E-012  0.5930194E+02  0.7816164E-02  0.1266605E+00
        -11   -1    0    0    0    0  0.00000000000E+00  0.00000000000E+00  0.45593999997E+02  0.45594000000E+02  0.51100000000E-03 0.  1.
         11   -1    0    0    0    0 -0.00000000000E+00 -0.00000000000E+00 -0.45593999997E+02  0.45594000000E+02  0.51100000000E-03 0. -1.
    9900012    2    1    2    0    0 -0.29089570692E+02  0.12994183760E+02 -0.12917603129E+01  0.59301943810E+02  0.49999999604E+02 0.  0.
        -12    1    1    2    0    0  0.29089570692E+02 -0.12994183760E+02  0.12917603129E+01  0.31886056190E+02  0.00000000000E+00 0.  1.
         11    1    3    3    0    0 -0.44038077928E+01 -0.86395952646E+01  0.22979923135E+00  0.96999452246E+01  0.51100000000E-03 0. -1.
        -11    1    3    3    0    0 -0.13222600167E+02  0.34782083234E+00 -0.16511029917E+02  0.21155903282E+02  0.51100000000E-03 0.  1.
        -12    1    3    3    0    0 -0.11463162732E+02  0.21285958192E+02  0.14989470372E+02  0.28446095304E+02  0.00000000000E+00 0.  1.
</event>
<event>
 7    1  0.6953847E-012  0.5930195E+02  0.7816164E-02  0.1266605E+00
        -11   -1    0    0    0    0  0.00000000000E+00  0.00000000000E+00  0.45593999997E+02  0.45594000000E+02  0.51100000000E-03 0. -1.
         11   -1    0    0    0    0 -0.00000000000E+00 -0.00000000000E+00 -0.45593999997E+02  0.45594000000E+02  0.51100000000E-03 0.  1.
    9900012    2    1    2    0    0  0.15856112450E+02  0.26006499923E+02 -0.94321834117E+01  0.59301946243E+02  0.50000004040E+02 0.  0.
        -12    1    1    2    0    0 -0.15856112450E+02 -0.26006499923E+02  0.94321834117E+01  0.31886053757E+02  0.00000000000E+00 0.  1.
         11    1    3    3    0    0  0.89615874541E+01  0.97563276954E+01  0.13102216106E+02  0.18632338740E+02  0.51100000000E-03 0. -1.
        -11    1    3    3    0    0  0.16885748330E+02  0.30422897869E+01 -0.96374359334E+01  0.19679029332E+02  0.51100000000E-03 0.  1.
        -12    1    3    3    0    0 -0.99912233338E+01  0.13207882441E+02 -0.12896963584E+02  0.20990578171E+02  0.00000000000E+00 0.  1.
</event>
<event>
 7    1  0.6953847E-012  0.5930198E+02  0.7816164E-02  0.1266605E+00
        -11   -1    0    0    0    0  0.00000000000E+00  0.00000000000E+00  0.45593999997E+02  0.45594000000E+02  0.51100000000E-03 0. -1.
         11   -1    0    0    0    0 -0.00000000000E+00 -0.00000000000E+00 -0.45593999997E+02  0.45594000000E+02  0.51100000000E-03 0.  1.
    9900012    2    1    2    0    0  0.29138135568E+02  0.23034371607E+01  0.12742905836E+02  0.59301977729E+02  0.50000061463E+02 0.  0.
        -12    1    1    2    0    0 -0.29138135568E+02 -0.23034371607E+01 -0.12742905836E+02  0.31886022271E+02  0.00000000000E+00 0.  1.
         11    1    3    3    0    0  0.80994387035E+01  0.24536199477E+01  0.72451338659E+01  0.11140606947E+02  0.51100000000E-03 0. -1.
        -11    1    3    3    0    0  0.42393567371E+01  0.11037116915E+02  0.20051653374E+02  0.23277862845E+02  0.51100000000E-03 0.  1.
        -12    1    3    3    0    0  0.16799340127E+02 -0.11187299702E+02 -0.14553881404E+02  0.24883507937E+02  0.00000000000E+00 0.  1.
</event>
<event>
 7    1  0.6953847E-012  0.5930194E+02  0.7816164E-02  0.1266605E+00
        -11   -1    0    0    0    0  0.00000000000E+00  0.00000000000E+00  0.45593999997E+02  0.45594000000E+02  0.51100000000E-03 0.  1.
         11   -1    0    0    0    0 -0.00000000000E+00 -0.00000000000E+00 -0.45593999997E+02  0.45594000000E+02  0.51100000000E-03 0. -1.
    9900012    2    1    2    0    0  0.12488550984E+01  0.20397008988E+02 -0.24476993169E+02  0.59301940204E+02  0.49999993027E+02 0.  0.
        -12    1    1    2    0    0 -0.12488550984E+01 -0.20397008988E+02  0.24476993169E+02  0.31886059796E+02  0.00000000000E+00 0.  1.
         11    1    3    3    0    0  0.55121824690E+01 -0.26337252409E+01  0.86619258432E+01  0.10599510545E+02  0.51100000000E-03 0. -1.
        -11    1    3    3    0    0  0.20429414462E+01 -0.22420440498E+01  0.29261259954E+01  0.42145681719E+01  0.51100000000E-03 0.  1.
         12    1    3    3    0    0 -0.63062688168E+01  0.25272778278E+02 -0.36065045008E+02  0.44487861487E+02  0.00000000000E+00 0. -1.
</event>
<event>
 7    1  0.6953847E-012  0.5930195E+02  0.7816164E-02  0.1266605E+00
        -11   -1    0    0    0    0  0.00000000000E+00  0.00000000000E+00  0.45593999997E+02  0.45594000000E+02  0.51100000000E-03 0. -1.
         11   -1    0    0    0    0 -0.00000000000E+00 -0.00000000000E+00 -0.45593999997E+02  0.45594000000E+02  0.51100000000E-03 0.  1.
    9900012    2    1    2    0    0 -0.16827227007E+02 -0.12046339512E+02  0.24258000926E+02  0.59301945473E+02  0.50000002635E+02 0.  0.
        -12    1    1    2    0    0  0.16827227007E+02  0.12046339512E+02 -0.24258000926E+02  0.31886054527E+02  0.00000000000E+00 0.  1.
         11    1    3    3    0    0  0.26900971843E+01 -0.16020461650E+02  0.21328044513E+02  0.26810022330E+02  0.51100000000E-03 0. -1.
        -11    1    3    3    0    0 -0.22175195463E+01 -0.94559126842E+01  0.41391784524E+01  0.10557673804E+02  0.51100000000E-03 0.  1.
        -12    1    3    3    0    0 -0.17299804645E+02  0.13430034823E+02 -0.12092220387E+01  0.21934249338E+02  0.00000000000E+00 0.  1.
</event>
<event>
 7    1  0.6953847E-012  0.5930192E+02  0.7816164E-02  0.1266605E+00
        -11   -1    0    0    0    0  0.00000000000E+00  0.00000000000E+00  0.45593999997E+02  0.45594000000E+02  0.51100000000E-03 0.  1.
         11   -1    0    0    0    0 -0.00000000000E+00 -0.00000000000E+00 -0.45593999997E+02  0.45594000000E+02  0.51100000000E-03 0. -1.
    9900012    2    1    2    0    0  0.49258529277E+01 -0.17979036039E+02 -0.25869133841E+02  0.59301923891E+02  0.49999963275E+02 0.  0.
        -12    1    1    2    0    0 -0.49258529277E+01  0.17979036039E+02  0.25869133841E+02  0.31886076109E+02  0.00000000000E+00 0.  1.
         11    1    3    3    0    0 -0.93396412459E+01 -0.74788220141E+01 -0.11487274553E+02  0.16586716198E+02  0.51100000000E-03 0. -1.
        -11    1    3    3    0    0 -0.76909116950E+01 -0.12464459190E+02 -0.14585717872E+02  0.20670172513E+02  0.51100000000E-03 0.  1.
        -12    1    3    3    0    0  0.21956405869E+02  0.19642451657E+01  0.20385858485E+00  0.22045035179E+02  0.00000000000E+00 0.  1.
</event>
<event>
 7    1  0.6953847E-012  0.5930195E+02  0.7816164E-02  0.1266605E+00
        -11   -1    0    0    0    0  0.00000000000E+00  0.00000000000E+00  0.45593999997E+02  0.45594000000E+02  0.51100000000E-03 0. -1.
         11   -1    0    0    0    0 -0.00000000000E+00 -0.00000000000E+00 -0.45593999997E+02  0.45594000000E+02  0.51100000000E-03 0.  1.
    9900012    2    1    2    0    0 -0.31167019420E+02  0.65903062015E+01  0.13801467624E+01  0.59301952261E+02  0.50000015015E+02 0.  0.
        -12    1    1    2    0    0  0.31167019420E+02 -0.65903062015E+01 -0.13801467624E+01  0.31886047739E+02  0.00000000000E+00 0.  1.
         11    1    3    3    0    0  0.54308604677E+01  0.10340661339E+02 -0.10812625564E+02  0.15916544668E+02  0.51100000000E-03 0. -1.
        -11    1    3    3    0    0  0.11549378496E+01 -0.12237613665E+01 -0.23151805215E+01  0.28620856778E+01  0.51100000000E-03 0.  1.
         12    1    3    3    0    0 -0.37752817737E+02 -0.25265937707E+01  0.14507952848E+02  0.40523321915E+02  0.00000000000E+00 0. -1.
</event>
<event>
 7    1  0.6953847E-012  0.5930193E+02  0.7816164E-02  0.1266605E+00
        -11   -1    0    0    0    0  0.00000000000E+00  0.00000000000E+00  0.45593999997E+02  0.45594000000E+02  0.51100000000E-03 0.  1.
         11   -1    0    0    0    0 -0.00000000000E+00 -0.00000000000E+00 -0.45593999997E+02  0.45594000000E+02  0.51100000000E-03 0. -1.
    9900012    2    1    2    0    0 -0.15599879004E+01  0.20359602220E+02 -0.24490290214E+02  0.59301932830E+02  0.49999979578E+02 0.  0.
        -12    1    1    2    0    0  0.15599879004E+01 -0.20359602220E+02  0.24490290214E+02  0.31886067170E+02  0.00000000000E+00 0.  1.
         11    1    3    3    0    0 -0.32498737215E+01 -0.50130657650E+01  0.60636581227E+01  0.85123708601E+01  0.51100000000E-03 0. -1.
        -11    1    3    3    0    0  0.76200812281E+01 -0.47113059687E+01 -0.26809267196E+01  0.93514389369E+01  0.51100000000E-03 0.  1.
         12    1    3    3    0    0 -0.59301954070E+01  0.30083973953E+02 -0.27873021618E+02  0.41438123033E+02  0.00000000000E+00 0. -1.
</event>
<event>
 7    1  0.6953847E-012  0.5930194E+02  0.7816164E-02  0.1266605E+00
        -11   -1    0    0    0    0  0.00000000000E+00  0.00000000000E+00  0.45593999997E+02  0.45594000000E+02  0.51100000000E-03 0.  1.
         11   -1    0    0    0    0 -0.00000000000E+00 -0.00000000000E+00 -0.45593999997E+02  0.45594000000E+02  0.51100000000E-03 0. -1.
    9900012    2    1    2    0    0 -0.31818601955E+01  0.17923730832E+00 -0.31726403969E+02  0.59301936130E+02  0.49999985597E+02 0.  0.
        -12    1    1    2    0    0  0.31818601955E+01 -0.17923730832E+00  0.31726403969E+02  0.31886063870E+02  0.00000000000E+00 0.  1.
         11    1    3    3    0    0 -0.21536134436E+02 -0.46462841651E+01 -0.87831349958E+01  0.23717852003E+02  0.51100000000E-03 0. -1.
        -11    1    3    3    0    0 -0.39553136943E+01  0.46356842746E+00 -0.61294699138E+01  0.73095693302E+01  0.51100000000E-03 0.  1.
        -12    1    3    3    0    0  0.22309587935E+02  0.43619530460E+01 -0.16813799059E+02  0.28274514797E+02  0.00000000000E+00 0.  1.
</event>
<event>
 7    1  0.6953847E-012  0.5930191E+02  0.7816164E-02  0.1266605E+00
        -11   -1    0    0    0    0  0.00000000000E+00  0.00000000000E+00  0.45593999997E+02  0.45594000000E+02  0.51100000000E-03 0.  1.
         11   -1    0    0    0    0 -0.00000000000E+00 -0.00000000000E+00 -0.45593999997E+02  0.45594000000E+02  0.51100000000E-03 0. -1.
    9900012    2    1    2    0    0 -0.11357499046E+02 -0.96947776714E+01 -0.28173417207E+02  0.59301906859E+02  0.49999932212E+02 0.  0.
        -12    1    1    2    0    0  0.11357499046E+02  0.96947776714E+01  0.28173417207E+02  0.31886093141E+02  0.00000000000E+00 0.  1.
         11    1    3    3    0    0 -0.80139636583E+01 -0.16608364279E+02 -0.27420421850E+02  0.33044529233E+02  0.51100000000E-03 0. -1.
        -11    1    3    3    0    0 -0.37151939705E+01 -0.76396952739E+01 -0.64065792645E+01  0.10640106590E+02  0.51100000000E-03 0.  1.
        -12    1    3    3    0    0  0.37165858291E+00  0.14553281881E+02  0.56535839069E+01  0.15617271036E+02  0.00000000000E+00 0.  1.
</event>
<event>
 7    1  0.6953847E-012  0.5930191E+02  0.7816164E-02  0.1266605E+00
        -11   -1    0    0    0    0  0.00000000000E+00  0.00000000000E+00  0.45593999997E+02  0.45594000000E+02  0.51100000000E-03 0.  1.
         11   -1    0    0    0    0 -0.00000000000E+00 -0.00000000000E+00 -0.45593999997E+02  0.45594000000E+02  0.51100000000E-03 0. -1.
    9900012    2    1    2    0    0  0.29641883429E+02  0.75309894530E+00 -0.11726637305E+02  0.59301914732E+02  0.49999946571E+02 0.  0.
        -12    1    1    2    0    0 -0.29641883429E+02 -0.75309894530E+00  0.11726637305E+02  0.31886085268E+02  0.00000000000E+00 0.  1.
         11    1    3    3    0    0  0.18851630424E+02 -0.13692293669E+02 -0.24984011711E+02  0.34162314281E+02  0.51100000000E-03 0. -1.
        -11    1    3    3    0    0  0.49306809883E+01 -0.69885055133E+00  0.19302905388E+01  0.53409764020E+01  0.51100000000E-03 0.  1.
        -12    1    3    3    0    0  0.58595720172E+01  0.15144243166E+02  0.11327083868E+02  0.19798624049E+02  0.00000000000E+00 0.  1.
</event>
<event>
 7    1  0.6953847E-012  0.5930194E+02  0.7816164E-02  0.1266605E+00
        -11   -1    0    0    0    0  0.00000000000E+00  0.00000000000E+00  0.45593999997E+02  0.45594000000E+02  0.51100000000E-03 0.  1.
         11   -1    0    0    0    0 -0.00000000000E+00 -0.00000000000E+00 -0.45593999997E+02  0.45594000000E+02  0.51100000000E-03 0. -1.
    9900012    2    1    2    0    0  0.11959174015E+02  0.11430973563E+02 -0.27258610542E+02  0.59301939591E+02  0.49999991909E+02 0.  0.
        -12    1    1    2    0    0 -0.11959174015E+02 -0.11430973563E+02  0.27258610542E+02  0.31886060409E+02  0.00000000000E+00 0.  1.
         11    1    3    3    0    0  0.22327409526E+02  0.74402175025E+01 -0.16268887198E+02  0.28610255915E+02  0.51100000000E-03 0. -1.
        -11    1    3    3    0    0  0.28000293488E+01 -0.71142908007E+01 -0.11084761937E+02  0.13465706272E+02  0.51100000000E-03 0.  1.
         12    1    3    3    0    0 -0.13168264859E+02  0.11105046861E+02  0.95038592164E-01  0.17225977404E+02  0.00000000000E+00 0. -1.
</event>
<event>
 7    1  0.6953847E-012  0.5930193E+02  0.7816164E-02  0.1266605E+00
        -11   -1    0    0    0    0  0.00000000000E+00  0.00000000000E+00  0.45593999997E+02  0.45594000000E+02  0.51100000000E-03 0. -1.
         11   -1    0    0    0    0 -0.00000000000E+00 -0.00000000000E+00 -0.45593999997E+02  0.45594000000E+02  0.51100000000E-03 0.  1.
    9900012    2    1    2    0    0 -0.12486686407E+02  0.72985767773E+01  0.28417158529E+02  0.59301930013E+02  0.49999974440E+02 0.  0.
        -12    1    1    2    0    0  0.12486686407E+02 -0.72985767773E+01 -0.28417158529E+02  0.31886069987E+02  0.00000000000E+00 0.  1.
         11    1    3    3    0    0  0.45865639767E+01 -0.53343478321E+01  0.65489018778E+01  0.96114490048E+01  0.51100000000E-03 0. -1.
        -11    1    3    3    0    0  0.63974541953E+01  0.19121263004E+02  0.11611465402E+02  0.23267493378E+02  0.51100000000E-03 0.  1.
         12    1    3    3    0    0 -0.23470704579E+02 -0.64883383945E+01  0.10256791248E+02  0.26422987630E+02  0.00000000000E+00 0. -1.
</event>
<event>
 7    1  0.6953847E-012  0.5930195E+02  0.7816164E-02  0.1266605E+00
        -11   -1    0    0    0    0  0.00000000000E+00  0.00000000000E+00  0.45593999997E+02  0.45594000000E+02  0.51100000000E-03 0.  1.
         11   -1    0    0    0    0 -0.00000000000E+00 -0.00000000000E+00 -0.45593999997E+02  0.45594000000E+02  0.51100000000E-03 0. -1.
    9900012    2    1    2    0    0 -0.27365616645E+02 -0.16312686361E+02 -0.13190041739E+01  0.59301945326E+02  0.50000002367E+02 0.  0.
        -12    1    1    2    0    0  0.27365616645E+02  0.16312686361E+02  0.13190041739E+01  0.31886054674E+02  0.00000000000E+00 0.  1.
         11    1    3    3    0    0 -0.87437872241E+01 -0.11615443739E+02 -0.29727790820E+01  0.14839466433E+02  0.51100000000E-03 0. -1.
        -11    1    3    3    0    0 -0.11354394317E+01  0.11629920144E+02 -0.12137453672E+02  0.16848206051E+02  0.51100000000E-03 0.  1.
         12    1    3    3    0    0 -0.17486389989E+02 -0.16327162766E+02  0.13791228580E+02  0.27614272842E+02  0.00000000000E+00 0. -1.
</event>
<event>
 7    1  0.6953847E-012  0.5930203E+02  0.7816164E-02  0.1266604E+00
        -11   -1    0    0    0    0  0.00000000000E+00  0.00000000000E+00  0.45593999997E+02  0.45594000000E+02  0.51100000000E-03 0.  1.
         11   -1    0    0    0    0 -0.00000000000E+00 -0.00000000000E+00 -0.45593999997E+02  0.45594000000E+02  0.51100000000E-03 0. -1.
    9900012    2    1    2    0    0  0.14120861871E+02  0.22253760408E+02 -0.17946768899E+02  0.59302029633E+02  0.50000156124E+02 0.  0.
        -12    1    1    2    0    0 -0.14120861871E+02 -0.22253760408E+02  0.17946768899E+02  0.31885970367E+02  0.00000000000E+00 0.  1.
         11    1    3    3    0    0 -0.11844696166E+02  0.14902157411E+02 -0.14227909945E+02  0.23765616853E+02  0.51100000000E-03 0. -1.
        -11    1    3    3    0    0  0.88651660915E+01 -0.51284828914E+00 -0.12037083265E+02  0.14958126787E+02  0.51100000000E-03 0.  1.
        -12    1    3    3    0    0  0.17100391946E+02  0.78644512871E+01  0.83182243100E+01  0.20578285993E+02  0.00000000000E+00 0.  1.
</event>
<event>
 7    1  0.6953847E-012  0.5930196E+02  0.7816164E-02  0.1266605E+00
        -11   -1    0    0    0    0  0.00000000000E+00  0.00000000000E+00  0.45593999997E+02  0.45594000000E+02  0.51100000000E-03 0.  1.
         11   -1    0    0    0    0 -0.00000000000E+00 -0.00000000000E+00 -0.45593999997E+02  0.45594000000E+02  0.51100000000E-03 0. -1.
    9900012    2    1    2    0    0 -0.43055991113E+01 -0.20602677745E+02 -0.23952264539E+02  0.59301960884E+02  0.50000030741E+02 0.  0.
        -12    1    1    2    0    0  0.43055991113E+01  0.20602677745E+02  0.23952264539E+02  0.31886039116E+02  0.00000000000E+00 0.  1.
         11    1    3    3    0    0 -0.10422168789E+01  0.77258339450E+01 -0.17635017636E+01  0.79927883057E+01  0.51100000000E-03 0.  1.
        -11    1    3    3    0    0 -0.19033905428E+01 -0.16523963997E+02  0.82982503922E+01  0.18588309271E+02  0.51100000000E-03 0. -1.
         12    1    3    3    0    0 -0.13599916896E+01 -0.11804547694E+02 -0.30487013168E+02  0.32720863307E+02  0.00000000000E+00 0. -1.
</event>
<event>
 7    1  0.6953847E-012  0.5930189E+02  0.7816164E-02  0.1266605E+00
        -11   -1    0    0    0    0  0.00000000000E+00  0.00000000000E+00  0.45593999997E+02  0.45594000000E+02  0.51100000000E-03 0.  1.
         11   -1    0    0    0    0 -0.00000000000E+00 -0.00000000000E+00 -0.45593999997E+02  0.45594000000E+02  0.51100000000E-03 0. -1.
    9900012    2    1    2    0    0 -0.13717373606E+02  0.90812033379E+01 -0.27314640791E+02  0.59301887126E+02  0.49999896224E+02 0.  0.
        -12    1    1    2    0    0  0.13717373606E+02 -0.90812033379E+01  0.27314640791E+02  0.31886112874E+02  0.00000000000E+00 0.  1.
         11    1    3    3    0    0 -0.34526082029E+01  0.84247264515E+01 -0.88945167366E+01  0.12728273545E+02  0.51100000000E-03 0. -1.
        -11    1    3    3    0    0 -0.19225141556E+02  0.15159602527E+02 -0.16257339189E+02  0.29389125445E+02  0.51100000000E-03 0.  1.
         12    1    3    3    0    0  0.89603761527E+01 -0.14503125641E+02 -0.21627848648E+01  0.17184488137E+02  0.00000000000E+00 0. -1.
</event>
<event>
 7    1  0.6953847E-012  0.5930194E+02  0.7816164E-02  0.1266605E+00
        -11   -1    0    0    0    0  0.00000000000E+00  0.00000000000E+00  0.45593999997E+02  0.45594000000E+02  0.51100000000E-03 0. -1.
         11   -1    0    0    0    0 -0.00000000000E+00 -0.00000000000E+00 -0.45593999997E+02  0.45594000000E+02  0.51100000000E-03 0.  1.
    9900012    2    1    2    0    0  0.96958944784E+01 -0.15123369332E+02  0.26343766339E+02  0.59301942003E+02  0.49999996307E+02 0.  0.
        -12    1    1    2    0    0 -0.96958944784E+01  0.15123369332E+02 -0.26343766339E+02  0.31886057997E+02  0.00000000000E+00 0.  1.
         11    1    3    3    0    0 -0.11146020244E+02 -0.46894515064E+01 -0.21351489090E+01  0.12279396721E+02  0.51100000000E-03 0. -1.
        -11    1    3    3    0    0 -0.19850072794E+01  0.69447444987E+01  0.11805789860E+02  0.13840029066E+02  0.51100000000E-03 0.  1.
        -12    1    3    3    0    0  0.22826922001E+02 -0.17378662324E+02  0.16673125388E+02  0.33182516216E+02  0.00000000000E+00 0.  1.
</event>
<event>
 7    1  0.6953847E-012  0.5930194E+02  0.7816164E-02  0.1266605E+00
        -11   -1    0    0    0    0  0.00000000000E+00  0.00000000000E+00  0.45593999997E+02  0.45594000000E+02  0.51100000000E-03 0.  1.
         11   -1    0    0    0    0 -0.00000000000E+00 -0.00000000000E+00 -0.45593999997E+02  0.45594000000E+02  0.51100000000E-03 0. -1.
    9900012    2    1    2    0    0 -0.19158440328E+02  0.23072812723E+02  0.10831440073E+02  0.59301943223E+02  0.49999998532E+02 0.  0.
        -12    1    1    2    0    0  0.19158440328E+02 -0.23072812723E+02 -0.10831440073E+02  0.31886056777E+02  0.00000000000E+00 0.  1.
         11    1    3    3    0    0 -0.11832352915E+01  0.68966880047E+01  0.23982276650E+02  0.24982272611E+02  0.51100000000E-03 0. -1.
        -11    1    3    3    0    0 -0.12769961209E+02  0.20834549841E+01  0.18724191608E+01  0.13073585879E+02  0.51100000000E-03 0.  1.
         12    1    3    3    0    0 -0.52052438272E+01  0.14092669734E+02 -0.15023255738E+02  0.21246084734E+02  0.00000000000E+00 0. -1.
</event>
<event>
 7    1  0.6953847E-012  0.5930195E+02  0.7816164E-02  0.1266605E+00
        -11   -1    0    0    0    0  0.00000000000E+00  0.00000000000E+00  0.45593999997E+02  0.45594000000E+02  0.51100000000E-03 0. -1.
         11   -1    0    0    0    0 -0.00000000000E+00 -0.00000000000E+00 -0.45593999997E+02  0.45594000000E+02  0.51100000000E-03 0.  1.
    9900012    2    1    2    0    0  0.13522896745E+02 -0.70456795260E+01  0.28003747558E+02  0.59301949545E+02  0.50000010062E+02 0.  0.
        -12    1    1    2    0    0 -0.13522896745E+02  0.70456795260E+01 -0.28003747558E+02  0.31886050455E+02  0.00000000000E+00 0.  1.
         11    1    3    3    0    0  0.19078232207E+02 -0.13774654841E+02  0.35874448968E+01  0.23803147298E+02  0.51100000000E-03 0. -1.
        -11    1    3    3    0    0 -0.10685324052E+02 -0.54803844441E+01  0.81038501276E+01  0.14487344508E+02  0.51100000000E-03 0.  1.
        -12    1    3    3    0    0  0.51299885896E+01  0.12209359759E+02  0.16312452533E+02  0.21011457739E+02  0.00000000000E+00 0.  1.
</event>
<event>
 7    1  0.6953847E-012  0.5930197E+02  0.7816164E-02  0.1266605E+00
        -11   -1    0    0    0    0  0.00000000000E+00  0.00000000000E+00  0.45593999997E+02  0.45594000000E+02  0.51100000000E-03 0. -1.
         11   -1    0    0    0    0 -0.00000000000E+00 -0.00000000000E+00 -0.45593999997E+02  0.45594000000E+02  0.51100000000E-03 0.  1.
    9900012    2    1    2    0    0 -0.19339487072E+02  0.21619121408E+01  0.25259239342E+02  0.59301971767E+02  0.50000050590E+02 0.  0.
        -12    1    1    2    0    0  0.19339487072E+02 -0.21619121408E+01 -0.25259239342E+02  0.31886028233E+02  0.00000000000E+00 0.  1.
         11    1    3    3    0    0  0.22565321480E+01  0.56324316850E+01  0.19064709977E+01  0.63600987372E+01  0.51100000000E-03 0. -1.
        -11    1    3    3    0    0  0.11007303603E+01  0.17296833820E+00 -0.11301661564E+02  0.11356455421E+02  0.51100000000E-03 0.  1.
         12    1    3    3    0    0 -0.22696749580E+02 -0.36434878824E+01  0.34654429908E+02  0.41585417609E+02  0.00000000000E+00 0. -1.
</event>
<event>
 7    1  0.6953847E-012  0.5930195E+02  0.7816164E-02  0.1266605E+00
        -11   -1    0    0    0    0  0.00000000000E+00  0.00000000000E+00  0.45593999997E+02  0.45594000000E+02  0.51100000000E-03 0.  1.
         11   -1    0    0    0    0 -0.00000000000E+00 -0.00000000000E+00 -0.45593999997E+02  0.45594000000E+02  0.51100000000E-03 0. -1.
    9900012    2    1    2    0    0 -0.14139048534E+02  0.23021221903E+02 -0.16936080694E+02  0.59301950063E+02  0.50000011006E+02 0.  0.
        -12    1    1    2    0    0  0.14139048534E+02 -0.23021221903E+02  0.16936080694E+02  0.31886049937E+02  0.00000000000E+00 0.  1.
         11    1    3    3    0    0 -0.16140707894E+02  0.84765655337E-01 -0.17602385418E+02  0.23882495875E+02  0.51100000000E-03 0. -1.
        -11    1    3    3    0    0 -0.85569374700E+00 -0.59000556709E+01  0.23135316110E+01  0.63949431182E+01  0.51100000000E-03 0.  1.
         12    1    3    3    0    0  0.28573531076E+01  0.28836511919E+02 -0.16472268869E+01  0.29024511070E+02  0.00000000000E+00 0. -1.
</event>
<event>
 7    1  0.6953847E-012  0.5930195E+02  0.7816164E-02  0.1266605E+00
        -11   -1    0    0    0    0  0.00000000000E+00  0.00000000000E+00  0.45593999997E+02  0.45594000000E+02  0.51100000000E-03 0.  1.
         11   -1    0    0    0    0 -0.00000000000E+00 -0.00000000000E+00 -0.45593999997E+02  0.45594000000E+02  0.51100000000E-03 0. -1.
    9900012    2    1    2    0    0 -0.83335450134E+01  0.19915527621E+00 -0.30777141151E+02  0.59301952067E+02  0.50000014662E+02 0.  0.
        -12    1    1    2    0    0  0.83335450134E+01 -0.19915527621E+00  0.30777141151E+02  0.31886047933E+02  0.00000000000E+00 0.  1.
         11    1    3    3    0    0 -0.42072240483E+01 -0.12363774971E+01 -0.71972699728E+00  0.44438013817E+01  0.51100000000E-03 0. -1.
        -11    1    3    3    0    0 -0.23048683676E+02 -0.81545442990E+01 -0.18808869880E+02  0.30846588115E+02  0.51100000000E-03 0.  1.
         12    1    3    3    0    0  0.18922362711E+02  0.95900770723E+01 -0.11248544275E+02  0.24011562571E+02  0.00000000000E+00 0. -1.
</event>
<event>
 7    1  0.6953847E-012  0.5930192E+02  0.7816164E-02  0.1266605E+00
        -11   -1    0    0    0    0  0.00000000000E+00  0.00000000000E+00  0.45593999997E+02  0.45594000000E+02  0.51100000000E-03 0. -1.
         11   -1    0    0    0    0 -0.00000000000E+00 -0.00000000000E+00 -0.45593999997E+02  0.45594000000E+02  0.51100000000E-03 0.  1.
    9900012    2    1    2    0    0  0.15756800594E+02  0.22619086803E+02  0.16025677796E+02  0.59301918372E+02  0.49999953211E+02 0.  0.
        -12    1    1    2    0    0 -0.15756800594E+02 -0.22619086803E+02 -0.16025677796E+02  0.31886081628E+02  0.00000000000E+00 0.  1.
         11    1    3    3    0    0  0.16049380822E+02 -0.82234275677E+01  0.32648754276E+01  0.18326669025E+02  0.51100000000E-03 0.  1.
        -11    1    3    3    0    0 -0.10535389892E+01  0.10732649100E+02 -0.69309406639E+01  0.12819424318E+02  0.51100000000E-03 0. -1.
        -12    1    3    3    0    0  0.76095876121E+00  0.20109865270E+02  0.19691743032E+02  0.28155825029E+02  0.00000000000E+00 0.  1.
</event>
<event>
 7    1  0.6953847E-012  0.5930195E+02  0.7816164E-02  0.1266605E+00
        -11   -1    0    0    0    0  0.00000000000E+00  0.00000000000E+00  0.45593999997E+02  0.45594000000E+02  0.51100000000E-03 0.  1.
         11   -1    0    0    0    0 -0.00000000000E+00 -0.00000000000E+00 -0.45593999997E+02  0.45594000000E+02  0.51100000000E-03 0. -1.
    9900012    2    1    2    0    0 -0.19240751264E+02  0.23775403238E+02 -0.90135385391E+01  0.59301949988E+02  0.50000010871E+02 0.  0.
        -12    1    1    2    0    0  0.19240751264E+02 -0.23775403238E+02  0.90135385391E+01  0.31886050012E+02  0.00000000000E+00 0.  1.
         11    1    3    3    0    0 -0.23379235784E+02  0.20521725775E+02 -0.23047138169E+02  0.38715636023E+02  0.51100000000E-03 0. -1.
        -11    1    3    3    0    0 -0.48313041593E+01 -0.99756591992E+00  0.63079533121E+01  0.80079281273E+01  0.51100000000E-03 0.  1.
        -12    1    3    3    0    0  0.89697886795E+01  0.42512433836E+01  0.77256463177E+01  0.12578385838E+02  0.00000000000E+00 0.  1.
</event>
<event>
 7    1  0.6953847E-012  0.5930192E+02  0.7816164E-02  0.1266605E+00
        -11   -1    0    0    0    0  0.00000000000E+00  0.00000000000E+00  0.45593999997E+02  0.45594000000E+02  0.51100000000E-03 0. -1.
         11   -1    0    0    0    0 -0.00000000000E+00 -0.00000000000E+00 -0.45593999997E+02  0.45594000000E+02  0.51100000000E-03 0.  1.
    9900012    2    1    2    0    0  0.24129007573E+02  0.41561976655E+01  0.20426439166E+02  0.59301915221E+02  0.49999947464E+02 0.  0.
        -12    1    1    2    0    0 -0.24129007573E+02 -0.41561976655E+01 -0.20426439166E+02  0.31886084779E+02  0.00000000000E+00 0.  1.
         11    1    3    3    0    0  0.18787552287E+02 -0.11052275521E+02  0.13716321070E+02  0.25753880855E+02  0.51100000000E-03 0. -1.
        -11    1    3    3    0    0  0.12128827835E+02  0.91223038429E+01  0.14918187716E+02  0.21280912035E+02  0.51100000000E-03 0.  1.
        -12    1    3    3    0    0 -0.67873725493E+01  0.60861693435E+01 -0.82080696197E+01  0.12267122331E+02  0.00000000000E+00 0.  1.
</event>
<event>
 7    1  0.6953847E-012  0.5930201E+02  0.7816164E-02  0.1266605E+00
        -11   -1    0    0    0    0  0.00000000000E+00  0.00000000000E+00  0.45593999997E+02  0.45594000000E+02  0.51100000000E-03 0. -1.
         11   -1    0    0    0    0 -0.00000000000E+00 -0.00000000000E+00 -0.45593999997E+02  0.45594000000E+02  0.51100000000E-03 0.  1.
    9900012    2    1    2    0    0  0.20684684155E+02 -0.95482641618E+01  0.22308982434E+02  0.59302012414E+02  0.50000124720E+02 0.  0.
        -12    1    1    2    0    0 -0.20684684155E+02  0.95482641618E+01 -0.22308982434E+02  0.31885987586E+02  0.00000000000E+00 0.  1.
         11    1    3    3    0    0  0.34573687713E+01 -0.17243674952E+00  0.34133022957E+01  0.48614571969E+01  0.51100000000E-03 0. -1.
        -11    1    3    3    0    0  0.31630922472E+02 -0.76158739409E+01  0.22415373396E+02  0.39509059177E+02  0.51100000000E-03 0.  1.
        -12    1    3    3    0    0 -0.14403607088E+02 -0.17599534714E+01 -0.35196932584E+01  0.14931496040E+02  0.00000000000E+00 0.  1.
</event>
<event>
 7    1  0.6953847E-012  0.5930194E+02  0.7816164E-02  0.1266605E+00
        -11   -1    0    0    0    0  0.00000000000E+00  0.00000000000E+00  0.45593999997E+02  0.45594000000E+02  0.51100000000E-03 0. -1.
         11   -1    0    0    0    0 -0.00000000000E+00 -0.00000000000E+00 -0.45593999997E+02  0.45594000000E+02  0.51100000000E-03 0.  1.
    9900012    2    1    2    0    0 -0.64963191361E+01  0.31133375359E+02 -0.22872773447E+01  0.59301939390E+02  0.49999991542E+02 0.  0.
        -12    1    1    2    0    0  0.64963191361E+01 -0.31133375359E+02  0.22872773447E+01  0.31886060610E+02  0.00000000000E+00 0.  1.
         11    1    3    3    0    0 -0.50954087104E+01  0.39809785499E+02 -0.14120445734E+02  0.42546083244E+02  0.51100000000E-03 0. -1.
        -11    1    3    3    0    0 -0.33151244110E+01 -0.70134767783E+01  0.44362569058E+01  0.89364020710E+01  0.51100000000E-03 0.  1.
        -12    1    3    3    0    0  0.19142139853E+01 -0.16629333616E+01  0.73969114835E+01  0.78194540756E+01  0.00000000000E+00 0.  1.
</event>
<event>
 7    1  0.6953847E-012  0.5930194E+02  0.7816164E-02  0.1266605E+00
        -11   -1    0    0    0    0  0.00000000000E+00  0.00000000000E+00  0.45593999997E+02  0.45594000000E+02  0.51100000000E-03 0.  1.
         11   -1    0    0    0    0 -0.00000000000E+00 -0.00000000000E+00 -0.45593999997E+02  0.45594000000E+02  0.51100000000E-03 0. -1.
    9900012    2    1    2    0    0 -0.85991360478E+01  0.15935019002E+02 -0.26245970784E+02  0.59301937939E+02  0.49999988896E+02 0.  0.
        -12    1    1    2    0    0  0.85991360478E+01 -0.15935019002E+02  0.26245970784E+02  0.31886062061E+02  0.00000000000E+00 0.  1.
         11    1    3    3    0    0 -0.27111535912E+01  0.97851835147E+01 -0.25546647530E+02  0.27490568756E+02  0.51100000000E-03 0. -1.
        -11    1    3    3    0    0 -0.89496228257E+01 -0.10820359898E+02  0.25283319254E+01  0.14267739822E+02  0.51100000000E-03 0.  1.
         12    1    3    3    0    0  0.30616403691E+01  0.16970195386E+02 -0.32276551788E+01  0.17543629361E+02  0.00000000000E+00 0. -1.
</event>
<event>
 7    1  0.6953847E-012  0.5930195E+02  0.7816164E-02  0.1266605E+00
        -11   -1    0    0    0    0  0.00000000000E+00  0.00000000000E+00  0.45593999997E+02  0.45594000000E+02  0.51100000000E-03 0.  1.
         11   -1    0    0    0    0 -0.00000000000E+00 -0.00000000000E+00 -0.45593999997E+02  0.45594000000E+02  0.51100000000E-03 0. -1.
    9900012    2    1    2    0    0 -0.29774327715E+02  0.11409591912E+02  0.17617014249E+00  0.59301946397E+02  0.50000004320E+02 0.  0.
        -12    1    1    2    0    0  0.29774327715E+02 -0.11409591912E+02 -0.17617014249E+00  0.31886053603E+02  0.00000000000E+00 0.  1.
         11    1    3    3    0    0 -0.50448642112E+01  0.87491562849E+01 -0.95465045237E+01  0.13897270937E+02  0.51100000000E-03 0. -1.
        -11    1    3    3    0    0 -0.16426200567E+02 -0.13064617082E+02 -0.58273209608E+01  0.21782147608E+02  0.51100000000E-03 0.  1.
         12    1    3    3    0    0 -0.83032629369E+01  0.15725052709E+02  0.15549995627E+02  0.23622527852E+02  0.00000000000E+00 0. -1.
</event>
<event>
 7    1  0.6953847E-012  0.5930171E+02  0.7816164E-02  0.1266606E+00
        -11   -1    0    0    0    0  0.00000000000E+00  0.00000000000E+00  0.45593999997E+02  0.45594000000E+02  0.51100000000E-03 0. -1.
         11   -1    0    0    0    0 -0.00000000000E+00 -0.00000000000E+00 -0.45593999997E+02  0.45594000000E+02  0.51100000000E-03 0.  1.
    9900012    2    1    2    0    0  0.26708917786E+02  0.17412887558E+02  0.40098852797E+00  0.59301706170E+02  0.49999566202E+02 0.  0.
        -12    1    1    2    0    0 -0.26708917786E+02 -0.17412887558E+02 -0.40098852797E+00  0.31886293830E+02  0.00000000000E+00 0.  1.
         11    1    3    3    0    0  0.25414983842E+02  0.52792674530E+01  0.13058698637E+02  0.29057213887E+02  0.51100000000E-03 0. -1.
        -11    1    3    3    0    0  0.59735264595E+00  0.16424187183E+02  0.44348850505E+00  0.16441029078E+02  0.51100000000E-03 0.  1.
        -12    1    3    3    0    0  0.69658129854E+00 -0.42905670779E+01 -0.13101198614E+02  0.13803463206E+02  0.00000000000E+00 0.  1.
</event>
<event>
 7    1  0.6953847E-012  0.5930194E+02  0.7816164E-02  0.1266605E+00
        -11   -1    0    0    0    0  0.00000000000E+00  0.00000000000E+00  0.45593999997E+02  0.45594000000E+02  0.51100000000E-03 0.  1.
         11   -1    0    0    0    0 -0.00000000000E+00 -0.00000000000E+00 -0.45593999997E+02  0.45594000000E+02  0.51100000000E-03 0. -1.
    9900012    2    1    2    0    0  0.20581136319E+02 -0.17622058516E+02 -0.16810730469E+02  0.59301940704E+02  0.49999993938E+02 0.  0.
        -12    1    1    2    0    0 -0.20581136319E+02  0.17622058516E+02  0.16810730469E+02  0.31886059296E+02  0.00000000000E+00 0.  1.
         11    1    3    3    0    0 -0.19161196752E+01 -0.58662360933E+00 -0.83922375869E+01  0.86281686263E+01  0.51100000000E-03 0. -1.
        -11    1    3    3    0    0  0.42103560837E+01 -0.10331742425E+02 -0.23517506982E+02  0.26029697170E+02  0.51100000000E-03 0.  1.
        -12    1    3    3    0    0  0.18286899911E+02 -0.67036924821E+01  0.15099014100E+02  0.24644074907E+02  0.00000000000E+00 0.  1.
</event>
<event>
 7    1  0.6953847E-012  0.5930188E+02  0.7816164E-02  0.1266605E+00
        -11   -1    0    0    0    0  0.00000000000E+00  0.00000000000E+00  0.45593999997E+02  0.45594000000E+02  0.51100000000E-03 0. -1.
         11   -1    0    0    0    0 -0.00000000000E+00 -0.00000000000E+00 -0.45593999997E+02  0.45594000000E+02  0.51100000000E-03 0.  1.
    9900012    2    1    2    0    0 -0.25651884936E+02  0.13426880699E+02  0.13357554655E+02  0.59301880882E+02  0.49999884838E+02 0.  0.
        -12    1    1    2    0    0  0.25651884936E+02 -0.13426880699E+02 -0.13357554655E+02  0.31886119118E+02  0.00000000000E+00 0.  1.
         11    1    3    3    0    0  0.17501399898E+01  0.48008213321E+01  0.10185420507E+02  0.11395335301E+02  0.51100000000E-03 0. -1.
        -11    1    3    3    0    0  0.37653780256E+01 -0.48953744397E+01  0.11386475087E+02  0.12953554637E+02  0.51100000000E-03 0.  1.
        -12    1    3    3    0    0 -0.31167402951E+02  0.13521433806E+02 -0.82143409391E+01  0.34952990944E+02  0.00000000000E+00 0.  1.
</event>
<event>
 7    1  0.6953847E-012  0.5930195E+02  0.7816164E-02  0.1266605E+00
        -11   -1    0    0    0    0  0.00000000000E+00  0.00000000000E+00  0.45593999997E+02  0.45594000000E+02  0.51100000000E-03 0.  1.
         11   -1    0    0    0    0 -0.00000000000E+00 -0.00000000000E+00 -0.45593999997E+02  0.45594000000E+02  0.51100000000E-03 0. -1.
    9900012    2    1    2    0    0 -0.31158812118E+02  0.14672738733E+01 -0.66102965916E+01  0.59301945270E+02  0.50000002266E+02 0.  0.
        -12    1    1    2    0    0  0.31158812118E+02 -0.14672738733E+01  0.66102965916E+01  0.31886054730E+02  0.00000000000E+00 0.  1.
         11    1    3    3    0    0 -0.86175861588E+01  0.67667662455E+01  0.39381693200E+01  0.11643070664E+02  0.51100000000E-03 0. -1.
        -11    1    3    3    0    0 -0.87731715830E+01  0.16598314358E+02  0.20529481949E+01  0.18886163605E+02  0.51100000000E-03 0.  1.
         12    1    3    3    0    0 -0.13768054376E+02 -0.21897806730E+02 -0.12601414106E+02  0.28772711002E+02  0.00000000000E+00 0. -1.
</event>
<event>
 7    1  0.6953847E-012  0.5930195E+02  0.7816164E-02  0.1266605E+00
        -11   -1    0    0    0    0  0.00000000000E+00  0.00000000000E+00  0.45593999997E+02  0.45594000000E+02  0.51100000000E-03 0. -1.
         11   -1    0    0    0    0 -0.00000000000E+00 -0.00000000000E+00 -0.45593999997E+02  0.45594000000E+02  0.51100000000E-03 0.  1.
    9900012    2    1    2    0    0  0.25338698122E+02  0.17732600867E+02 -0.77605121000E+01  0.59301948126E+02  0.50000007474E+02 0.  0.
        -12    1    1    2    0    0 -0.25338698122E+02 -0.17732600867E+02  0.77605121000E+01  0.31886051874E+02  0.00000000000E+00 0.  1.
         11    1    3    3    0    0  0.53298131157E+01 -0.48407803993E+01  0.17601531651E+01  0.74120309058E+01  0.51100000000E-03 0. -1.
        -11    1    3    3    0    0  0.27475252361E+01  0.15134137485E+02  0.14669747517E+02  0.21255411189E+02  0.51100000000E-03 0.  1.
         12    1    3    3    0    0  0.17261359771E+02  0.74392437814E+01 -0.24190412782E+02  0.30634506031E+02  0.00000000000E+00 0. -1.
</event>
<event>
 7    1  0.6953847E-012  0.5930195E+02  0.7816164E-02  0.1266605E+00
        -11   -1    0    0    0    0  0.00000000000E+00  0.00000000000E+00  0.45593999997E+02  0.45594000000E+02  0.51100000000E-03 0.  1.
         11   -1    0    0    0    0 -0.00000000000E+00 -0.00000000000E+00 -0.45593999997E+02  0.45594000000E+02  0.51100000000E-03 0. -1.
    9900012    2    1    2    0    0  0.13608701739E+02  0.22387790933E+01 -0.28749110957E+02  0.59301948572E+02  0.50000008288E+02 0.  0.
        -12    1    1    2    0    0 -0.13608701739E+02 -0.22387790933E+01  0.28749110957E+02  0.31886051428E+02  0.00000000000E+00 0.  1.
         11    1    3    3    0    0  0.78398353975E+01  0.15976907295E+02 -0.11257763849E+02  0.21058533494E+02  0.51100000000E-03 0. -1.
        -11    1    3    3    0    0 -0.38463377432E+00  0.36813112883E+01  0.67898062336E+01  0.77331406876E+01  0.51100000000E-03 0.  1.
         12    1    3    3    0    0  0.61535001157E+01 -0.17419439490E+02 -0.24281153341E+02  0.30510274391E+02  0.00000000000E+00 0. -1.
</event>
<event>
 7    1  0.6953847E-012  0.5930194E+02  0.7816164E-02  0.1266605E+00
        -11   -1    0    0    0    0  0.00000000000E+00  0.00000000000E+00  0.45593999997E+02  0.45594000000E+02  0.51100000000E-03 0.  1.
         11   -1    0    0    0    0 -0.00000000000E+00 -0.00000000000E+00 -0.45593999997E+02  0.45594000000E+02  0.51100000000E-03 0. -1.
    9900012    2    1    2    0    0 -0.24245059277E+02 -0.10238852745E+01 -0.20684531978E+02  0.59301935590E+02  0.49999984612E+02 0.  0.
        -12    1    1    2    0    0  0.24245059277E+02  0.10238852745E+01  0.20684531978E+02  0.31886064410E+02  0.00000000000E+00 0.  1.
         11    1    3    3    0    0 -0.43499474212E+01  0.98304056211E+01 -0.26844116563E+02  0.28916526617E+02  0.51100000000E-03 0. -1.
        -11    1    3    3    0    0 -0.27829602605E+00 -0.87884893592E+01 -0.20356000629E+01  0.90254452396E+01  0.51100000000E-03 0.  1.
        -12    1    3    3    0    0 -0.19616815830E+02 -0.20658015364E+01  0.81951846483E+01  0.21359963734E+02  0.00000000000E+00 0.  1.
</event>
<event>
 7    1  0.6953847E-012  0.5930190E+02  0.7816164E-02  0.1266605E+00
        -11   -1    0    0    0    0  0.00000000000E+00  0.00000000000E+00  0.45593999997E+02  0.45594000000E+02  0.51100000000E-03 0. -1.
         11   -1    0    0    0    0 -0.00000000000E+00 -0.00000000000E+00 -0.45593999997E+02  0.45594000000E+02  0.51100000000E-03 0.  1.
    9900012    2    1    2    0    0 -0.34378239620E+00 -0.28140105671E+02 -0.14991317905E+02  0.59301900426E+02  0.49999920482E+02 0.  0.
        -12    1    1    2    0    0  0.34378239620E+00  0.28140105671E+02  0.14991317905E+02  0.31886099574E+02  0.00000000000E+00 0.  1.
         11    1    3    3    0    0  0.76333153353E+00 -0.30578629775E+02 -0.61847585194E+01  0.31207154823E+02  0.51100000000E-03 0. -1.
        -11    1    3    3    0    0 -0.86360493508E+01  0.81999236046E+01  0.36364211124E+01  0.12451652673E+02  0.51100000000E-03 0.  1.
         12    1    3    3    0    0  0.75289354211E+01 -0.57613995005E+01 -0.12442980498E+02  0.15643092931E+02  0.00000000000E+00 0. -1.
</event>
<event>
 7    1  0.6953847E-012  0.5930197E+02  0.7816164E-02  0.1266605E+00
        -11   -1    0    0    0    0  0.00000000000E+00  0.00000000000E+00  0.45593999997E+02  0.45594000000E+02  0.51100000000E-03 0.  1.
         11   -1    0    0    0    0 -0.00000000000E+00 -0.00000000000E+00 -0.45593999997E+02  0.45594000000E+02  0.51100000000E-03 0. -1.
    9900012    2    1    2    0    0 -0.75503527977E+01 -0.23756034248E+01 -0.30887987574E+02  0.59301967080E+02  0.50000042041E+02 0.  0.
        -12    1    1    2    0    0  0.75503527977E+01  0.23756034248E+01  0.30887987574E+02  0.31886032920E+02  0.00000000000E+00 0.  1.
         11    1    3    3    0    0  0.17010370825E+01 -0.19439335453E+02 -0.93784609033E+01  0.21650330695E+02  0.51100000000E-03 0. -1.
        -11    1    3    3    0    0  0.16791154200E+01 -0.26086965360E+01 -0.13361467705E+02  0.13716907294E+02  0.51100000000E-03 0.  1.
        -12    1    3    3    0    0 -0.10930505300E+02  0.19672428565E+02 -0.81480589658E+01  0.23934729091E+02  0.00000000000E+00 0.  1.
</event>
<event>
 7    1  0.6953847E-012  0.5930195E+02  0.7816164E-02  0.1266605E+00
        -11   -1    0    0    0    0  0.00000000000E+00  0.00000000000E+00  0.45593999997E+02  0.45594000000E+02  0.51100000000E-03 0. -1.
         11   -1    0    0    0    0 -0.00000000000E+00 -0.00000000000E+00 -0.45593999997E+02  0.45594000000E+02  0.51100000000E-03 0.  1.
    9900012    2    1    2    0    0  0.71685355707E+01  0.29188027804E+02  0.10648542338E+02  0.59301947826E+02  0.50000006928E+02 0.  0.
        -12    1    1    2    0    0 -0.71685355707E+01 -0.29188027804E+02 -0.10648542338E+02  0.31886052174E+02  0.00000000000E+00 0.  1.
         11    1    3    3    0    0  0.87072367717E+01 -0.61056882621E+01  0.30035090353E+01  0.11050632024E+02  0.51100000000E-03 0. -1.
        -11    1    3    3    0    0  0.68638852322E+01 -0.36019793515E+01  0.23973416052E+01  0.81138414307E+01  0.51100000000E-03 0.  1.
        -12    1    3    3    0    0 -0.84025864332E+01  0.38895695417E+02  0.52476916978E+01  0.40137474371E+02  0.00000000000E+00 0.  1.
</event>
<event>
 7    1  0.6953847E-012  0.5930195E+02  0.7816164E-02  0.1266605E+00
        -11   -1    0    0    0    0  0.00000000000E+00  0.00000000000E+00  0.45593999997E+02  0.45594000000E+02  0.51100000000E-03 0. -1.
         11   -1    0    0    0    0 -0.00000000000E+00 -0.00000000000E+00 -0.45593999997E+02  0.45594000000E+02  0.51100000000E-03 0.  1.
    9900012    2    1    2    0    0  0.20255372605E+02 -0.24162336412E+02 -0.47562258978E+01  0.59301948112E+02  0.50000007449E+02 0.  0.
        -12    1    1    2    0    0 -0.20255372605E+02  0.24162336412E+02  0.47562258978E+01  0.31886051888E+02  0.00000000000E+00 0.  1.
         11    1    3    3    0    0 -0.28207662108E+01 -0.85377738190E+01  0.47316567287E+00  0.90041207130E+01  0.51100000000E-03 0. -1.
        -11    1    3    3    0    0 -0.79816196644E+01  0.52995875602E+01  0.58735172799E+01  0.11237886201E+02  0.51100000000E-03 0.  1.
         12    1    3    3    0    0  0.31057758480E+02 -0.20924150153E+02 -0.11102908851E+02  0.39059941198E+02  0.00000000000E+00 0. -1.
</event>
<event>
 7    1  0.6953847E-012  0.5930194E+02  0.7816164E-02  0.1266605E+00
        -11   -1    0    0    0    0  0.00000000000E+00  0.00000000000E+00  0.45593999997E+02  0.45594000000E+02  0.51100000000E-03 0.  1.
         11   -1    0    0    0    0 -0.00000000000E+00 -0.00000000000E+00 -0.45593999997E+02  0.45594000000E+02  0.51100000000E-03 0. -1.
    9900012    2    1    2    0    0 -0.43336410326E+01 -0.31573570534E+02  0.10246053868E+01  0.59301943218E+02  0.49999998524E+02 0.  0.
        -12    1    1    2    0    0  0.43336410326E+01  0.31573570534E+02 -0.10246053868E+01  0.31886056782E+02  0.00000000000E+00 0.  1.
         11    1    3    3    0    0  0.68203969490E+01 -0.33318725216E+02 -0.55770658109E+01  0.34463878596E+02  0.51100000000E-03 0. -1.
        -11    1    3    3    0    0 -0.12427725738E+02 -0.75640687467E+01  0.39837011689E+01  0.15084209568E+02  0.51100000000E-03 0.  1.
         12    1    3    3    0    0  0.12736877560E+01  0.93092234289E+01  0.26179700288E+01  0.97538550544E+01  0.00000000000E+00 0. -1.
</event>
<event>
 7    1  0.6953847E-012  0.5930190E+02  0.7816164E-02  0.1266605E+00
        -11   -1    0    0    0    0  0.00000000000E+00  0.00000000000E+00  0.45593999997E+02  0.45594000000E+02  0.51100000000E-03 0. -1.
         11   -1    0    0    0    0 -0.00000000000E+00 -0.00000000000E+00 -0.45593999997E+02  0.45594000000E+02  0.51100000000E-03 0.  1.
    9900012    2    1    2    0    0  0.19005135518E+02 -0.10005082890E+02  0.23567486866E+02  0.59301901197E+02  0.49999921887E+02 0.  0.
        -12    1    1    2    0    0 -0.19005135518E+02  0.10005082890E+02 -0.23567486866E+02  0.31886098803E+02  0.00000000000E+00 0.  1.
         11    1    3    3    0    0  0.80832286690E+01  0.21118138129E+01  0.90379433108E+01  0.12307833394E+02  0.51100000000E-03 0. -1.
        -11    1    3    3    0    0  0.24238009174E+00  0.12283861625E+02 -0.57031796320E+01  0.13545414822E+02  0.51100000000E-03 0.  1.
         12    1    3    3    0    0  0.10679526757E+02 -0.24400758327E+02  0.20232723187E+02  0.33448652982E+02  0.00000000000E+00 0. -1.
</event>
<event>
 7    1  0.6953847E-012  0.5930194E+02  0.7816164E-02  0.1266605E+00
        -11   -1    0    0    0    0  0.00000000000E+00  0.00000000000E+00  0.45593999997E+02  0.45594000000E+02  0.51100000000E-03 0. -1.
         11   -1    0    0    0    0 -0.00000000000E+00 -0.00000000000E+00 -0.45593999997E+02  0.45594000000E+02  0.51100000000E-03 0.  1.
    9900012    2    1    2    0    0  0.11141345153E+02 -0.29788763719E+02  0.22849035172E+01  0.59301940353E+02  0.49999993298E+02 0.  0.
        -12    1    1    2    0    0 -0.11141345153E+02  0.29788763719E+02 -0.22849035172E+01  0.31886059647E+02  0.00000000000E+00 0.  1.
         11    1    3    3    0    0  0.33160563208E+01  0.55759093531E+01  0.22254146245E+01  0.68585322883E+01  0.51100000000E-03 0. -1.
        -11    1    3    3    0    0  0.91232725177E+01  0.60520174909E+01  0.10177068146E+01  0.10995305569E+02  0.51100000000E-03 0.  1.
         12    1    3    3    0    0 -0.12979836857E+01 -0.41416690563E+02 -0.95821792195E+00  0.41448102495E+02  0.00000000000E+00 0. -1.
</event>
<event>
 7    1  0.6953847E-012  0.5930193E+02  0.7816164E-02  0.1266605E+00
        -11   -1    0    0    0    0  0.00000000000E+00  0.00000000000E+00  0.45593999997E+02  0.45594000000E+02  0.51100000000E-03 0.  1.
         11   -1    0    0    0    0 -0.00000000000E+00 -0.00000000000E+00 -0.45593999997E+02  0.45594000000E+02  0.51100000000E-03 0. -1.
    9900012    2    1    2    0    0 -0.68252565926E+01 -0.28076812949E+02  0.13484425577E+02  0.59301932728E+02  0.49999979392E+02 0.  0.
        -12    1    1    2    0    0  0.68252565926E+01  0.28076812949E+02 -0.13484425577E+02  0.31886067272E+02  0.00000000000E+00 0.  1.
         11    1    3    3    0    0 -0.31798217617E+01 -0.73790557548E+01  0.12225691223E+02  0.14629738767E+02  0.51100000000E-03 0. -1.
        -11    1    3    3    0    0 -0.58132022479E+01 -0.12581780140E+02  0.19885386708E+02  0.24238876143E+02  0.51100000000E-03 0.  1.
         12    1    3    3    0    0  0.21677674169E+01 -0.81159770540E+01 -0.18626652354E+02  0.20433317818E+02  0.00000000000E+00 0. -1.
</event>
<event>
 7    1  0.6953847E-012  0.5930192E+02  0.7816164E-02  0.1266605E+00
        -11   -1    0    0    0    0  0.00000000000E+00  0.00000000000E+00  0.45593999997E+02  0.45594000000E+02  0.51100000000E-03 0. -1.
         11   -1    0    0    0    0 -0.00000000000E+00 -0.00000000000E+00 -0.45593999997E+02  0.45594000000E+02  0.51100000000E-03 0.  1.
    9900012    2    1    2    0    0 -0.18930361651E+02  0.18471963695E+02  0.17808702261E+02  0.59301922925E+02  0.49999961514E+02 0.  0.
        -12    1    1    2    0    0  0.18930361651E+02 -0.18471963695E+02 -0.17808702261E+02  0.31886077075E+02  0.00000000000E+00 0.  1.
         11    1    3    3    0    0  0.93849378469E+00 -0.32385307605E+01  0.18150396216E+02  0.18460924547E+02  0.51100000000E-03 0. -1.
        -11    1    3    3    0    0 -0.18933919280E+02  0.76036222373E+01  0.10572845834E+02  0.22980283717E+02  0.51100000000E-03 0.  1.
         12    1    3    3    0    0 -0.93493615644E+00  0.14106872218E+02 -0.10914539789E+02  0.17860714661E+02  0.00000000000E+00 0. -1.
</event>
<event>
 7    1  0.6953847E-012  0.5930194E+02  0.7816164E-02  0.1266605E+00
        -11   -1    0    0    0    0  0.00000000000E+00  0.00000000000E+00  0.45593999997E+02  0.45594000000E+02  0.51100000000E-03 0.  1.
         11   -1    0    0    0    0 -0.00000000000E+00 -0.00000000000E+00 -0.45593999997E+02  0.45594000000E+02  0.51100000000E-03 0. -1.
    9900012    2    1    2    0    0 -0.24603936630E+02  0.16314651407E+02 -0.12049875901E+02  0.59301936313E+02  0.49999985931E+02 0.  0.
        -12    1    1    2    0    0  0.24603936630E+02 -0.16314651407E+02  0.12049875901E+02  0.31886063687E+02  0.00000000000E+00 0.  1.
         11    1    3    3    0    0 -0.29530521180E+02  0.86106108773E+01 -0.97422852854E+01  0.32266180804E+02  0.51100000000E-03 0.  1.
        -11    1    3    3    0    0 -0.27696647885E+01 -0.20052591849E+01 -0.11248623041E+02  0.11756854512E+02  0.51100000000E-03 0. -1.
        -12    1    3    3    0    0  0.76962493388E+01  0.97092997141E+01  0.89410324260E+01  0.15278900997E+02  0.00000000000E+00 0.  1.
</event>
<event>
 7    1  0.6953847E-012  0.5930197E+02  0.7816164E-02  0.1266605E+00
        -11   -1    0    0    0    0  0.00000000000E+00  0.00000000000E+00  0.45593999997E+02  0.45594000000E+02  0.51100000000E-03 0.  1.
         11   -1    0    0    0    0 -0.00000000000E+00 -0.00000000000E+00 -0.45593999997E+02  0.45594000000E+02  0.51100000000E-03 0. -1.
    9900012    2    1    2    0    0  0.17677050213E+02 -0.24246032873E+02 -0.10787532812E+02  0.59301967345E+02  0.50000042526E+02 0.  0.
        -12    1    1    2    0    0 -0.17677050213E+02  0.24246032873E+02  0.10787532812E+02  0.31886032655E+02  0.00000000000E+00 0.  1.
         11    1    3    3    0    0  0.40665188793E+01 -0.33219587199E+02 -0.13517309256E+02  0.36094254380E+02  0.51100000000E-03 0. -1.
        -11    1    3    3    0    0 -0.52787403348E+00 -0.29564487146E+01  0.35998512192E+01  0.46880879961E+01  0.51100000000E-03 0.  1.
        -12    1    3    3    0    0  0.14138405367E+02  0.11930003041E+02 -0.87007477521E+00  0.18519624969E+02  0.00000000000E+00 0.  1.
</event>
<event>
 7    1  0.6953847E-012  0.5930196E+02  0.7816164E-02  0.1266605E+00
        -11   -1    0    0    0    0  0.00000000000E+00  0.00000000000E+00  0.45593999997E+02  0.45594000000E+02  0.51100000000E-03 0.  1.
         11   -1    0    0    0    0 -0.00000000000E+00 -0.00000000000E+00 -0.45593999997E+02  0.45594000000E+02  0.51100000000E-03 0. -1.
    9900012    2    1    2    0    0  0.24876809870E+02 -0.44532555057E+01 -0.19443047807E+02  0.59301964468E+02  0.50000037278E+02 0.  0.
        -12    1    1    2    0    0 -0.24876809870E+02  0.44532555057E+01  0.19443047807E+02  0.31886035532E+02  0.00000000000E+00 0.  1.
         11    1    3    3    0    0 -0.75500976046E+01 -0.27272573979E+01  0.40895122115E+00  0.80379815946E+01  0.51100000000E-03 0. -1.
        -11    1    3    3    0    0  0.33143722825E+02  0.92826689349E+01 -0.85391082026E+01  0.35462524930E+02  0.51100000000E-03 0.  1.
         12    1    3    3    0    0 -0.71681535030E+00 -0.11008667043E+02 -0.11312890826E+02  0.15801457943E+02  0.00000000000E+00 0. -1.
</event>
<event>
 7    1  0.6953847E-012  0.5930194E+02  0.7816164E-02  0.1266605E+00
        -11   -1    0    0    0    0  0.00000000000E+00  0.00000000000E+00  0.45593999997E+02  0.45594000000E+02  0.51100000000E-03 0. -1.
         11   -1    0    0    0    0 -0.00000000000E+00 -0.00000000000E+00 -0.45593999997E+02  0.45594000000E+02  0.51100000000E-03 0.  1.
    9900012    2    1    2    0    0  0.14369257494E+02  0.16371476449E+02  0.23285623480E+02  0.59301936228E+02  0.49999985775E+02 0.  0.
        -12    1    1    2    0    0 -0.14369257494E+02 -0.16371476449E+02 -0.23285623480E+02  0.31886063772E+02  0.00000000000E+00 0.  1.
         11    1    3    3    0    0  0.28524603070E+02  0.11573687777E+02  0.11778363333E+02  0.32959567232E+02  0.51100000000E-03 0.  1.
        -11    1    3    3    0    0  0.39095895772E+00 -0.17457599189E+01  0.10181010468E+02  0.10336996711E+02  0.51100000000E-03 0. -1.
        -12    1    3    3    0    0 -0.14546304534E+02  0.65435485907E+01  0.13262496788E+01  0.16005372285E+02  0.00000000000E+00 0.  1.
</event>
<event>
 7    1  0.6953847E-012  0.5930194E+02  0.7816164E-02  0.1266605E+00
        -11   -1    0    0    0    0  0.00000000000E+00  0.00000000000E+00  0.45593999997E+02  0.45594000000E+02  0.51100000000E-03 0.  1.
         11   -1    0    0    0    0 -0.00000000000E+00 -0.00000000000E+00 -0.45593999997E+02  0.45594000000E+02  0.51100000000E-03 0. -1.
    9900012    2    1    2    0    0 -0.10970057578E+02 -0.17503350957E+02 -0.24290149602E+02  0.59301939947E+02  0.49999992558E+02 0.  0.
        -12    1    1    2    0    0  0.10970057578E+02  0.17503350957E+02  0.24290149602E+02  0.31886060053E+02  0.00000000000E+00 0.  1.
         11    1    3    3    0    0  0.76633433753E-01  0.27193136260E+01 -0.13642701246E+02  0.13911284514E+02  0.51100000000E-03 0. -1.
        -11    1    3    3    0    0  0.48834667478E+01  0.76979166683E+01 -0.95846108979E+01  0.13227657950E+02  0.51100000000E-03 0.  1.
         12    1    3    3    0    0 -0.15930157760E+02 -0.27920581251E+02 -0.10628374587E+01  0.32162997484E+02  0.00000000000E+00 0. -1.
</event>
<event>
 7    1  0.6953847E-012  0.5930196E+02  0.7816164E-02  0.1266605E+00
        -11   -1    0    0    0    0  0.00000000000E+00  0.00000000000E+00  0.45593999997E+02  0.45594000000E+02  0.51100000000E-03 0. -1.
         11   -1    0    0    0    0 -0.00000000000E+00 -0.00000000000E+00 -0.45593999997E+02  0.45594000000E+02  0.51100000000E-03 0.  1.
    9900012    2    1    2    0    0  0.27338672093E+02 -0.37390394381E+01  0.15979249843E+02  0.59301955509E+02  0.50000020939E+02 0.  0.
        -12    1    1    2    0    0 -0.27338672093E+02  0.37390394381E+01 -0.15979249843E+02  0.31886044491E+02  0.00000000000E+00 0.  1.
         11    1    3    3    0    0  0.43487734110E+01  0.88014773499E+00 -0.17786442176E+01  0.47801742363E+01  0.51100000000E-03 0. -1.
        -11    1    3    3    0    0  0.15069309642E+02  0.11213218337E+02 -0.10242350435E+02  0.21394534378E+02  0.51100000000E-03 0.  1.
         12    1    3    3    0    0  0.79205890397E+01 -0.15832405510E+02  0.28000244496E+02  0.33127246894E+02  0.00000000000E+00 0. -1.
</event>
<event>
 7    1  0.6953847E-012  0.5930203E+02  0.7816164E-02  0.1266604E+00
        -11   -1    0    0    0    0  0.00000000000E+00  0.00000000000E+00  0.45593999997E+02  0.45594000000E+02  0.51100000000E-03 0.  1.
         11   -1    0    0    0    0 -0.00000000000E+00 -0.00000000000E+00 -0.45593999997E+02  0.45594000000E+02  0.51100000000E-03 0. -1.
    9900012    2    1    2    0    0 -0.18305742210E+02  0.20589482912E+02  0.16052661015E+02  0.59302032395E+02  0.50000161160E+02 0.  0.
        -12    1    1    2    0    0  0.18305742210E+02 -0.20589482912E+02 -0.16052661015E+02  0.31885967605E+02  0.00000000000E+00 0.  1.
         11    1    3    3    0    0 -0.13370026397E+02  0.96911393925E+01  0.97266768848E+01  0.19164655803E+02  0.51100000000E-03 0. -1.
        -11    1    3    3    0    0 -0.19566568900E+02  0.95289115692E+01  0.11428715110E+02  0.24581828727E+02  0.51100000000E-03 0.  1.
        -12    1    3    3    0    0  0.14630853087E+02  0.13694319507E+01 -0.51027309796E+01  0.15555547865E+02  0.00000000000E+00 0.  1.
</event>
<event>
 7    1  0.6953847E-012  0.5930195E+02  0.7816164E-02  0.1266605E+00
        -11   -1    0    0    0    0  0.00000000000E+00  0.00000000000E+00  0.45593999997E+02  0.45594000000E+02  0.51100000000E-03 0.  1.
         11   -1    0    0    0    0 -0.00000000000E+00 -0.00000000000E+00 -0.45593999997E+02  0.45594000000E+02  0.51100000000E-03 0. -1.
    9900012    2    1    2    0    0  0.78633482818E+01  0.26912336336E+02 -0.15185980135E+02  0.59301951547E+02  0.50000013713E+02 0.  0.
        -12    1    1    2    0    0 -0.78633482818E+01 -0.26912336336E+02  0.15185980135E+02  0.31886048453E+02  0.00000000000E+00 0.  1.
         11    1    3    3    0    0  0.17313708241E+01  0.44817236770E+01  0.39950116502E+01  0.62484886488E+01  0.51100000000E-03 0. -1.
        -11    1    3    3    0    0 -0.87505565963E+01  0.33566903151E+01  0.10949026276E+02  0.14412521892E+02  0.51100000000E-03 0.  1.
         12    1    3    3    0    0  0.14882534054E+02  0.19073922344E+02 -0.30130018062E+02  0.38640941006E+02  0.00000000000E+00 0. -1.
</event>
<event>
 7    1  0.6953847E-012  0.5930199E+02  0.7816164E-02  0.1266605E+00
        -11   -1    0    0    0    0  0.00000000000E+00  0.00000000000E+00  0.45593999997E+02  0.45594000000E+02  0.51100000000E-03 0.  1.
         11   -1    0    0    0    0 -0.00000000000E+00 -0.00000000000E+00 -0.45593999997E+02  0.45594000000E+02  0.51100000000E-03 0. -1.
    9900012    2    1    2    0    0  0.20639787236E+02 -0.22403185180E+02 -0.94241326212E+01  0.59301987409E+02  0.50000079116E+02 0.  0.
        -12    1    1    2    0    0 -0.20639787236E+02  0.22403185180E+02  0.94241326212E+01  0.31886012591E+02  0.00000000000E+00 0.  1.
         11    1    3    3    0    0  0.88576408393E+01 -0.57732680636E+01 -0.20675394622E+02  0.23221980286E+02  0.51100000000E-03 0. -1.
        -11    1    3    3    0    0  0.14399767411E+02 -0.17605033681E+02 -0.17222940246E+01  0.22809138725E+02  0.51100000000E-03 0.  1.
        -12    1    3    3    0    0 -0.26176210150E+01  0.97511656472E+00  0.12973556025E+02  0.13270868398E+02  0.00000000000E+00 0.  1.
</event>
<event>
 7    1  0.6953847E-012  0.5930194E+02  0.7816164E-02  0.1266605E+00
        -11   -1    0    0    0    0  0.00000000000E+00  0.00000000000E+00  0.45593999997E+02  0.45594000000E+02  0.51100000000E-03 0.  1.
         11   -1    0    0    0    0 -0.00000000000E+00 -0.00000000000E+00 -0.45593999997E+02  0.45594000000E+02  0.51100000000E-03 0. -1.
    9900012    2    1    2    0    0 -0.23772268567E+02  0.13190394544E+02 -0.16661744588E+02  0.59301937312E+02  0.49999987752E+02 0.  0.
        -12    1    1    2    0    0  0.23772268567E+02 -0.13190394544E+02  0.16661744588E+02  0.31886062688E+02  0.00000000000E+00 0.  1.
         11    1    3    3    0    0 -0.48840225422E+01 -0.56891370464E+01  0.52315745365E+01  0.91427199956E+01  0.51100000000E-03 0. -1.
        -11    1    3    3    0    0 -0.53940141206E+01  0.17261719775E+01  0.10012263157E+02  0.11503063584E+02  0.51100000000E-03 0.  1.
         12    1    3    3    0    0 -0.13494231904E+02  0.17153359613E+02 -0.31905582281E+02  0.38656153733E+02  0.00000000000E+00 0. -1.
</event>
<event>
 7    1  0.6953847E-012  0.5930195E+02  0.7816164E-02  0.1266605E+00
        -11   -1    0    0    0    0  0.00000000000E+00  0.00000000000E+00  0.45593999997E+02  0.45594000000E+02  0.51100000000E-03 0. -1.
         11   -1    0    0    0    0 -0.00000000000E+00 -0.00000000000E+00 -0.45593999997E+02  0.45594000000E+02  0.51100000000E-03 0.  1.
    9900012    2    1    2    0    0 -0.10544466270E+02  0.13707151337E+02  0.26788961836E+02  0.59301949085E+02  0.50000009223E+02 0.  0.
        -12    1    1    2    0    0  0.10544466270E+02 -0.13707151337E+02 -0.26788961836E+02  0.31886050915E+02  0.00000000000E+00 0.  1.
         11    1    3    3    0    0 -0.67397117681E+01 -0.90530319610E+01  0.93695078653E+01  0.14668632530E+02  0.51100000000E-03 0. -1.
        -11    1    3    3    0    0 -0.70291474767E+01  0.20438733244E+02  0.26809734404E+02  0.34437081612E+02  0.51100000000E-03 0.  1.
        -12    1    3    3    0    0  0.32243929750E+01  0.23214500542E+01 -0.93902804327E+01  0.10196234943E+02  0.00000000000E+00 0.  1.
</event>
<event>
 7    1  0.6953847E-012  0.5930189E+02  0.7816164E-02  0.1266605E+00
        -11   -1    0    0    0    0  0.00000000000E+00  0.00000000000E+00  0.45593999997E+02  0.45594000000E+02  0.51100000000E-03 0.  1.
         11   -1    0    0    0    0 -0.00000000000E+00 -0.00000000000E+00 -0.45593999997E+02  0.45594000000E+02  0.51100000000E-03 0. -1.
    9900012    2    1    2    0    0  0.10209092358E+02  0.22630569629E+02 -0.20008900047E+02  0.59301885003E+02  0.49999892353E+02 0.  0.
        -12    1    1    2    0    0 -0.10209092358E+02 -0.22630569629E+02  0.20008900047E+02  0.31886114997E+02  0.00000000000E+00 0.  1.
         11    1    3    3    0    0 -0.78618990756E+00  0.58510158755E+01  0.75592983873E+01  0.95914270948E+01  0.51100000000E-03 0. -1.
        -11    1    3    3    0    0  0.21080564589E+02  0.20533793074E+02 -0.14576264318E+02  0.32840437620E+02  0.51100000000E-03 0.  1.
         12    1    3    3    0    0 -0.10085282323E+02 -0.37542393199E+01 -0.12991934117E+02  0.16870020288E+02  0.00000000000E+00 0. -1.
</event>
<event>
 7    1  0.6953847E-012  0.5930196E+02  0.7816164E-02  0.1266605E+00
        -11   -1    0    0    0    0  0.00000000000E+00  0.00000000000E+00  0.45593999997E+02  0.45594000000E+02  0.51100000000E-03 0.  1.
         11   -1    0    0    0    0 -0.00000000000E+00 -0.00000000000E+00 -0.45593999997E+02  0.45594000000E+02  0.51100000000E-03 0. -1.
    9900012    2    1    2    0    0 -0.20949327841E+01 -0.20265628804E+02 -0.24528244519E+02  0.59301964916E+02  0.50000038096E+02 0.  0.
        -12    1    1    2    0    0  0.20949327841E+01  0.20265628804E+02  0.24528244519E+02  0.31886035084E+02  0.00000000000E+00 0.  1.
         11    1    3    3    0    0 -0.13055903360E+02 -0.27677753920E+02 -0.16663886034E+02  0.34845369458E+02  0.51100000000E-03 0. -1.
        -11    1    3    3    0    0 -0.52965063410E+01  0.37332344082E+01 -0.18940751641E+01  0.67511139492E+01  0.51100000000E-03 0.  1.
         12    1    3    3    0    0  0.16257476917E+02  0.36788907085E+01 -0.59702833209E+01  0.17705481509E+02  0.00000000000E+00 0. -1.
</event>
<event>
 7    1  0.6953847E-012  0.5930192E+02  0.7816164E-02  0.1266605E+00
        -11   -1    0    0    0    0  0.00000000000E+00  0.00000000000E+00  0.45593999997E+02  0.45594000000E+02  0.51100000000E-03 0. -1.
         11   -1    0    0    0    0 -0.00000000000E+00 -0.00000000000E+00 -0.45593999997E+02  0.45594000000E+02  0.51100000000E-03 0.  1.
    9900012    2    1    2    0    0  0.69062039547E+00  0.95321815949E-01  0.31878459950E+02  0.59301917588E+02  0.49999951781E+02 0.  0.
        -12    1    1    2    0    0 -0.69062039547E+00 -0.95321815949E-01 -0.31878459950E+02  0.31886082412E+02  0.00000000000E+00 0.  1.
         11    1    3    3    0    0  0.84761531981E+01 -0.81732476315E+01  0.26023457487E+02  0.28563394226E+02  0.51100000000E-03 0. -1.
        -11    1    3    3    0    0  0.21738801684E+01 -0.84465683607E+01  0.70929592109E+01  0.11241901204E+02  0.51100000000E-03 0.  1.
        -12    1    3    3    0    0 -0.99594129710E+01  0.16715137808E+02 -0.12379567477E+01  0.19496622158E+02  0.00000000000E+00 0.  1.
</event>
<event>
 7    1  0.6953847E-012  0.5930193E+02  0.7816164E-02  0.1266605E+00
        -11   -1    0    0    0    0  0.00000000000E+00  0.00000000000E+00  0.45593999997E+02  0.45594000000E+02  0.51100000000E-03 0.  1.
         11   -1    0    0    0    0 -0.00000000000E+00 -0.00000000000E+00 -0.45593999997E+02  0.45594000000E+02  0.51100000000E-03 0. -1.
    9900012    2    1    2    0    0  0.25368665826E+02  0.18708426216E+02  0.48111300487E+01  0.59301931104E+02  0.49999976430E+02 0.  0.
        -12    1    1    2    0    0 -0.25368665826E+02 -0.18708426216E+02 -0.48111300487E+01  0.31886068896E+02  0.00000000000E+00 0.  1.
         11    1    3    3    0    0  0.27939257487E+02 -0.25655907960E+01 -0.14685604955E+01  0.28095213743E+02  0.51100000000E-03 0. -1.
        -11    1    3    3    0    0  0.47246233437E+01  0.39625518720E+01  0.10291360211E+02  0.11997332134E+02  0.51100000000E-03 0.  1.
         12    1    3    3    0    0 -0.72952150051E+01  0.17311465140E+02 -0.40116696670E+01  0.19209385227E+02  0.00000000000E+00 0. -1.
</event>
<event>
 7    1  0.6953847E-012  0.5930189E+02  0.7816164E-02  0.1266605E+00
        -11   -1    0    0    0    0  0.00000000000E+00  0.00000000000E+00  0.45593999997E+02  0.45594000000E+02  0.51100000000E-03 0.  1.
         11   -1    0    0    0    0 -0.00000000000E+00 -0.00000000000E+00 -0.45593999997E+02  0.45594000000E+02  0.51100000000E-03 0. -1.
    9900012    2    1    2    0    0 -0.24676599711E+02 -0.30130809887E+01 -0.19967743112E+02  0.59301890244E+02  0.49999901912E+02 0.  0.
        -12    1    1    2    0    0  0.24676599711E+02  0.30130809887E+01  0.19967743112E+02  0.31886109756E+02  0.00000000000E+00 0.  1.
         11    1    3    3    0    0 -0.13779223060E+02 -0.21541010420E+02 -0.93703025311E+01  0.27233888591E+02  0.51100000000E-03 0. -1.
        -11    1    3    3    0    0  0.24441380133E+01 -0.11804575929E+01  0.34826288853E+01  0.44154269296E+01  0.51100000000E-03 0.  1.
        -12    1    3    3    0    0 -0.13341514665E+02  0.19708387024E+02 -0.14080069467E+02  0.27652574723E+02  0.00000000000E+00 0.  1.
</event>
<event>
 7    1  0.6953847E-012  0.5930196E+02  0.7816164E-02  0.1266605E+00
        -11   -1    0    0    0    0  0.00000000000E+00  0.00000000000E+00  0.45593999997E+02  0.45594000000E+02  0.51100000000E-03 0.  1.
         11   -1    0    0    0    0 -0.00000000000E+00 -0.00000000000E+00 -0.45593999997E+02  0.45594000000E+02  0.51100000000E-03 0. -1.
    9900012    2    1    2    0    0  0.24914645804E+01 -0.25080084853E+02 -0.19532067003E+02  0.59301957702E+02  0.50000024939E+02 0.  0.
        -12    1    1    2    0    0 -0.24914645804E+01  0.25080084853E+02  0.19532067003E+02  0.31886042298E+02  0.00000000000E+00 0.  1.
         11    1    3    3    0    0 -0.13600117976E+02 -0.93798989605E+01 -0.11595194920E+02  0.20184009983E+02  0.51100000000E-03 0. -1.
        -11    1    3    3    0    0 -0.83963368211E+01 -0.51772044806E+01 -0.76171536799E+01  0.12462862781E+02  0.51100000000E-03 0.  1.
        -12    1    3    3    0    0  0.24487919378E+02 -0.10522981412E+02 -0.31971840307E+00  0.26655084939E+02  0.00000000000E+00 0.  1.
</event>
<event>
 7    1  0.6953847E-012  0.5930215E+02  0.7816164E-02  0.1266604E+00
        -11   -1    0    0    0    0  0.00000000000E+00  0.00000000000E+00  0.45593999997E+02  0.45594000000E+02  0.51100000000E-03 0.  1.
         11   -1    0    0    0    0 -0.00000000000E+00 -0.00000000000E+00 -0.45593999997E+02  0.45594000000E+02  0.51100000000E-03 0. -1.
    9900012    2    1    2    0    0 -0.15765845750E+02  0.24894201291E+02  0.12182944736E+02  0.59302152159E+02  0.50000379579E+02 0.  0.
        -12    1    1    2    0    0  0.15765845750E+02 -0.24894201291E+02 -0.12182944736E+02  0.31885847841E+02  0.00000000000E+00 0.  1.
         11    1    3    3    0    0 -0.41303635326E+01  0.12263079919E+02  0.75260503098E+01  0.14969451077E+02  0.51100000000E-03 0. -1.
        -11    1    3    3    0    0  0.76618369202E+00  0.19808037124E+02  0.16462254367E+02  0.25767250363E+02  0.51100000000E-03 0.  1.
         12    1    3    3    0    0 -0.12401665910E+02 -0.71769157528E+01 -0.11805359941E+02  0.18565450719E+02  0.00000000000E+00 0. -1.
</event>
<event>
 7    1  0.6953847E-012  0.5930196E+02  0.7816164E-02  0.1266605E+00
        -11   -1    0    0    0    0  0.00000000000E+00  0.00000000000E+00  0.45593999997E+02  0.45594000000E+02  0.51100000000E-03 0. -1.
         11   -1    0    0    0    0 -0.00000000000E+00 -0.00000000000E+00 -0.45593999997E+02  0.45594000000E+02  0.51100000000E-03 0.  1.
    9900012    2    1    2    0    0  0.10384206988E+01 -0.31712977987E+02  0.31509449239E+01  0.59301956904E+02  0.50000023484E+02 0.  0.
        -12    1    1    2    0    0 -0.10384206988E+01  0.31712977987E+02 -0.31509449239E+01  0.31886043096E+02  0.00000000000E+00 0.  1.
         11    1    3    3    0    0 -0.56066692962E+01  0.60780417558E+01 -0.48909309349E+01  0.96072128036E+01  0.51100000000E-03 0. -1.
        -11    1    3    3    0    0 -0.14079462059E+01 -0.27978524878E+02 -0.80981587972E+01  0.29160938652E+02  0.51100000000E-03 0.  1.
        -12    1    3    3    0    0  0.80530362009E+01 -0.98124948651E+01  0.16140034656E+02  0.20533805449E+02  0.00000000000E+00 0.  1.
</event>
<event>
 7    1  0.6953847E-012  0.5930194E+02  0.7816164E-02  0.1266605E+00
        -11   -1    0    0    0    0  0.00000000000E+00  0.00000000000E+00  0.45593999997E+02  0.45594000000E+02  0.51100000000E-03 0.  1.
         11   -1    0    0    0    0 -0.00000000000E+00 -0.00000000000E+00 -0.45593999997E+02  0.45594000000E+02  0.51100000000E-03 0. -1.
    9900012    2    1    2    0    0 -0.15595847249E+02  0.27725063704E+02 -0.21934114795E+01  0.59301942503E+02  0.49999997219E+02 0.  0.
        -12    1    1    2    0    0  0.15595847249E+02 -0.27725063704E+02  0.21934114795E+01  0.31886057497E+02  0.00000000000E+00 0.  1.
         11    1    3    3    0    0 -0.19943501991E+02  0.11998989442E+02 -0.45638981327E+01  0.23718098274E+02  0.51100000000E-03 0. -1.
        -11    1    3    3    0    0  0.14602115429E+01  0.23690103865E+02 -0.51140973978E+01  0.24279770001E+02  0.51100000000E-03 0.  1.
         12    1    3    3    0    0  0.28874431992E+01 -0.79640296021E+01  0.74845840510E+01  0.11304074228E+02  0.00000000000E+00 0. -1.
</event>
<event>
 7    1  0.6953847E-012  0.5930195E+02  0.7816164E-02  0.1266605E+00
        -11   -1    0    0    0    0  0.00000000000E+00  0.00000000000E+00  0.45593999997E+02  0.45594000000E+02  0.51100000000E-03 0. -1.
         11   -1    0    0    0    0 -0.00000000000E+00 -0.00000000000E+00 -0.45593999997E+02  0.45594000000E+02  0.51100000000E-03 0.  1.
    9900012    2    1    2    0    0 -0.23865942582E+02  0.43000092472E+01  0.20703784592E+02  0.59301953031E+02  0.50000016420E+02 0.  0.
        -12    1    1    2    0    0  0.23865942582E+02 -0.43000092472E+01 -0.20703784592E+02  0.31886046969E+02  0.00000000000E+00 0.  1.
         11    1    3    3    0    0 -0.23458826542E+02 -0.42905771032E+00  0.10208710576E+02  0.25587465782E+02  0.51100000000E-03 0. -1.
        -11    1    3    3    0    0 -0.85456038701E+01 -0.10380827011E+02 -0.28251599805E+00  0.13448744569E+02  0.51100000000E-03 0.  1.
        -12    1    3    3    0    0  0.81384878296E+01  0.15109893968E+02  0.10777590014E+02  0.20265742681E+02  0.00000000000E+00 0.  1.
</event>
<event>
 7    1  0.6953847E-012  0.5930194E+02  0.7816164E-02  0.1266605E+00
        -11   -1    0    0    0    0  0.00000000000E+00  0.00000000000E+00  0.45593999997E+02  0.45594000000E+02  0.51100000000E-03 0.  1.
         11   -1    0    0    0    0 -0.00000000000E+00 -0.00000000000E+00 -0.45593999997E+02  0.45594000000E+02  0.51100000000E-03 0. -1.
    9900012    2    1    2    0    0 -0.89964224674E+01 -0.90099591463E+01 -0.29233643347E+02  0.59301939027E+02  0.49999990880E+02 0.  0.
        -12    1    1    2    0    0  0.89964224674E+01  0.90099591463E+01  0.29233643347E+02  0.31886060973E+02  0.00000000000E+00 0.  1.
         11    1    3    3    0    0 -0.40353951872E+01 -0.74218463190E+01  0.59023351836E+01  0.10305618758E+02  0.51100000000E-03 0. -1.
        -11    1    3    3    0    0 -0.21748957273E+01  0.16006504256E+02 -0.14203670314E+02  0.21510058126E+02  0.51100000000E-03 0.  1.
         12    1    3    3    0    0 -0.27861315529E+01 -0.17594617084E+02 -0.20932308217E+02  0.27486262144E+02  0.00000000000E+00 0. -1.
</event>
<event>
 7    1  0.6953847E-012  0.5930192E+02  0.7816164E-02  0.1266605E+00
        -11   -1    0    0    0    0  0.00000000000E+00  0.00000000000E+00  0.45593999997E+02  0.45594000000E+02  0.51100000000E-03 0.  1.
         11   -1    0    0    0    0 -0.00000000000E+00 -0.00000000000E+00 -0.45593999997E+02  0.45594000000E+02  0.51100000000E-03 0. -1.
    9900012    2    1    2    0    0 -0.30232107012E+02 -0.99495856581E+01  0.19358428364E+01  0.59301920958E+02  0.49999957927E+02 0.  0.
        -12    1    1    2    0    0  0.30232107012E+02  0.99495856581E+01 -0.19358428364E+01  0.31886079042E+02  0.00000000000E+00 0.  1.
         11    1    3    3    0    0 -0.11882589558E+02 -0.91049481821E+01 -0.55793716076E+01  0.15975775531E+02  0.51100000000E-03 0. -1.
        -11    1    3    3    0    0 -0.13632737393E+01  0.14415639107E+02 -0.71895978337E+01  0.16166616326E+02  0.51100000000E-03 0.  1.
         12    1    3    3    0    0 -0.16986243715E+02 -0.15260276583E+02  0.14704812278E+02  0.27159529102E+02  0.00000000000E+00 0. -1.
</event>
<event>
 7    1  0.6953847E-012  0.5930193E+02  0.7816164E-02  0.1266605E+00
        -11   -1    0    0    0    0  0.00000000000E+00  0.00000000000E+00  0.45593999997E+02  0.45594000000E+02  0.51100000000E-03 0.  1.
         11   -1    0    0    0    0 -0.00000000000E+00 -0.00000000000E+00 -0.45593999997E+02  0.45594000000E+02  0.51100000000E-03 0. -1.
    9900012    2    1    2    0    0  0.87409238110E+01 -0.30664263273E+02  0.14339171732E+00  0.59301931689E+02  0.49999977498E+02 0.  0.
        -12    1    1    2    0    0 -0.87409238110E+01  0.30664263273E+02 -0.14339171732E+00  0.31886068311E+02  0.00000000000E+00 0.  1.
         11    1    3    3    0    0 -0.48892373688E+01 -0.18100199477E+02 -0.29569021171E+01  0.18980651558E+02  0.51100000000E-03 0. -1.
        -11    1    3    3    0    0 -0.25411852228E+01 -0.21296208081E+02  0.44113288630E+01  0.21896253642E+02  0.51100000000E-03 0.  1.
        -12    1    3    3    0    0  0.16171346403E+02  0.87321442852E+01 -0.13110350286E+01  0.18425026490E+02  0.00000000000E+00 0.  1.
</event>
<event>
 7    1  0.6953847E-012  0.5930197E+02  0.7816164E-02  0.1266605E+00
        -11   -1    0    0    0    0  0.00000000000E+00  0.00000000000E+00  0.45593999997E+02  0.45594000000E+02  0.51100000000E-03 0. -1.
         11   -1    0    0    0    0 -0.00000000000E+00 -0.00000000000E+00 -0.45593999997E+02  0.45594000000E+02  0.51100000000E-03 0.  1.
    9900012    2    1    2    0    0  0.11534996056E+02 -0.29655003791E+02  0.20600449911E+01  0.59301965922E+02  0.50000039929E+02 0.  0.
        -12    1    1    2    0    0 -0.11534996056E+02  0.29655003791E+02 -0.20600449911E+01  0.31886034078E+02  0.00000000000E+00 0.  1.
         11    1    3    3    0    0 -0.60497482318E+01 -0.83795690719E+01  0.66501056119E-01  0.10335427139E+02  0.51100000000E-03 0.  1.
        -11    1    3    3    0    0  0.61769182223E+01 -0.12669036937E+02  0.20936014985E+02  0.25238374340E+02  0.51100000000E-03 0. -1.
         12    1    3    3    0    0  0.11407826065E+02 -0.86063977825E+01 -0.18942471050E+02  0.23728164442E+02  0.00000000000E+00 0. -1.
</event>
<event>
 7    1  0.6953847E-012  0.5930195E+02  0.7816164E-02  0.1266605E+00
        -11   -1    0    0    0    0  0.00000000000E+00  0.00000000000E+00  0.45593999997E+02  0.45594000000E+02  0.51100000000E-03 0. -1.
         11   -1    0    0    0    0 -0.00000000000E+00 -0.00000000000E+00 -0.45593999997E+02  0.45594000000E+02  0.51100000000E-03 0.  1.
    9900012    2    1    2    0    0 -0.78460395992E+01 -0.83541056831E+01  0.29755150676E+02  0.59301946451E+02  0.50000004420E+02 0.  0.
        -12    1    1    2    0    0  0.78460395992E+01  0.83541056831E+01 -0.29755150676E+02  0.31886053549E+02  0.00000000000E+00 0.  1.
         11    1    3    3    0    0 -0.11722543491E+02 -0.17378600959E+02  0.80558138233E+01  0.22457291329E+02  0.51100000000E-03 0.  1.
        -11    1    3    3    0    0 -0.44937258963E+01 -0.87249275244E+01  0.99321969706E+01  0.13963039413E+02  0.51100000000E-03 0. -1.
        -12    1    3    3    0    0  0.83702297884E+01  0.17749422800E+02  0.11767139882E+02  0.22881615709E+02  0.00000000000E+00 0.  1.
</event>
<event>
 7    1  0.6953847E-012  0.5930195E+02  0.7816164E-02  0.1266605E+00
        -11   -1    0    0    0    0  0.00000000000E+00  0.00000000000E+00  0.45593999997E+02  0.45594000000E+02  0.51100000000E-03 0.  1.
         11   -1    0    0    0    0 -0.00000000000E+00 -0.00000000000E+00 -0.45593999997E+02  0.45594000000E+02  0.51100000000E-03 0. -1.
    9900012    2    1    2    0    0 -0.21228407007E+00  0.67521591033E+00 -0.31878190738E+02  0.59301952491E+02  0.50000015434E+02 0.  0.
        -12    1    1    2    0    0  0.21228407007E+00 -0.67521591033E+00  0.31878190738E+02  0.31886047509E+02  0.00000000000E+00 0.  1.
         11    1    3    3    0    0 -0.51977623867E+01 -0.86910103404E+01 -0.22906063466E+00  0.10129307163E+02  0.51100000000E-03 0. -1.
        -11    1    3    3    0    0 -0.90368681412E+00  0.32174620635E+01  0.79735236130E+01  0.86455648199E+01  0.51100000000E-03 0.  1.
         12    1    3    3    0    0  0.58891651307E+01  0.61487641872E+01 -0.39622653716E+02  0.40527080508E+02  0.00000000000E+00 0. -1.
</event>
<event>
 7    1  0.6953847E-012  0.5930195E+02  0.7816164E-02  0.1266605E+00
        -11   -1    0    0    0    0  0.00000000000E+00  0.00000000000E+00  0.45593999997E+02  0.45594000000E+02  0.51100000000E-03 0.  1.
         11   -1    0    0    0    0 -0.00000000000E+00 -0.00000000000E+00 -0.45593999997E+02  0.45594000000E+02  0.51100000000E-03 0. -1.
    9900012    2    1    2    0    0 -0.24250683055E+02  0.30325047139E+01 -0.20479952544E+02  0.59301950234E+02  0.50000011318E+02 0.  0.
        -12    1    1    2    0    0  0.24250683055E+02 -0.30325047139E+01  0.20479952544E+02  0.31886049766E+02  0.00000000000E+00 0.  1.
         11    1    3    3    0    0 -0.28603740314E+02  0.36429163962E+00 -0.66337429579E+01  0.29365170087E+02  0.51100000000E-03 0. -1.
        -11    1    3    3    0    0 -0.53412003632E+01  0.56797066901E+01  0.44762074643E+01  0.89902126188E+01  0.51100000000E-03 0.  1.
         12    1    3    3    0    0  0.96942576216E+01 -0.30114936158E+01 -0.18322417051E+02  0.20946567528E+02  0.00000000000E+00 0. -1.
</event>
<event>
 7    1  0.6953847E-012  0.5930188E+02  0.7816164E-02  0.1266605E+00
        -11   -1    0    0    0    0  0.00000000000E+00  0.00000000000E+00  0.45593999997E+02  0.45594000000E+02  0.51100000000E-03 0. -1.
         11   -1    0    0    0    0 -0.00000000000E+00 -0.00000000000E+00 -0.45593999997E+02  0.45594000000E+02  0.51100000000E-03 0.  1.
    9900012    2    1    2    0    0  0.39439133959E+01  0.30756126470E+02  0.74317300019E+01  0.59301884226E+02  0.49999890936E+02 0.  0.
        -12    1    1    2    0    0 -0.39439133959E+01 -0.30756126470E+02 -0.74317300019E+01  0.31886115774E+02  0.00000000000E+00 0.  1.
         11    1    3    3    0    0 -0.90773313431E+01  0.75618028931E+01  0.34388400085E+01  0.12304650672E+02  0.51100000000E-03 0. -1.
        -11    1    3    3    0    0 -0.10013510703E+02  0.38461601776E+01  0.11771092501E+02  0.15925512979E+02  0.51100000000E-03 0.  1.
         12    1    3    3    0    0  0.23034755442E+02  0.19348163399E+02 -0.77782025081E+01  0.31071720575E+02  0.00000000000E+00 0. -1.
</event>
<event>
 7    1  0.6953847E-012  0.5930195E+02  0.7816164E-02  0.1266605E+00
        -11   -1    0    0    0    0  0.00000000000E+00  0.00000000000E+00  0.45593999997E+02  0.45594000000E+02  0.51100000000E-03 0.  1.
         11   -1    0    0    0    0 -0.00000000000E+00 -0.00000000000E+00 -0.45593999997E+02  0.45594000000E+02  0.51100000000E-03 0. -1.
    9900012    2    1    2    0    0 -0.20108692255E+02 -0.61488925842E+01 -0.23969809188E+02  0.59301950751E+02  0.50000012262E+02 0.  0.
        -12    1    1    2    0    0  0.20108692255E+02  0.61488925842E+01  0.23969809188E+02  0.31886049249E+02  0.00000000000E+00 0.  1.
         11    1    3    3    0    0  0.59215561677E+01  0.64700196407E+01 -0.36263701268E+01  0.94908662490E+01  0.51100000000E-03 0. -1.
        -11    1    3    3    0    0  0.32203145679E+01  0.35221201478E+01  0.57121278799E+01  0.74433971699E+01  0.51100000000E-03 0.  1.
         12    1    3    3    0    0 -0.29250562990E+02 -0.16141032373E+02 -0.26055566941E+02  0.42367687332E+02  0.00000000000E+00 0. -1.
</event>
<event>
 7    1  0.6953847E-012  0.5930198E+02  0.7816164E-02  0.1266605E+00
        -11   -1    0    0    0    0  0.00000000000E+00  0.00000000000E+00  0.45593999997E+02  0.45594000000E+02  0.51100000000E-03 0.  1.
         11   -1    0    0    0    0 -0.00000000000E+00 -0.00000000000E+00 -0.45593999997E+02  0.45594000000E+02  0.51100000000E-03 0. -1.
    9900012    2    1    2    0    0 -0.23043130582E+02 -0.92986124931E+01 -0.19981696984E+02  0.59301979934E+02  0.50000065484E+02 0.  0.
        -12    1    1    2    0    0  0.23043130582E+02  0.92986124931E+01  0.19981696984E+02  0.31886020066E+02  0.00000000000E+00 0.  1.
         11    1    3    3    0    0  0.87392793329E+00  0.14439389711E+02 -0.10634248046E+02  0.17954023422E+02  0.51100000000E-03 0. -1.
        -11    1    3    3    0    0 -0.79638897216E+01  0.17283461860E+01 -0.77639758931E+01  0.11255667104E+02  0.51100000000E-03 0.  1.
        -12    1    3    3    0    0 -0.15953168794E+02 -0.25466348390E+02 -0.15834730449E+01  0.30092289407E+02  0.00000000000E+00 0.  1.
</event>
<event>
 7    1  0.6953847E-012  0.5930195E+02  0.7816164E-02  0.1266605E+00
        -11   -1    0    0    0    0  0.00000000000E+00  0.00000000000E+00  0.45593999997E+02  0.45594000000E+02  0.51100000000E-03 0. -1.
         11   -1    0    0    0    0 -0.00000000000E+00 -0.00000000000E+00 -0.45593999997E+02  0.45594000000E+02  0.51100000000E-03 0.  1.
    9900012    2    1    2    0    0  0.17895835558E+02 -0.22130232646E+02  0.14377475758E+02  0.59301953891E+02  0.50000017989E+02 0.  0.
        -12    1    1    2    0    0 -0.17895835558E+02  0.22130232646E+02 -0.14377475758E+02  0.31886046109E+02  0.00000000000E+00 0.  1.
         11    1    3    3    0    0 -0.48065535040E+01 -0.20295614643E+01 -0.27712683276E+01  0.59077918657E+01  0.51100000000E-03 0. -1.
        -11    1    3    3    0    0  0.55312076464E+01  0.10700510999E+02 -0.34816432560E+01  0.12538621682E+02  0.51100000000E-03 0.  1.
         12    1    3    3    0    0  0.17171181415E+02 -0.30801182180E+02  0.20630387342E+02  0.40855540344E+02  0.00000000000E+00 0. -1.
</event>
<event>
 7    1  0.6953847E-012  0.5930199E+02  0.7816164E-02  0.1266605E+00
        -11   -1    0    0    0    0  0.00000000000E+00  0.00000000000E+00  0.45593999997E+02  0.45594000000E+02  0.51100000000E-03 0.  1.
         11   -1    0    0    0    0 -0.00000000000E+00 -0.00000000000E+00 -0.45593999997E+02  0.45594000000E+02  0.51100000000E-03 0. -1.
    9900012    2    1    2    0    0 -0.74487210865E+01  0.21208177916E+02 -0.22615206389E+02  0.59301987136E+02  0.50000078619E+02 0.  0.
        -12    1    1    2    0    0  0.74487210865E+01 -0.21208177916E+02  0.22615206389E+02  0.31886012864E+02  0.00000000000E+00 0.  1.
         11    1    3    3    0    0 -0.92493247212E+01  0.34624643042E+01 -0.18876516276E+02  0.21304026235E+02  0.51100000000E-03 0. -1.
        -11    1    3    3    0    0 -0.21969196060E-01 -0.96361888869E+01 -0.42944775654E+01  0.10549841550E+02  0.51100000000E-03 0.  1.
        -12    1    3    3    0    0  0.18225728308E+01  0.27381902499E+02  0.55578745298E+00  0.27448119351E+02  0.00000000000E+00 0.  1.
</event>
<event>
 7    1  0.6953847E-012  0.5930197E+02  0.7816164E-02  0.1266605E+00
        -11   -1    0    0    0    0  0.00000000000E+00  0.00000000000E+00  0.45593999997E+02  0.45594000000E+02  0.51100000000E-03 0.  1.
         11   -1    0    0    0    0 -0.00000000000E+00 -0.00000000000E+00 -0.45593999997E+02  0.45594000000E+02  0.51100000000E-03 0. -1.
    9900012    2    1    2    0    0 -0.89807102838E+00  0.18873331353E+02 -0.25684821006E+02  0.59301965470E+02  0.50000039106E+02 0.  0.
        -12    1    1    2    0    0  0.89807102838E+00 -0.18873331353E+02  0.25684821006E+02  0.31886034530E+02  0.00000000000E+00 0.  1.
         11    1    3    3    0    0 -0.20074130769E+02  0.95226306106E+01 -0.50556078570E+01  0.22786188601E+02  0.51100000000E-03 0. -1.
        -11    1    3    3    0    0  0.52817892279E+01  0.97740959614E+01 -0.19659161699E+02  0.22581250813E+02  0.51100000000E-03 0.  1.
        -12    1    3    3    0    0  0.13894270513E+02 -0.42339521907E+00 -0.97005144964E+00  0.13934526056E+02  0.00000000000E+00 0.  1.
</event>
<event>
 7    1  0.6953847E-012  0.5930194E+02  0.7816164E-02  0.1266605E+00
        -11   -1    0    0    0    0  0.00000000000E+00  0.00000000000E+00  0.45593999997E+02  0.45594000000E+02  0.51100000000E-03 0. -1.
         11   -1    0    0    0    0 -0.00000000000E+00 -0.00000000000E+00 -0.45593999997E+02  0.45594000000E+02  0.51100000000E-03 0.  1.
    9900012    2    1    2    0    0 -0.15873629427E+02  0.27344103919E+02 -0.41290266095E+01  0.59301937354E+02  0.49999987829E+02 0.  0.
        -12    1    1    2    0    0  0.15873629427E+02 -0.27344103919E+02  0.41290266095E+01  0.31886062646E+02  0.00000000000E+00 0.  1.
         11    1    3    3    0    0  0.33431508502E+01 -0.72881465333E+01  0.85174405367E+01  0.11697885752E+02  0.51100000000E-03 0.  1.
        -11    1    3    3    0    0 -0.16997911829E+02  0.21950276532E+02  0.23234474395E+01  0.27859326169E+02  0.51100000000E-03 0. -1.
        -12    1    3    3    0    0 -0.22188684486E+01  0.12681973921E+02 -0.14969914586E+02  0.19744725433E+02  0.00000000000E+00 0.  1.
</event>
<event>
 7    1  0.6953847E-012  0.5930195E+02  0.7816164E-02  0.1266605E+00
        -11   -1    0    0    0    0  0.00000000000E+00  0.00000000000E+00  0.45593999997E+02  0.45594000000E+02  0.51100000000E-03 0.  1.
         11   -1    0    0    0    0 -0.00000000000E+00 -0.00000000000E+00 -0.45593999997E+02  0.45594000000E+02  0.51100000000E-03 0. -1.
    9900012    2    1    2    0    0 -0.44123345734E+01  0.20037570386E+02 -0.24407938891E+02  0.59301946556E+02  0.50000004610E+02 0.  0.
        -12    1    1    2    0    0  0.44123345734E+01 -0.20037570386E+02  0.24407938891E+02  0.31886053444E+02  0.00000000000E+00 0.  1.
         11    1    3    3    0    0 -0.21586117839E+02  0.53796362425E+01 -0.92848037103E+01  0.24106193181E+02  0.51100000000E-03 0. -1.
        -11    1    3    3    0    0 -0.52160793707E+01  0.67310756873E+00 -0.37071884732E+01  0.64345788081E+01  0.51100000000E-03 0.  1.
        -12    1    3    3    0    0  0.22389862637E+02  0.13984826575E+02 -0.11415946707E+02  0.28761174566E+02  0.00000000000E+00 0.  1.
</event>
<event>
 7    1  0.6953847E-012  0.5930195E+02  0.7816164E-02  0.1266605E+00
        -11   -1    0    0    0    0  0.00000000000E+00  0.00000000000E+00  0.45593999997E+02  0.45594000000E+02  0.51100000000E-03 0.  1.
         11   -1    0    0    0    0 -0.00000000000E+00 -0.00000000000E+00 -0.45593999997E+02  0.45594000000E+02  0.51100000000E-03 0. -1.
    9900012    2    1    2    0    0 -0.20134682084E+02 -0.73527889060E+01 -0.23606175142E+02  0.59301946119E+02  0.50000003813E+02 0.  0.
        -12    1    1    2    0    0  0.20134682084E+02  0.73527889060E+01  0.23606175142E+02  0.31886053881E+02  0.00000000000E+00 0.  1.
         11    1    3    3    0    0  0.90740528651E+01  0.19732549650E+01 -0.12127906023E+00  0.92869198030E+01  0.51100000000E-03 0. -1.
        -11    1    3    3    0    0  0.23328727596E+00  0.56004611250E+01  0.41422581604E+01  0.69697841211E+01  0.51100000000E-03 0.  1.
        -12    1    3    3    0    0 -0.29442022225E+02 -0.14926504996E+02 -0.27627154242E+02  0.43045242195E+02  0.00000000000E+00 0.  1.
</event>
<event>
 7    1  0.6953847E-012  0.5930194E+02  0.7816164E-02  0.1266605E+00
        -11   -1    0    0    0    0  0.00000000000E+00  0.00000000000E+00  0.45593999997E+02  0.45594000000E+02  0.51100000000E-03 0.  1.
         11   -1    0    0    0    0 -0.00000000000E+00 -0.00000000000E+00 -0.45593999997E+02  0.45594000000E+02  0.51100000000E-03 0. -1.
    9900012    2    1    2    0    0  0.38633158660E+01  0.29264042542E+02 -0.12058659944E+02  0.59301942310E+02  0.49999996866E+02 0.  0.
        -12    1    1    2    0    0 -0.38633158660E+01 -0.29264042542E+02  0.12058659944E+02  0.31886057690E+02  0.00000000000E+00 0.  1.
         11    1    3    3    0    0 -0.14322289369E+00  0.88242663232E+01  0.57768325917E+01  0.10547984831E+02  0.51100000000E-03 0. -1.
        -11    1    3    3    0    0 -0.12261180511E+02  0.92934530920E+01  0.71154895263E+01  0.16950958951E+02  0.51100000000E-03 0.  1.
         12    1    3    3    0    0  0.16267719270E+02  0.11146323127E+02 -0.24950982062E+02  0.31802998528E+02  0.00000000000E+00 0. -1.
</event>
<event>
 7    1  0.6953847E-012  0.5930194E+02  0.7816164E-02  0.1266605E+00
        -11   -1    0    0    0    0  0.00000000000E+00  0.00000000000E+00  0.45593999997E+02  0.45594000000E+02  0.51100000000E-03 0.  1.
         11   -1    0    0    0    0 -0.00000000000E+00 -0.00000000000E+00 -0.45593999997E+02  0.45594000000E+02  0.51100000000E-03 0. -1.
    9900012    2    1    2    0    0  0.20710888242E+02 -0.23999667472E+02  0.34345042107E+01  0.59301941139E+02  0.49999994731E+02 0.  0.
        -12    1    1    2    0    0 -0.20710888242E+02  0.23999667472E+02 -0.34345042107E+01  0.31886058861E+02  0.00000000000E+00 0.  1.
         11    1    3    3    0    0  0.20376547569E+01 -0.11223015223E+02 -0.88014723436E+01  0.14407429447E+02  0.51100000000E-03 0. -1.
        -11    1    3    3    0    0  0.11935687011E+02 -0.17415181366E+02  0.23100406371E+02  0.31295014638E+02  0.51100000000E-03 0.  1.
         12    1    3    3    0    0  0.67375464736E+01  0.46385291166E+01 -0.10864429817E+02  0.13599497053E+02  0.00000000000E+00 0. -1.
</event>
<event>
 7    1  0.6953847E-012  0.5930198E+02  0.7816164E-02  0.1266605E+00
        -11   -1    0    0    0    0  0.00000000000E+00  0.00000000000E+00  0.45593999997E+02  0.45594000000E+02  0.51100000000E-03 0.  1.
         11   -1    0    0    0    0 -0.00000000000E+00 -0.00000000000E+00 -0.45593999997E+02  0.45594000000E+02  0.51100000000E-03 0. -1.
    9900012    2    1    2    0    0 -0.75204814158E+01  0.28757276334E+02 -0.11540351829E+02  0.59301979502E+02  0.50000064696E+02 0.  0.
        -12    1    1    2    0    0  0.75204814158E+01 -0.28757276334E+02  0.11540351829E+02  0.31886020498E+02  0.00000000000E+00 0.  1.
         11    1    3    3    0    0 -0.74471893610E+00  0.15181733326E+02  0.66361558245E+01  0.16585481526E+02  0.51100000000E-03 0. -1.
        -11    1    3    3    0    0 -0.79796768353E+01  0.31424450034E+01  0.96879309154E+01  0.12938555123E+02  0.51100000000E-03 0.  1.
         12    1    3    3    0    0  0.12039143556E+01  0.10433098005E+02 -0.27864438569E+02  0.29777942852E+02  0.00000000000E+00 0. -1.
</event>
<event>
 7    1  0.6953847E-012  0.5930196E+02  0.7816164E-02  0.1266605E+00
        -11   -1    0    0    0    0  0.00000000000E+00  0.00000000000E+00  0.45593999997E+02  0.45594000000E+02  0.51100000000E-03 0.  1.
         11   -1    0    0    0    0 -0.00000000000E+00 -0.00000000000E+00 -0.45593999997E+02  0.45594000000E+02  0.51100000000E-03 0. -1.
    9900012    2    1    2    0    0  0.17364208021E+02 -0.22014710476E+02 -0.15184081737E+02  0.59301960175E+02  0.50000029449E+02 0.  0.
        -12    1    1    2    0    0 -0.17364208021E+02  0.22014710476E+02  0.15184081737E+02  0.31886039825E+02  0.00000000000E+00 0.  1.
         11    1    3    3    0    0 -0.13055552363E+00  0.70796576026E+01 -0.16622422367E+02  0.18067748120E+02  0.51100000000E-03 0. -1.
        -11    1    3    3    0    0 -0.53137875146E+01 -0.17424051618E+01  0.36317787599E+00  0.56039461034E+01  0.51100000000E-03 0.  1.
        -12    1    3    3    0    0  0.22808551059E+02 -0.27351962917E+02  0.10751627548E+01  0.35630265951E+02  0.00000000000E+00 0.  1.
</event>
<event>
 7    1  0.6953847E-012  0.5930195E+02  0.7816164E-02  0.1266605E+00
        -11   -1    0    0    0    0  0.00000000000E+00  0.00000000000E+00  0.45593999997E+02  0.45594000000E+02  0.51100000000E-03 0.  1.
         11   -1    0    0    0    0 -0.00000000000E+00 -0.00000000000E+00 -0.45593999997E+02  0.45594000000E+02  0.51100000000E-03 0. -1.
    9900012    2    1    2    0    0 -0.17521003731E+02  0.15530466851E+02 -0.21645772753E+02  0.59301945831E+02  0.50000003289E+02 0.  0.
        -12    1    1    2    0    0  0.17521003731E+02 -0.15530466851E+02  0.21645772753E+02  0.31886054169E+02  0.00000000000E+00 0.  1.
         11    1    3    3    0    0 -0.14589600117E+02 -0.43727531137E+01 -0.72424095448E+01  0.16865049589E+02  0.51100000000E-03 0. -1.
        -11    1    3    3    0    0 -0.18625908567E+02  0.12259328572E+02 -0.61730137823E+01  0.23137020258E+02  0.51100000000E-03 0.  1.
         12    1    3    3    0    0  0.15694504953E+02  0.76438913926E+01 -0.82303494263E+01  0.19299875984E+02  0.00000000000E+00 0. -1.
</event>
<event>
 7    1  0.6953847E-012  0.5930192E+02  0.7816164E-02  0.1266605E+00
        -11   -1    0    0    0    0  0.00000000000E+00  0.00000000000E+00  0.45593999997E+02  0.45594000000E+02  0.51100000000E-03 0.  1.
         11   -1    0    0    0    0 -0.00000000000E+00 -0.00000000000E+00 -0.45593999997E+02  0.45594000000E+02  0.51100000000E-03 0. -1.
    9900012    2    1    2    0    0  0.17669204677E+02 -0.26349423181E+02  0.31983153487E+01  0.59301919699E+02  0.49999955631E+02 0.  0.
        -12    1    1    2    0    0 -0.17669204677E+02  0.26349423181E+02 -0.31983153487E+01  0.31886080301E+02  0.00000000000E+00 0.  1.
         11    1    3    3    0    0 -0.13862686551E+01 -0.19429836336E+01 -0.39059868380E+00  0.24185726736E+01  0.51100000000E-03 0. -1.
        -11    1    3    3    0    0  0.26407680393E+01 -0.17337226678E+02  0.24018510300E+02  0.29739568289E+02  0.51100000000E-03 0.  1.
         12    1    3    3    0    0  0.16414705293E+02 -0.70692128691E+01 -0.20429596268E+02  0.27143778736E+02  0.00000000000E+00 0. -1.
</event>
<event>
 7    1  0.6953847E-012  0.5930195E+02  0.7816164E-02  0.1266605E+00
        -11   -1    0    0    0    0  0.00000000000E+00  0.00000000000E+00  0.45593999997E+02  0.45594000000E+02  0.51100000000E-03 0. -1.
         11   -1    0    0    0    0 -0.00000000000E+00 -0.00000000000E+00 -0.45593999997E+02  0.45594000000E+02  0.51100000000E-03 0.  1.
    9900012    2    1    2    0    0  0.98185023792E+01 -0.40226159505E+01  0.30068848741E+02  0.59301951442E+02  0.50000013521E+02 0.  0.
        -12    1    1    2    0    0 -0.98185023792E+01  0.40226159505E+01 -0.30068848741E+02  0.31886048558E+02  0.00000000000E+00 0.  1.
         11    1    3    3    0    0 -0.10169008821E+02 -0.19721440478E+01  0.51117090572E+01  0.11551089226E+02  0.51100000000E-03 0. -1.
        -11    1    3    3    0    0  0.93697439152E-01 -0.16127147111E+02  0.12347809231E+02  0.20311623426E+02  0.51100000000E-03 0.  1.
         12    1    3    3    0    0  0.19893813761E+02  0.14076675208E+02  0.12609330453E+02  0.27439238790E+02  0.00000000000E+00 0. -1.
</event>
<event>
 7    1  0.6953847E-012  0.5930195E+02  0.7816164E-02  0.1266605E+00
        -11   -1    0    0    0    0  0.00000000000E+00  0.00000000000E+00  0.45593999997E+02  0.45594000000E+02  0.51100000000E-03 0. -1.
         11   -1    0    0    0    0 -0.00000000000E+00 -0.00000000000E+00 -0.45593999997E+02  0.45594000000E+02  0.51100000000E-03 0.  1.
    9900012    2    1    2    0    0 -0.18228065093E+02  0.16054784238E+02  0.20656753221E+02  0.59301954344E+02  0.50000018814E+02 0.  0.
        -12    1    1    2    0    0  0.18228065093E+02 -0.16054784238E+02 -0.20656753221E+02  0.31886045656E+02  0.00000000000E+00 0.  1.
         11    1    3    3    0    0  0.64223012641E+01 -0.57635837750E+00  0.75535823728E+01  0.99315028788E+01  0.51100000000E-03 0. -1.
        -11    1    3    3    0    0 -0.58046760041E+01 -0.24429023046E+01 -0.11414975810E+02  0.13037013009E+02  0.51100000000E-03 0.  1.
        -12    1    3    3    0    0 -0.18845690353E+02  0.19074044920E+02  0.24518146658E+02  0.36333438456E+02  0.00000000000E+00 0.  1.
</event>
<event>
 7    1  0.6953847E-012  0.5930190E+02  0.7816164E-02  0.1266605E+00
        -11   -1    0    0    0    0  0.00000000000E+00  0.00000000000E+00  0.45593999997E+02  0.45594000000E+02  0.51100000000E-03 0.  1.
         11   -1    0    0    0    0 -0.00000000000E+00 -0.00000000000E+00 -0.45593999997E+02  0.45594000000E+02  0.51100000000E-03 0. -1.
    9900012    2    1    2    0    0  0.31212282513E+02  0.64561704638E+01  0.91354976272E+00  0.59301901306E+02  0.49999922086E+02 0.  0.
        -12    1    1    2    0    0 -0.31212282513E+02 -0.64561704638E+01 -0.91354976272E+00  0.31886098694E+02  0.00000000000E+00 0.  1.
         11    1    3    3    0    0  0.16943729127E+02  0.19766519436E+02 -0.47301713500E+01  0.26460910200E+02  0.51100000000E-03 0. -1.
        -11    1    3    3    0    0 -0.71897032931E+01 -0.62979035715E+00  0.28515045240E+01  0.77601254918E+01  0.51100000000E-03 0.  1.
         12    1    3    3    0    0  0.21458256679E+02 -0.12680558615E+02  0.27922165887E+01  0.25080865614E+02  0.00000000000E+00 0. -1.
</event>
<event>
 7    1  0.6953847E-012  0.5930191E+02  0.7816164E-02  0.1266605E+00
        -11   -1    0    0    0    0  0.00000000000E+00  0.00000000000E+00  0.45593999997E+02  0.45594000000E+02  0.51100000000E-03 0.  1.
         11   -1    0    0    0    0 -0.00000000000E+00 -0.00000000000E+00 -0.45593999997E+02  0.45594000000E+02  0.51100000000E-03 0. -1.
    9900012    2    1    2    0    0 -0.38005977909E+01  0.45353087654E+01 -0.31332241562E+02  0.59301906943E+02  0.49999932366E+02 0.  0.
        -12    1    1    2    0    0  0.38005977909E+01 -0.45353087654E+01  0.31332241562E+02  0.31886093057E+02  0.00000000000E+00 0.  1.
         11    1    3    3    0    0 -0.28644274645E+01  0.20721623536E+02 -0.12814496735E+02  0.24531652074E+02  0.51100000000E-03 0. -1.
        -11    1    3    3    0    0  0.11633475352E+02 -0.52651858319E+01 -0.84429906460E+01  0.15308299119E+02  0.51100000000E-03 0.  1.
        -12    1    3    3    0    0 -0.12569645679E+02 -0.10921128938E+02 -0.10074754181E+02  0.19461955749E+02  0.00000000000E+00 0.  1.
</event>
<event>
 7    1  0.6953847E-012  0.5930197E+02  0.7816164E-02  0.1266605E+00
        -11   -1    0    0    0    0  0.00000000000E+00  0.00000000000E+00  0.45593999997E+02  0.45594000000E+02  0.51100000000E-03 0.  1.
         11   -1    0    0    0    0 -0.00000000000E+00 -0.00000000000E+00 -0.45593999997E+02  0.45594000000E+02  0.51100000000E-03 0. -1.
    9900012    2    1    2    0    0  0.25527286410E+02 -0.42646333989E+01 -0.18624964441E+02  0.59301972497E+02  0.50000051922E+02 0.  0.
        -12    1    1    2    0    0 -0.25527286410E+02  0.42646333989E+01  0.18624964441E+02  0.31886027503E+02  0.00000000000E+00 0.  1.
         11    1    3    3    0    0  0.20151238401E+02 -0.12803692991E+02  0.91706587975E+01  0.25575534136E+02  0.51100000000E-03 0. -1.
        -11    1    3    3    0    0 -0.77519958251E+00 -0.20169609666E+01  0.10483240511E+01  0.24016763959E+01  0.51100000000E-03 0.  1.
         12    1    3    3    0    0  0.61512475912E+01  0.10556020558E+02 -0.28843947289E+02  0.31324761965E+02  0.00000000000E+00 0. -1.
</event>
<event>
 7    1  0.6953847E-012  0.5930202E+02  0.7816164E-02  0.1266604E+00
        -11   -1    0    0    0    0  0.00000000000E+00  0.00000000000E+00  0.45593999997E+02  0.45594000000E+02  0.51100000000E-03 0. -1.
         11   -1    0    0    0    0 -0.00000000000E+00 -0.00000000000E+00 -0.45593999997E+02  0.45594000000E+02  0.51100000000E-03 0.  1.
    9900012    2    1    2    0    0 -0.31006957371E+02  0.68903158195E+01 -0.27942108690E+01  0.59302023900E+02  0.50000145667E+02 0.  0.
        -12    1    1    2    0    0  0.31006957371E+02 -0.68903158195E+01  0.27942108690E+01  0.31885976100E+02  0.00000000000E+00 0.  1.
         11    1    3    3    0    0 -0.16811219976E+02  0.18723218634E+02  0.87787586539E+01  0.26650377800E+02  0.51100000000E-03 0. -1.
        -11    1    3    3    0    0 -0.15681024525E+02 -0.12602209455E+02  0.83180902604E+00  0.20134600066E+02  0.51100000000E-03 0.  1.
        -12    1    3    3    0    0  0.14852871299E+01  0.76930663976E+00 -0.12404778549E+02  0.12517046034E+02  0.00000000000E+00 0.  1.
</event>
<event>
 7    1  0.6953847E-012  0.5930193E+02  0.7816164E-02  0.1266605E+00
        -11   -1    0    0    0    0  0.00000000000E+00  0.00000000000E+00  0.45593999997E+02  0.45594000000E+02  0.51100000000E-03 0.  1.
         11   -1    0    0    0    0 -0.00000000000E+00 -0.00000000000E+00 -0.45593999997E+02  0.45594000000E+02  0.51100000000E-03 0. -1.
    9900012    2    1    2    0    0 -0.39614505877E+01 -0.28242527017E+02 -0.14261421314E+02  0.59301928418E+02  0.49999971532E+02 0.  0.
        -12    1    1    2    0    0  0.39614505877E+01  0.28242527017E+02  0.14261421314E+02  0.31886071582E+02  0.00000000000E+00 0.  1.
         11    1    3    3    0    0 -0.82757001264E+01 -0.18169438048E+02 -0.91223312330E+01  0.21950686070E+02  0.51100000000E-03 0. -1.
        -11    1    3    3    0    0 -0.84639567627E+01 -0.19041829556E+02  0.23820752292E+00  0.20839543661E+02  0.51100000000E-03 0.  1.
        -12    1    3    3    0    0  0.12778206301E+02  0.89687405874E+01 -0.53772976037E+01  0.16511698687E+02  0.00000000000E+00 0.  1.
</event>
<event>
 7    1  0.6953847E-012  0.5930194E+02  0.7816164E-02  0.1266605E+00
        -11   -1    0    0    0    0  0.00000000000E+00  0.00000000000E+00  0.45593999997E+02  0.45594000000E+02  0.51100000000E-03 0. -1.
         11   -1    0    0    0    0 -0.00000000000E+00 -0.00000000000E+00 -0.45593999997E+02  0.45594000000E+02  0.51100000000E-03 0.  1.
    9900012    2    1    2    0    0  0.25296219349E+02 -0.15052932709E+02  0.12256880405E+02  0.59301943270E+02  0.49999998619E+02 0.  0.
        -12    1    1    2    0    0 -0.25296219349E+02  0.15052932709E+02 -0.12256880405E+02  0.31886056730E+02  0.00000000000E+00 0.  1.
         11    1    3    3    0    0  0.14015638769E+02  0.54751552427E+01 -0.86964091671E+01  0.17379383985E+02  0.51100000000E-03 0.  1.
        -11    1    3    3    0    0  0.13298520358E+01  0.66514841316E+01  0.71506155508E+01  0.98560666904E+01  0.51100000000E-03 0. -1.
        -12    1    3    3    0    0  0.99507285442E+01 -0.27179572083E+02  0.13802674022E+02  0.32066492595E+02  0.00000000000E+00 0.  1.
</event>
<event>
 7    1  0.6953847E-012  0.5930193E+02  0.7816164E-02  0.1266605E+00
        -11   -1    0    0    0    0  0.00000000000E+00  0.00000000000E+00  0.45593999997E+02  0.45594000000E+02  0.51100000000E-03 0. -1.
         11   -1    0    0    0    0 -0.00000000000E+00 -0.00000000000E+00 -0.45593999997E+02  0.45594000000E+02  0.51100000000E-03 0.  1.
    9900012    2    1    2    0    0  0.29444209713E+02 -0.11412441577E+02 -0.44176837377E+01  0.59301933482E+02  0.49999980768E+02 0.  0.
        -12    1    1    2    0    0 -0.29444209713E+02  0.11412441577E+02  0.44176837377E+01  0.31886066518E+02  0.00000000000E+00 0.  1.
         11    1    3    3    0    0 -0.24856641559E+00 -0.12970624947E+02 -0.12964221419E+01  0.13037622766E+02  0.51100000000E-03 0. -1.
        -11    1    3    3    0    0 -0.70468013789E+01 -0.16187799552E+01 -0.58304123905E+01  0.92882488727E+01  0.51100000000E-03 0.  1.
        -12    1    3    3    0    0  0.36739577508E+02  0.31769633251E+01  0.27091507948E+01  0.36976061843E+02  0.00000000000E+00 0.  1.
</event>
<event>
 7    1  0.6953847E-012  0.5930194E+02  0.7816164E-02  0.1266605E+00
        -11   -1    0    0    0    0  0.00000000000E+00  0.00000000000E+00  0.45593999997E+02  0.45594000000E+02  0.51100000000E-03 0. -1.
         11   -1    0    0    0    0 -0.00000000000E+00 -0.00000000000E+00 -0.45593999997E+02  0.45594000000E+02  0.51100000000E-03 0.  1.
    9900012    2    1    2    0    0  0.28377036325E+02  0.87532270014E+00  0.14515446804E+02  0.59301943857E+02  0.49999999688E+02 0.  0.
        -12    1    1    2    0    0 -0.28377036325E+02 -0.87532270014E+00 -0.14515446804E+02  0.31886056143E+02  0.00000000000E+00 0.  1.
         11    1    3    3    0    0  0.13398184746E+02  0.70791847845E+01  0.10450551070E+02  0.18407613360E+02  0.51100000000E-03 0.  1.
        -11    1    3    3    0    0  0.18356709155E+02 -0.37082047586E+01  0.18220623935E+02  0.26128733042E+02  0.51100000000E-03 0. -1.
        -12    1    3    3    0    0 -0.33778575750E+01 -0.24956573258E+01 -0.14155728201E+02  0.14765597455E+02  0.00000000000E+00 0.  1.
</event>
<event>
 7    1  0.6953847E-012  0.5930195E+02  0.7816164E-02  0.1266605E+00
        -11   -1    0    0    0    0  0.00000000000E+00  0.00000000000E+00  0.45593999997E+02  0.45594000000E+02  0.51100000000E-03 0. -1.
         11   -1    0    0    0    0 -0.00000000000E+00 -0.00000000000E+00 -0.45593999997E+02  0.45594000000E+02  0.51100000000E-03 0.  1.
    9900012    2    1    2    0    0  0.10233523022E+02  0.22598086459E+02  0.20033011102E+02  0.59301952286E+02  0.50000015061E+02 0.  0.
        -12    1    1    2    0    0 -0.10233523022E+02 -0.22598086459E+02 -0.20033011102E+02  0.31886047714E+02  0.00000000000E+00 0.  1.
         11    1    3    3    0    0  0.15286575242E+02  0.14447741483E+02  0.30539359111E+02  0.37081923787E+02  0.51100000000E-03 0. -1.
        -11    1    3    3    0    0 -0.80643206494E+01  0.28841205232E+01  0.15684826394E+01  0.87069832192E+01  0.51100000000E-03 0.  1.
        -12    1    3    3    0    0  0.30112684296E+01  0.52662244527E+01 -0.12074830648E+02  0.13513045280E+02  0.00000000000E+00 0.  1.
</event>
<event>
 7    1  0.6953847E-012  0.5930190E+02  0.7816164E-02  0.1266605E+00
        -11   -1    0    0    0    0  0.00000000000E+00  0.00000000000E+00  0.45593999997E+02  0.45594000000E+02  0.51100000000E-03 0. -1.
         11   -1    0    0    0    0 -0.00000000000E+00 -0.00000000000E+00 -0.45593999997E+02  0.45594000000E+02  0.51100000000E-03 0.  1.
    9900012    2    1    2    0    0  0.31082584644E+01 -0.49911425802E+01  0.31339286492E+02  0.59301895616E+02  0.49999911709E+02 0.  0.
        -12    1    1    2    0    0 -0.31082584644E+01  0.49911425802E+01 -0.31339286492E+02  0.31886104384E+02  0.00000000000E+00 0.  1.
         11    1    3    3    0    0  0.30745015400E+01  0.40559291722E+01  0.20748885306E+01  0.54962063139E+01  0.51100000000E-03 0. -1.
        -11    1    3    3    0    0  0.19828891065E+02 -0.14538836662E+02  0.16754133252E+02  0.29753380877E+02  0.51100000000E-03 0.  1.
        -12    1    3    3    0    0 -0.19795134140E+02  0.54917649097E+01  0.12510264709E+02  0.24052308425E+02  0.00000000000E+00 0.  1.
</event>
<event>
 7    1  0.6953847E-012  0.5930222E+02  0.7816164E-02  0.1266604E+00
        -11   -1    0    0    0    0  0.00000000000E+00  0.00000000000E+00  0.45593999997E+02  0.45594000000E+02  0.51100000000E-03 0.  1.
         11   -1    0    0    0    0 -0.00000000000E+00 -0.00000000000E+00 -0.45593999997E+02  0.45594000000E+02  0.51100000000E-03 0. -1.
    9900012    2    1    2    0    0  0.28875030309E+02 -0.72671294033E+01 -0.11407209634E+02  0.59302219835E+02  0.50000503004E+02 0.  0.
        -12    1    1    2    0    0 -0.28875030309E+02  0.72671294033E+01  0.11407209634E+02  0.31885780165E+02  0.00000000000E+00 0.  1.
         11    1    3    3    0    0  0.11338477135E+01 -0.11661597037E+01 -0.19400512283E+02  0.19468575095E+02  0.51100000000E-03 0. -1.
        -11    1    3    3    0    0 -0.44416285674E+01  0.32386100288E+01  0.15236285503E+01  0.57042180419E+01  0.51100000000E-03 0.  1.
         12    1    3    3    0    0  0.32182811162E+02 -0.93395797284E+01  0.64696740990E+01  0.34129426699E+02  0.00000000000E+00 0. -1.
</event>
<event>
 7    1  0.6953847E-012  0.5930193E+02  0.7816164E-02  0.1266605E+00
        -11   -1    0    0    0    0  0.00000000000E+00  0.00000000000E+00  0.45593999997E+02  0.45594000000E+02  0.51100000000E-03 0. -1.
         11   -1    0    0    0    0 -0.00000000000E+00 -0.00000000000E+00 -0.45593999997E+02  0.45594000000E+02  0.51100000000E-03 0.  1.
    9900012    2    1    2    0    0 -0.32258894010E+01 -0.40904048288E+01  0.31457646284E+02  0.59301932763E+02  0.49999979456E+02 0.  0.
        -12    1    1    2    0    0  0.32258894010E+01  0.40904048288E+01 -0.31457646284E+02  0.31886067237E+02  0.00000000000E+00 0.  1.
         11    1    3    3    0    0 -0.48821655009E+01  0.24630019305E-01  0.20343236781E+01  0.52891038659E+01  0.51100000000E-03 0.  1.
        -11    1    3    3    0    0 -0.21194616420E+02 -0.24135180532E+01  0.19985718547E+02  0.29231246649E+02  0.51100000000E-03 0. -1.
        -12    1    3    3    0    0  0.22850892520E+02 -0.17015167949E+01  0.94376040592E+01  0.24781582248E+02  0.00000000000E+00 0.  1.
</event>
<event>
 7    1  0.6953847E-012  0.5930194E+02  0.7816164E-02  0.1266605E+00
        -11   -1    0    0    0    0  0.00000000000E+00  0.00000000000E+00  0.45593999997E+02  0.45594000000E+02  0.51100000000E-03 0.  1.
         11   -1    0    0    0    0 -0.00000000000E+00 -0.00000000000E+00 -0.45593999997E+02  0.45594000000E+02  0.51100000000E-03 0. -1.
    9900012    2    1    2    0    0  0.18128068760E+02 -0.61574994123E+01 -0.25498605971E+02  0.59301943761E+02  0.49999999514E+02 0.  0.
        -12    1    1    2    0    0 -0.18128068760E+02  0.61574994123E+01  0.25498605971E+02  0.31886056239E+02  0.00000000000E+00 0.  1.
         11    1    3    3    0    0  0.42884118320E+01 -0.25940501138E+01 -0.30139113535E+02  0.30552998821E+02  0.51100000000E-03 0. -1.
        -11    1    3    3    0    0 -0.69441767981E+01  0.10146771553E+01  0.20410620362E+01  0.73086999959E+01  0.51100000000E-03 0.  1.
         12    1    3    3    0    0  0.20783833727E+02 -0.45781264537E+01  0.25994455275E+01  0.21440244944E+02  0.00000000000E+00 0. -1.
</event>
<event>
 7    1  0.6953847E-012  0.5930194E+02  0.7816164E-02  0.1266605E+00
        -11   -1    0    0    0    0  0.00000000000E+00  0.00000000000E+00  0.45593999997E+02  0.45594000000E+02  0.51100000000E-03 0.  1.
         11   -1    0    0    0    0 -0.00000000000E+00 -0.00000000000E+00 -0.45593999997E+02  0.45594000000E+02  0.51100000000E-03 0. -1.
    9900012    2    1    2    0    0 -0.14749433786E+02  0.18647917221E+02 -0.21246882232E+02  0.59301943199E+02  0.49999998489E+02 0.  0.
        -12    1    1    2    0    0  0.14749433786E+02 -0.18647917221E+02  0.21246882232E+02  0.31886056801E+02  0.00000000000E+00 0.  1.
         11    1    3    3    0    0 -0.92541934379E+01 -0.38647022537E+01  0.30585869692E+01  0.10484797290E+02  0.51100000000E-03 0.  1.
        -11    1    3    3    0    0  0.13592243231E+02  0.11342928401E+01 -0.68873471397E+01  0.15279765940E+02  0.51100000000E-03 0. -1.
         12    1    3    3    0    0 -0.19087483579E+02  0.21378326635E+02 -0.17418122062E+02  0.33537379970E+02  0.00000000000E+00 0. -1.
</event>
<event>
 7    1  0.6953847E-012  0.5930206E+02  0.7816164E-02  0.1266604E+00
        -11   -1    0    0    0    0  0.00000000000E+00  0.00000000000E+00  0.45593999997E+02  0.45594000000E+02  0.51100000000E-03 0.  1.
         11   -1    0    0    0    0 -0.00000000000E+00 -0.00000000000E+00 -0.45593999997E+02  0.45594000000E+02  0.51100000000E-03 0. -1.
    9900012    2    1    2    0    0  0.62960726877E+00 -0.31878792264E+02 -0.24384666148E+00  0.59302058541E+02  0.50000208844E+02 0.  0.
        -12    1    1    2    0    0 -0.62960726877E+00  0.31878792264E+02  0.24384666148E+00  0.31885941459E+02  0.00000000000E+00 0.  1.
         11    1    3    3    0    0 -0.76006197347E+01 -0.17766222787E+02  0.32673002416E+01  0.19598044382E+02  0.51100000000E-03 0. -1.
        -11    1    3    3    0    0  0.99026321981E+01  0.15857707074E+01  0.13290058600E+02  0.16649397918E+02  0.51100000000E-03 0.  1.
        -12    1    3    3    0    0 -0.16724051946E+01 -0.15698340185E+02 -0.16801205503E+02  0.23054616241E+02  0.00000000000E+00 0.  1.
</event>
<event>
 7    1  0.6953847E-012  0.5930195E+02  0.7816164E-02  0.1266605E+00
        -11   -1    0    0    0    0  0.00000000000E+00  0.00000000000E+00  0.45593999997E+02  0.45594000000E+02  0.51100000000E-03 0.  1.
         11   -1    0    0    0    0 -0.00000000000E+00 -0.00000000000E+00 -0.45593999997E+02  0.45594000000E+02  0.51100000000E-03 0. -1.
    9900012    2    1    2    0    0 -0.14343575933E+02 -0.26978556813E+02 -0.91180887917E+01  0.59301949108E+02  0.50000009266E+02 0.  0.
        -12    1    1    2    0    0  0.14343575933E+02  0.26978556813E+02  0.91180887917E+01  0.31886050892E+02  0.00000000000E+00 0.  1.
         11    1    3    3    0    0 -0.42005733507E+01 -0.74311858315E+01  0.74077019436E+01  0.11302273563E+02  0.51100000000E-03 0. -1.
        -11    1    3    3    0    0 -0.12153885283E+02 -0.28705581121E+02 -0.26931677287E+01  0.31288663564E+02  0.51100000000E-03 0.  1.
         12    1    3    3    0    0  0.20108827003E+01  0.91582101399E+01 -0.13832623007E+02  0.16711011981E+02  0.00000000000E+00 0. -1.
</event>
<event>
 7    1  0.6953847E-012  0.5930176E+02  0.7816164E-02  0.1266605E+00
        -11   -1    0    0    0    0  0.00000000000E+00  0.00000000000E+00  0.45593999997E+02  0.45594000000E+02  0.51100000000E-03 0.  1.
         11   -1    0    0    0    0 -0.00000000000E+00 -0.00000000000E+00 -0.45593999997E+02  0.45594000000E+02  0.51100000000E-03 0. -1.
    9900012    2    1    2    0    0 -0.28947148151E+01  0.13531703199E+02 -0.28727089900E+02  0.59301763793E+02  0.49999671294E+02 0.  0.
        -12    1    1    2    0    0  0.28947148151E+01 -0.13531703199E+02  0.28727089900E+02  0.31886236207E+02  0.00000000000E+00 0.  1.
         11    1    3    3    0    0 -0.11595200343E+02  0.65435537493E+01  0.19956632391E+01  0.13462891171E+02  0.51100000000E-03 0. -1.
        -11    1    3    3    0    0 -0.10684097397E+02  0.52868204380E+01 -0.35896723071E+01  0.12449343559E+02  0.51100000000E-03 0.  1.
         12    1    3    3    0    0  0.19384582924E+02  0.17013290115E+01 -0.27133080832E+02  0.33389529062E+02  0.00000000000E+00 0. -1.
</event>
<event>
 7    1  0.6953847E-012  0.5930215E+02  0.7816164E-02  0.1266604E+00
        -11   -1    0    0    0    0  0.00000000000E+00  0.00000000000E+00  0.45593999997E+02  0.45594000000E+02  0.51100000000E-03 0. -1.
         11   -1    0    0    0    0 -0.00000000000E+00 -0.00000000000E+00 -0.45593999997E+02  0.45594000000E+02  0.51100000000E-03 0.  1.
    9900012    2    1    2    0    0  0.25313518470E+02  0.18377430104E+02 -0.61809029618E+01  0.59302145519E+02  0.50000367471E+02 0.  0.
        -12    1    1    2    0    0 -0.25313518470E+02 -0.18377430104E+02  0.61809029618E+01  0.31885854481E+02  0.00000000000E+00 0.  1.
         11    1    3    3    0    0  0.81264070225E+01  0.15897447381E+02  0.35853544419E+01  0.18210493982E+02  0.51100000000E-03 0. -1.
        -11    1    3    3    0    0 -0.63741505595E+00  0.16826394562E+02 -0.21429881281E+01  0.16974282026E+02  0.51100000000E-03 0.  1.
        -12    1    3    3    0    0  0.17824526503E+02 -0.14346411839E+02 -0.76232692756E+01  0.24117369512E+02  0.00000000000E+00 0.  1.
</event>
<event>
 7    1  0.6953847E-012  0.5930193E+02  0.7816164E-02  0.1266605E+00
        -11   -1    0    0    0    0  0.00000000000E+00  0.00000000000E+00  0.45593999997E+02  0.45594000000E+02  0.51100000000E-03 0.  1.
         11   -1    0    0    0    0 -0.00000000000E+00 -0.00000000000E+00 -0.45593999997E+02  0.45594000000E+02  0.51100000000E-03 0. -1.
    9900012    2    1    2    0    0  0.21117056828E+02 -0.67868548169E+01 -0.22906979333E+02  0.59301934241E+02  0.49999982152E+02 0.  0.
        -12    1    1    2    0    0 -0.21117056828E+02  0.67868548169E+01  0.22906979333E+02  0.31886065759E+02  0.00000000000E+00 0.  1.
         11    1    3    3    0    0  0.26591721310E+00 -0.13268914020E+02 -0.16206302388E+02  0.20947052981E+02  0.51100000000E-03 0. -1.
        -11    1    3    3    0    0 -0.27388651665E+01  0.25984131440E+01 -0.13077463789E+02  0.13611509567E+02  0.51100000000E-03 0.  1.
         12    1    3    3    0    0  0.23590004782E+02  0.38836460591E+01  0.63767868440E+01  0.24743371694E+02  0.00000000000E+00 0. -1.
</event>
<event>
 7    1  0.6953847E-012  0.5930196E+02  0.7816164E-02  0.1266605E+00
        -11   -1    0    0    0    0  0.00000000000E+00  0.00000000000E+00  0.45593999997E+02  0.45594000000E+02  0.51100000000E-03 0.  1.
         11   -1    0    0    0    0 -0.00000000000E+00 -0.00000000000E+00 -0.45593999997E+02  0.45594000000E+02  0.51100000000E-03 0. -1.
    9900012    2    1    2    0    0 -0.20061895333E+02 -0.16939314186E+02 -0.18091418468E+02  0.59301961807E+02  0.50000032425E+02 0.  0.
        -12    1    1    2    0    0  0.20061895333E+02  0.16939314186E+02  0.18091418468E+02  0.31886038193E+02  0.00000000000E+00 0.  1.
         11    1    3    3    0    0 -0.44432206402E+01 -0.63545358470E+01 -0.24290845011E+02  0.25498382049E+02  0.51100000000E-03 0. -1.
        -11    1    3    3    0    0 -0.16566441586E+02 -0.78693824191E+00 -0.64327700585E+01  0.17788951333E+02  0.51100000000E-03 0.  1.
        -12    1    3    3    0    0  0.94776689371E+00 -0.97978400970E+01  0.12632196601E+02  0.16014628426E+02  0.00000000000E+00 0.  1.
</event>
<event>
 7    1  0.6953847E-012  0.5930196E+02  0.7816164E-02  0.1266605E+00
        -11   -1    0    0    0    0  0.00000000000E+00  0.00000000000E+00  0.45593999997E+02  0.45594000000E+02  0.51100000000E-03 0.  1.
         11   -1    0    0    0    0 -0.00000000000E+00 -0.00000000000E+00 -0.45593999997E+02  0.45594000000E+02  0.51100000000E-03 0. -1.
    9900012    2    1    2    0    0  0.22065614582E+01  0.28599689252E+00 -0.31808316932E+02  0.59301957070E+02  0.50000023786E+02 0.  0.
        -12    1    1    2    0    0 -0.22065614582E+01 -0.28599689252E+00  0.31808316932E+02  0.31886042930E+02  0.00000000000E+00 0.  1.
         11    1    3    3    0    0  0.31872482688E+00  0.59569146065E+01 -0.58702822990E+01  0.83693865770E+01  0.51100000000E-03 0. -1.
        -11    1    3    3    0    0 -0.17151964770E+02 -0.64278450456E+00  0.14216742226E+01  0.17222782157E+02  0.51100000000E-03 0.  1.
        -12    1    3    3    0    0  0.19039801401E+02 -0.50281332094E+01 -0.27359708856E+02  0.33709788336E+02  0.00000000000E+00 0.  1.
</event>
<event>
 7    1  0.6953847E-012  0.5930188E+02  0.7816164E-02  0.1266605E+00
        -11   -1    0    0    0    0  0.00000000000E+00  0.00000000000E+00  0.45593999997E+02  0.45594000000E+02  0.51100000000E-03 0.  1.
         11   -1    0    0    0    0 -0.00000000000E+00 -0.00000000000E+00 -0.45593999997E+02  0.45594000000E+02  0.51100000000E-03 0. -1.
    9900012    2    1    2    0    0  0.24672126268E+02 -0.69522102689E+01 -0.18965169637E+02  0.59301879170E+02  0.49999881716E+02 0.  0.
        -12    1    1    2    0    0 -0.24672126268E+02  0.69522102689E+01  0.18965169637E+02  0.31886120830E+02  0.00000000000E+00 0.  1.
         11    1    3    3    0    0 -0.86739975135E+00 -0.35532095821E+01 -0.11854684471E+02  0.12406096277E+02  0.51100000000E-03 0. -1.
        -11    1    3    3    0    0  0.29677047525E+00 -0.68780902870E+01 -0.17934718201E+02  0.19210682339E+02  0.51100000000E-03 0.  1.
         12    1    3    3    0    0  0.25242755544E+02  0.34790896002E+01  0.10824233036E+02  0.27685100554E+02  0.00000000000E+00 0. -1.
</event>
<event>
 7    1  0.6953847E-012  0.5930195E+02  0.7816164E-02  0.1266605E+00
        -11   -1    0    0    0    0  0.00000000000E+00  0.00000000000E+00  0.45593999997E+02  0.45594000000E+02  0.51100000000E-03 0. -1.
         11   -1    0    0    0    0 -0.00000000000E+00 -0.00000000000E+00 -0.45593999997E+02  0.45594000000E+02  0.51100000000E-03 0.  1.
    9900012    2    1    2    0    0 -0.78741067254E+01 -0.18136302723E+02  0.25015853098E+02  0.59301953845E+02  0.50000017904E+02 0.  0.
        -12    1    1    2    0    0  0.78741067254E+01  0.18136302723E+02 -0.25015853098E+02  0.31886046155E+02  0.00000000000E+00 0.  1.
         11    1    3    3    0    0 -0.10236695812E+02  0.66161992749E+01 -0.75273863539E+01  0.14325696478E+02  0.51100000000E-03 0. -1.
        -11    1    3    3    0    0  0.61530836624E+00  0.27618806844E+01  0.81792108295E+00  0.29454345111E+01  0.51100000000E-03 0.  1.
        -12    1    3    3    0    0  0.17472807203E+01 -0.27514382682E+02  0.31725318369E+02  0.42030822856E+02  0.00000000000E+00 0.  1.
</event>
<event>
 7    1  0.6953847E-012  0.5930192E+02  0.7816164E-02  0.1266605E+00
        -11   -1    0    0    0    0  0.00000000000E+00  0.00000000000E+00  0.45593999997E+02  0.45594000000E+02  0.51100000000E-03 0.  1.
         11   -1    0    0    0    0 -0.00000000000E+00 -0.00000000000E+00 -0.45593999997E+02  0.45594000000E+02  0.51100000000E-03 0. -1.
    9900012    2    1    2    0    0  0.53304624105E+01 -0.18633164891E+02 -0.25320216503E+02  0.59301921108E+02  0.49999958200E+02 0.  0.
        -12    1    1    2    0    0 -0.53304624105E+01  0.18633164891E+02  0.25320216503E+02  0.31886078892E+02  0.00000000000E+00 0.  1.
         11    1    3    3    0    0  0.72646294330E+01 -0.36038527991E+01  0.61013354112E+01  0.10148344193E+02  0.51100000000E-03 0. -1.
        -11    1    3    3    0    0 -0.93210865081E+01  0.45151033403E+01  0.11876053924E+01  0.10424932551E+02  0.51100000000E-03 0.  1.
         12    1    3    3    0    0  0.73869194855E+01 -0.19544415432E+02 -0.32609157306E+02  0.38728644364E+02  0.00000000000E+00 0. -1.
</event>
<event>
 7    1  0.6953847E-012  0.5930194E+02  0.7816164E-02  0.1266605E+00
        -11   -1    0    0    0    0  0.00000000000E+00  0.00000000000E+00  0.45593999997E+02  0.45594000000E+02  0.51100000000E-03 0.  1.
         11   -1    0    0    0    0 -0.00000000000E+00 -0.00000000000E+00 -0.45593999997E+02  0.45594000000E+02  0.51100000000E-03 0. -1.
    9900012    2    1    2    0    0  0.27137508088E+00 -0.11285426298E+02 -0.29820907773E+02  0.59301936719E+02  0.49999986671E+02 0.  0.
        -12    1    1    2    0    0 -0.27137508088E+00  0.11285426298E+02  0.29820907773E+02  0.31886063281E+02  0.00000000000E+00 0.  1.
         11    1    3    3    0    0  0.12600876442E+02 -0.46491686161E+01 -0.39803966877E+01  0.14008583583E+02  0.51100000000E-03 0. -1.
        -11    1    3    3    0    0 -0.13944315106E+01 -0.13582383937E+02  0.27290808445E+01  0.13923845560E+02  0.51100000000E-03 0.  1.
         12    1    3    3    0    0 -0.10935069851E+02  0.69461262550E+01 -0.28569591930E+02  0.31369507577E+02  0.00000000000E+00 0. -1.
</event>
<event>
 7    1  0.6953847E-012  0.5930193E+02  0.7816164E-02  0.1266605E+00
        -11   -1    0    0    0    0  0.00000000000E+00  0.00000000000E+00  0.45593999997E+02  0.45594000000E+02  0.51100000000E-03 0. -1.
         11   -1    0    0    0    0 -0.00000000000E+00 -0.00000000000E+00 -0.45593999997E+02  0.45594000000E+02  0.51100000000E-03 0.  1.
    9900012    2    1    2    0    0  0.18415871732E+01  0.22887021594E+02  0.22124969755E+02  0.59301929570E+02  0.49999973633E+02 0.  0.
        -12    1    1    2    0    0 -0.18415871732E+01 -0.22887021594E+02 -0.22124969755E+02  0.31886070430E+02  0.00000000000E+00 0.  1.
         11    1    3    3    0    0  0.16018394827E+02  0.55389421298E+01  0.13799728141E+02  0.21856380070E+02  0.51100000000E-03 0. -1.
        -11    1    3    3    0    0 -0.87530821998E+00  0.21301581153E+02  0.11072472487E+00  0.21319844848E+02  0.51100000000E-03 0.  1.
        -12    1    3    3    0    0 -0.13301499434E+02 -0.39535016889E+01  0.82145168898E+01  0.16125704652E+02  0.00000000000E+00 0.  1.
</event>
<event>
 7    1  0.6953847E-012  0.5930195E+02  0.7816164E-02  0.1266605E+00
        -11   -1    0    0    0    0  0.00000000000E+00  0.00000000000E+00  0.45593999997E+02  0.45594000000E+02  0.51100000000E-03 0.  1.
         11   -1    0    0    0    0 -0.00000000000E+00 -0.00000000000E+00 -0.45593999997E+02  0.45594000000E+02  0.51100000000E-03 0. -1.
    9900012    2    1    2    0    0 -0.29409833910E+02 -0.88117273192E+01  0.86101851900E+01  0.59301950418E+02  0.50000011654E+02 0.  0.
        -12    1    1    2    0    0  0.29409833910E+02  0.88117273192E+01 -0.86101851900E+01  0.31886049582E+02  0.00000000000E+00 0.  1.
         11    1    3    3    0    0 -0.71856182693E+00  0.11896472334E+02  0.44704958259E+01  0.12729010892E+02  0.51100000000E-03 0. -1.
        -11    1    3    3    0    0 -0.97025912831E+01 -0.24483541179E+01  0.15038648286E+02  0.18063655721E+02  0.51100000000E-03 0.  1.
         12    1    3    3    0    0 -0.18988680800E+02 -0.18259845535E+02 -0.10898958921E+02  0.28509283805E+02  0.00000000000E+00 0. -1.
</event>
<event>
 7    1  0.6953847E-012  0.5930195E+02  0.7816164E-02  0.1266605E+00
        -11   -1    0    0    0    0  0.00000000000E+00  0.00000000000E+00  0.45593999997E+02  0.45594000000E+02  0.51100000000E-03 0.  1.
         11   -1    0    0    0    0 -0.00000000000E+00 -0.00000000000E+00 -0.45593999997E+02  0.45594000000E+02  0.51100000000E-03 0. -1.
    9900012    2    1    2    0    0 -0.27009940562E+02 -0.12030690662E+02 -0.11935052285E+02  0.59301954776E+02  0.50000019602E+02 0.  0.
        -12    1    1    2    0    0  0.27009940562E+02  0.12030690662E+02  0.11935052285E+02  0.31886045224E+02  0.00000000000E+00 0.  1.
         11    1    3    3    0    0 -0.24721050169E+02  0.48676173169E+01 -0.89770780698E+01  0.26747185847E+02  0.51100000000E-03 0.  1.
        -11    1    3    3    0    0 -0.10804288972E+02 -0.63046301934E+01  0.82103844275E+01  0.14963002198E+02  0.51100000000E-03 0. -1.
         12    1    3    3    0    0  0.85153985784E+01 -0.10593677785E+02 -0.11168358642E+02  0.17591766731E+02  0.00000000000E+00 0. -1.
</event>
<event>
 7    1  0.6953847E-012  0.5930198E+02  0.7816164E-02  0.1266605E+00
        -11   -1    0    0    0    0  0.00000000000E+00  0.00000000000E+00  0.45593999997E+02  0.45594000000E+02  0.51100000000E-03 0.  1.
         11   -1    0    0    0    0 -0.00000000000E+00 -0.00000000000E+00 -0.45593999997E+02  0.45594000000E+02  0.51100000000E-03 0. -1.
    9900012    2    1    2    0    0 -0.13856755901E+02 -0.27377382798E+02 -0.86710818242E+01  0.59301977467E+02  0.50000060986E+02 0.  0.
        -12    1    1    2    0    0  0.13856755901E+02  0.27377382798E+02  0.86710818242E+01  0.31886022533E+02  0.00000000000E+00 0.  1.
         11    1    3    3    0    0 -0.70818586609E+01 -0.24930970722E+01 -0.21554550502E+00  0.75109729882E+01  0.51100000000E-03 0. -1.
        -11    1    3    3    0    0  0.15422752835E+02 -0.26721331513E+00  0.47051817524E+01  0.16126730715E+02  0.51100000000E-03 0.  1.
         12    1    3    3    0    0 -0.22197650076E+02 -0.24617072410E+02 -0.13160718072E+02  0.35664273764E+02  0.00000000000E+00 0. -1.
</event>
<event>
 7    1  0.6953847E-012  0.5930197E+02  0.7816164E-02  0.1266605E+00
        -11   -1    0    0    0    0  0.00000000000E+00  0.00000000000E+00  0.45593999997E+02  0.45594000000E+02  0.51100000000E-03 0.  1.
         11   -1    0    0    0    0 -0.00000000000E+00 -0.00000000000E+00 -0.45593999997E+02  0.45594000000E+02  0.51100000000E-03 0. -1.
    9900012    2    1    2    0    0 -0.18657092474E+02 -0.23268398610E+02  0.11278900146E+02  0.59301967604E+02  0.50000042997E+02 0.  0.
        -12    1    1    2    0    0  0.18657092474E+02  0.23268398610E+02 -0.11278900146E+02  0.31886032396E+02  0.00000000000E+00 0.  1.
         11    1    3    3    0    0  0.79508782184E+01  0.82019257739E+01 -0.52299173976E+01  0.12563442486E+02  0.51100000000E-03 0. -1.
        -11    1    3    3    0    0  0.15855124316E+01 -0.38061796917E+01  0.25367950862E+01  0.48410931706E+01  0.51100000000E-03 0.  1.
         12    1    3    3    0    0 -0.28193483124E+02 -0.27664144692E+02  0.13972022458E+02  0.41897431947E+02  0.00000000000E+00 0. -1.
</event>
<event>
 7    1  0.6953847E-012  0.5930194E+02  0.7816164E-02  0.1266605E+00
        -11   -1    0    0    0    0  0.00000000000E+00  0.00000000000E+00  0.45593999997E+02  0.45594000000E+02  0.51100000000E-03 0.  1.
         11   -1    0    0    0    0 -0.00000000000E+00 -0.00000000000E+00 -0.45593999997E+02  0.45594000000E+02  0.51100000000E-03 0. -1.
    9900012    2    1    2    0    0 -0.21366502170E+02 -0.90626313578E+01 -0.21864633651E+02  0.59301938675E+02  0.49999990239E+02 0.  0.
        -12    1    1    2    0    0  0.21366502170E+02  0.90626313578E+01  0.21864633651E+02  0.31886061325E+02  0.00000000000E+00 0.  1.
         11    1    3    3    0    0 -0.22062318099E+02 -0.56878259692E+01 -0.24366280855E+01  0.22913629151E+02  0.51100000000E-03 0.  1.
        -11    1    3    3    0    0 -0.14410114303E+02 -0.89362931268E+00 -0.14096175544E+02  0.20178011122E+02  0.51100000000E-03 0. -1.
        -12    1    3    3    0    0  0.15105930233E+02 -0.24811760760E+01 -0.53318300215E+01  0.16210298403E+02  0.00000000000E+00 0.  1.
</event>
<event>
 7    1  0.6953847E-012  0.5930192E+02  0.7816164E-02  0.1266605E+00
        -11   -1    0    0    0    0  0.00000000000E+00  0.00000000000E+00  0.45593999997E+02  0.45594000000E+02  0.51100000000E-03 0.  1.
         11   -1    0    0    0    0 -0.00000000000E+00 -0.00000000000E+00 -0.45593999997E+02  0.45594000000E+02  0.51100000000E-03 0. -1.
    9900012    2    1    2    0    0  0.47447666614E+01 -0.28195304752E+02 -0.14115031550E+02  0.59301919394E+02  0.49999955075E+02 0.  0.
        -12    1    1    2    0    0 -0.47447666614E+01  0.28195304752E+02  0.14115031550E+02  0.31886080606E+02  0.00000000000E+00 0.  1.
         11    1    3    3    0    0  0.93441620461E+01 -0.64012817808E+01 -0.15197623732E+01  0.11428011669E+02  0.51100000000E-03 0. -1.
        -11    1    3    3    0    0  0.17891512225E+02 -0.12526568506E+02 -0.52367167600E+01  0.22459838176E+02  0.51100000000E-03 0.  1.
         12    1    3    3    0    0 -0.22490907609E+02 -0.92674544654E+01 -0.73585524167E+01  0.25414069549E+02  0.00000000000E+00 0. -1.
</event>
<event>
 7    1  0.6953847E-012  0.5930193E+02  0.7816164E-02  0.1266605E+00
        -11   -1    0    0    0    0  0.00000000000E+00  0.00000000000E+00  0.45593999997E+02  0.45594000000E+02  0.51100000000E-03 0.  1.
         11   -1    0    0    0    0 -0.00000000000E+00 -0.00000000000E+00 -0.45593999997E+02  0.45594000000E+02  0.51100000000E-03 0. -1.
    9900012    2    1    2    0    0 -0.43487703610E+00 -0.25434951992E+02 -0.19224868032E+02  0.59301930131E+02  0.49999974655E+02 0.  0.
        -12    1    1    2    0    0  0.43487703610E+00  0.25434951992E+02  0.19224868032E+02  0.31886069869E+02  0.00000000000E+00 0.  1.
         11    1    3    3    0    0 -0.35571411667E+00 -0.19578403964E+02 -0.21391428963E+02  0.29000580471E+02  0.51100000000E-03 0. -1.
        -11    1    3    3    0    0  0.44357719951E+01  0.18631444308E+01 -0.12348380719E+02  0.13252542662E+02  0.51100000000E-03 0.  1.
         12    1    3    3    0    0 -0.45149349146E+01 -0.77196924588E+01  0.14514941650E+02  0.17048806998E+02  0.00000000000E+00 0. -1.
</event>
<event>
 7    1  0.6953847E-012  0.5930195E+02  0.7816164E-02  0.1266605E+00
        -11   -1    0    0    0    0  0.00000000000E+00  0.00000000000E+00  0.45593999997E+02  0.45594000000E+02  0.51100000000E-03 0.  1.
         11   -1    0    0    0    0 -0.00000000000E+00 -0.00000000000E+00 -0.45593999997E+02  0.45594000000E+02  0.51100000000E-03 0. -1.
    9900012    2    1    2    0    0 -0.46908547327E+01  0.30151903506E+02 -0.92508686886E+01  0.59301953292E+02  0.50000016896E+02 0.  0.
        -12    1    1    2    0    0  0.46908547327E+01 -0.30151903506E+02  0.92508686886E+01  0.31886046708E+02  0.00000000000E+00 0.  1.
         11    1    3    3    0    0  0.49750420533E+01 -0.61789476758E+01  0.36077261824E+01  0.87147074696E+01  0.51100000000E-03 0.  1.
        -11    1    3    3    0    0  0.10531967947E+02  0.21212796601E+02 -0.68122883115E+01  0.24643708341E+02  0.51100000000E-03 0. -1.
         12    1    3    3    0    0 -0.20197864733E+02  0.15118054581E+02 -0.60463065595E+01  0.25943537482E+02  0.00000000000E+00 0. -1.
</event>
<event>
 7    1  0.6953847E-012  0.5930195E+02  0.7816164E-02  0.1266605E+00
        -11   -1    0    0    0    0  0.00000000000E+00  0.00000000000E+00  0.45593999997E+02  0.45594000000E+02  0.51100000000E-03 0.  1.
         11   -1    0    0    0    0 -0.00000000000E+00 -0.00000000000E+00 -0.45593999997E+02  0.45594000000E+02  0.51100000000E-03 0. -1.
    9900012    2    1    2    0    0 -0.17868129438E+02  0.26032853207E+02 -0.44430763012E+01  0.59301946266E+02  0.50000004082E+02 0.  0.
        -12    1    1    2    0    0  0.17868129438E+02 -0.26032853207E+02  0.44430763012E+01  0.31886053734E+02  0.00000000000E+00 0.  1.
         11    1    3    3    0    0 -0.17603510287E+01  0.32354094514E+01 -0.17897328023E+02  0.18272412558E+02  0.51100000000E-03 0. -1.
        -11    1    3    3    0    0 -0.21048019761E+02  0.13300399592E+02  0.14428142028E+01  0.24939957463E+02  0.51100000000E-03 0.  1.
         12    1    3    3    0    0  0.49402413521E+01  0.94970441635E+01  0.12011437519E+02  0.16089576245E+02  0.00000000000E+00 0. -1.
</event>
<event>
 7    1  0.6953847E-012  0.5930195E+02  0.7816164E-02  0.1266605E+00
        -11   -1    0    0    0    0  0.00000000000E+00  0.00000000000E+00  0.45593999997E+02  0.45594000000E+02  0.51100000000E-03 0.  1.
         11   -1    0    0    0    0 -0.00000000000E+00 -0.00000000000E+00 -0.45593999997E+02  0.45594000000E+02  0.51100000000E-03 0. -1.
    9900012    2    1    2    0    0  0.49147659674E+01  0.31041837165E+02  0.53823205572E+01  0.59301953621E+02  0.50000017495E+02 0.  0.
        -12    1    1    2    0    0 -0.49147659674E+01 -0.31041837165E+02 -0.53823205572E+01  0.31886046379E+02  0.00000000000E+00 0.  1.
         11    1    3    3    0    0  0.59573779578E+01  0.15769098574E+02  0.84385355435E+01  0.18851092922E+02  0.51100000000E-03 0. -1.
        -11    1    3    3    0    0 -0.81533048216E+01 -0.37809374940E+01  0.12110456041E+02  0.15080948698E+02  0.51100000000E-03 0.  1.
         12    1    3    3    0    0  0.71106928312E+01  0.19053676086E+02 -0.15166671027E+02  0.25369912001E+02  0.00000000000E+00 0. -1.
</event>
<event>
 7    1  0.6953847E-012  0.5930199E+02  0.7816164E-02  0.1266605E+00
        -11   -1    0    0    0    0  0.00000000000E+00  0.00000000000E+00  0.45593999997E+02  0.45594000000E+02  0.51100000000E-03 0.  1.
         11   -1    0    0    0    0 -0.00000000000E+00 -0.00000000000E+00 -0.45593999997E+02  0.45594000000E+02  0.51100000000E-03 0. -1.
    9900012    2    1    2    0    0 -0.51768714355E+01  0.29597371264E+02  0.10673027411E+02  0.59301985861E+02  0.50000076293E+02 0.  0.
        -12    1    1    2    0    0  0.51768714355E+01 -0.29597371264E+02 -0.10673027411E+02  0.31886014139E+02  0.00000000000E+00 0.  1.
         11    1    3    3    0    0 -0.11816571022E+02  0.34519498216E+01 -0.71171200617E+01  0.14219729481E+02  0.51100000000E-03 0. -1.
        -11    1    3    3    0    0 -0.48054894050E+01  0.11230443350E+02 -0.69153098691E+01  0.14036990315E+02  0.51100000000E-03 0.  1.
        -12    1    3    3    0    0  0.11445188991E+02  0.14914978093E+02  0.24705457342E+02  0.31045266065E+02  0.00000000000E+00 0.  1.
</event>
<event>
 7    1  0.6953847E-012  0.5930195E+02  0.7816164E-02  0.1266605E+00
        -11   -1    0    0    0    0  0.00000000000E+00  0.00000000000E+00  0.45593999997E+02  0.45594000000E+02  0.51100000000E-03 0. -1.
         11   -1    0    0    0    0 -0.00000000000E+00 -0.00000000000E+00 -0.45593999997E+02  0.45594000000E+02  0.51100000000E-03 0.  1.
    9900012    2    1    2    0    0 -0.28253442122E+02  0.61310026153E+01  0.13448950166E+02  0.59301945911E+02  0.50000003435E+02 0.  0.
        -12    1    1    2    0    0  0.28253442122E+02 -0.61310026153E+01 -0.13448950166E+02  0.31886054089E+02  0.00000000000E+00 0.  1.
         11    1    3    3    0    0 -0.91876820323E+01 -0.11533857059E+02  0.46006785617E+01  0.15446993341E+02  0.51100000000E-03 0. -1.
        -11    1    3    3    0    0 -0.45817744533E+01 -0.10323625796E+02  0.39325953826E+01  0.11959732999E+02  0.51100000000E-03 0.  1.
        -12    1    3    3    0    0 -0.14483985636E+02  0.27988485469E+02  0.49156762214E+01  0.31895219571E+02  0.00000000000E+00 0.  1.
</event>
<event>
 7    1  0.6953847E-012  0.5930187E+02  0.7816164E-02  0.1266605E+00
        -11   -1    0    0    0    0  0.00000000000E+00  0.00000000000E+00  0.45593999997E+02  0.45594000000E+02  0.51100000000E-03 0. -1.
         11   -1    0    0    0    0 -0.00000000000E+00 -0.00000000000E+00 -0.45593999997E+02  0.45594000000E+02  0.51100000000E-03 0.  1.
    9900012    2    1    2    0    0  0.30745760887E+02 -0.82589169245E+01 -0.17927150659E+01  0.59301869025E+02  0.49999863213E+02 0.  0.
        -12    1    1    2    0    0 -0.30745760887E+02  0.82589169245E+01  0.17927150659E+01  0.31886130975E+02  0.00000000000E+00 0.  1.
         11    1    3    3    0    0  0.70516214227E+01 -0.14810217000E+02  0.42239240880E+01  0.16938400965E+02  0.51100000000E-03 0. -1.
        -11    1    3    3    0    0  0.13415032740E+02  0.80536926026E+00  0.13831201530E+02  0.19285068294E+02  0.51100000000E-03 0.  1.
        -12    1    3    3    0    0  0.10279106724E+02  0.57459308154E+01 -0.19847840684E+02  0.23078399766E+02  0.00000000000E+00 0.  1.
</event>
<event>
 7    1  0.6953847E-012  0.5930191E+02  0.7816164E-02  0.1266605E+00
        -11   -1    0    0    0    0  0.00000000000E+00  0.00000000000E+00  0.45593999997E+02  0.45594000000E+02  0.51100000000E-03 0.  1.
         11   -1    0    0    0    0 -0.00000000000E+00 -0.00000000000E+00 -0.45593999997E+02  0.45594000000E+02  0.51100000000E-03 0. -1.
    9900012    2    1    2    0    0  0.16451591473E+02  0.26711766309E+02 -0.57052268260E+01  0.59301906880E+02  0.49999932251E+02 0.  0.
        -12    1    1    2    0    0 -0.16451591473E+02 -0.26711766309E+02  0.57052268260E+01  0.31886093120E+02  0.00000000000E+00 0.  1.
         11    1    3    3    0    0  0.48965303365E+01 -0.25370214826E+00  0.31724079124E+01  0.58399097886E+01  0.51100000000E-03 0. -1.
        -11    1    3    3    0    0 -0.10285334406E+02 -0.67277990962E+01 -0.44274171245E+01  0.13063437801E+02  0.51100000000E-03 0.  1.
         12    1    3    3    0    0  0.21840395542E+02  0.33693267554E+02 -0.44502176139E+01  0.40398559290E+02  0.00000000000E+00 0. -1.
</event>
<event>
 7    1  0.6953847E-012  0.5930194E+02  0.7816164E-02  0.1266605E+00
        -11   -1    0    0    0    0  0.00000000000E+00  0.00000000000E+00  0.45593999997E+02  0.45594000000E+02  0.51100000000E-03 0. -1.
         11   -1    0    0    0    0 -0.00000000000E+00 -0.00000000000E+00 -0.45593999997E+02  0.45594000000E+02  0.51100000000E-03 0.  1.
    9900012    2    1    2    0    0  0.10334569815E+02 -0.11013566831E+02  0.28082353255E+02  0.59301944240E+02  0.50000000387E+02 0.  0.
        -12    1    1    2    0    0 -0.10334569815E+02  0.11013566831E+02 -0.28082353255E+02  0.31886055760E+02  0.00000000000E+00 0.  1.
         11    1    3    3    0    0  0.63662659654E+00  0.12409079842E+01  0.28572370686E+02  0.28606389373E+02  0.51100000000E-03 0. -1.
        -11    1    3    3    0    0  0.15571999333E+01  0.21999249278E+01  0.10470959195E+02  0.10812285977E+02  0.51100000000E-03 0.  1.
        -12    1    3    3    0    0  0.81407432856E+01 -0.14454399743E+02 -0.10960976627E+02  0.19883268891E+02  0.00000000000E+00 0.  1.
</event>
<event>
 7    1  0.6953847E-012  0.5930195E+02  0.7816164E-02  0.1266605E+00
        -11   -1    0    0    0    0  0.00000000000E+00  0.00000000000E+00  0.45593999997E+02  0.45594000000E+02  0.51100000000E-03 0. -1.
         11   -1    0    0    0    0 -0.00000000000E+00 -0.00000000000E+00 -0.45593999997E+02  0.45594000000E+02  0.51100000000E-03 0.  1.
    9900012    2    1    2    0    0 -0.30250929890E+02 -0.98219988779E+01 -0.22649671728E+01  0.59301945094E+02  0.50000001944E+02 0.  0.
        -12    1    1    2    0    0  0.30250929890E+02  0.98219988779E+01  0.22649671728E+01  0.31886054906E+02  0.00000000000E+00 0.  1.
         11    1    3    3    0    0 -0.11913858826E+02  0.44109347000E+01 -0.61872038358E+01  0.14130741970E+02  0.51100000000E-03 0. -1.
        -11    1    3    3    0    0  0.82429975633E+01 -0.12550464054E+02 -0.67710361548E+01  0.16471432471E+02  0.51100000000E-03 0.  1.
         12    1    3    3    0    0 -0.26580068627E+02 -0.16824695243E+01  0.10693272818E+02  0.28699770652E+02  0.00000000000E+00 0. -1.
</event>
<event>
 7    1  0.6953847E-012  0.5930190E+02  0.7816164E-02  0.1266605E+00
        -11   -1    0    0    0    0  0.00000000000E+00  0.00000000000E+00  0.45593999997E+02  0.45594000000E+02  0.51100000000E-03 0.  1.
         11   -1    0    0    0    0 -0.00000000000E+00 -0.00000000000E+00 -0.45593999997E+02  0.45594000000E+02  0.51100000000E-03 0. -1.
    9900012    2    1    2    0    0 -0.15894415191E+02 -0.85678616310E+01 -0.26280848177E+02  0.59301895376E+02  0.49999911271E+02 0.  0.
        -12    1    1    2    0    0  0.15894415191E+02  0.85678616310E+01  0.26280848177E+02  0.31886104624E+02  0.00000000000E+00 0.  1.
         11    1    3    3    0    0 -0.49494597921E+01  0.20935828330E+01 -0.11431327823E+02  0.12631527911E+02  0.51100000000E-03 0. -1.
        -11    1    3    3    0    0 -0.15456722197E+02  0.40964025723E+01  0.89355394475E+01  0.18317604663E+02  0.51100000000E-03 0.  1.
         12    1    3    3    0    0  0.45117667976E+01 -0.14757847036E+02 -0.23785059801E+02  0.28352762802E+02  0.00000000000E+00 0. -1.
</event>
<event>
 7    1  0.6953847E-012  0.5930188E+02  0.7816164E-02  0.1266605E+00
        -11   -1    0    0    0    0  0.00000000000E+00  0.00000000000E+00  0.45593999997E+02  0.45594000000E+02  0.51100000000E-03 0. -1.
         11   -1    0    0    0    0 -0.00000000000E+00 -0.00000000000E+00 -0.45593999997E+02  0.45594000000E+02  0.51100000000E-03 0.  1.
    9900012    2    1    2    0    0  0.42601580628E+01  0.31598957834E+02 -0.28567887541E+00  0.59301879268E+02  0.49999881893E+02 0.  0.
        -12    1    1    2    0    0 -0.42601580628E+01 -0.31598957834E+02  0.28567887541E+00  0.31886120732E+02  0.00000000000E+00 0.  1.
         11    1    3    3    0    0  0.37633228003E+01  0.33868075124E+02  0.14607666916E+02  0.37075504638E+02  0.51100000000E-03 0. -1.
        -11    1    3    3    0    0 -0.16490579658E+01  0.61003289588E+01 -0.11137117085E+02  0.12805029591E+02  0.51100000000E-03 0.  1.
        -12    1    3    3    0    0  0.21458932283E+01 -0.83694462492E+01 -0.37562287061E+01  0.94213450398E+01  0.00000000000E+00 0.  1.
</event>
<event>
 7    1  0.6953847E-012  0.5930196E+02  0.7816164E-02  0.1266605E+00
        -11   -1    0    0    0    0  0.00000000000E+00  0.00000000000E+00  0.45593999997E+02  0.45594000000E+02  0.51100000000E-03 0. -1.
         11   -1    0    0    0    0 -0.00000000000E+00 -0.00000000000E+00 -0.45593999997E+02  0.45594000000E+02  0.51100000000E-03 0.  1.
    9900012    2    1    2    0    0 -0.29199672630E+02  0.80167824146E+01  0.99914860987E+01  0.59301961105E+02  0.50000031144E+02 0.  0.
        -12    1    1    2    0    0  0.29199672630E+02 -0.80167824146E+01 -0.99914860987E+01  0.31886038895E+02  0.00000000000E+00 0.  1.
         11    1    3    3    0    0 -0.23535140277E+02  0.10564141198E+02 -0.10019116532E+02  0.27674656338E+02  0.51100000000E-03 0. -1.
        -11    1    3    3    0    0 -0.95329464721E+01  0.44434945355E+01  0.48342460354E+00  0.10528789661E+02  0.51100000000E-03 0.  1.
        -12    1    3    3    0    0  0.38684141191E+01 -0.69908533189E+01  0.19527178027E+02  0.21098515105E+02  0.00000000000E+00 0.  1.
</event>
<event>
 7    1  0.6953847E-012  0.5930196E+02  0.7816164E-02  0.1266605E+00
        -11   -1    0    0    0    0  0.00000000000E+00  0.00000000000E+00  0.45593999997E+02  0.45594000000E+02  0.51100000000E-03 0.  1.
         11   -1    0    0    0    0 -0.00000000000E+00 -0.00000000000E+00 -0.45593999997E+02  0.45594000000E+02  0.51100000000E-03 0. -1.
    9900012    2    1    2    0    0  0.20014547242E+02  0.84549527546E+01 -0.23337770573E+02  0.59301955047E+02  0.50000020097E+02 0.  0.
        -12    1    1    2    0    0 -0.20014547242E+02 -0.84549527546E+01  0.23337770573E+02  0.31886044953E+02  0.00000000000E+00 0.  1.
         11    1    3    3    0    0 -0.45267446995E-01 -0.56222334515E+01  0.22341412817E+01  0.60500368307E+01  0.51100000000E-03 0. -1.
        -11    1    3    3    0    0 -0.19670311441E+01  0.17211610838E+02  0.24234617809E+01  0.17492339079E+02  0.51100000000E-03 0.  1.
         12    1    3    3    0    0  0.22026845833E+02 -0.31344246323E+01 -0.27995373636E+02  0.35759579138E+02  0.00000000000E+00 0. -1.
</event>
<event>
 7    1  0.6953847E-012  0.5930194E+02  0.7816164E-02  0.1266605E+00
        -11   -1    0    0    0    0  0.00000000000E+00  0.00000000000E+00  0.45593999997E+02  0.45594000000E+02  0.51100000000E-03 0. -1.
         11   -1    0    0    0    0 -0.00000000000E+00 -0.00000000000E+00 -0.45593999997E+02  0.45594000000E+02  0.51100000000E-03 0.  1.
    9900012    2    1    2    0    0 -0.30194419603E+02  0.36465827935E+01  0.95770551841E+01  0.59301944627E+02  0.50000001093E+02 0.  0.
        -12    1    1    2    0    0  0.30194419603E+02 -0.36465827935E+01 -0.95770551841E+01  0.31886055373E+02  0.00000000000E+00 0.  1.
         11    1    3    3    0    0 -0.11952911108E+00  0.49425233158E+01  0.19101613635E+02  0.19731053384E+02  0.51100000000E-03 0. -1.
        -11    1    3    3    0    0  0.19455582271E+01 -0.32521229350E+01 -0.62697313324E+01  0.73260515724E+01  0.51100000000E-03 0.  1.
        -12    1    3    3    0    0 -0.32020448719E+02  0.19561824126E+01 -0.32548271184E+01  0.32244839671E+02  0.00000000000E+00 0.  1.
</event>
<event>
 7    1  0.6953847E-012  0.5930194E+02  0.7816164E-02  0.1266605E+00
        -11   -1    0    0    0    0  0.00000000000E+00  0.00000000000E+00  0.45593999997E+02  0.45594000000E+02  0.51100000000E-03 0.  1.
         11   -1    0    0    0    0 -0.00000000000E+00 -0.00000000000E+00 -0.45593999997E+02  0.45594000000E+02  0.51100000000E-03 0. -1.
    9900012    2    1    2    0    0 -0.80763701879E+01 -0.41225892209E+01 -0.30569553599E+02  0.59301935575E+02  0.49999984584E+02 0.  0.
        -12    1    1    2    0    0  0.80763701879E+01  0.41225892209E+01  0.30569553599E+02  0.31886064425E+02  0.00000000000E+00 0.  1.
         11    1    3    3    0    0 -0.10845537512E+00  0.61102340348E+01 -0.14869501176E+02  0.16076342495E+02  0.51100000000E-03 0. -1.
        -11    1    3    3    0    0  0.31543298768E+01  0.13317105532E+02 -0.88423043474E+01  0.16293601295E+02  0.51100000000E-03 0.  1.
        -12    1    3    3    0    0 -0.11122244689E+02 -0.23549928788E+02 -0.68577480748E+01  0.26931991785E+02  0.00000000000E+00 0.  1.
</event>
<event>
 7    1  0.6953847E-012  0.5930176E+02  0.7816164E-02  0.1266605E+00
        -11   -1    0    0    0    0  0.00000000000E+00  0.00000000000E+00  0.45593999997E+02  0.45594000000E+02  0.51100000000E-03 0. -1.
         11   -1    0    0    0    0 -0.00000000000E+00 -0.00000000000E+00 -0.45593999997E+02  0.45594000000E+02  0.51100000000E-03 0.  1.
    9900012    2    1    2    0    0  0.10762393184E+02  0.28409775444E+02 -0.96844065642E+01  0.59301761929E+02  0.49999667895E+02 0.  0.
        -12    1    1    2    0    0 -0.10762393184E+02 -0.28409775444E+02  0.96844065642E+01  0.31886238071E+02  0.00000000000E+00 0.  1.
         11    1    3    3    0    0 -0.43778352725E-01 -0.50722202173E+01  0.30645128290E+01  0.59262613524E+01  0.51100000000E-03 0. -1.
        -11    1    3    3    0    0 -0.96955342259E+01  0.25966790513E+02  0.70678641301E+00  0.27726830702E+02  0.51100000000E-03 0.  1.
        -12    1    3    3    0    0  0.20501705763E+02  0.75152051475E+01 -0.13455705806E+02  0.25648669875E+02  0.00000000000E+00 0.  1.
</event>
<event>
 7    1  0.6953847E-012  0.5930195E+02  0.7816164E-02  0.1266605E+00
        -11   -1    0    0    0    0  0.00000000000E+00  0.00000000000E+00  0.45593999997E+02  0.45594000000E+02  0.51100000000E-03 0.  1.
         11   -1    0    0    0    0 -0.00000000000E+00 -0.00000000000E+00 -0.45593999997E+02  0.45594000000E+02  0.51100000000E-03 0. -1.
    9900012    2    1    2    0    0  0.11018745507E+01  0.38902202253E+01 -0.31628666509E+02  0.59301945273E+02  0.50000002271E+02 0.  0.
        -12    1    1    2    0    0 -0.11018745507E+01 -0.38902202253E+01  0.31628666509E+02  0.31886054727E+02  0.00000000000E+00 0.  1.
         11    1    3    3    0    0  0.50241346983E+01  0.18442324782E+01 -0.69851294401E+00  0.53973181762E+01  0.51100000000E-03 0. -1.
        -11    1    3    3    0    0  0.90382635357E+01 -0.32384352268E+01  0.80238714470E+01  0.12512401197E+02  0.51100000000E-03 0.  1.
         12    1    3    3    0    0 -0.12960523683E+02  0.52844229739E+01 -0.38954025012E+02  0.41392225900E+02  0.00000000000E+00 0. -1.
</event>
<event>
 7    1  0.6953847E-012  0.5930198E+02  0.7816164E-02  0.1266605E+00
        -11   -1    0    0    0    0  0.00000000000E+00  0.00000000000E+00  0.45593999997E+02  0.45594000000E+02  0.51100000000E-03 0. -1.
         11   -1    0    0    0    0 -0.00000000000E+00 -0.00000000000E+00 -0.45593999997E+02  0.45594000000E+02  0.51100000000E-03 0.  1.
    9900012    2    1    2    0    0 -0.16373171191E+02 -0.19909759865E+02  0.18768033115E+02  0.59301978929E+02  0.50000063651E+02 0.  0.
        -12    1    1    2    0    0  0.16373171191E+02  0.19909759865E+02 -0.18768033115E+02  0.31886021071E+02  0.00000000000E+00 0.  1.
         11    1    3    3    0    0 -0.86684900411E+01 -0.10433776880E+02 -0.10271317072E+01  0.13603728143E+02  0.51100000000E-03 0. -1.
        -11    1    3    3    0    0 -0.85555040982E+01 -0.86848469533E+00 -0.10856427827E+02  0.13849654923E+02  0.51100000000E-03 0.  1.
         12    1    3    3    0    0  0.85082294880E+00 -0.86074982898E+01  0.30651592650E+02  0.31848595863E+02  0.00000000000E+00 0. -1.
</event>
<event>
 7    1  0.6953847E-012  0.5930194E+02  0.7816164E-02  0.1266605E+00
        -11   -1    0    0    0    0  0.00000000000E+00  0.00000000000E+00  0.45593999997E+02  0.45594000000E+02  0.51100000000E-03 0. -1.
         11   -1    0    0    0    0 -0.00000000000E+00 -0.00000000000E+00 -0.45593999997E+02  0.45594000000E+02  0.51100000000E-03 0.  1.
    9900012    2    1    2    0    0 -0.20721028270E+02 -0.14350394233E+02  0.19530135347E+02  0.59301936996E+02  0.49999987176E+02 0.  0.
        -12    1    1    2    0    0  0.20721028270E+02  0.14350394233E+02 -0.19530135347E+02  0.31886063004E+02  0.00000000000E+00 0.  1.
         11    1    3    3    0    0 -0.23495747296E+02 -0.19433006638E+02 -0.10113070016E+01  0.30507615936E+02  0.51100000000E-03 0. -1.
        -11    1    3    3    0    0  0.93989537544E+01 -0.96356702270E+00  0.46123362284E+01  0.10513916436E+02  0.51100000000E-03 0.  1.
        -12    1    3    3    0    0 -0.66242347281E+01  0.60461794279E+01  0.15929106121E+02  0.18280404624E+02  0.00000000000E+00 0.  1.
</event>
<event>
 7    1  0.6953847E-012  0.5930197E+02  0.7816164E-02  0.1266605E+00
        -11   -1    0    0    0    0  0.00000000000E+00  0.00000000000E+00  0.45593999997E+02  0.45594000000E+02  0.51100000000E-03 0.  1.
         11   -1    0    0    0    0 -0.00000000000E+00 -0.00000000000E+00 -0.45593999997E+02  0.45594000000E+02  0.51100000000E-03 0. -1.
    9900012    2    1    2    0    0 -0.23033792303E+02 -0.12099626250E+01 -0.22015890801E+02  0.59301967867E+02  0.50000043478E+02 0.  0.
        -12    1    1    2    0    0  0.23033792303E+02  0.12099626250E+01  0.22015890801E+02  0.31886032133E+02  0.00000000000E+00 0.  1.
         11    1    3    3    0    0 -0.31408198132E+01  0.14594599858E+01 -0.37046757993E+01  0.50714293437E+01  0.51100000000E-03 0. -1.
        -11    1    3    3    0    0 -0.18148796390E+01  0.52957166225E+01 -0.30505563774E+02  0.31014961294E+02  0.51100000000E-03 0.  1.
        -12    1    3    3    0    0 -0.18078092850E+02 -0.79651392333E+01  0.12194348772E+02  0.23215577229E+02  0.00000000000E+00 0.  1.
</event>
<event>
 7    1  0.6953847E-012  0.5930195E+02  0.7816164E-02  0.1266605E+00
        -11   -1    0    0    0    0  0.00000000000E+00  0.00000000000E+00  0.45593999997E+02  0.45594000000E+02  0.51100000000E-03 0. -1.
         11   -1    0    0    0    0 -0.00000000000E+00 -0.00000000000E+00 -0.45593999997E+02  0.45594000000E+02  0.51100000000E-03 0.  1.
    9900012    2    1    2    0    0  0.29682812481E+02  0.64388547494E+01  0.97052542003E+01  0.59301950286E+02  0.50000011413E+02 0.  0.
        -12    1    1    2    0    0 -0.29682812481E+02 -0.64388547494E+01 -0.97052542003E+01  0.31886049714E+02  0.00000000000E+00 0.  1.
         11    1    3    3    0    0  0.14752882827E+02  0.12864716617E+02  0.53505578761E+01  0.20292288071E+02  0.51100000000E-03 0. -1.
        -11    1    3    3    0    0  0.17867759531E+02  0.84689668511E+00 -0.11538427212E+02  0.21286365764E+02  0.51100000000E-03 0.  1.
        -12    1    3    3    0    0 -0.29378298760E+01 -0.72727585524E+01  0.15893123536E+02  0.17723296451E+02  0.00000000000E+00 0.  1.
</event>
<event>
 7    1  0.6953847E-012  0.5930197E+02  0.7816164E-02  0.1266605E+00
        -11   -1    0    0    0    0  0.00000000000E+00  0.00000000000E+00  0.45593999997E+02  0.45594000000E+02  0.51100000000E-03 0.  1.
         11   -1    0    0    0    0 -0.00000000000E+00 -0.00000000000E+00 -0.45593999997E+02  0.45594000000E+02  0.51100000000E-03 0. -1.
    9900012    2    1    2    0    0  0.21511009801E+02 -0.51658537211E+01 -0.22963222933E+02  0.59301965521E+02  0.50000039198E+02 0.  0.
        -12    1    1    2    0    0 -0.21511009801E+02  0.51658537211E+01  0.22963222933E+02  0.31886034479E+02  0.00000000000E+00 0.  1.
         11    1    3    3    0    0  0.16916585238E+02  0.10603101627E+02 -0.13374488967E+02  0.24030679882E+02  0.51100000000E-03 0. -1.
        -11    1    3    3    0    0  0.26745372359E+01 -0.10912007551E+02 -0.20386197954E+02  0.23277072958E+02  0.51100000000E-03 0.  1.
        -12    1    3    3    0    0  0.19198873275E+01 -0.48569477970E+01  0.10797463988E+02  0.11994212680E+02  0.00000000000E+00 0.  1.
</event>
<event>
 7    1  0.6953847E-012  0.5930193E+02  0.7816164E-02  0.1266605E+00
        -11   -1    0    0    0    0  0.00000000000E+00  0.00000000000E+00  0.45593999997E+02  0.45594000000E+02  0.51100000000E-03 0.  1.
         11   -1    0    0    0    0 -0.00000000000E+00 -0.00000000000E+00 -0.45593999997E+02  0.45594000000E+02  0.51100000000E-03 0. -1.
    9900012    2    1    2    0    0 -0.13098947526E+02  0.13239713978E+02 -0.25881435389E+02  0.59301934857E+02  0.49999983274E+02 0.  0.
        -12    1    1    2    0    0  0.13098947526E+02 -0.13239713978E+02  0.25881435389E+02  0.31886065143E+02  0.00000000000E+00 0.  1.
         11    1    3    3    0    0  0.99709459315E+00 -0.90929243962E+01 -0.10025294307E+02  0.13571366840E+02  0.51100000000E-03 0. -1.
        -11    1    3    3    0    0 -0.13927969129E+02 -0.53578330722E+01 -0.80724793098E+01  0.16966426311E+02  0.51100000000E-03 0.  1.
        -12    1    3    3    0    0 -0.16807299005E+00  0.27690471447E+02 -0.77836617727E+01  0.28764141706E+02  0.00000000000E+00 0.  1.
</event>
<event>
 7    1  0.6953847E-012  0.5930193E+02  0.7816164E-02  0.1266605E+00
        -11   -1    0    0    0    0  0.00000000000E+00  0.00000000000E+00  0.45593999997E+02  0.45594000000E+02  0.51100000000E-03 0. -1.
         11   -1    0    0    0    0 -0.00000000000E+00 -0.00000000000E+00 -0.45593999997E+02  0.45594000000E+02  0.51100000000E-03 0.  1.
    9900012    2    1    2    0    0  0.13857523953E+02 -0.72105203092E+01  0.27797457925E+02  0.59301933445E+02  0.49999980700E+02 0.  0.
        -12    1    1    2    0    0 -0.13857523953E+02  0.72105203092E+01 -0.27797457925E+02  0.31886066555E+02  0.00000000000E+00 0.  1.
         11    1    3    3    0    0 -0.16245638729E+02 -0.52828079026E+01  0.89146956601E+01  0.19269162826E+02  0.51100000000E-03 0. -1.
        -11    1    3    3    0    0  0.28757045897E+01  0.60583851733E+01  0.54388214932E+01  0.86344940379E+01  0.51100000000E-03 0.  1.
         12    1    3    3    0    0  0.27227458093E+02 -0.79860975800E+01  0.13443940772E+02  0.31398276581E+02  0.00000000000E+00 0. -1.
</event>
<event>
 7    1  0.6953847E-012  0.5930191E+02  0.7816164E-02  0.1266605E+00
        -11   -1    0    0    0    0  0.00000000000E+00  0.00000000000E+00  0.45593999997E+02  0.45594000000E+02  0.51100000000E-03 0. -1.
         11   -1    0    0    0    0 -0.00000000000E+00 -0.00000000000E+00 -0.45593999997E+02  0.45594000000E+02  0.51100000000E-03 0.  1.
    9900012    2    1    2    0    0  0.19892502827E+02  0.98078696654E+01  0.22908877822E+02  0.59301911197E+02  0.49999940124E+02 0.  0.
        -12    1    1    2    0    0 -0.19892502827E+02 -0.98078696654E+01 -0.22908877822E+02  0.31886088803E+02  0.00000000000E+00 0.  1.
         11    1    3    3    0    0  0.18854726226E+02  0.13839317087E+02 -0.15987382610E+01  0.23443194382E+02  0.51100000000E-03 0. -1.
        -11    1    3    3    0    0  0.10501587149E+02  0.80562396411E+00  0.16632495275E+01  0.10662962153E+02  0.51100000000E-03 0.  1.
         12    1    3    3    0    0 -0.94638105485E+01 -0.48370713862E+01  0.22844366556E+02  0.25195754663E+02  0.00000000000E+00 0. -1.
</event>
<event>
 7    1  0.6953847E-012  0.5930195E+02  0.7816164E-02  0.1266605E+00
        -11   -1    0    0    0    0  0.00000000000E+00  0.00000000000E+00  0.45593999997E+02  0.45594000000E+02  0.51100000000E-03 0.  1.
         11   -1    0    0    0    0 -0.00000000000E+00 -0.00000000000E+00 -0.45593999997E+02  0.45594000000E+02  0.51100000000E-03 0. -1.
    9900012    2    1    2    0    0 -0.11881390421E+02  0.28976683776E+02 -0.59920428442E+01  0.59301949469E+02  0.50000009924E+02 0.  0.
        -12    1    1    2    0    0  0.11881390421E+02 -0.28976683776E+02  0.59920428442E+01  0.31886050531E+02  0.00000000000E+00 0.  1.
         11    1    3    3    0    0 -0.55174432462E+01  0.17188777834E+00  0.47641572638E+01  0.72917021386E+01  0.51100000000E-03 0. -1.
        -11    1    3    3    0    0 -0.37539573507E+01  0.77868923530E+01  0.15819560390E+02  0.18027378609E+02  0.51100000000E-03 0.  1.
         12    1    3    3    0    0 -0.26099898243E+01  0.21017903645E+02 -0.26575760498E+02  0.33982868722E+02  0.00000000000E+00 0. -1.
</event>
<event>
 7    1  0.6953847E-012  0.5930197E+02  0.7816164E-02  0.1266605E+00
        -11   -1    0    0    0    0  0.00000000000E+00  0.00000000000E+00  0.45593999997E+02  0.45594000000E+02  0.51100000000E-03 0.  1.
         11   -1    0    0    0    0 -0.00000000000E+00 -0.00000000000E+00 -0.45593999997E+02  0.45594000000E+02  0.51100000000E-03 0. -1.
    9900012    2    1    2    0    0 -0.31519578114E+02  0.11310366287E+01  0.46857279067E+01  0.59301967096E+02  0.50000042071E+02 0.  0.
        -12    1    1    2    0    0  0.31519578114E+02 -0.11310366287E+01 -0.46857279067E+01  0.31886032904E+02  0.00000000000E+00 0.  1.
         11    1    3    3    0    0 -0.61283798880E+01  0.30736633886E+01  0.17015388866E+01  0.70639706626E+01  0.51100000000E-03 0. -1.
        -11    1    3    3    0    0 -0.27863050924E+02  0.37270316680E+01  0.19758038470E+02  0.34360157978E+02  0.51100000000E-03 0.  1.
         12    1    3    3    0    0  0.24718526982E+01 -0.56696584279E+01 -0.16773849450E+02  0.17877838455E+02  0.00000000000E+00 0. -1.
</event>
<event>
 7    1  0.6953847E-012  0.5930195E+02  0.7816164E-02  0.1266605E+00
        -11   -1    0    0    0    0  0.00000000000E+00  0.00000000000E+00  0.45593999997E+02  0.45594000000E+02  0.51100000000E-03 0. -1.
         11   -1    0    0    0    0 -0.00000000000E+00 -0.00000000000E+00 -0.45593999997E+02  0.45594000000E+02  0.51100000000E-03 0.  1.
    9900012    2    1    2    0    0 -0.30336928079E+02  0.71648171145E+01  0.67124119277E+01  0.59301948450E+02  0.50000008065E+02 0.  0.
        -12    1    1    2    0    0  0.30336928079E+02 -0.71648171145E+01 -0.67124119277E+01  0.31886051550E+02  0.00000000000E+00 0.  1.
         11    1    3    3    0    0 -0.25887799374E+02  0.74647213373E+01  0.13319220314E+02  0.30054980471E+02  0.51100000000E-03 0. -1.
        -11    1    3    3    0    0 -0.15651136753E+02 -0.43165955363E+01 -0.60746103585E+01  0.17334704207E+02  0.51100000000E-03 0.  1.
        -12    1    3    3    0    0  0.11202008048E+02  0.40166913134E+01 -0.53219802816E+00  0.11912263771E+02  0.00000000000E+00 0.  1.
</event>
<event>
 7    1  0.6953847E-012  0.5930194E+02  0.7816164E-02  0.1266605E+00
        -11   -1    0    0    0    0  0.00000000000E+00  0.00000000000E+00  0.45593999997E+02  0.45594000000E+02  0.51100000000E-03 0.  1.
         11   -1    0    0    0    0 -0.00000000000E+00 -0.00000000000E+00 -0.45593999997E+02  0.45594000000E+02  0.51100000000E-03 0. -1.
    9900012    2    1    2    0    0 -0.11701917634E+02  0.18349090145E+02 -0.23304438489E+02  0.59301939742E+02  0.49999992184E+02 0.  0.
        -12    1    1    2    0    0  0.11701917634E+02 -0.18349090145E+02  0.23304438489E+02  0.31886060258E+02  0.00000000000E+00 0.  1.
         11    1    3    3    0    0 -0.80429033107E+01  0.14234857729E+02 -0.27550778285E+02  0.32036929512E+02  0.51100000000E-03 0. -1.
        -11    1    3    3    0    0 -0.98399733348E+01 -0.12606375581E+01 -0.78539472027E+01  0.12653014234E+02  0.51100000000E-03 0.  1.
         12    1    3    3    0    0  0.61809590115E+01  0.53748699743E+01  0.12100286998E+02  0.14611995996E+02  0.00000000000E+00 0. -1.
</event>
<event>
 7    1  0.6953847E-012  0.5930195E+02  0.7816164E-02  0.1266605E+00
        -11   -1    0    0    0    0  0.00000000000E+00  0.00000000000E+00  0.45593999997E+02  0.45594000000E+02  0.51100000000E-03 0. -1.
         11   -1    0    0    0    0 -0.00000000000E+00 -0.00000000000E+00 -0.45593999997E+02  0.45594000000E+02  0.51100000000E-03 0.  1.
    9900012    2    1    2    0    0  0.30764209737E+02 -0.77510762882E+01  0.31944189905E+01  0.59301951373E+02  0.50000013397E+02 0.  0.
        -12    1    1    2    0    0 -0.30764209737E+02  0.77510762882E+01 -0.31944189905E+01  0.31886048627E+02  0.00000000000E+00 0.  1.
         11    1    3    3    0    0  0.28949367334E+01 -0.20336304044E+02  0.85836628686E+01  0.22262641114E+02  0.51100000000E-03 0. -1.
        -11    1    3    3    0    0  0.14279891810E+02 -0.38065174125E+01  0.99085959290E+00  0.14811707799E+02  0.51100000000E-03 0.  1.
        -12    1    3    3    0    0  0.13589381193E+02  0.16391745168E+02 -0.63801034710E+01  0.22227602461E+02  0.00000000000E+00 0.  1.
</event>
<event>
 7    1  0.6953847E-012  0.5930188E+02  0.7816164E-02  0.1266605E+00
        -11   -1    0    0    0    0  0.00000000000E+00  0.00000000000E+00  0.45593999997E+02  0.45594000000E+02  0.51100000000E-03 0. -1.
         11   -1    0    0    0    0 -0.00000000000E+00 -0.00000000000E+00 -0.45593999997E+02  0.45594000000E+02  0.51100000000E-03 0.  1.
    9900012    2    1    2    0    0  0.73179153304E+01  0.30260325703E+02  0.68909730557E+01  0.59301879100E+02  0.49999881586E+02 0.  0.
        -12    1    1    2    0    0 -0.73179153304E+01 -0.30260325703E+02 -0.68909730557E+01  0.31886120900E+02  0.00000000000E+00 0.  1.
         11    1    3    3    0    0  0.99935025961E-01  0.18264035057E+02  0.43503468870E+01  0.18775262498E+02  0.51100000000E-03 0. -1.
        -11    1    3    3    0    0  0.57034525874E+01  0.20584770805E+02  0.14432956292E+02  0.25779301544E+02  0.51100000000E-03 0.  1.
        -12    1    3    3    0    0  0.15145277171E+01 -0.85884801590E+01 -0.11892330123E+02  0.14747315058E+02  0.00000000000E+00 0.  1.
</event>
<event>
 7    1  0.6953847E-012  0.5930195E+02  0.7816164E-02  0.1266605E+00
        -11   -1    0    0    0    0  0.00000000000E+00  0.00000000000E+00  0.45593999997E+02  0.45594000000E+02  0.51100000000E-03 0.  1.
         11   -1    0    0    0    0 -0.00000000000E+00 -0.00000000000E+00 -0.45593999997E+02  0.45594000000E+02  0.51100000000E-03 0. -1.
    9900012    2    1    2    0    0  0.18369010159E+02  0.46677330430E+01 -0.25641989740E+02  0.59301954403E+02  0.50000018922E+02 0.  0.
        -12    1    1    2    0    0 -0.18369010159E+02 -0.46677330430E+01  0.25641989740E+02  0.31886045597E+02  0.00000000000E+00 0.  1.
         11    1    3    3    0    0 -0.91164882991E+01  0.25718427365E+01 -0.31623831063E+01  0.99862606186E+01  0.51100000000E-03 0. -1.
        -11    1    3    3    0    0  0.17474207652E+02 -0.15476405552E+02 -0.15032728077E+02  0.27764185124E+02  0.51100000000E-03 0.  1.
         12    1    3    3    0    0  0.10011290806E+02  0.17572295858E+02 -0.74468785568E+01  0.21551508661E+02  0.00000000000E+00 0. -1.
</event>
<event>
 7    1  0.6953847E-012  0.5930194E+02  0.7816164E-02  0.1266605E+00
        -11   -1    0    0    0    0  0.00000000000E+00  0.00000000000E+00  0.45593999997E+02  0.45594000000E+02  0.51100000000E-03 0. -1.
         11   -1    0    0    0    0 -0.00000000000E+00 -0.00000000000E+00 -0.45593999997E+02  0.45594000000E+02  0.51100000000E-03 0.  1.
    9900012    2    1    2    0    0  0.27044001020E+01  0.19629065073E+02  0.24982131916E+02  0.59301938929E+02  0.49999990701E+02 0.  0.
        -12    1    1    2    0    0 -0.27044001020E+01 -0.19629065073E+02 -0.24982131916E+02  0.31886061071E+02  0.00000000000E+00 0.  1.
         11    1    3    3    0    0  0.65817899347E+01  0.12534441162E+02 -0.49240909590E+01  0.14989291044E+02  0.51100000000E-03 0. -1.
        -11    1    3    3    0    0 -0.12244204816E+02 -0.57561432284E+01  0.38293410756E+01  0.14061208688E+02  0.51100000000E-03 0.  1.
         12    1    3    3    0    0  0.83668149832E+01  0.12850767140E+02  0.26076881800E+02  0.30251439196E+02  0.00000000000E+00 0. -1.
</event>
<event>
 7    1  0.6953847E-012  0.5930199E+02  0.7816164E-02  0.1266605E+00
        -11   -1    0    0    0    0  0.00000000000E+00  0.00000000000E+00  0.45593999997E+02  0.45594000000E+02  0.51100000000E-03 0.  1.
         11   -1    0    0    0    0 -0.00000000000E+00 -0.00000000000E+00 -0.45593999997E+02  0.45594000000E+02  0.51100000000E-03 0. -1.
    9900012    2    1    2    0    0 -0.19372633494E+01 -0.92714247131E+01 -0.30446758413E+02  0.59301993612E+02  0.50000090430E+02 0.  0.
        -12    1    1    2    0    0  0.19372633494E+01  0.92714247131E+01  0.30446758413E+02  0.31886006388E+02  0.00000000000E+00 0.  1.
         11    1    3    3    0    0 -0.13787262360E+02 -0.10547660411E+01 -0.60331848093E+00  0.13840705482E+02  0.51100000000E-03 0. -1.
        -11    1    3    3    0    0  0.14257029864E+02  0.45126460032E+01 -0.24426491079E+01  0.15152340064E+02  0.51100000000E-03 0.  1.
         12    1    3    3    0    0 -0.24070308534E+01 -0.12729304675E+02 -0.27400790825E+02  0.30308948066E+02  0.00000000000E+00 0. -1.
</event>
<event>
 7    1  0.6953847E-012  0.5930194E+02  0.7816164E-02  0.1266605E+00
        -11   -1    0    0    0    0  0.00000000000E+00  0.00000000000E+00  0.45593999997E+02  0.45594000000E+02  0.51100000000E-03 0.  1.
         11   -1    0    0    0    0 -0.00000000000E+00 -0.00000000000E+00 -0.45593999997E+02  0.45594000000E+02  0.51100000000E-03 0. -1.
    9900012    2    1    2    0    0  0.25695357332E+02  0.17818966570E+02 -0.62413065002E+01  0.59301939332E+02  0.49999991436E+02 0.  0.
        -12    1    1    2    0    0 -0.25695357332E+02 -0.17818966570E+02  0.62413065002E+01  0.31886060668E+02  0.00000000000E+00 0.  1.
         11    1    3    3    0    0  0.21197930771E+02  0.26173986434E+02 -0.45198005301E+01  0.33983208087E+02  0.51100000000E-03 0. -1.
        -11    1    3    3    0    0 -0.27670663751E+01  0.54420494096E+01  0.54242027581E+01  0.81666721450E+01  0.51100000000E-03 0.  1.
         12    1    3    3    0    0  0.72644929368E+01 -0.13797069273E+02 -0.71457087282E+01  0.17152059100E+02  0.00000000000E+00 0. -1.
</event>
<event>
 7    1  0.6953847E-012  0.5930196E+02  0.7816164E-02  0.1266605E+00
        -11   -1    0    0    0    0  0.00000000000E+00  0.00000000000E+00  0.45593999997E+02  0.45594000000E+02  0.51100000000E-03 0. -1.
         11   -1    0    0    0    0 -0.00000000000E+00 -0.00000000000E+00 -0.45593999997E+02  0.45594000000E+02  0.51100000000E-03 0.  1.
    9900012    2    1    2    0    0 -0.30388373397E+02 -0.93326053294E+00 -0.96122611379E+01  0.59301956390E+02  0.50000022545E+02 0.  0.
        -12    1    1    2    0    0  0.30388373397E+02  0.93326053294E+00  0.96122611379E+01  0.31886043610E+02  0.00000000000E+00 0.  1.
         11    1    3    3    0    0 -0.14309282154E+02  0.39988624888E+01 -0.15077371354E+02  0.21167748680E+02  0.51100000000E-03 0. -1.
        -11    1    3    3    0    0  0.89680292631E+01  0.46335834660E+01 -0.20263012760E+01  0.10295705013E+02  0.51100000000E-03 0.  1.
         12    1    3    3    0    0 -0.25047120506E+02 -0.95657064878E+01  0.74914114919E+01  0.27838502697E+02  0.00000000000E+00 0. -1.
</event>
<event>
 7    1  0.6953847E-012  0.5930193E+02  0.7816164E-02  0.1266605E+00
        -11   -1    0    0    0    0  0.00000000000E+00  0.00000000000E+00  0.45593999997E+02  0.45594000000E+02  0.51100000000E-03 0.  1.
         11   -1    0    0    0    0 -0.00000000000E+00 -0.00000000000E+00 -0.45593999997E+02  0.45594000000E+02  0.51100000000E-03 0. -1.
    9900012    2    1    2    0    0 -0.12910379184E+02 -0.28614477120E+02 -0.55906197523E+01  0.59301933753E+02  0.49999981260E+02 0.  0.
        -12    1    1    2    0    0  0.12910379184E+02  0.28614477120E+02  0.55906197523E+01  0.31886066247E+02  0.00000000000E+00 0.  1.
         11    1    3    3    0    0 -0.20367227283E+02 -0.12359140701E+01  0.74494687041E+01  0.21722016827E+02  0.51100000000E-03 0. -1.
        -11    1    3    3    0    0 -0.23030490343E+01 -0.33100547389E+01  0.46505157334E+01  0.61553061725E+01  0.51100000000E-03 0.  1.
         12    1    3    3    0    0  0.97598971337E+01 -0.24068508311E+02 -0.17690604190E+02  0.31424610753E+02  0.00000000000E+00 0. -1.
</event>
<event>
 7    1  0.6953847E-012  0.5930191E+02  0.7816164E-02  0.1266605E+00
        -11   -1    0    0    0    0  0.00000000000E+00  0.00000000000E+00  0.45593999997E+02  0.45594000000E+02  0.51100000000E-03 0. -1.
         11   -1    0    0    0    0 -0.00000000000E+00 -0.00000000000E+00 -0.45593999997E+02  0.45594000000E+02  0.51100000000E-03 0.  1.
    9900012    2    1    2    0    0  0.28863650945E+01 -0.66447507018E+01  0.31052197758E+02  0.59301908974E+02  0.49999936070E+02 0.  0.
        -12    1    1    2    0    0 -0.28863650945E+01  0.66447507018E+01 -0.31052197758E+02  0.31886091026E+02  0.00000000000E+00 0.  1.
         11    1    3    3    0    0  0.35146596026E+01 -0.28434746231E+01  0.12993324702E+02  0.13757349567E+02  0.51100000000E-03 0. -1.
        -11    1    3    3    0    0  0.18530360719E+02 -0.51232627483E+01  0.18005219178E+02  0.26340273489E+02  0.51100000000E-03 0.  1.
         12    1    3    3    0    0 -0.19158655227E+02  0.13219866696E+01  0.53653877604E-01  0.19204285917E+02  0.00000000000E+00 0. -1.
</event>
<event>
 7    1  0.6953847E-012  0.5930198E+02  0.7816164E-02  0.1266605E+00
        -11   -1    0    0    0    0  0.00000000000E+00  0.00000000000E+00  0.45593999997E+02  0.45594000000E+02  0.51100000000E-03 0.  1.
         11   -1    0    0    0    0 -0.00000000000E+00 -0.00000000000E+00 -0.45593999997E+02  0.45594000000E+02  0.51100000000E-03 0. -1.
    9900012    2    1    2    0    0 -0.13377259054E+01 -0.10479239882E+02 -0.30085113237E+02  0.59301983981E+02  0.50000072864E+02 0.  0.
        -12    1    1    2    0    0  0.13377259054E+01  0.10479239882E+02  0.30085113237E+02  0.31886016019E+02  0.00000000000E+00 0.  1.
         11    1    3    3    0    0 -0.23733525321E+01 -0.16770369139E+02 -0.56328715742E+01  0.17849574945E+02  0.51100000000E-03 0. -1.
        -11    1    3    3    0    0  0.14039968515E+02  0.12364331442E+02 -0.10585394529E+02  0.21495301475E+02  0.51100000000E-03 0.  1.
         12    1    3    3    0    0 -0.13004341888E+02 -0.60732021854E+01 -0.13866847133E+02  0.19957107560E+02  0.00000000000E+00 0. -1.
</event>
<event>
 7    1  0.6953847E-012  0.5930194E+02  0.7816164E-02  0.1266605E+00
        -11   -1    0    0    0    0  0.00000000000E+00  0.00000000000E+00  0.45593999997E+02  0.45594000000E+02  0.51100000000E-03 0.  1.
         11   -1    0    0    0    0 -0.00000000000E+00 -0.00000000000E+00 -0.45593999997E+02  0.45594000000E+02  0.51100000000E-03 0. -1.
    9900012    2    1    2    0    0  0.24399860562E+02  0.34222390691E+01 -0.20239952630E+02  0.59301943515E+02  0.49999999065E+02 0.  0.
        -12    1    1    2    0    0 -0.24399860562E+02 -0.34222390691E+01  0.20239952630E+02  0.31886056485E+02  0.00000000000E+00 0.  1.
         11    1    3    3    0    0  0.12525395071E+02 -0.10294144412E+02 -0.13810381607E+02  0.21297454572E+02  0.51100000000E-03 0. -1.
        -11    1    3    3    0    0  0.24222844773E+01 -0.51820462847E+01 -0.14342439880E+02  0.15441070162E+02  0.51100000000E-03 0.  1.
         12    1    3    3    0    0  0.94521810144E+01  0.18898429765E+02  0.79128688571E+01  0.22563418781E+02  0.00000000000E+00 0. -1.
</event>
<event>
 7    1  0.6953847E-012  0.5930202E+02  0.7816164E-02  0.1266604E+00
        -11   -1    0    0    0    0  0.00000000000E+00  0.00000000000E+00  0.45593999997E+02  0.45594000000E+02  0.51100000000E-03 0.  1.
         11   -1    0    0    0    0 -0.00000000000E+00 -0.00000000000E+00 -0.45593999997E+02  0.45594000000E+02  0.51100000000E-03 0. -1.
    9900012    2    1    2    0    0  0.28474489719E+02 -0.12992929373E+02 -0.60911994137E+01  0.59302023635E+02  0.50000145185E+02 0.  0.
        -12    1    1    2    0    0 -0.28474489719E+02  0.12992929373E+02  0.60911994137E+01  0.31885976365E+02  0.00000000000E+00 0.  1.
         11    1    3    3    0    0  0.19693791648E+02 -0.85103404794E+01 -0.54251623210E+01  0.22129250124E+02  0.51100000000E-03 0. -1.
        -11    1    3    3    0    0  0.22094266111E+02 -0.73118485566E+01 -0.26303142544E+01  0.23420894040E+02  0.51100000000E-03 0.  1.
        -12    1    3    3    0    0 -0.13313568041E+02  0.28292596628E+01  0.19642771617E+01  0.13751879471E+02  0.00000000000E+00 0.  1.
</event>
<event>
 7    1  0.6953847E-012  0.5930192E+02  0.7816164E-02  0.1266605E+00
        -11   -1    0    0    0    0  0.00000000000E+00  0.00000000000E+00  0.45593999997E+02  0.45594000000E+02  0.51100000000E-03 0.  1.
         11   -1    0    0    0    0 -0.00000000000E+00 -0.00000000000E+00 -0.45593999997E+02  0.45594000000E+02  0.51100000000E-03 0. -1.
    9900012    2    1    2    0    0  0.15230934946E+02  0.22258666314E+02 -0.17008599636E+02  0.59301920483E+02  0.49999957059E+02 0.  0.
        -12    1    1    2    0    0 -0.15230934946E+02 -0.22258666314E+02  0.17008599636E+02  0.31886079517E+02  0.00000000000E+00 0.  1.
         11    1    3    3    0    0  0.57957370538E+01  0.30431875557E+01 -0.21066543336E+01  0.68767398699E+01  0.51100000000E-03 0. -1.
        -11    1    3    3    0    0  0.21519347239E+02  0.25163537674E+02 -0.10824275610E+01  0.33127897361E+02  0.51100000000E-03 0.  1.
         12    1    3    3    0    0 -0.12084149347E+02 -0.59480589152E+01 -0.13819517742E+02  0.19297283252E+02  0.00000000000E+00 0. -1.
</event>
<event>
 7    1  0.6953847E-012  0.5930201E+02  0.7816164E-02  0.1266605E+00
        -11   -1    0    0    0    0  0.00000000000E+00  0.00000000000E+00  0.45593999997E+02  0.45594000000E+02  0.51100000000E-03 0.  1.
         11   -1    0    0    0    0 -0.00000000000E+00 -0.00000000000E+00 -0.45593999997E+02  0.45594000000E+02  0.51100000000E-03 0. -1.
    9900012    2    1    2    0    0  0.31764679956E+02 -0.27370503693E+01  0.47959928570E+00  0.59302010084E+02  0.50000120471E+02 0.  0.
        -12    1    1    2    0    0 -0.31764679956E+02  0.27370503693E+01 -0.47959928570E+00  0.31885989916E+02  0.00000000000E+00 0.  1.
         11    1    3    3    0    0  0.11427269964E+02  0.13352963105E+02  0.46471385585E+01  0.18179109427E+02  0.51100000000E-03 0. -1.
        -11    1    3    3    0    0  0.61573083235E+01  0.20221068203E+01 -0.14517941667E+02  0.15898804744E+02  0.51100000000E-03 0.  1.
        -12    1    3    3    0    0  0.14180101668E+02 -0.18112120295E+02  0.10350402394E+02  0.25224095913E+02  0.00000000000E+00 0.  1.
</event>
<event>
 7    1  0.6953847E-012  0.5930196E+02  0.7816164E-02  0.1266605E+00
        -11   -1    0    0    0    0  0.00000000000E+00  0.00000000000E+00  0.45593999997E+02  0.45594000000E+02  0.51100000000E-03 0.  1.
         11   -1    0    0    0    0 -0.00000000000E+00 -0.00000000000E+00 -0.45593999997E+02  0.45594000000E+02  0.51100000000E-03 0. -1.
    9900012    2    1    2    0    0  0.23987960542E+01  0.10459938069E+02 -0.30025910906E+02  0.59301955205E+02  0.50000020385E+02 0.  0.
        -12    1    1    2    0    0 -0.23987960542E+01 -0.10459938069E+02  0.30025910906E+02  0.31886044795E+02  0.00000000000E+00 0.  1.
         11    1    3    3    0    0 -0.87669146386E+01 -0.11142273338E+01  0.15065411091E+01  0.89649295149E+01  0.51100000000E-03 0. -1.
        -11    1    3    3    0    0  0.40442318005E+01 -0.10152570793E+02  0.54849505601E+00  0.10942182216E+02  0.51100000000E-03 0.  1.
         12    1    3    3    0    0  0.71214788923E+01  0.21726736196E+02 -0.32080947071E+02  0.39394843474E+02  0.00000000000E+00 0. -1.
</event>
<event>
 7    1  0.6953847E-012  0.5930193E+02  0.7816164E-02  0.1266605E+00
        -11   -1    0    0    0    0  0.00000000000E+00  0.00000000000E+00  0.45593999997E+02  0.45594000000E+02  0.51100000000E-03 0. -1.
         11   -1    0    0    0    0 -0.00000000000E+00 -0.00000000000E+00 -0.45593999997E+02  0.45594000000E+02  0.51100000000E-03 0.  1.
    9900012    2    1    2    0    0 -0.39630069565E+01  0.31054920966E+02  0.60504397010E+01  0.59301931554E+02  0.49999977251E+02 0.  0.
        -12    1    1    2    0    0  0.39630069565E+01 -0.31054920966E+02 -0.60504397010E+01  0.31886068446E+02  0.00000000000E+00 0.  1.
         11    1    3    3    0    0  0.92439151427E+01  0.14987212371E+02  0.11237208353E+02  0.20888785356E+02  0.51100000000E-03 0. -1.
        -11    1    3    3    0    0 -0.31775901071E+01  0.23866479335E+01  0.12969932365E+02  0.13565113824E+02  0.51100000000E-03 0.  1.
        -12    1    3    3    0    0 -0.10029331992E+02  0.13681060662E+02 -0.18156701017E+02  0.24848032374E+02  0.00000000000E+00 0.  1.
</event>
<event>
 7    1  0.6953847E-012  0.5930194E+02  0.7816164E-02  0.1266605E+00
        -11   -1    0    0    0    0  0.00000000000E+00  0.00000000000E+00  0.45593999997E+02  0.45594000000E+02  0.51100000000E-03 0. -1.
         11   -1    0    0    0    0 -0.00000000000E+00 -0.00000000000E+00 -0.45593999997E+02  0.45594000000E+02  0.51100000000E-03 0.  1.
    9900012    2    1    2    0    0 -0.14268479185E+02  0.28093854897E+02  0.48853344385E+01  0.59301942329E+02  0.49999996902E+02 0.  0.
        -12    1    1    2    0    0  0.14268479185E+02 -0.28093854897E+02 -0.48853344385E+01  0.31886057671E+02  0.00000000000E+00 0.  1.
         11    1    3    3    0    0  0.14050331379E+01  0.20521606149E+02 -0.95129064434E+01  0.22662873302E+02  0.51100000000E-03 0. -1.
        -11    1    3    3    0    0 -0.47889029407E+01 -0.69062555435E+01 -0.52548814504E+01  0.99117978353E+01  0.51100000000E-03 0.  1.
         12    1    3    3    0    0 -0.10884609383E+02  0.14478504292E+02  0.19653122332E+02  0.26727271192E+02  0.00000000000E+00 0. -1.
</event>
<event>
 7    1  0.6953847E-012  0.5930192E+02  0.7816164E-02  0.1266605E+00
        -11   -1    0    0    0    0  0.00000000000E+00  0.00000000000E+00  0.45593999997E+02  0.45594000000E+02  0.51100000000E-03 0.  1.
         11   -1    0    0    0    0 -0.00000000000E+00 -0.00000000000E+00 -0.45593999997E+02  0.45594000000E+02  0.51100000000E-03 0. -1.
    9900012    2    1    2    0    0 -0.16857174684E+02  0.83750527007E+01 -0.25737445393E+02  0.59301922452E+02  0.49999960651E+02 0.  0.
        -12    1    1    2    0    0  0.16857174684E+02 -0.83750527007E+01  0.25737445393E+02  0.31886077548E+02  0.00000000000E+00 0.  1.
         11    1    3    3    0    0 -0.14158865810E+02  0.17007637625E+00 -0.26449849227E+02  0.30001615480E+02  0.51100000000E-03 0. -1.
        -11    1    3    3    0    0  0.75339998723E+01  0.14134617720E+02 -0.40981091480E+01  0.16533090184E+02  0.51100000000E-03 0.  1.
        -12    1    3    3    0    0 -0.10232308746E+02 -0.59296413957E+01  0.48105129829E+01  0.12767216788E+02  0.00000000000E+00 0.  1.
</event>
<event>
 7    1  0.6953847E-012  0.5930200E+02  0.7816164E-02  0.1266605E+00
        -11   -1    0    0    0    0  0.00000000000E+00  0.00000000000E+00  0.45593999997E+02  0.45594000000E+02  0.51100000000E-03 0.  1.
         11   -1    0    0    0    0 -0.00000000000E+00 -0.00000000000E+00 -0.45593999997E+02  0.45594000000E+02  0.51100000000E-03 0. -1.
    9900012    2    1    2    0    0  0.13168061684E+02 -0.26277472266E+02 -0.12361785419E+02  0.59301997805E+02  0.50000098078E+02 0.  0.
        -12    1    1    2    0    0 -0.13168061684E+02  0.26277472266E+02  0.12361785419E+02  0.31886002195E+02  0.00000000000E+00 0.  1.
         11    1    3    3    0    0  0.10532941105E+02 -0.76202624423E+00 -0.11173020965E+02  0.15374001758E+02  0.51100000000E-03 0. -1.
        -11    1    3    3    0    0  0.85120754651E+01 -0.76717066114E+01 -0.16226022139E+02  0.19864397946E+02  0.51100000000E-03 0.  1.
        -12    1    3    3    0    0 -0.58769548859E+01 -0.17843739410E+02  0.15037257685E+02  0.24063598101E+02  0.00000000000E+00 0.  1.
</event>
<event>
 7    1  0.6953847E-012  0.5930195E+02  0.7816164E-02  0.1266605E+00
        -11   -1    0    0    0    0  0.00000000000E+00  0.00000000000E+00  0.45593999997E+02  0.45594000000E+02  0.51100000000E-03 0. -1.
         11   -1    0    0    0    0 -0.00000000000E+00 -0.00000000000E+00 -0.45593999997E+02  0.45594000000E+02  0.51100000000E-03 0.  1.
    9900012    2    1    2    0    0 -0.20138762065E+02 -0.53220248946E+01  0.24141794877E+02  0.59301953736E+02  0.50000017705E+02 0.  0.
        -12    1    1    2    0    0  0.20138762065E+02  0.53220248946E+01 -0.24141794877E+02  0.31886046264E+02  0.00000000000E+00 0.  1.
         11    1    3    3    0    0 -0.42287261947E+01 -0.68362508148E+01  0.21306358751E+00  0.80412590299E+01  0.51100000000E-03 0. -1.
        -11    1    3    3    0    0 -0.24811533606E+02 -0.10384123349E+02  0.52706779224E+01  0.27408434169E+02  0.51100000000E-03 0.  1.
         12    1    3    3    0    0  0.89014977352E+01  0.11898349269E+02  0.18658053367E+02  0.23852260537E+02  0.00000000000E+00 0. -1.
</event>
<event>
 7    1  0.6953847E-012  0.5930196E+02  0.7816164E-02  0.1266605E+00
        -11   -1    0    0    0    0  0.00000000000E+00  0.00000000000E+00  0.45593999997E+02  0.45594000000E+02  0.51100000000E-03 0. -1.
         11   -1    0    0    0    0 -0.00000000000E+00 -0.00000000000E+00 -0.45593999997E+02  0.45594000000E+02  0.51100000000E-03 0.  1.
    9900012    2    1    2    0    0  0.11476158699E+02  0.64114121780E+01  0.29050148508E+02  0.59301959905E+02  0.50000028957E+02 0.  0.
        -12    1    1    2    0    0 -0.11476158699E+02 -0.64114121780E+01 -0.29050148508E+02  0.31886040095E+02  0.00000000000E+00 0.  1.
         11    1    3    3    0    0  0.28469829857E+01  0.13372877201E+02 -0.59411119549E+01  0.14907580900E+02  0.51100000000E-03 0. -1.
        -11    1    3    3    0    0  0.13482998782E+02 -0.33930057357E+01  0.66353550835E+01  0.15405573064E+02  0.51100000000E-03 0.  1.
         12    1    3    3    0    0 -0.48538230689E+01 -0.35684592877E+01  0.28355905379E+02  0.28988805942E+02  0.00000000000E+00 0. -1.
</event>
<event>
 7    1  0.6953847E-012  0.5930192E+02  0.7816164E-02  0.1266605E+00
        -11   -1    0    0    0    0  0.00000000000E+00  0.00000000000E+00  0.45593999997E+02  0.45594000000E+02  0.51100000000E-03 0.  1.
         11   -1    0    0    0    0 -0.00000000000E+00 -0.00000000000E+00 -0.45593999997E+02  0.45594000000E+02  0.51100000000E-03 0. -1.
    9900012    2    1    2    0    0 -0.52744631046E+01  0.20064373135E+02 -0.24214108837E+02  0.59301920011E+02  0.49999956198E+02 0.  0.
        -12    1    1    2    0    0  0.52744631046E+01 -0.20064373135E+02  0.24214108837E+02  0.31886079989E+02  0.00000000000E+00 0.  1.
         11    1    3    3    0    0  0.49083021657E+01 -0.66744279927E+01  0.53569233978E+01  0.98659032902E+01  0.51100000000E-03 0. -1.
        -11    1    3    3    0    0  0.38329640634E+01 -0.37969419389E+01 -0.13594242950E+01  0.55638490521E+01  0.51100000000E-03 0.  1.
         12    1    3    3    0    0 -0.14015729334E+02  0.30535743066E+02 -0.28211607940E+02  0.43872167668E+02  0.00000000000E+00 0. -1.
</event>
<event>
 7    1  0.6953847E-012  0.5930194E+02  0.7816164E-02  0.1266605E+00
        -11   -1    0    0    0    0  0.00000000000E+00  0.00000000000E+00  0.45593999997E+02  0.45594000000E+02  0.51100000000E-03 0.  1.
         11   -1    0    0    0    0 -0.00000000000E+00 -0.00000000000E+00 -0.45593999997E+02  0.45594000000E+02  0.51100000000E-03 0. -1.
    9900012    2    1    2    0    0  0.28245944601E+02  0.57017448930E+01 -0.13652007802E+02  0.59301943514E+02  0.49999999063E+02 0.  0.
        -12    1    1    2    0    0 -0.28245944601E+02 -0.57017448930E+01  0.13652007802E+02  0.31886056486E+02  0.00000000000E+00 0.  1.
         11    1    3    3    0    0 -0.40498026866E+01  0.14099214173E+02  0.44747169582E+01  0.15336617430E+02  0.51100000000E-03 0. -1.
        -11    1    3    3    0    0  0.20332839950E+01 -0.39362836163E+01  0.41919145864E+01  0.60992393521E+01  0.51100000000E-03 0.  1.
         12    1    3    3    0    0  0.30262463292E+02 -0.44611856635E+01 -0.22318639346E+02  0.37866086731E+02  0.00000000000E+00 0. -1.
</event>
<event>
 7    1  0.6953847E-012  0.5930197E+02  0.7816164E-02  0.1266605E+00
        -11   -1    0    0    0    0  0.00000000000E+00  0.00000000000E+00  0.45593999997E+02  0.45594000000E+02  0.51100000000E-03 0. -1.
         11   -1    0    0    0    0 -0.00000000000E+00 -0.00000000000E+00 -0.45593999997E+02  0.45594000000E+02  0.51100000000E-03 0.  1.
    9900012    2    1    2    0    0 -0.74114282947E+01  0.11370129772E+02  0.28853243995E+02  0.59301971564E+02  0.50000050220E+02 0.  0.
        -12    1    1    2    0    0  0.74114282947E+01 -0.11370129772E+02 -0.28853243995E+02  0.31886028436E+02  0.00000000000E+00 0.  1.
         11    1    3    3    0    0 -0.87072386298E+01 -0.59796699810E+01  0.32665477153E+02  0.34330829520E+02  0.51100000000E-03 0. -1.
        -11    1    3    3    0    0 -0.39422944504E+01  0.11730778277E+02  0.49407336687E+01  0.13325302772E+02  0.51100000000E-03 0.  1.
        -12    1    3    3    0    0  0.52381047856E+01  0.56190214751E+01 -0.87529668266E+01  0.11645839272E+02  0.00000000000E+00 0.  1.
</event>
<event>
 7    1  0.6953847E-012  0.5930199E+02  0.7816164E-02  0.1266605E+00
        -11   -1    0    0    0    0  0.00000000000E+00  0.00000000000E+00  0.45593999997E+02  0.45594000000E+02  0.51100000000E-03 0. -1.
         11   -1    0    0    0    0 -0.00000000000E+00 -0.00000000000E+00 -0.45593999997E+02  0.45594000000E+02  0.51100000000E-03 0.  1.
    9900012    2    1    2    0    0  0.21580282799E+02  0.46734402802E+01 -0.23003652246E+02  0.59301989487E+02  0.50000082908E+02 0.  0.
        -12    1    1    2    0    0 -0.21580282799E+02 -0.46734402802E+01  0.23003652246E+02  0.31886010513E+02  0.00000000000E+00 0.  1.
         11    1    3    3    0    0  0.13369507780E+02 -0.32885304604E+01 -0.10341185254E+02  0.17219125518E+02  0.51100000000E-03 0. -1.
        -11    1    3    3    0    0  0.15331828606E+02  0.10309253889E+01 -0.23053227984E+02  0.27705217854E+02  0.51100000000E-03 0.  1.
         12    1    3    3    0    0 -0.71210535869E+01  0.69310453517E+01  0.10390760992E+02  0.14377646116E+02  0.00000000000E+00 0. -1.
</event>
<event>
 7    1  0.6953847E-012  0.5930219E+02  0.7816164E-02  0.1266604E+00
        -11   -1    0    0    0    0  0.00000000000E+00  0.00000000000E+00  0.45593999997E+02  0.45594000000E+02  0.51100000000E-03 0.  1.
         11   -1    0    0    0    0 -0.00000000000E+00 -0.00000000000E+00 -0.45593999997E+02  0.45594000000E+02  0.51100000000E-03 0. -1.
    9900012    2    1    2    0    0 -0.30266998933E+02  0.94496463548E+01  0.33641711952E+01  0.59302192994E+02  0.50000454052E+02 0.  0.
        -12    1    1    2    0    0  0.30266998933E+02 -0.94496463548E+01 -0.33641711952E+01  0.31885807006E+02  0.00000000000E+00 0.  1.
         11    1    3    3    0    0 -0.10745863691E+02 -0.61570326388E+00  0.28568212180E+00  0.10767278742E+02  0.51100000000E-03 0. -1.
        -11    1    3    3    0    0 -0.18583979694E+02  0.17211091486E+02  0.18597731165E+02  0.31423901351E+02  0.51100000000E-03 0.  1.
        -12    1    3    3    0    0 -0.93715554751E+00 -0.71457418669E+01 -0.15519242092E+02  0.17111012900E+02  0.00000000000E+00 0.  1.
</event>
<event>
 7    1  0.6953847E-012  0.5930196E+02  0.7816164E-02  0.1266605E+00
        -11   -1    0    0    0    0  0.00000000000E+00  0.00000000000E+00  0.45593999997E+02  0.45594000000E+02  0.51100000000E-03 0. -1.
         11   -1    0    0    0    0 -0.00000000000E+00 -0.00000000000E+00 -0.45593999997E+02  0.45594000000E+02  0.51100000000E-03 0.  1.
    9900012    2    1    2    0    0 -0.11670527317E+02 -0.60964686771E+01  0.29040512823E+02  0.59301960371E+02  0.50000029807E+02 0.  0.
        -12    1    1    2    0    0  0.11670527317E+02  0.60964686771E+01 -0.29040512823E+02  0.31886039629E+02  0.00000000000E+00 0.  1.
         11    1    3    3    0    0 -0.27559006313E+01  0.67834098209E+01  0.50005710521E+00  0.73389164362E+01  0.51100000000E-03 0. -1.
        -11    1    3    3    0    0 -0.13942139040E+02  0.11647428133E+02  0.94502096161E+01  0.20478092811E+02  0.51100000000E-03 0.  1.
        -12    1    3    3    0    0  0.50275123546E+01 -0.24527306631E+02  0.19090246102E+02  0.31484951124E+02  0.00000000000E+00 0.  1.
</event>
<event>
 7    1  0.6953847E-012  0.5930190E+02  0.7816164E-02  0.1266605E+00
        -11   -1    0    0    0    0  0.00000000000E+00  0.00000000000E+00  0.45593999997E+02  0.45594000000E+02  0.51100000000E-03 0.  1.
         11   -1    0    0    0    0 -0.00000000000E+00 -0.00000000000E+00 -0.45593999997E+02  0.45594000000E+02  0.51100000000E-03 0. -1.
    9900012    2    1    2    0    0  0.34099826284E+01 -0.31269460502E+02 -0.52265031961E+01  0.59301898368E+02  0.49999916727E+02 0.  0.
        -12    1    1    2    0    0 -0.34099826284E+01  0.31269460502E+02  0.52265031961E+01  0.31886101632E+02  0.00000000000E+00 0.  1.
         11    1    3    3    0    0 -0.20526522545E+01 -0.35541304252E+02 -0.58817574080E+00  0.35605387797E+02  0.51100000000E-03 0. -1.
        -11    1    3    3    0    0  0.10912183369E+02 -0.12322710616E+01 -0.95262418962E+01  0.14537658779E+02  0.51100000000E-03 0.  1.
        -12    1    3    3    0    0 -0.54495484858E+01  0.55041148118E+01  0.48879144409E+01  0.91588517917E+01  0.00000000000E+00 0.  1.
</event>
<event>
 7    1  0.6953847E-012  0.5930197E+02  0.7816164E-02  0.1266605E+00
        -11   -1    0    0    0    0  0.00000000000E+00  0.00000000000E+00  0.45593999997E+02  0.45594000000E+02  0.51100000000E-03 0.  1.
         11   -1    0    0    0    0 -0.00000000000E+00 -0.00000000000E+00 -0.45593999997E+02  0.45594000000E+02  0.51100000000E-03 0. -1.
    9900012    2    1    2    0    0  0.15529554313E+02  0.24941561747E+02  0.12388324517E+02  0.59301966319E+02  0.50000040654E+02 0.  0.
        -12    1    1    2    0    0 -0.15529554313E+02 -0.24941561747E+02 -0.12388324517E+02  0.31886033681E+02  0.00000000000E+00 0.  1.
         11    1    3    3    0    0  0.28182380824E+01  0.26498085099E+02 -0.99706477867E+01  0.28451797788E+02  0.51100000000E-03 0. -1.
        -11    1    3    3    0    0 -0.31158641265E+01  0.25978154785E+01  0.84532922408E+01  0.93763214794E+01  0.51100000000E-03 0.  1.
        -12    1    3    3    0    0  0.15827180357E+02 -0.41543388301E+01  0.13905680063E+02  0.21473847052E+02  0.00000000000E+00 0.  1.
</event>
<event>
 7    1  0.6953847E-012  0.5930197E+02  0.7816164E-02  0.1266605E+00
        -11   -1    0    0    0    0  0.00000000000E+00  0.00000000000E+00  0.45593999997E+02  0.45594000000E+02  0.51100000000E-03 0. -1.
         11   -1    0    0    0    0 -0.00000000000E+00 -0.00000000000E+00 -0.45593999997E+02  0.45594000000E+02  0.51100000000E-03 0.  1.
    9900012    2    1    2    0    0 -0.20411857679E+01  0.18258034386E+02  0.26061402478E+02  0.59301969232E+02  0.50000045967E+02 0.  0.
        -12    1    1    2    0    0  0.20411857679E+01 -0.18258034386E+02 -0.26061402478E+02  0.31886030768E+02  0.00000000000E+00 0.  1.
         11    1    3    3    0    0 -0.54255714524E+01  0.10720736615E+02  0.19461574995E+02  0.22871902429E+02  0.51100000000E-03 0. -1.
        -11    1    3    3    0    0 -0.15705820648E+02  0.18400559917E+01  0.42169262553E+01  0.16365850897E+02  0.51100000000E-03 0.  1.
        -12    1    3    3    0    0  0.19090206332E+02  0.56972417792E+01  0.23829012275E+01  0.20064215907E+02  0.00000000000E+00 0.  1.
</event>
<event>
 7    1  0.6953847E-012  0.5930196E+02  0.7816164E-02  0.1266605E+00
        -11   -1    0    0    0    0  0.00000000000E+00  0.00000000000E+00  0.45593999997E+02  0.45594000000E+02  0.51100000000E-03 0.  1.
         11   -1    0    0    0    0 -0.00000000000E+00 -0.00000000000E+00 -0.45593999997E+02  0.45594000000E+02  0.51100000000E-03 0. -1.
    9900012    2    1    2    0    0  0.15334224074E+02  0.18981803751E+02 -0.20524920731E+02  0.59301958028E+02  0.50000025533E+02 0.  0.
        -12    1    1    2    0    0 -0.15334224074E+02 -0.18981803751E+02  0.20524920731E+02  0.31886041972E+02  0.00000000000E+00 0.  1.
         11    1    3    3    0    0  0.42050869919E+01  0.34798103893E+01  0.87203642019E+01  0.10287691142E+02  0.51100000000E-03 0. -1.
        -11    1    3    3    0    0  0.10741885855E+02 -0.59211307035E+01  0.59267524791E+00  0.12280031138E+02  0.51100000000E-03 0.  1.
         12    1    3    3    0    0  0.38725122670E+00  0.21423124066E+02 -0.29837960181E+02  0.36734235748E+02  0.00000000000E+00 0. -1.
</event>
<event>
 7    1  0.6953847E-012  0.5930194E+02  0.7816164E-02  0.1266605E+00
        -11   -1    0    0    0    0  0.00000000000E+00  0.00000000000E+00  0.45593999997E+02  0.45594000000E+02  0.51100000000E-03 0.  1.
         11   -1    0    0    0    0 -0.00000000000E+00 -0.00000000000E+00 -0.45593999997E+02  0.45594000000E+02  0.51100000000E-03 0. -1.
    9900012    2    1    2    0    0 -0.19320837208E+02 -0.25340709105E+02  0.11290319712E+01  0.59301937190E+02  0.49999987529E+02 0.  0.
        -12    1    1    2    0    0  0.19320837208E+02  0.25340709105E+02 -0.11290319712E+01  0.31886062810E+02  0.00000000000E+00 0.  1.
         11    1    3    3    0    0  0.56804786802E+01 -0.19427009267E+02  0.14076072006E+02  0.24653850216E+02  0.51100000000E-03 0. -1.
        -11    1    3    3    0    0 -0.69827149648E+01  0.20048653697E+01  0.43313876620E+01  0.84580560870E+01  0.51100000000E-03 0.  1.
         12    1    3    3    0    0 -0.18018600923E+02 -0.79185652078E+01 -0.17278427697E+02  0.26190030887E+02  0.00000000000E+00 0. -1.
</event>
<event>
 7    1  0.6953847E-012  0.5930196E+02  0.7816164E-02  0.1266605E+00
        -11   -1    0    0    0    0  0.00000000000E+00  0.00000000000E+00  0.45593999997E+02  0.45594000000E+02  0.51100000000E-03 0.  1.
         11   -1    0    0    0    0 -0.00000000000E+00 -0.00000000000E+00 -0.45593999997E+02  0.45594000000E+02  0.51100000000E-03 0. -1.
    9900012    2    1    2    0    0 -0.18702369820E+02  0.22219852667E+02 -0.13161279958E+02  0.59301956351E+02  0.50000022475E+02 0.  0.
        -12    1    1    2    0    0  0.18702369820E+02 -0.22219852667E+02  0.13161279958E+02  0.31886043649E+02  0.00000000000E+00 0.  1.
         11    1    3    3    0    0 -0.14660682019E+02  0.10188145427E+02 -0.13461663957E+02  0.22359568450E+02  0.51100000000E-03 0. -1.
        -11    1    3    3    0    0 -0.13674311012E+02 -0.51355682400E+01  0.69346449209E+01  0.16169420003E+02  0.51100000000E-03 0.  1.
         12    1    3    3    0    0  0.96326232105E+01  0.17167275480E+02 -0.66342609227E+01  0.20772967899E+02  0.00000000000E+00 0. -1.
</event>
<event>
 7    1  0.6953847E-012  0.5930196E+02  0.7816164E-02  0.1266605E+00
        -11   -1    0    0    0    0  0.00000000000E+00  0.00000000000E+00  0.45593999997E+02  0.45594000000E+02  0.51100000000E-03 0. -1.
         11   -1    0    0    0    0 -0.00000000000E+00 -0.00000000000E+00 -0.45593999997E+02  0.45594000000E+02  0.51100000000E-03 0.  1.
    9900012    2    1    2    0    0  0.26803171234E+02  0.66348102697E+00  0.17258899928E+02  0.59301955686E+02  0.50000021261E+02 0.  0.
        -12    1    1    2    0    0 -0.26803171234E+02 -0.66348102697E+00 -0.17258899928E+02  0.31886044314E+02  0.00000000000E+00 0.  1.
         11    1    3    3    0    0  0.89120721781E+01  0.17848981512E+02  0.50814447625E+01  0.20587186613E+02  0.51100000000E-03 0. -1.
        -11    1    3    3    0    0 -0.66105242441E+00  0.55475510183E+01 -0.22431570694E+01  0.60203045195E+01  0.51100000000E-03 0.  1.
        -12    1    3    3    0    0  0.18552151481E+02 -0.22733051503E+02  0.14420612235E+02  0.32694464553E+02  0.00000000000E+00 0.  1.
</event>
<event>
 7    1  0.6953847E-012  0.5930187E+02  0.7816164E-02  0.1266605E+00
        -11   -1    0    0    0    0  0.00000000000E+00  0.00000000000E+00  0.45593999997E+02  0.45594000000E+02  0.51100000000E-03 0. -1.
         11   -1    0    0    0    0 -0.00000000000E+00 -0.00000000000E+00 -0.45593999997E+02  0.45594000000E+02  0.51100000000E-03 0.  1.
    9900012    2    1    2    0    0  0.22368445829E+02 -0.65426499869E+01  0.21761702384E+02  0.59301869343E+02  0.49999863792E+02 0.  0.
        -12    1    1    2    0    0 -0.22368445829E+02  0.65426499869E+01 -0.21761702384E+02  0.31886130657E+02  0.00000000000E+00 0.  1.
         11    1    3    3    0    0 -0.96708979723E+00 -0.17035392357E+01  0.36752501623E+01  0.41647055863E+01  0.51100000000E-03 0. -1.
        -11    1    3    3    0    0 -0.13489469524E+01 -0.21025738896E+02  0.11389987627E+01  0.21099731573E+02  0.51100000000E-03 0.  1.
         12    1    3    3    0    0  0.24684482579E+02  0.16186628145E+02  0.16947453459E+02  0.34037432183E+02  0.00000000000E+00 0. -1.
</event>
<event>
 7    1  0.6953847E-012  0.5930199E+02  0.7816164E-02  0.1266605E+00
        -11   -1    0    0    0    0  0.00000000000E+00  0.00000000000E+00  0.45593999997E+02  0.45594000000E+02  0.51100000000E-03 0.  1.
         11   -1    0    0    0    0 -0.00000000000E+00 -0.00000000000E+00 -0.45593999997E+02  0.45594000000E+02  0.51100000000E-03 0. -1.
    9900012    2    1    2    0    0 -0.25151562965E+02 -0.61664232034E+01 -0.18603542956E+02  0.59301988878E+02  0.50000081797E+02 0.  0.
        -12    1    1    2    0    0  0.25151562965E+02  0.61664232034E+01  0.18603542956E+02  0.31886011122E+02  0.00000000000E+00 0.  1.
         11    1    3    3    0    0 -0.23309734841E+02  0.23877043092E+01 -0.77195676685E+01  0.24670561312E+02  0.51100000000E-03 0. -1.
        -11    1    3    3    0    0 -0.88778224540E+01  0.82111561428E+01  0.21206419075E+01  0.12277456540E+02  0.51100000000E-03 0.  1.
         12    1    3    3    0    0  0.70359943292E+01 -0.16765283655E+02 -0.13004617195E+02  0.22353971026E+02  0.00000000000E+00 0. -1.
</event>
<event>
 7    1  0.6953847E-012  0.5930188E+02  0.7816164E-02  0.1266605E+00
        -11   -1    0    0    0    0  0.00000000000E+00  0.00000000000E+00  0.45593999997E+02  0.45594000000E+02  0.51100000000E-03 0.  1.
         11   -1    0    0    0    0 -0.00000000000E+00 -0.00000000000E+00 -0.45593999997E+02  0.45594000000E+02  0.51100000000E-03 0. -1.
    9900012    2    1    2    0    0  0.81408086398E+01 -0.28945523453E+02 -0.10611731103E+02  0.59301875584E+02  0.49999875174E+02 0.  0.
        -12    1    1    2    0    0 -0.81408086398E+01  0.28945523453E+02  0.10611731103E+02  0.31886124416E+02  0.00000000000E+00 0.  1.
         11    1    3    3    0    0  0.11833203413E+02 -0.25615025237E+02 -0.21684616845E+02  0.35586188738E+02  0.51100000000E-03 0. -1.
        -11    1    3    3    0    0 -0.95322251218E+01  0.83900534330E+00 -0.10519064626E+01  0.96267207920E+01  0.51100000000E-03 0.  1.
        -12    1    3    3    0    0  0.58398303491E+01 -0.41695035593E+01  0.12124792205E+02  0.14088966054E+02  0.00000000000E+00 0.  1.
</event>
<event>
 7    1  0.6953847E-012  0.5930198E+02  0.7816164E-02  0.1266605E+00
        -11   -1    0    0    0    0  0.00000000000E+00  0.00000000000E+00  0.45593999997E+02  0.45594000000E+02  0.51100000000E-03 0.  1.
         11   -1    0    0    0    0 -0.00000000000E+00 -0.00000000000E+00 -0.45593999997E+02  0.45594000000E+02  0.51100000000E-03 0. -1.
    9900012    2    1    2    0    0  0.18433418457E+02  0.57557372851E+01 -0.25373195757E+02  0.59301976562E+02  0.50000059336E+02 0.  0.
        -12    1    1    2    0    0 -0.18433418457E+02 -0.57557372851E+01  0.25373195757E+02  0.31886023438E+02  0.00000000000E+00 0.  1.
         11    1    3    3    0    0  0.14492258880E+01 -0.75875946163E+01 -0.28838335642E+02  0.29855007128E+02  0.51100000000E-03 0. -1.
        -11    1    3    3    0    0  0.24957040831E+01  0.88939732668E+01 -0.65115083311E+01  0.11301815799E+02  0.51100000000E-03 0.  1.
         12    1    3    3    0    0  0.14488488486E+02  0.44493586346E+01  0.99766482154E+01  0.18145153636E+02  0.00000000000E+00 0. -1.
</event>
<event>
 7    1  0.6953847E-012  0.5930194E+02  0.7816164E-02  0.1266605E+00
        -11   -1    0    0    0    0  0.00000000000E+00  0.00000000000E+00  0.45593999997E+02  0.45594000000E+02  0.51100000000E-03 0.  1.
         11   -1    0    0    0    0 -0.00000000000E+00 -0.00000000000E+00 -0.45593999997E+02  0.45594000000E+02  0.51100000000E-03 0. -1.
    9900012    2    1    2    0    0 -0.67768166216E+01 -0.29647647059E+02  0.95818760437E+01  0.59301943985E+02  0.49999999922E+02 0.  0.
        -12    1    1    2    0    0  0.67768166216E+01  0.29647647059E+02 -0.95818760437E+01  0.31886056015E+02  0.00000000000E+00 0.  1.
         11    1    3    3    0    0 -0.26124459211E+01 -0.22767765194E+00  0.11008623118E+02  0.11316646765E+02  0.51100000000E-03 0. -1.
        -11    1    3    3    0    0 -0.81304468197E+01  0.24750643220E+01 -0.11503083327E+02  0.14302133938E+02  0.51100000000E-03 0.  1.
         12    1    3    3    0    0  0.39660761192E+01 -0.31895033729E+02  0.10076336254E+02  0.33683163282E+02  0.00000000000E+00 0. -1.
</event>
<event>
 7    1  0.6953847E-012  0.5930196E+02  0.7816164E-02  0.1266605E+00
        -11   -1    0    0    0    0  0.00000000000E+00  0.00000000000E+00  0.45593999997E+02  0.45594000000E+02  0.51100000000E-03 0.  1.
         11   -1    0    0    0    0 -0.00000000000E+00 -0.00000000000E+00 -0.45593999997E+02  0.45594000000E+02  0.51100000000E-03 0. -1.
    9900012    2    1    2    0    0 -0.61065689038E+01 -0.41048013728E+01 -0.31025471061E+02  0.59301961791E+02  0.50000032396E+02 0.  0.
        -12    1    1    2    0    0  0.61065689038E+01  0.41048013728E+01  0.31025471061E+02  0.31886038209E+02  0.00000000000E+00 0.  1.
         11    1    3    3    0    0 -0.11439458795E+02  0.19144211880E+01 -0.94332938302E+01  0.14950359820E+02  0.51100000000E-03 0.  1.
        -11    1    3    3    0    0  0.14660337733E+02 -0.18210588778E+02 -0.12492490358E+02  0.26506854994E+02  0.51100000000E-03 0. -1.
         12    1    3    3    0    0 -0.93274478415E+01  0.12191366217E+02 -0.90996868728E+01  0.17844746976E+02  0.00000000000E+00 0. -1.
</event>
<event>
 7    1  0.6953847E-012  0.5930193E+02  0.7816164E-02  0.1266605E+00
        -11   -1    0    0    0    0  0.00000000000E+00  0.00000000000E+00  0.45593999997E+02  0.45594000000E+02  0.51100000000E-03 0. -1.
         11   -1    0    0    0    0 -0.00000000000E+00 -0.00000000000E+00 -0.45593999997E+02  0.45594000000E+02  0.51100000000E-03 0.  1.
    9900012    2    1    2    0    0 -0.24350977798E+02 -0.18143424892E+02 -0.97245729108E+01  0.59301932433E+02  0.49999978855E+02 0.  0.
        -12    1    1    2    0    0  0.24350977798E+02  0.18143424892E+02  0.97245729108E+01  0.31886067567E+02  0.00000000000E+00 0.  1.
         11    1    3    3    0    0 -0.12659632783E+02  0.68377407407E+00 -0.63588682249E+01  0.14183407720E+02  0.51100000000E-03 0. -1.
        -11    1    3    3    0    0  0.23361135649E+00  0.23181873161E+01  0.14683882889E+02  0.14867581635E+02  0.51100000000E-03 0.  1.
         12    1    3    3    0    0 -0.11924956372E+02 -0.21145386283E+02 -0.18049587575E+02  0.30250943079E+02  0.00000000000E+00 0. -1.
</event>
<event>
 7    1  0.6953847E-012  0.5930195E+02  0.7816164E-02  0.1266605E+00
        -11   -1    0    0    0    0  0.00000000000E+00  0.00000000000E+00  0.45593999997E+02  0.45594000000E+02  0.51100000000E-03 0. -1.
         11   -1    0    0    0    0 -0.00000000000E+00 -0.00000000000E+00 -0.45593999997E+02  0.45594000000E+02  0.51100000000E-03 0.  1.
    9900012    2    1    2    0    0  0.17326643584E+01 -0.28680420613E+02  0.13825758231E+02  0.59301949085E+02  0.50000009223E+02 0.  0.
        -12    1    1    2    0    0 -0.17326643584E+01  0.28680420613E+02 -0.13825758231E+02  0.31886050915E+02  0.00000000000E+00 0.  1.
         11    1    3    3    0    0 -0.57948492950E+01  0.46767659284E+01 -0.27408407118E+01  0.79350252658E+01  0.51100000000E-03 0. -1.
        -11    1    3    3    0    0 -0.35836896236E+01  0.57924360393E+01 -0.12786923618E+01  0.69303824573E+01  0.51100000000E-03 0.  1.
         12    1    3    3    0    0  0.11111203277E+02 -0.39149622580E+02  0.17845291305E+02  0.44436541362E+02  0.00000000000E+00 0. -1.
</event>
<event>
 7    1  0.6953847E-012  0.5930196E+02  0.7816164E-02  0.1266605E+00
        -11   -1    0    0    0    0  0.00000000000E+00  0.00000000000E+00  0.45593999997E+02  0.45594000000E+02  0.51100000000E-03 0. -1.
         11   -1    0    0    0    0 -0.00000000000E+00 -0.00000000000E+00 -0.45593999997E+02  0.45594000000E+02  0.51100000000E-03 0.  1.
    9900012    2    1    2    0    0  0.14011132347E+01  0.91841673608E+01  0.30502579173E+02  0.59301962544E+02  0.50000033770E+02 0.  0.
        -12    1    1    2    0    0 -0.14011132347E+01 -0.91841673608E+01 -0.30502579173E+02  0.31886037456E+02  0.00000000000E+00 0.  1.
         11    1    3    3    0    0 -0.11654147929E+02  0.19282430520E+01  0.82445975600E+01  0.14405230800E+02  0.51100000000E-03 0. -1.
        -11    1    3    3    0    0  0.11149310398E+02 -0.12253982780E+02  0.19670520061E+01  0.16683420218E+02  0.51100000000E-03 0.  1.
        -12    1    3    3    0    0  0.19059507659E+01  0.19509907089E+02  0.20290929607E+02  0.28213311526E+02  0.00000000000E+00 0.  1.
</event>
<event>
 7    1  0.6953847E-012  0.5930195E+02  0.7816164E-02  0.1266605E+00
        -11   -1    0    0    0    0  0.00000000000E+00  0.00000000000E+00  0.45593999997E+02  0.45594000000E+02  0.51100000000E-03 0. -1.
         11   -1    0    0    0    0 -0.00000000000E+00 -0.00000000000E+00 -0.45593999997E+02  0.45594000000E+02  0.51100000000E-03 0.  1.
    9900012    2    1    2    0    0 -0.38044938941E+01  0.28975193520E+02  0.12754764755E+02  0.59301952310E+02  0.50000015105E+02 0.  0.
        -12    1    1    2    0    0  0.38044938941E+01 -0.28975193520E+02 -0.12754764755E+02  0.31886047690E+02  0.00000000000E+00 0.  1.
         11    1    3    3    0    0 -0.24368178316E+01 -0.43443371727E+01 -0.19868287075E+01  0.53627264697E+01  0.51100000000E-03 0. -1.
        -11    1    3    3    0    0 -0.85385593692E+01 -0.25460014518E+01 -0.70520894758E+01  0.11363145943E+02  0.51100000000E-03 0.  1.
        -12    1    3    3    0    0  0.71708833067E+01  0.35865532145E+02  0.21793682938E+02  0.42576079897E+02  0.00000000000E+00 0.  1.
</event>
<event>
 7    1  0.6953847E-012  0.5930196E+02  0.7816164E-02  0.1266605E+00
        -11   -1    0    0    0    0  0.00000000000E+00  0.00000000000E+00  0.45593999997E+02  0.45594000000E+02  0.51100000000E-03 0.  1.
         11   -1    0    0    0    0 -0.00000000000E+00 -0.00000000000E+00 -0.45593999997E+02  0.45594000000E+02  0.51100000000E-03 0. -1.
    9900012    2    1    2    0    0 -0.29405856347E+02 -0.10051500766E+02 -0.71402076068E+01  0.59301958856E+02  0.50000027044E+02 0.  0.
        -12    1    1    2    0    0  0.29405856347E+02  0.10051500766E+02  0.71402076068E+01  0.31886041144E+02  0.00000000000E+00 0.  1.
         11    1    3    3    0    0 -0.14185501097E+02 -0.60202261003E+00  0.61891704279E+01  0.15488599144E+02  0.51100000000E-03 0. -1.
        -11    1    3    3    0    0 -0.24234957318E+02 -0.16664612902E+02 -0.56582992510E+01  0.29950940387E+02  0.51100000000E-03 0.  1.
         12    1    3    3    0    0  0.90146020680E+01  0.72151347465E+01 -0.76710787837E+01  0.13862419326E+02  0.00000000000E+00 0. -1.
</event>
<event>
 7    1  0.6953847E-012  0.5930196E+02  0.7816164E-02  0.1266605E+00
        -11   -1    0    0    0    0  0.00000000000E+00  0.00000000000E+00  0.45593999997E+02  0.45594000000E+02  0.51100000000E-03 0.  1.
         11   -1    0    0    0    0 -0.00000000000E+00 -0.00000000000E+00 -0.45593999997E+02  0.45594000000E+02  0.51100000000E-03 0. -1.
    9900012    2    1    2    0    0 -0.14897676397E+02 -0.13022163852E+02  0.25004044062E+02  0.59301957084E+02  0.50000023811E+02 0.  0.
        -12    1    1    2    0    0  0.14897676397E+02  0.13022163852E+02 -0.25004044062E+02  0.31886042916E+02  0.00000000000E+00 0.  1.
         11    1    3    3    0    0 -0.38800196180E+01  0.84376941812E+01  0.11609049885E+02  0.14866717016E+02  0.51100000000E-03 0. -1.
        -11    1    3    3    0    0 -0.48373499102E+01  0.94354126296E+01  0.12849736457E+01  0.10680736078E+02  0.51100000000E-03 0.  1.
         12    1    3    3    0    0 -0.61803068687E+01 -0.30895270663E+02  0.12110020531E+02  0.33754503989E+02  0.00000000000E+00 0. -1.
</event>
<event>
 7    1  0.6953847E-012  0.5930187E+02  0.7816164E-02  0.1266605E+00
        -11   -1    0    0    0    0  0.00000000000E+00  0.00000000000E+00  0.45593999997E+02  0.45594000000E+02  0.51100000000E-03 0.  1.
         11   -1    0    0    0    0 -0.00000000000E+00 -0.00000000000E+00 -0.45593999997E+02  0.45594000000E+02  0.51100000000E-03 0. -1.
    9900012    2    1    2    0    0 -0.21998927242E+01  0.60250587311E+01 -0.31234342792E+02  0.59301874014E+02  0.49999872312E+02 0.  0.
        -12    1    1    2    0    0  0.21998927242E+01 -0.60250587311E+01  0.31234342792E+02  0.31886125986E+02  0.00000000000E+00 0.  1.
         11    1    3    3    0    0 -0.21728705702E+01 -0.25244854370E+01  0.32246191667E+01  0.46360071471E+01  0.51100000000E-03 0.  1.
        -11    1    3    3    0    0  0.13279954398E+02  0.26528292177E+01  0.35209207013E+01  0.13992554253E+02  0.51100000000E-03 0. -1.
         12    1    3    3    0    0 -0.13306976552E+02  0.58967149504E+01 -0.37979882660E+02  0.40673312615E+02  0.00000000000E+00 0. -1.
</event>
<event>
 7    1  0.6953847E-012  0.5930195E+02  0.7816164E-02  0.1266605E+00
        -11   -1    0    0    0    0  0.00000000000E+00  0.00000000000E+00  0.45593999997E+02  0.45594000000E+02  0.51100000000E-03 0. -1.
         11   -1    0    0    0    0 -0.00000000000E+00 -0.00000000000E+00 -0.45593999997E+02  0.45594000000E+02  0.51100000000E-03 0.  1.
    9900012    2    1    2    0    0 -0.12746131074E+02 -0.47663213314E+01  0.28836404757E+02  0.59301954217E+02  0.50000018582E+02 0.  0.
        -12    1    1    2    0    0  0.12746131074E+02  0.47663213314E+01 -0.28836404757E+02  0.31886045783E+02  0.00000000000E+00 0.  1.
         11    1    3    3    0    0  0.60206774861E+01 -0.80523306967E+01  0.10620045065E+02  0.14624429715E+02  0.51100000000E-03 0. -1.
        -11    1    3    3    0    0  0.21327465197E+01 -0.11527513636E+02 -0.21902699253E+01  0.11925999369E+02  0.51100000000E-03 0.  1.
         12    1    3    3    0    0 -0.20899555079E+02  0.14813523001E+02  0.20406629617E+02  0.32751525133E+02  0.00000000000E+00 0. -1.
</event>
<event>
 7    1  0.6953847E-012  0.5930189E+02  0.7816164E-02  0.1266605E+00
        -11   -1    0    0    0    0  0.00000000000E+00  0.00000000000E+00  0.45593999997E+02  0.45594000000E+02  0.51100000000E-03 0.  1.
         11   -1    0    0    0    0 -0.00000000000E+00 -0.00000000000E+00 -0.45593999997E+02  0.45594000000E+02  0.51100000000E-03 0. -1.
    9900012    2    1    2    0    0 -0.10169203283E+02 -0.24127978829E+02  0.18197580632E+02  0.59301890193E+02  0.49999901819E+02 0.  0.
        -12    1    1    2    0    0  0.10169203283E+02  0.24127978829E+02 -0.18197580632E+02  0.31886109807E+02  0.00000000000E+00 0.  1.
         11    1    3    3    0    0 -0.74271045619E+01 -0.23820143860E+02  0.16336452924E+02  0.29823494599E+02  0.51100000000E-03 0. -1.
        -11    1    3    3    0    0 -0.13679273317E+00  0.48335107679E+01  0.14662527111E+02  0.15439275894E+02  0.51100000000E-03 0.  1.
         12    1    3    3    0    0 -0.26053059880E+01 -0.51413457369E+01 -0.12801399403E+02  0.14039119700E+02  0.00000000000E+00 0. -1.
</event>
<event>
 7    1  0.6953847E-012  0.5930195E+02  0.7816164E-02  0.1266605E+00
        -11   -1    0    0    0    0  0.00000000000E+00  0.00000000000E+00  0.45593999997E+02  0.45594000000E+02  0.51100000000E-03 0.  1.
         11   -1    0    0    0    0 -0.00000000000E+00 -0.00000000000E+00 -0.45593999997E+02  0.45594000000E+02  0.51100000000E-03 0. -1.
    9900012    2    1    2    0    0  0.31111985605E+02  0.30173172593E+01 -0.62976550358E+01  0.59301948023E+02  0.50000007287E+02 0.  0.
        -12    1    1    2    0    0 -0.31111985605E+02 -0.30173172593E+01  0.62976550358E+01  0.31886051977E+02  0.00000000000E+00 0.  1.
         11    1    3    3    0    0  0.22671847842E+02  0.31306274282E+00 -0.20635070677E+02  0.30658063131E+02  0.51100000000E-03 0. -1.
        -11    1    3    3    0    0  0.12811090734E+02  0.56169203528E+01  0.67278010897E+00  0.14004516178E+02  0.51100000000E-03 0.  1.
         12    1    3    3    0    0 -0.43709529704E+01 -0.29126658363E+01  0.13664635532E+02  0.14639368715E+02  0.00000000000E+00 0. -1.
</event>
<event>
 7    1  0.6953847E-012  0.5930197E+02  0.7816164E-02  0.1266605E+00
        -11   -1    0    0    0    0  0.00000000000E+00  0.00000000000E+00  0.45593999997E+02  0.45594000000E+02  0.51100000000E-03 0.  1.
         11   -1    0    0    0    0 -0.00000000000E+00 -0.00000000000E+00 -0.45593999997E+02  0.45594000000E+02  0.51100000000E-03 0. -1.
    9900012    2    1    2    0    0 -0.11138621689E+02  0.26487915322E+02 -0.13821742683E+02  0.59301966662E+02  0.50000041279E+02 0.  0.
        -12    1    1    2    0    0  0.11138621689E+02 -0.26487915322E+02  0.13821742683E+02  0.31886033338E+02  0.00000000000E+00 0.  1.
         11    1    3    3    0    0 -0.16704317696E+02  0.10226571020E+02 -0.20797770668E+01  0.19696254909E+02  0.51100000000E-03 0. -1.
        -11    1    3    3    0    0 -0.65649567483E+01  0.18644668130E+02  0.34011095554E+01  0.20057164636E+02  0.51100000000E-03 0.  1.
         12    1    3    3    0    0  0.12130652755E+02 -0.23833238275E+01 -0.15143075171E+02  0.19548547117E+02  0.00000000000E+00 0. -1.
</event>
<event>
 7    1  0.6953847E-012  0.5930194E+02  0.7816164E-02  0.1266605E+00
        -11   -1    0    0    0    0  0.00000000000E+00  0.00000000000E+00  0.45593999997E+02  0.45594000000E+02  0.51100000000E-03 0.  1.
         11   -1    0    0    0    0 -0.00000000000E+00 -0.00000000000E+00 -0.45593999997E+02  0.45594000000E+02  0.51100000000E-03 0. -1.
    9900012    2    1    2    0    0 -0.77430050117E+00 -0.23050668557E+01 -0.31793202330E+02  0.59301943661E+02  0.49999999331E+02 0.  0.
        -12    1    1    2    0    0  0.77430050117E+00  0.23050668557E+01  0.31793202330E+02  0.31886056339E+02  0.00000000000E+00 0.  1.
         11    1    3    3    0    0  0.22746878120E+01  0.84474569796E+01  0.34836774994E+01  0.94164612910E+01  0.51100000000E-03 0. -1.
        -11    1    3    3    0    0 -0.81909538520E+01 -0.17443091193E+02 -0.72060200677E+01  0.20573766812E+02  0.51100000000E-03 0.  1.
         12    1    3    3    0    0  0.51419655389E+01  0.66905673575E+01 -0.28070859762E+02  0.29311715557E+02  0.00000000000E+00 0. -1.
</event>
<event>
 7    1  0.6953847E-012  0.5930216E+02  0.7816164E-02  0.1266604E+00
        -11   -1    0    0    0    0  0.00000000000E+00  0.00000000000E+00  0.45593999997E+02  0.45594000000E+02  0.51100000000E-03 0.  1.
         11   -1    0    0    0    0 -0.00000000000E+00 -0.00000000000E+00 -0.45593999997E+02  0.45594000000E+02  0.51100000000E-03 0. -1.
    9900012    2    1    2    0    0  0.97369061880E+00 -0.66831724207E+01 -0.31162376892E+02  0.59302163009E+02  0.50000399368E+02 0.  0.
        -12    1    1    2    0    0 -0.97369061880E+00  0.66831724207E+01  0.31162376892E+02  0.31885836991E+02  0.00000000000E+00 0.  1.
         11    1    3    3    0    0  0.28012408527E+01  0.14479452701E+00 -0.98393564021E+01  0.10231366010E+02  0.51100000000E-03 0. -1.
        -11    1    3    3    0    0  0.10532834953E+02 -0.15833670713E+02 -0.26769458752E+02  0.32836712115E+02  0.51100000000E-03 0.  1.
        -12    1    3    3    0    0 -0.12360385187E+02  0.90057037658E+01  0.54464382617E+01  0.16234084884E+02  0.00000000000E+00 0.  1.
</event>
<event>
 7    1  0.6953847E-012  0.5930208E+02  0.7816164E-02  0.1266604E+00
        -11   -1    0    0    0    0  0.00000000000E+00  0.00000000000E+00  0.45593999997E+02  0.45594000000E+02  0.51100000000E-03 0. -1.
         11   -1    0    0    0    0 -0.00000000000E+00 -0.00000000000E+00 -0.45593999997E+02  0.45594000000E+02  0.51100000000E-03 0.  1.
    9900012    2    1    2    0    0  0.13062326997E+02  0.60832428673E+01  0.28444356693E+02  0.59302083704E+02  0.50000254735E+02 0.  0.
        -12    1    1    2    0    0 -0.13062326997E+02 -0.60832428673E+01 -0.28444356693E+02  0.31885916296E+02  0.00000000000E+00 0.  1.
         11    1    3    3    0    0 -0.35121703150E+01  0.10242331288E+02  0.47242296923E+01  0.11813510781E+02  0.51100000000E-03 0. -1.
        -11    1    3    3    0    0 -0.68722502973E+01  0.11052180430E+02  0.55234871572E+01  0.14138155008E+02  0.51100000000E-03 0.  1.
         12    1    3    3    0    0  0.23446747609E+02 -0.15211268850E+02  0.18196639844E+02  0.33350417915E+02  0.00000000000E+00 0. -1.
</event>
<event>
 7    1  0.6953847E-012  0.5930193E+02  0.7816164E-02  0.1266605E+00
        -11   -1    0    0    0    0  0.00000000000E+00  0.00000000000E+00  0.45593999997E+02  0.45594000000E+02  0.51100000000E-03 0. -1.
         11   -1    0    0    0    0 -0.00000000000E+00 -0.00000000000E+00 -0.45593999997E+02  0.45594000000E+02  0.51100000000E-03 0.  1.
    9900012    2    1    2    0    0  0.23879253548E+02 -0.59007174540E+00  0.21122368343E+02  0.59301931269E+02  0.49999976731E+02 0.  0.
        -12    1    1    2    0    0 -0.23879253548E+02  0.59007174540E+00 -0.21122368343E+02  0.31886068731E+02  0.00000000000E+00 0.  1.
         11    1    3    3    0    0  0.93514461383E+01 -0.89277436277E+01  0.24539435008E+02  0.27736943270E+02  0.51100000000E-03 0. -1.
        -11    1    3    3    0    0 -0.36599250310E+01 -0.67126088584E+01  0.37665195412E+00  0.76548047574E+01  0.51100000000E-03 0.  1.
        -12    1    3    3    0    0  0.18187732441E+02  0.15050280741E+02 -0.37937186189E+01  0.23910183242E+02  0.00000000000E+00 0.  1.
</event>
<event>
 7    1  0.6953847E-012  0.5930194E+02  0.7816164E-02  0.1266605E+00
        -11   -1    0    0    0    0  0.00000000000E+00  0.00000000000E+00  0.45593999997E+02  0.45594000000E+02  0.51100000000E-03 0. -1.
         11   -1    0    0    0    0 -0.00000000000E+00 -0.00000000000E+00 -0.45593999997E+02  0.45594000000E+02  0.51100000000E-03 0.  1.
    9900012    2    1    2    0    0 -0.11651526626E+02  0.20597263125E+02  0.21370903508E+02  0.59301939758E+02  0.49999992214E+02 0.  0.
        -12    1    1    2    0    0  0.11651526626E+02 -0.20597263125E+02 -0.21370903508E+02  0.31886060242E+02  0.00000000000E+00 0.  1.
         11    1    3    3    0    0  0.14210723941E+02  0.65563135652E+01  0.11177208669E+02  0.19231742416E+02  0.51100000000E-03 0. -1.
        -11    1    3    3    0    0  0.35438595554E+01  0.30959546830E+01 -0.34704983605E+01  0.58470706408E+01  0.51100000000E-03 0.  1.
        -12    1    3    3    0    0 -0.29406110122E+02  0.10944994877E+02  0.13664193200E+02  0.34223126701E+02  0.00000000000E+00 0.  1.
</event>
<event>
 7    1  0.6953847E-012  0.5930191E+02  0.7816164E-02  0.1266605E+00
        -11   -1    0    0    0    0  0.00000000000E+00  0.00000000000E+00  0.45593999997E+02  0.45594000000E+02  0.51100000000E-03 0.  1.
         11   -1    0    0    0    0 -0.00000000000E+00 -0.00000000000E+00 -0.45593999997E+02  0.45594000000E+02  0.51100000000E-03 0. -1.
    9900012    2    1    2    0    0  0.49307269262E+01 -0.11749477155E+02 -0.29229448233E+02  0.59301907021E+02  0.49999932509E+02 0.  0.
        -12    1    1    2    0    0 -0.49307269262E+01  0.11749477155E+02  0.29229448233E+02  0.31886092979E+02  0.00000000000E+00 0.  1.
         11    1    3    3    0    0  0.48832029682E+01 -0.15619371446E+02 -0.20844699596E+01  0.16497134627E+02  0.51100000000E-03 0. -1.
        -11    1    3    3    0    0 -0.97182896883E+01 -0.11333836460E+02 -0.10658978982E+02  0.18344340723E+02  0.51100000000E-03 0.  1.
         12    1    3    3    0    0  0.97658136463E+01  0.15203730751E+02 -0.16485999291E+02  0.24460431671E+02  0.00000000000E+00 0. -1.
</event>
<event>
 7    1  0.6953847E-012  0.5930192E+02  0.7816164E-02  0.1266605E+00
        -11   -1    0    0    0    0  0.00000000000E+00  0.00000000000E+00  0.45593999997E+02  0.45594000000E+02  0.51100000000E-03 0.  1.
         11   -1    0    0    0    0 -0.00000000000E+00 -0.00000000000E+00 -0.45593999997E+02  0.45594000000E+02  0.51100000000E-03 0. -1.
    9900012    2    1    2    0    0 -0.77947329322E+01  0.76531613326E+01 -0.29956519708E+02  0.59301924468E+02  0.49999964327E+02 0.  0.
        -12    1    1    2    0    0  0.77947329322E+01 -0.76531613326E+01  0.29956519708E+02  0.31886075532E+02  0.00000000000E+00 0.  1.
         11    1    3    3    0    0  0.12549336837E+01  0.23134233898E+02 -0.22221725868E+02  0.32102534751E+02  0.51100000000E-03 0. -1.
        -11    1    3    3    0    0 -0.30643900938E+01  0.43727126822E+01 -0.16512293495E+01  0.55890662435E+01  0.51100000000E-03 0.  1.
        -12    1    3    3    0    0 -0.59852765221E+01 -0.19853785248E+02 -0.60835644897E+01  0.21610323473E+02  0.00000000000E+00 0.  1.
</event>
<event>
 7    1  0.6953847E-012  0.5930196E+02  0.7816164E-02  0.1266605E+00
        -11   -1    0    0    0    0  0.00000000000E+00  0.00000000000E+00  0.45593999997E+02  0.45594000000E+02  0.51100000000E-03 0. -1.
         11   -1    0    0    0    0 -0.00000000000E+00 -0.00000000000E+00 -0.45593999997E+02  0.45594000000E+02  0.51100000000E-03 0.  1.
    9900012    2    1    2    0    0 -0.48311138064E+01 -0.26757925297E+02  0.16655126823E+02  0.59301961107E+02  0.50000031148E+02 0.  0.
        -12    1    1    2    0    0  0.48311138064E+01  0.26757925297E+02 -0.16655126823E+02  0.31886038893E+02  0.00000000000E+00 0.  1.
         11    1    3    3    0    0  0.12060310744E+01 -0.35618677298E+01 -0.52246641624E+01  0.64372764852E+01  0.51100000000E-03 0. -1.
        -11    1    3    3    0    0 -0.11547039987E+02 -0.11414844435E+02 -0.95591464030E+01  0.18841711338E+02  0.51100000000E-03 0.  1.
         12    1    3    3    0    0  0.55098951063E+01 -0.11781213133E+02  0.31438937388E+02  0.34022973284E+02  0.00000000000E+00 0. -1.
</event>
<event>
 7    1  0.6953847E-012  0.5930192E+02  0.7816164E-02  0.1266605E+00
        -11   -1    0    0    0    0  0.00000000000E+00  0.00000000000E+00  0.45593999997E+02  0.45594000000E+02  0.51100000000E-03 0.  1.
         11   -1    0    0    0    0 -0.00000000000E+00 -0.00000000000E+00 -0.45593999997E+02  0.45594000000E+02  0.51100000000E-03 0. -1.
    9900012    2    1    2    0    0  0.85540320566E+01  0.17642185399E+02 -0.25145649034E+02  0.59301924114E+02  0.49999963682E+02 0.  0.
        -12    1    1    2    0    0 -0.85540320566E+01 -0.17642185399E+02  0.25145649034E+02  0.31886075886E+02  0.00000000000E+00 0.  1.
         11    1    3    3    0    0 -0.13314053166E+02  0.17544393213E+02 -0.15354999276E+02  0.26848570688E+02  0.51100000000E-03 0. -1.
        -11    1    3    3    0    0  0.20812478988E+02  0.49955572506E+01 -0.14276758308E+02  0.25728208292E+02  0.51100000000E-03 0.  1.
        -12    1    3    3    0    0  0.10556062346E+01 -0.48977650643E+01  0.44861085507E+01  0.67251451342E+01  0.00000000000E+00 0.  1.
</event>
<event>
 7    1  0.6953847E-012  0.5930201E+02  0.7816164E-02  0.1266605E+00
        -11   -1    0    0    0    0  0.00000000000E+00  0.00000000000E+00  0.45593999997E+02  0.45594000000E+02  0.51100000000E-03 0.  1.
         11   -1    0    0    0    0 -0.00000000000E+00 -0.00000000000E+00 -0.45593999997E+02  0.45594000000E+02  0.51100000000E-03 0. -1.
    9900012    2    1    2    0    0 -0.18025489487E+02 -0.62206008681E+01 -0.25555862744E+02  0.59302011432E+02  0.50000122928E+02 0.  0.
        -12    1    1    2    0    0  0.18025489487E+02  0.62206008681E+01  0.25555862744E+02  0.31885988568E+02  0.00000000000E+00 0.  1.
         11    1    3    3    0    0 -0.28934952305E+01 -0.38899600110E+00 -0.24994354990E+01  0.38432812299E+01  0.51100000000E-03 0. -1.
        -11    1    3    3    0    0 -0.15005564109E+02  0.17815349730E+02 -0.21600130334E+02  0.31766637703E+02  0.51100000000E-03 0.  1.
        -12    1    3    3    0    0 -0.12643014741E+00 -0.23646954597E+02 -0.14562969110E+01  0.23692092499E+02  0.00000000000E+00 0.  1.
</event>
<event>
 7    1  0.6953847E-012  0.5930195E+02  0.7816164E-02  0.1266605E+00
        -11   -1    0    0    0    0  0.00000000000E+00  0.00000000000E+00  0.45593999997E+02  0.45594000000E+02  0.51100000000E-03 0.  1.
         11   -1    0    0    0    0 -0.00000000000E+00 -0.00000000000E+00 -0.45593999997E+02  0.45594000000E+02  0.51100000000E-03 0. -1.
    9900012    2    1    2    0    0  0.17060727646E+02 -0.47502809482E+01 -0.26515775357E+02  0.59301953840E+02  0.50000017896E+02 0.  0.
        -12    1    1    2    0    0 -0.17060727646E+02  0.47502809482E+01  0.26515775357E+02  0.31886046160E+02  0.00000000000E+00 0.  1.
         11    1    3    3    0    0  0.12944247807E+02 -0.64672919656E+01 -0.23574793322E+02  0.27661350240E+02  0.51100000000E-03 0. -1.
        -11    1    3    3    0    0  0.13337403756E+02 -0.43636033347E+01 -0.11113317617E+02  0.17900648081E+02  0.51100000000E-03 0.  1.
        -12    1    3    3    0    0 -0.92209239174E+01  0.60806143521E+01  0.81723355818E+01  0.13739955518E+02  0.00000000000E+00 0.  1.
</event>
<event>
 7    1  0.6953847E-012  0.5930184E+02  0.7816164E-02  0.1266605E+00
        -11   -1    0    0    0    0  0.00000000000E+00  0.00000000000E+00  0.45593999997E+02  0.45594000000E+02  0.51100000000E-03 0. -1.
         11   -1    0    0    0    0 -0.00000000000E+00 -0.00000000000E+00 -0.45593999997E+02  0.45594000000E+02  0.51100000000E-03 0.  1.
    9900012    2    1    2    0    0  0.24324620310E+00  0.26566041505E+02  0.17632742665E+02  0.59301837738E+02  0.49999806152E+02 0.  0.
        -12    1    1    2    0    0 -0.24324620310E+00 -0.26566041505E+02 -0.17632742665E+02  0.31886162262E+02  0.00000000000E+00 0.  1.
         11    1    3    3    0    0 -0.13965397283E+02  0.31583827541E+02 -0.11268500289E+01  0.34551993787E+02  0.51100000000E-03 0.  1.
        -11    1    3    3    0    0  0.16209756851E+01  0.68876671587E+00  0.47691472754E+01  0.50839677178E+01  0.51100000000E-03 0. -1.
        -12    1    3    3    0    0  0.12587667801E+02 -0.57065527526E+01  0.13990445418E+02  0.19665876233E+02  0.00000000000E+00 0.  1.
</event>
<event>
 7    1  0.6953847E-012  0.5930195E+02  0.7816164E-02  0.1266605E+00
        -11   -1    0    0    0    0  0.00000000000E+00  0.00000000000E+00  0.45593999997E+02  0.45594000000E+02  0.51100000000E-03 0. -1.
         11   -1    0    0    0    0 -0.00000000000E+00 -0.00000000000E+00 -0.45593999997E+02  0.45594000000E+02  0.51100000000E-03 0.  1.
    9900012    2    1    2    0    0 -0.31310589354E+02  0.90669898885E+00 -0.59619507930E+01  0.59301953428E+02  0.50000017144E+02 0.  0.
        -12    1    1    2    0    0  0.31310589354E+02 -0.90669898885E+00  0.59619507930E+01  0.31886046572E+02  0.00000000000E+00 0.  1.
         11    1    3    3    0    0 -0.44269024644E+01 -0.56974006711E+01 -0.25583690445E+01  0.76552656561E+01  0.51100000000E-03 0. -1.
        -11    1    3    3    0    0 -0.48615682055E+01 -0.84581463839E+01 -0.18555652470E+02  0.20963952979E+02  0.51100000000E-03 0.  1.
         12    1    3    3    0    0 -0.22022118684E+02  0.15062246044E+02  0.15152070722E+02  0.30682734793E+02  0.00000000000E+00 0. -1.
</event>
<event>
 7    1  0.6953847E-012  0.5930190E+02  0.7816164E-02  0.1266605E+00
        -11   -1    0    0    0    0  0.00000000000E+00  0.00000000000E+00  0.45593999997E+02  0.45594000000E+02  0.51100000000E-03 0.  1.
         11   -1    0    0    0    0 -0.00000000000E+00 -0.00000000000E+00 -0.45593999997E+02  0.45594000000E+02  0.51100000000E-03 0. -1.
    9900012    2    1    2    0    0  0.24156864329E+02 -0.16899102306E+02  0.12148639329E+02  0.59301902865E+02  0.49999924930E+02 0.  0.
        -12    1    1    2    0    0 -0.24156864329E+02  0.16899102306E+02 -0.12148639329E+02  0.31886097135E+02  0.00000000000E+00 0.  1.
         11    1    3    3    0    0  0.66732550042E+01  0.18980023696E+01 -0.41272467247E+01  0.80727263755E+01  0.51100000000E-03 0. -1.
        -11    1    3    3    0    0 -0.12059958370E+02  0.21994110740E+01  0.53325656314E+01  0.13368480147E+02  0.51100000000E-03 0.  1.
        -12    1    3    3    0    0  0.29543567695E+02 -0.20996515749E+02  0.10943320422E+02  0.37860696343E+02  0.00000000000E+00 0.  1.
</event>
<event>
 7    1  0.6953847E-012  0.5930194E+02  0.7816164E-02  0.1266605E+00
        -11   -1    0    0    0    0  0.00000000000E+00  0.00000000000E+00  0.45593999997E+02  0.45594000000E+02  0.51100000000E-03 0.  1.
         11   -1    0    0    0    0 -0.00000000000E+00 -0.00000000000E+00 -0.45593999997E+02  0.45594000000E+02  0.51100000000E-03 0. -1.
    9900012    2    1    2    0    0  0.10817734636E+02  0.96067798092E+01 -0.28414916444E+02  0.59301935999E+02  0.49999985358E+02 0.  0.
        -12    1    1    2    0    0 -0.10817734636E+02 -0.96067798092E+01  0.28414916444E+02  0.31886064001E+02  0.00000000000E+00 0.  1.
         11    1    3    3    0    0  0.10182631864E+02  0.16527925138E+02 -0.21767092251E+02  0.29166155152E+02  0.51100000000E-03 0. -1.
        -11    1    3    3    0    0  0.10858083447E+02  0.63740738268E+01 -0.35417953489E+01  0.13079415424E+02  0.51100000000E-03 0.  1.
        -12    1    3    3    0    0 -0.10222980674E+02 -0.13295219155E+02 -0.31060288432E+01  0.17056365423E+02  0.00000000000E+00 0.  1.
</event>
<event>
 7    1  0.6953847E-012  0.5930195E+02  0.7816164E-02  0.1266605E+00
        -11   -1    0    0    0    0  0.00000000000E+00  0.00000000000E+00  0.45593999997E+02  0.45594000000E+02  0.51100000000E-03 0.  1.
         11   -1    0    0    0    0 -0.00000000000E+00 -0.00000000000E+00 -0.45593999997E+02  0.45594000000E+02  0.51100000000E-03 0. -1.
    9900012    2    1    2    0    0  0.30702008553E+02 -0.50832779490E+01  0.69474419692E+01  0.59301952991E+02  0.50000016348E+02 0.  0.
        -12    1    1    2    0    0 -0.30702008553E+02  0.50832779490E+01 -0.69474419692E+01  0.31886047009E+02  0.00000000000E+00 0.  1.
         11    1    3    3    0    0  0.11213945897E+02  0.10491028827E+02  0.28110083508E+01  0.15611407260E+02  0.51100000000E-03 0.  1.
        -11    1    3    3    0    0  0.26463126965E+02 -0.24912697159E+01  0.90385944735E+01  0.28074894548E+02  0.51100000000E-03 0. -1.
         12    1    3    3    0    0 -0.69750643092E+01 -0.13083037060E+02 -0.49021608551E+01  0.15615651183E+02  0.00000000000E+00 0. -1.
</event>
<event>
 7    1  0.6953847E-012  0.5930196E+02  0.7816164E-02  0.1266605E+00
        -11   -1    0    0    0    0  0.00000000000E+00  0.00000000000E+00  0.45593999997E+02  0.45594000000E+02  0.51100000000E-03 0. -1.
         11   -1    0    0    0    0 -0.00000000000E+00 -0.00000000000E+00 -0.45593999997E+02  0.45594000000E+02  0.51100000000E-03 0.  1.
    9900012    2    1    2    0    0  0.86959821672E+01  0.30223171565E+02  0.52592172427E+01  0.59301959617E+02  0.50000028432E+02 0.  0.
        -12    1    1    2    0    0 -0.86959821672E+01 -0.30223171565E+02 -0.52592172427E+01  0.31886040383E+02  0.00000000000E+00 0.  1.
         11    1    3    3    0    0  0.17854226687E+02  0.31832120052E+02  0.34669729884E+01  0.36661658167E+02  0.51100000000E-03 0. -1.
        -11    1    3    3    0    0  0.45105819200E+00 -0.12315875766E+01 -0.84731434606E+01  0.85740551559E+01  0.51100000000E-03 0.  1.
        -12    1    3    3    0    0 -0.96093027123E+01 -0.37736091070E+00  0.10265387715E+02  0.14066246294E+02  0.00000000000E+00 0.  1.
</event>
<event>
 7    1  0.6953847E-012  0.5930193E+02  0.7816164E-02  0.1266605E+00
        -11   -1    0    0    0    0  0.00000000000E+00  0.00000000000E+00  0.45593999997E+02  0.45594000000E+02  0.51100000000E-03 0. -1.
         11   -1    0    0    0    0 -0.00000000000E+00 -0.00000000000E+00 -0.45593999997E+02  0.45594000000E+02  0.51100000000E-03 0.  1.
    9900012    2    1    2    0    0  0.74580022757E+01  0.34159334851E+01  0.30812841774E+02  0.59301927528E+02  0.49999969909E+02 0.  0.
        -12    1    1    2    0    0 -0.74580022757E+01 -0.34159334851E+01 -0.30812841774E+02  0.31886072472E+02  0.00000000000E+00 0.  1.
         11    1    3    3    0    0  0.12996806245E+02 -0.84007066543E+01  0.15638567419E+02  0.22001218967E+02  0.51100000000E-03 0. -1.
        -11    1    3    3    0    0  0.11257059031E+02 -0.30087097143E+01  0.45954303478E+01  0.12525641402E+02  0.51100000000E-03 0.  1.
         12    1    3    3    0    0 -0.16795863001E+02  0.14825349854E+02  0.10578844007E+02  0.24775067159E+02  0.00000000000E+00 0. -1.
</event>
<event>
 7    1  0.6953847E-012  0.5930195E+02  0.7816164E-02  0.1266605E+00
        -11   -1    0    0    0    0  0.00000000000E+00  0.00000000000E+00  0.45593999997E+02  0.45594000000E+02  0.51100000000E-03 0.  1.
         11   -1    0    0    0    0 -0.00000000000E+00 -0.00000000000E+00 -0.45593999997E+02  0.45594000000E+02  0.51100000000E-03 0. -1.
    9900012    2    1    2    0    0  0.29265018791E+02  0.99745859691E+01  0.77965511684E+01  0.59301954460E+02  0.50000019025E+02 0.  0.
        -12    1    1    2    0    0 -0.29265018791E+02 -0.99745859691E+01 -0.77965511684E+01  0.31886045540E+02  0.00000000000E+00 0.  1.
         11    1    3    3    0    0  0.19829626467E+02  0.10457168821E+01 -0.35202705108E+01  0.20166802283E+02  0.51100000000E-03 0. -1.
        -11    1    3    3    0    0  0.22315218376E+02  0.79559383579E+01  0.32662247215E+01  0.23915144794E+02  0.51100000000E-03 0.  1.
         12    1    3    3    0    0 -0.12879826052E+02  0.97293072902E+00  0.80505969578E+01  0.15220007382E+02  0.00000000000E+00 0. -1.
</event>
<event>
 7    1  0.6953847E-012  0.5930224E+02  0.7816164E-02  0.1266604E+00
        -11   -1    0    0    0    0  0.00000000000E+00  0.00000000000E+00  0.45593999997E+02  0.45594000000E+02  0.51100000000E-03 0.  1.
         11   -1    0    0    0    0 -0.00000000000E+00 -0.00000000000E+00 -0.45593999997E+02  0.45594000000E+02  0.51100000000E-03 0. -1.
    9900012    2    1    2    0    0  0.21694389708E+02  0.21540801448E+02  0.90580813917E+01  0.59302242830E+02  0.50000544940E+02 0.  0.
        -12    1    1    2    0    0 -0.21694389708E+02 -0.21540801448E+02 -0.90580813917E+01  0.31885757170E+02  0.00000000000E+00 0.  1.
         11    1    3    3    0    0 -0.88982080242E+01 -0.33719139131E+01 -0.31264618537E+01  0.10016120679E+02  0.51100000000E-03 0. -1.
        -11    1    3    3    0    0  0.97205530605E+00  0.55107316517E+01  0.12694611603E+02  0.13873219485E+02  0.51100000000E-03 0.  1.
         12    1    3    3    0    0  0.29620542427E+02  0.19401983709E+02 -0.51006835774E+00  0.35412902666E+02  0.00000000000E+00 0. -1.
</event>
<event>
 7    1  0.6953847E-012  0.5930192E+02  0.7816164E-02  0.1266605E+00
        -11   -1    0    0    0    0  0.00000000000E+00  0.00000000000E+00  0.45593999997E+02  0.45594000000E+02  0.51100000000E-03 0.  1.
         11   -1    0    0    0    0 -0.00000000000E+00 -0.00000000000E+00 -0.45593999997E+02  0.45594000000E+02  0.51100000000E-03 0. -1.
    9900012    2    1    2    0    0 -0.25518209737E+02  0.14669661916E+02 -0.12261500812E+02  0.59301915087E+02  0.49999947219E+02 0.  0.
        -12    1    1    2    0    0  0.25518209737E+02 -0.14669661916E+02  0.12261500812E+02  0.31886084913E+02  0.00000000000E+00 0.  1.
         11    1    3    3    0    0 -0.15953739870E+01 -0.21071160749E+01 -0.91712729802E+01  0.95444960396E+01  0.51100000000E-03 0. -1.
        -11    1    3    3    0    0 -0.11668156650E+02 -0.63199305790E+01 -0.15843513900E+02  0.20666502730E+02  0.51100000000E-03 0.  1.
        -12    1    3    3    0    0 -0.12254679100E+02  0.23096708570E+02  0.12753286068E+02  0.29090916317E+02  0.00000000000E+00 0.  1.
</event>
<event>
 7    1  0.6953847E-012  0.5930195E+02  0.7816164E-02  0.1266605E+00
        -11   -1    0    0    0    0  0.00000000000E+00  0.00000000000E+00  0.45593999997E+02  0.45594000000E+02  0.51100000000E-03 0. -1.
         11   -1    0    0    0    0 -0.00000000000E+00 -0.00000000000E+00 -0.45593999997E+02  0.45594000000E+02  0.51100000000E-03 0.  1.
    9900012    2    1    2    0    0 -0.11606825832E+02  0.29677009530E+02  0.11299304610E+01  0.59301952214E+02  0.50000014931E+02 0.  0.
        -12    1    1    2    0    0  0.11606825832E+02 -0.29677009530E+02 -0.11299304610E+01  0.31886047786E+02  0.00000000000E+00 0.  1.
         11    1    3    3    0    0 -0.47947239323E+01 -0.65098156562E-04  0.92815703152E+01  0.10446861987E+02  0.51100000000E-03 0. -1.
        -11    1    3    3    0    0 -0.14053118395E+02 -0.32768343945E+01 -0.24753981666E+01  0.14640880322E+02  0.51100000000E-03 0.  1.
         12    1    3    3    0    0  0.72410164950E+01  0.32953909023E+02 -0.56762416876E+01  0.34214209905E+02  0.00000000000E+00 0. -1.
</event>
<event>
 7    1  0.6953847E-012  0.5930193E+02  0.7816164E-02  0.1266605E+00
        -11   -1    0    0    0    0  0.00000000000E+00  0.00000000000E+00  0.45593999997E+02  0.45594000000E+02  0.51100000000E-03 0. -1.
         11   -1    0    0    0    0 -0.00000000000E+00 -0.00000000000E+00 -0.45593999997E+02  0.45594000000E+02  0.51100000000E-03 0.  1.
    9900012    2    1    2    0    0 -0.19831476895E+02 -0.13030891518E+02  0.21298590421E+02  0.59301928378E+02  0.49999971459E+02 0.  0.
        -12    1    1    2    0    0  0.19831476895E+02  0.13030891518E+02 -0.21298590421E+02  0.31886071622E+02  0.00000000000E+00 0.  1.
         11    1    3    3    0    0 -0.11102977621E+01 -0.15675900673E+02  0.58540502764E+01  0.16770108167E+02  0.51100000000E-03 0. -1.
        -11    1    3    3    0    0  0.12361196766E-01  0.88076264623E+01 -0.79980711718E+01  0.11897208892E+02  0.51100000000E-03 0.  1.
         12    1    3    3    0    0 -0.18733540329E+02 -0.61626173066E+01  0.23442611316E+02  0.30634611319E+02  0.00000000000E+00 0. -1.
</event>
<event>
 7    1  0.6953847E-012  0.5930194E+02  0.7816164E-02  0.1266605E+00
        -11   -1    0    0    0    0  0.00000000000E+00  0.00000000000E+00  0.45593999997E+02  0.45594000000E+02  0.51100000000E-03 0. -1.
         11   -1    0    0    0    0 -0.00000000000E+00 -0.00000000000E+00 -0.45593999997E+02  0.45594000000E+02  0.51100000000E-03 0.  1.
    9900012    2    1    2    0    0 -0.17936571797E+02 -0.24591932758E+02  0.94993253077E+01  0.59301938062E+02  0.49999989120E+02 0.  0.
        -12    1    1    2    0    0  0.17936571797E+02  0.24591932758E+02 -0.94993253077E+01  0.31886061938E+02  0.00000000000E+00 0.  1.
         11    1    3    3    0    0 -0.64506817368E+01 -0.53105268116E+01  0.10067131633E+02  0.13082818101E+02  0.51100000000E-03 0. -1.
        -11    1    3    3    0    0 -0.31194879558E+01 -0.18169999531E+02  0.18035592843E+02  0.25790748293E+02  0.51100000000E-03 0.  1.
        -12    1    3    3    0    0 -0.83664021047E+01 -0.11114064152E+01 -0.18603399168E+02  0.20428371668E+02  0.00000000000E+00 0.  1.
</event>
<event>
 7    1  0.6953847E-012  0.5930194E+02  0.7816164E-02  0.1266605E+00
        -11   -1    0    0    0    0  0.00000000000E+00  0.00000000000E+00  0.45593999997E+02  0.45594000000E+02  0.51100000000E-03 0.  1.
         11   -1    0    0    0    0 -0.00000000000E+00 -0.00000000000E+00 -0.45593999997E+02  0.45594000000E+02  0.51100000000E-03 0. -1.
    9900012    2    1    2    0    0 -0.21464914168E+02  0.14119028260E+01 -0.23536875982E+02  0.59301944414E+02  0.50000000705E+02 0.  0.
        -12    1    1    2    0    0  0.21464914168E+02 -0.14119028260E+01  0.23536875982E+02  0.31886055586E+02  0.00000000000E+00 0.  1.
         11    1    3    3    0    0 -0.11687924409E+01  0.81249212458E+01 -0.15875628320E+02  0.17872212953E+02  0.51100000000E-03 0. -1.
        -11    1    3    3    0    0  0.38543260780E+01 -0.47749708315E+01  0.98016816267E+01  0.11564131568E+02  0.51100000000E-03 0.  1.
         12    1    3    3    0    0 -0.24150447805E+02 -0.19380475883E+01 -0.17462929288E+02  0.29865599893E+02  0.00000000000E+00 0. -1.
</event>
<event>
 7    1  0.6953847E-012  0.5930196E+02  0.7816164E-02  0.1266605E+00
        -11   -1    0    0    0    0  0.00000000000E+00  0.00000000000E+00  0.45593999997E+02  0.45594000000E+02  0.51100000000E-03 0. -1.
         11   -1    0    0    0    0 -0.00000000000E+00 -0.00000000000E+00 -0.45593999997E+02  0.45594000000E+02  0.51100000000E-03 0.  1.
    9900012    2    1    2    0    0 -0.65066146476E+01 -0.27828040441E+02 -0.14141552683E+02  0.59301962597E+02  0.50000033866E+02 0.  0.
        -12    1    1    2    0    0  0.65066146476E+01  0.27828040441E+02  0.14141552683E+02  0.31886037403E+02  0.00000000000E+00 0.  1.
         11    1    3    3    0    0 -0.26906132150E+01 -0.23046843967E+00 -0.26798463730E+01  0.38044831473E+01  0.51100000000E-03 0. -1.
        -11    1    3    3    0    0  0.11256180594E+01  0.55702424702E+01  0.12868223500E+02  0.14067188543E+02  0.51100000000E-03 0.  1.
         12    1    3    3    0    0 -0.49416194921E+01 -0.33167814472E+02 -0.24329929810E+02  0.41430290907E+02  0.00000000000E+00 0. -1.
</event>
<event>
 7    1  0.6953847E-012  0.5930199E+02  0.7816164E-02  0.1266605E+00
        -11   -1    0    0    0    0  0.00000000000E+00  0.00000000000E+00  0.45593999997E+02  0.45594000000E+02  0.51100000000E-03 0.  1.
         11   -1    0    0    0    0 -0.00000000000E+00 -0.00000000000E+00 -0.45593999997E+02  0.45594000000E+02  0.51100000000E-03 0. -1.
    9900012    2    1    2    0    0  0.26289754846E+02  0.14713243666E+02 -0.10444462720E+02  0.59301991304E+02  0.50000086221E+02 0.  0.
        -12    1    1    2    0    0 -0.26289754846E+02 -0.14713243666E+02  0.10444462720E+02  0.31886008696E+02  0.00000000000E+00 0.  1.
         11    1    3    3    0    0  0.12350879451E+02 -0.13991656053E+02 -0.57958801468E+01  0.19542335819E+02  0.51100000000E-03 0. -1.
        -11    1    3    3    0    0  0.61054644269E+01  0.14455130398E+02  0.93818636227E+01  0.18282419314E+02  0.51100000000E-03 0.  1.
         12    1    3    3    0    0  0.78334109678E+01  0.14249769321E+02 -0.14030446196E+02  0.21477236171E+02  0.00000000000E+00 0. -1.
</event>
<event>
 7    1  0.6953847E-012  0.5930194E+02  0.7816164E-02  0.1266605E+00
        -11   -1    0    0    0    0  0.00000000000E+00  0.00000000000E+00  0.45593999997E+02  0.45594000000E+02  0.51100000000E-03 0.  1.
         11   -1    0    0    0    0 -0.00000000000E+00 -0.00000000000E+00 -0.45593999997E+02  0.45594000000E+02  0.51100000000E-03 0. -1.
    9900012    2    1    2    0    0 -0.28990411745E+02 -0.14142864731E+01 -0.13201391138E+02  0.59301938667E+02  0.49999990223E+02 0.  0.
        -12    1    1    2    0    0  0.28990411745E+02  0.14142864731E+01  0.13201391138E+02  0.31886061333E+02  0.00000000000E+00 0.  1.
         11    1    3    3    0    0 -0.51871142375E+00 -0.13375004548E+02 -0.77248801105E+01  0.15454241528E+02  0.51100000000E-03 0. -1.
        -11    1    3    3    0    0 -0.91822428416E+01 -0.93161456189E+01 -0.74630970075E+01  0.15059945883E+02  0.51100000000E-03 0.  1.
         12    1    3    3    0    0 -0.19289457480E+02  0.21276863694E+02  0.19865859803E+01  0.28787751256E+02  0.00000000000E+00 0. -1.
</event>
<event>
 7    1  0.6953847E-012  0.5930194E+02  0.7816164E-02  0.1266605E+00
        -11   -1    0    0    0    0  0.00000000000E+00  0.00000000000E+00  0.45593999997E+02  0.45594000000E+02  0.51100000000E-03 0.  1.
         11   -1    0    0    0    0 -0.00000000000E+00 -0.00000000000E+00 -0.45593999997E+02  0.45594000000E+02  0.51100000000E-03 0. -1.
    9900012    2    1    2    0    0  0.19988703561E+01 -0.71507192729E+00 -0.31815312389E+02  0.59301938579E+02  0.49999990062E+02 0.  0.
        -12    1    1    2    0    0 -0.19988703561E+01  0.71507192729E+00  0.31815312389E+02  0.31886061421E+02  0.00000000000E+00 0.  1.
         11    1    3    3    0    0 -0.95362706894E+01  0.41086441973E+01  0.59955289894E+01  0.11990320426E+02  0.51100000000E-03 0. -1.
        -11    1    3    3    0    0 -0.89623159053E+00  0.10670134375E+01  0.35017828286E+01  0.37688502198E+01  0.51100000000E-03 0.  1.
         12    1    3    3    0    0  0.12431372636E+02 -0.58907295621E+01 -0.41312624207E+02  0.43542767933E+02  0.00000000000E+00 0. -1.
</event>
<event>
 7    1  0.6953847E-012  0.5930194E+02  0.7816164E-02  0.1266605E+00
        -11   -1    0    0    0    0  0.00000000000E+00  0.00000000000E+00  0.45593999997E+02  0.45594000000E+02  0.51100000000E-03 0. -1.
         11   -1    0    0    0    0 -0.00000000000E+00 -0.00000000000E+00 -0.45593999997E+02  0.45594000000E+02  0.51100000000E-03 0.  1.
    9900012    2    1    2    0    0 -0.19032282453E+02 -0.15489259103E+02  0.20361136181E+02  0.59301940515E+02  0.49999993593E+02 0.  0.
        -12    1    1    2    0    0  0.19032282453E+02  0.15489259103E+02 -0.20361136181E+02  0.31886059485E+02  0.00000000000E+00 0.  1.
         11    1    3    3    0    0 -0.25455528841E+02 -0.81720271460E+01  0.12769878744E+02  0.29628293566E+02  0.51100000000E-03 0. -1.
        -11    1    3    3    0    0 -0.10495699385E+02 -0.21710634064E+01  0.49033266820E+01  0.11786256179E+02  0.51100000000E-03 0.  1.
        -12    1    3    3    0    0  0.16918945773E+02 -0.51461685503E+01  0.26879307549E+01  0.17887390770E+02  0.00000000000E+00 0.  1.
</event>
<event>
 7    1  0.6953847E-012  0.5930190E+02  0.7816164E-02  0.1266605E+00
        -11   -1    0    0    0    0  0.00000000000E+00  0.00000000000E+00  0.45593999997E+02  0.45594000000E+02  0.51100000000E-03 0.  1.
         11   -1    0    0    0    0 -0.00000000000E+00 -0.00000000000E+00 -0.45593999997E+02  0.45594000000E+02  0.51100000000E-03 0. -1.
    9900012    2    1    2    0    0 -0.67457630666E+01 -0.20970899915E+02 -0.23052975913E+02  0.59301895487E+02  0.49999911473E+02 0.  0.
        -12    1    1    2    0    0  0.67457630666E+01  0.20970899915E+02  0.23052975913E+02  0.31886104513E+02  0.00000000000E+00 0.  1.
         11    1    3    3    0    0 -0.11078183460E+02  0.77996676382E+00  0.94751497034E+01  0.14598388921E+02  0.51100000000E-03 0.  1.
        -11    1    3    3    0    0 -0.24378856139E+01 -0.98080073360E+01 -0.80643243625E+00  0.10138571285E+02  0.51100000000E-03 0. -1.
         12    1    3    3    0    0  0.67703060074E+01 -0.11942859343E+02 -0.31721693180E+02  0.34564935280E+02  0.00000000000E+00 0. -1.
</event>
<event>
 7    1  0.6953847E-012  0.5930197E+02  0.7816164E-02  0.1266605E+00
        -11   -1    0    0    0    0  0.00000000000E+00  0.00000000000E+00  0.45593999997E+02  0.45594000000E+02  0.51100000000E-03 0. -1.
         11   -1    0    0    0    0 -0.00000000000E+00 -0.00000000000E+00 -0.45593999997E+02  0.45594000000E+02  0.51100000000E-03 0.  1.
    9900012    2    1    2    0    0  0.71459854715E+00  0.31844166049E+02 -0.14687938108E+01  0.59301969866E+02  0.50000047123E+02 0.  0.
        -12    1    1    2    0    0 -0.71459854715E+00 -0.31844166049E+02  0.14687938108E+01  0.31886030134E+02  0.00000000000E+00 0.  1.
         11    1    3    3    0    0 -0.32429449374E+01  0.20690111274E+02 -0.14267708436E+02  0.25340972765E+02  0.51100000000E-03 0. -1.
        -11    1    3    3    0    0 -0.72862140979E+00 -0.83121174038E+01 -0.25582915322E+01  0.87273730709E+01  0.51100000000E-03 0.  1.
         12    1    3    3    0    0  0.46861648943E+01  0.19466172179E+02  0.15357206158E+02  0.25233624030E+02  0.00000000000E+00 0. -1.
</event>
<event>
 7    1  0.6953847E-012  0.5930179E+02  0.7816164E-02  0.1266605E+00
        -11   -1    0    0    0    0  0.00000000000E+00  0.00000000000E+00  0.45593999997E+02  0.45594000000E+02  0.51100000000E-03 0. -1.
         11   -1    0    0    0    0 -0.00000000000E+00 -0.00000000000E+00 -0.45593999997E+02  0.45594000000E+02  0.51100000000E-03 0.  1.
    9900012    2    1    2    0    0 -0.89021203779E+01 -0.16836915590E+02  0.25573441295E+02  0.59301790230E+02  0.49999719510E+02 0.  0.
        -12    1    1    2    0    0  0.89021203779E+01  0.16836915590E+02 -0.25573441295E+02  0.31886209770E+02  0.00000000000E+00 0.  1.
         11    1    3    3    0    0 -0.57369416142E+01  0.55817246906E+01  0.45619264493E+01  0.92129974925E+01  0.51100000000E-03 0. -1.
        -11    1    3    3    0    0  0.15602977529E+02 -0.18101443852E+02  0.36793225378E+01  0.24179590399E+02  0.51100000000E-03 0.  1.
         12    1    3    3    0    0 -0.18768156292E+02 -0.43171964281E+01  0.17332192308E+02  0.25909202339E+02  0.00000000000E+00 0. -1.
</event>
<event>
 7    1  0.6953847E-012  0.5930195E+02  0.7816164E-02  0.1266605E+00
        -11   -1    0    0    0    0  0.00000000000E+00  0.00000000000E+00  0.45593999997E+02  0.45594000000E+02  0.51100000000E-03 0.  1.
         11   -1    0    0    0    0 -0.00000000000E+00 -0.00000000000E+00 -0.45593999997E+02  0.45594000000E+02  0.51100000000E-03 0. -1.
    9900012    2    1    2    0    0  0.15915361089E+02 -0.12724102030E+02 -0.24525874858E+02  0.59301952446E+02  0.50000015353E+02 0.  0.
        -12    1    1    2    0    0 -0.15915361089E+02  0.12724102030E+02  0.24525874858E+02  0.31886047554E+02  0.00000000000E+00 0.  1.
         11    1    3    3    0    0 -0.59157257619E+01 -0.18049172537E+01 -0.20978956510E+01  0.65310568828E+01  0.51100000000E-03 0. -1.
        -11    1    3    3    0    0 -0.10895259579E+02 -0.98696581100E+01 -0.41680618866E+01  0.15280365593E+02  0.51100000000E-03 0.  1.
         12    1    3    3    0    0  0.32726346431E+02 -0.10495266659E+01 -0.18259917320E+02  0.37490529970E+02  0.00000000000E+00 0. -1.
</event>
<event>
 7    1  0.6953847E-012  0.5930195E+02  0.7816164E-02  0.1266605E+00
        -11   -1    0    0    0    0  0.00000000000E+00  0.00000000000E+00  0.45593999997E+02  0.45594000000E+02  0.51100000000E-03 0.  1.
         11   -1    0    0    0    0 -0.00000000000E+00 -0.00000000000E+00 -0.45593999997E+02  0.45594000000E+02  0.51100000000E-03 0. -1.
    9900012    2    1    2    0    0  0.13423279990E+00  0.21024368503E+02 -0.23972438794E+02  0.59301954288E+02  0.50000018712E+02 0.  0.
        -12    1    1    2    0    0 -0.13423279990E+00 -0.21024368503E+02  0.23972438794E+02  0.31886045712E+02  0.00000000000E+00 0.  1.
         11    1    3    3    0    0  0.31503818839E+01  0.55195589700E+01 -0.20539103436E+02  0.21499888545E+02  0.51100000000E-03 0.  1.
        -11    1    3    3    0    0 -0.15727035398E+02  0.11093084818E+02 -0.11199212523E+02  0.22266983059E+02  0.51100000000E-03 0. -1.
        -12    1    3    3    0    0  0.12710886314E+02  0.44117247155E+01  0.77658771647E+01  0.15535082683E+02  0.00000000000E+00 0.  1.
</event>
<event>
 7    1  0.6953847E-012  0.5930194E+02  0.7816164E-02  0.1266605E+00
        -11   -1    0    0    0    0  0.00000000000E+00  0.00000000000E+00  0.45593999997E+02  0.45594000000E+02  0.51100000000E-03 0.  1.
         11   -1    0    0    0    0 -0.00000000000E+00 -0.00000000000E+00 -0.45593999997E+02  0.45594000000E+02  0.51100000000E-03 0. -1.
    9900012    2    1    2    0    0 -0.45072160664E+01 -0.41043199561E+01 -0.31297930353E+02  0.59301939043E+02  0.49999990909E+02 0.  0.
        -12    1    1    2    0    0  0.45072160664E+01  0.41043199561E+01  0.31297930353E+02  0.31886060957E+02  0.00000000000E+00 0.  1.
         11    1    3    3    0    0  0.34891384132E+00  0.18043717523E+02 -0.78606731764E+01  0.19684706398E+02  0.51100000000E-03 0. -1.
        -11    1    3    3    0    0 -0.73228567066E+01 -0.20048163698E+02 -0.64112849142E+01  0.22285817744E+02  0.51100000000E-03 0.  1.
        -12    1    3    3    0    0  0.24667267990E+01 -0.20998737814E+01 -0.17025972262E+02  0.17331414901E+02  0.00000000000E+00 0.  1.
</event>
<event>
 7    1  0.6953847E-012  0.5930203E+02  0.7816164E-02  0.1266604E+00
        -11   -1    0    0    0    0  0.00000000000E+00  0.00000000000E+00  0.45593999997E+02  0.45594000000E+02  0.51100000000E-03 0.  1.
         11   -1    0    0    0    0 -0.00000000000E+00 -0.00000000000E+00 -0.45593999997E+02  0.45594000000E+02  0.51100000000E-03 0. -1.
    9900012    2    1    2    0    0 -0.25199449244E+02  0.17157848967E+02 -0.93440233578E+01  0.59302034499E+02  0.50000164998E+02 0.  0.
        -12    1    1    2    0    0  0.25199449244E+02 -0.17157848967E+02  0.93440233578E+01  0.31885965501E+02  0.00000000000E+00 0.  1.
         11    1    3    3    0    0 -0.33338820730E+01  0.22064610314E+02 -0.77740210209E+00  0.22328594946E+02  0.51100000000E-03 0. -1.
        -11    1    3    3    0    0 -0.82348246379E+01  0.11793946727E+02 -0.41160171407E+01  0.14961654774E+02  0.51100000000E-03 0.  1.
        -12    1    3    3    0    0 -0.13630742533E+02 -0.16700708074E+02 -0.44506041151E+01  0.22011784779E+02  0.00000000000E+00 0.  1.
</event>
<event>
 7    1  0.6953847E-012  0.5930196E+02  0.7816164E-02  0.1266605E+00
        -11   -1    0    0    0    0  0.00000000000E+00  0.00000000000E+00  0.45593999997E+02  0.45594000000E+02  0.51100000000E-03 0. -1.
         11   -1    0    0    0    0 -0.00000000000E+00 -0.00000000000E+00 -0.45593999997E+02  0.45594000000E+02  0.51100000000E-03 0.  1.
    9900012    2    1    2    0    0  0.29739192038E+02  0.11212441125E+02  0.25654331537E+01  0.59301955618E+02  0.50000021139E+02 0.  0.
        -12    1    1    2    0    0 -0.29739192038E+02 -0.11212441125E+02 -0.25654331537E+01  0.31886044382E+02  0.00000000000E+00 0.  1.
         11    1    3    3    0    0  0.57819575745E+01 -0.72428074528E+01 -0.29977280193E+01  0.97404140944E+01  0.51100000000E-03 0. -1.
        -11    1    3    3    0    0  0.21411559202E+02  0.72844871928E+01 -0.14208946795E+02  0.26709788288E+02  0.51100000000E-03 0.  1.
         12    1    3    3    0    0  0.25456752616E+01  0.11170761385E+02  0.19772107968E+02  0.22851753236E+02  0.00000000000E+00 0. -1.
</event>
<event>
 7    1  0.6953847E-012  0.5930195E+02  0.7816164E-02  0.1266605E+00
        -11   -1    0    0    0    0  0.00000000000E+00  0.00000000000E+00  0.45593999997E+02  0.45594000000E+02  0.51100000000E-03 0. -1.
         11   -1    0    0    0    0 -0.00000000000E+00 -0.00000000000E+00 -0.45593999997E+02  0.45594000000E+02  0.51100000000E-03 0.  1.
    9900012    2    1    2    0    0 -0.11265982545E+02  0.11732861887E+02  0.27425126733E+02  0.59301953098E+02  0.50000016542E+02 0.  0.
        -12    1    1    2    0    0  0.11265982545E+02 -0.11732861887E+02 -0.27425126733E+02  0.31886046902E+02  0.00000000000E+00 0.  1.
         11    1    3    3    0    0 -0.24729419105E+01  0.72626404232E+01  0.70060363499E+01  0.10389703230E+02  0.51100000000E-03 0. -1.
        -11    1    3    3    0    0 -0.25871708084E+01 -0.17386707281E+02  0.19384652864E+02  0.26167839226E+02  0.51100000000E-03 0.  1.
         12    1    3    3    0    0 -0.62058698257E+01  0.21856928745E+02  0.10344375192E+01  0.22744410641E+02  0.00000000000E+00 0. -1.
</event>
<event>
 7    1  0.6953847E-012  0.5930195E+02  0.7816164E-02  0.1266605E+00
        -11   -1    0    0    0    0  0.00000000000E+00  0.00000000000E+00  0.45593999997E+02  0.45594000000E+02  0.51100000000E-03 0. -1.
         11   -1    0    0    0    0 -0.00000000000E+00 -0.00000000000E+00 -0.45593999997E+02  0.45594000000E+02  0.51100000000E-03 0.  1.
    9900012    2    1    2    0    0 -0.19939245193E+02  0.15581399905E+02  0.19400166521E+02  0.59301953163E+02  0.50000016660E+02 0.  0.
        -12    1    1    2    0    0  0.19939245193E+02 -0.15581399905E+02 -0.19400166521E+02  0.31886046837E+02  0.00000000000E+00 0.  1.
         11    1    3    3    0    0 -0.18553137457E+01  0.24297153856E+02  0.37940879762E+01  0.24661487758E+02  0.51100000000E-03 0. -1.
        -11    1    3    3    0    0  0.38740526305E+01 -0.43383626288E+01 -0.20071548785E+01  0.61529135416E+01  0.51100000000E-03 0.  1.
         12    1    3    3    0    0 -0.21957984078E+02 -0.43773913222E+01  0.17613233423E+02  0.28487551863E+02  0.00000000000E+00 0. -1.
</event>
<event>
 7    1  0.6953847E-012  0.5930235E+02  0.7816164E-02  0.1266603E+00
        -11   -1    0    0    0    0  0.00000000000E+00  0.00000000000E+00  0.45593999997E+02  0.45594000000E+02  0.51100000000E-03 0.  1.
         11   -1    0    0    0    0 -0.00000000000E+00 -0.00000000000E+00 -0.45593999997E+02  0.45594000000E+02  0.51100000000E-03 0. -1.
    9900012    2    1    2    0    0  0.12788447504E+02  0.62648212516E+01 -0.28528977985E+02  0.59302345549E+02  0.50000732274E+02 0.  0.
        -12    1    1    2    0    0 -0.12788447504E+02 -0.62648212516E+01  0.28528977985E+02  0.31885654451E+02  0.00000000000E+00 0.  1.
         11    1    3    3    0    0  0.75810549374E-01  0.97588488171E+01 -0.14737371650E+02  0.17675717832E+02  0.51100000000E-03 0. -1.
        -11    1    3    3    0    0 -0.96883497291E+01  0.12011388887E+01  0.59229846415E+01  0.11418782879E+02  0.51100000000E-03 0.  1.
        -12    1    3    3    0    0  0.22400986683E+02 -0.46951664541E+01 -0.19714590976E+02  0.30207844838E+02  0.00000000000E+00 0.  1.
</event>
<event>
 7    1  0.6953847E-012  0.5930195E+02  0.7816164E-02  0.1266605E+00
        -11   -1    0    0    0    0  0.00000000000E+00  0.00000000000E+00  0.45593999997E+02  0.45594000000E+02  0.51100000000E-03 0.  1.
         11   -1    0    0    0    0 -0.00000000000E+00 -0.00000000000E+00 -0.45593999997E+02  0.45594000000E+02  0.51100000000E-03 0. -1.
    9900012    2    1    2    0    0 -0.24875251549E+01 -0.31173844366E+02 -0.62228634540E+01  0.59301946881E+02  0.50000005203E+02 0.  0.
        -12    1    1    2    0    0  0.24875251549E+01  0.31173844366E+02  0.62228634540E+01  0.31886053119E+02  0.00000000000E+00 0.  1.
         11    1    3    3    0    0  0.10614775305E+02 -0.25647917971E+02 -0.17934253818E+02  0.33047338945E+02  0.51100000000E-03 0. -1.
        -11    1    3    3    0    0  0.26002701624E+01 -0.70107690393E+01  0.20314787196E+01  0.77484962083E+01  0.51100000000E-03 0.  1.
         12    1    3    3    0    0 -0.15702570623E+02  0.14848426445E+01  0.96799116445E+01  0.18506111728E+02  0.00000000000E+00 0. -1.
</event>
<event>
 7    1  0.6953847E-012  0.5930195E+02  0.7816164E-02  0.1266605E+00
        -11   -1    0    0    0    0  0.00000000000E+00  0.00000000000E+00  0.45593999997E+02  0.45594000000E+02  0.51100000000E-03 0. -1.
         11   -1    0    0    0    0 -0.00000000000E+00 -0.00000000000E+00 -0.45593999997E+02  0.45594000000E+02  0.51100000000E-03 0.  1.
    9900012    2    1    2    0    0 -0.15038349732E+02  0.60852704106E+01  0.27450640325E+02  0.59301950811E+02  0.50000012370E+02 0.  0.
        -12    1    1    2    0    0  0.15038349732E+02 -0.60852704106E+01 -0.27450640325E+02  0.31886049189E+02  0.00000000000E+00 0.  1.
         11    1    3    3    0    0 -0.49780986541E+01 -0.52704093780E+01  0.16276694167E+02  0.17818233765E+02  0.51100000000E-03 0. -1.
        -11    1    3    3    0    0  0.13793687107E+02  0.89294456183E+00  0.51321346189E+01  0.14744556962E+02  0.51100000000E-03 0.  1.
        -12    1    3    3    0    0 -0.23853938185E+02  0.10462735227E+02  0.60418115391E+01  0.26739160084E+02  0.00000000000E+00 0.  1.
</event>
<event>
 7    1  0.6953847E-012  0.5930195E+02  0.7816164E-02  0.1266605E+00
        -11   -1    0    0    0    0  0.00000000000E+00  0.00000000000E+00  0.45593999997E+02  0.45594000000E+02  0.51100000000E-03 0. -1.
         11   -1    0    0    0    0 -0.00000000000E+00 -0.00000000000E+00 -0.45593999997E+02  0.45594000000E+02  0.51100000000E-03 0.  1.
    9900012    2    1    2    0    0  0.25033738802E+02  0.19356525025E+02 -0.39188254200E+01  0.59301947687E+02  0.50000006673E+02 0.  0.
        -12    1    1    2    0    0 -0.25033738802E+02 -0.19356525025E+02  0.39188254200E+01  0.31886052313E+02  0.00000000000E+00 0.  1.
         11    1    3    3    0    0 -0.42737506072E+01  0.20457218570E+01  0.10462505664E+02  0.11485379715E+02  0.51100000000E-03 0. -1.
        -11    1    3    3    0    0 -0.18435968282E+01 -0.62389561070E+01 -0.28160285538E+01  0.70889660492E+01  0.51100000000E-03 0.  1.
        -12    1    3    3    0    0  0.31151086237E+02  0.23549759275E+02 -0.11565302531E+02  0.40727601922E+02  0.00000000000E+00 0.  1.
</event>
<event>
 7    1  0.6953847E-012  0.5930195E+02  0.7816164E-02  0.1266605E+00
        -11   -1    0    0    0    0  0.00000000000E+00  0.00000000000E+00  0.45593999997E+02  0.45594000000E+02  0.51100000000E-03 0.  1.
         11   -1    0    0    0    0 -0.00000000000E+00 -0.00000000000E+00 -0.45593999997E+02  0.45594000000E+02  0.51100000000E-03 0. -1.
    9900012    2    1    2    0    0  0.83491256392E+01 -0.18994029563E+02 -0.24212379914E+02  0.59301946637E+02  0.50000004759E+02 0.  0.
        -12    1    1    2    0    0 -0.83491256392E+01  0.18994029563E+02  0.24212379914E+02  0.31886053363E+02  0.00000000000E+00 0.  1.
         11    1    3    3    0    0  0.63012475586E+01 -0.82442606317E+01 -0.29727070172E+02  0.31486064464E+02  0.51100000000E-03 0. -1.
        -11    1    3    3    0    0  0.12854921716E+02 -0.61958470061E+01 -0.11684657802E+01  0.14317920414E+02  0.51100000000E-03 0.  1.
         12    1    3    3    0    0 -0.10807043635E+02 -0.45539219248E+01  0.66831560382E+01  0.13497961760E+02  0.00000000000E+00 0. -1.
</event>
<event>
 7    1  0.6953847E-012  0.5930195E+02  0.7816164E-02  0.1266605E+00
        -11   -1    0    0    0    0  0.00000000000E+00  0.00000000000E+00  0.45593999997E+02  0.45594000000E+02  0.51100000000E-03 0.  1.
         11   -1    0    0    0    0 -0.00000000000E+00 -0.00000000000E+00 -0.45593999997E+02  0.45594000000E+02  0.51100000000E-03 0. -1.
    9900012    2    1    2    0    0 -0.14164163712E+02  0.28210645783E+02  0.45006585495E+01  0.59301952949E+02  0.50000016271E+02 0.  0.
        -12    1    1    2    0    0  0.14164163712E+02 -0.28210645783E+02 -0.45006585495E+01  0.31886047051E+02  0.00000000000E+00 0.  1.
         11    1    3    3    0    0 -0.15176333647E+01  0.16142159838E+01  0.56221495182E+00  0.22858237433E+01  0.51100000000E-03 0. -1.
        -11    1    3    3    0    0 -0.49363345487E+01  0.17460522579E+02  0.26128396878E+02  0.31810853041E+02  0.51100000000E-03 0.  1.
         12    1    3    3    0    0 -0.77101957989E+01  0.91359072200E+01 -0.22189953280E+02  0.25205276165E+02  0.00000000000E+00 0. -1.
</event>
<event>
 7    1  0.6953847E-012  0.5930192E+02  0.7816164E-02  0.1266605E+00
        -11   -1    0    0    0    0  0.00000000000E+00  0.00000000000E+00  0.45593999997E+02  0.45594000000E+02  0.51100000000E-03 0.  1.
         11   -1    0    0    0    0 -0.00000000000E+00 -0.00000000000E+00 -0.45593999997E+02  0.45594000000E+02  0.51100000000E-03 0. -1.
    9900012    2    1    2    0    0  0.73107600438E+01 -0.30845869240E+02 -0.34361790473E+01  0.59301918585E+02  0.49999953598E+02 0.  0.
        -12    1    1    2    0    0 -0.73107600438E+01  0.30845869240E+02  0.34361790473E+01  0.31886081415E+02  0.00000000000E+00 0.  1.
         11    1    3    3    0    0  0.69512658506E+01 -0.20664039925E+02 -0.19854055997E+02  0.29487390233E+02  0.51100000000E-03 0. -1.
        -11    1    3    3    0    0 -0.62633036356E+01 -0.15797529395E+01 -0.33390081240E+01  0.72714212706E+01  0.51100000000E-03 0.  1.
        -12    1    3    3    0    0  0.66227978289E+01 -0.86020763755E+01  0.19756885074E+02  0.22543107081E+02  0.00000000000E+00 0.  1.
</event>
<event>
 7    1  0.6953847E-012  0.5930198E+02  0.7816164E-02  0.1266605E+00
        -11   -1    0    0    0    0  0.00000000000E+00  0.00000000000E+00  0.45593999997E+02  0.45594000000E+02  0.51100000000E-03 0.  1.
         11   -1    0    0    0    0 -0.00000000000E+00 -0.00000000000E+00 -0.45593999997E+02  0.45594000000E+02  0.51100000000E-03 0. -1.
    9900012    2    1    2    0    0  0.13478838128E+00 -0.17215173971E+02 -0.26839117016E+02  0.59301975084E+02  0.50000056640E+02 0.  0.
        -12    1    1    2    0    0 -0.13478838128E+00  0.17215173971E+02  0.26839117016E+02  0.31886024916E+02  0.00000000000E+00 0.  1.
         11    1    3    3    0    0 -0.45157006775E+00 -0.24590347330E+02 -0.12177308689E+02  0.27444051168E+02  0.51100000000E-03 0. -1.
        -11    1    3    3    0    0  0.12937988016E+02  0.69680371927E+01 -0.12540964496E+02  0.19318925098E+02  0.51100000000E-03 0.  1.
        -12    1    3    3    0    0 -0.12351629567E+02  0.40713616642E+00 -0.21208438307E+01  0.12538998818E+02  0.00000000000E+00 0.  1.
</event>
<event>
 7    1  0.6953847E-012  0.5930197E+02  0.7816164E-02  0.1266605E+00
        -11   -1    0    0    0    0  0.00000000000E+00  0.00000000000E+00  0.45593999997E+02  0.45594000000E+02  0.51100000000E-03 0.  1.
         11   -1    0    0    0    0 -0.00000000000E+00 -0.00000000000E+00 -0.45593999997E+02  0.45594000000E+02  0.51100000000E-03 0. -1.
    9900012    2    1    2    0    0  0.84744372978E+01 -0.83445016462E+01 -0.29585000010E+02  0.59301968249E+02  0.50000044174E+02 0.  0.
        -12    1    1    2    0    0 -0.84744372978E+01  0.83445016462E+01  0.29585000010E+02  0.31886031751E+02  0.00000000000E+00 0.  1.
         11    1    3    3    0    0  0.11639947201E+02 -0.14916644422E+02 -0.30676183128E+02  0.36041959759E+02  0.51100000000E-03 0. -1.
        -11    1    3    3    0    0 -0.11270237523E+02 -0.39018442677E+00 -0.32365013371E+01  0.11732239295E+02  0.51100000000E-03 0.  1.
        -12    1    3    3    0    0  0.81047276201E+01  0.69623272031E+01  0.43276844555E+01  0.11527769195E+02  0.00000000000E+00 0.  1.
</event>
<event>
 7    1  0.6953847E-012  0.5930195E+02  0.7816164E-02  0.1266605E+00
        -11   -1    0    0    0    0  0.00000000000E+00  0.00000000000E+00  0.45593999997E+02  0.45594000000E+02  0.51100000000E-03 0. -1.
         11   -1    0    0    0    0 -0.00000000000E+00 -0.00000000000E+00 -0.45593999997E+02  0.45594000000E+02  0.51100000000E-03 0.  1.
    9900012    2    1    2    0    0  0.21406041944E+02  0.70490293368E+01  0.22556882745E+02  0.59301946536E+02  0.50000004575E+02 0.  0.
        -12    1    1    2    0    0 -0.21406041944E+02 -0.70490293368E+01 -0.22556882745E+02  0.31886053464E+02  0.00000000000E+00 0.  1.
         11    1    3    3    0    0  0.56970647348E+01  0.44774058717E+00  0.45662026643E+01  0.73148633109E+01  0.51100000000E-03 0. -1.
        -11    1    3    3    0    0  0.25268273816E+02 -0.87695195054E+01  0.20518539939E+02  0.33710541608E+02  0.51100000000E-03 0.  1.
         12    1    3    3    0    0 -0.95592966074E+01  0.15370808255E+02 -0.25278598577E+01  0.18276541618E+02  0.00000000000E+00 0. -1.
</event>
<event>
 7    1  0.6953847E-012  0.5930199E+02  0.7816164E-02  0.1266605E+00
        -11   -1    0    0    0    0  0.00000000000E+00  0.00000000000E+00  0.45593999997E+02  0.45594000000E+02  0.51100000000E-03 0. -1.
         11   -1    0    0    0    0 -0.00000000000E+00 -0.00000000000E+00 -0.45593999997E+02  0.45594000000E+02  0.51100000000E-03 0.  1.
    9900012    2    1    2    0    0 -0.24793933737E+02  0.19301285138E+02  0.54257722262E+01  0.59301987982E+02  0.50000080162E+02 0.  0.
        -12    1    1    2    0    0  0.24793933737E+02 -0.19301285138E+02 -0.54257722262E+01  0.31886012018E+02  0.00000000000E+00 0.  1.
         11    1    3    3    0    0  0.40178886750E+01  0.72590034990E+01  0.11712498196E+01  0.83790445520E+01  0.51100000000E-03 0. -1.
        -11    1    3    3    0    0  0.18479300821E+01  0.12379487413E+02 -0.11011701976E+02  0.16671056801E+02  0.51100000000E-03 0.  1.
         12    1    3    3    0    0 -0.30659752495E+02 -0.33720577329E+00  0.15266224382E+02  0.34251886629E+02  0.00000000000E+00 0. -1.
</event>
<event>
 7    1  0.6953847E-012  0.5930196E+02  0.7816164E-02  0.1266605E+00
        -11   -1    0    0    0    0  0.00000000000E+00  0.00000000000E+00  0.45593999997E+02  0.45594000000E+02  0.51100000000E-03 0. -1.
         11   -1    0    0    0    0 -0.00000000000E+00 -0.00000000000E+00 -0.45593999997E+02  0.45594000000E+02  0.51100000000E-03 0.  1.
    9900012    2    1    2    0    0  0.76893126699E+01 -0.20199494676E+02  0.23443005364E+02  0.59301958932E+02  0.50000027182E+02 0.  0.
        -12    1    1    2    0    0 -0.76893126699E+01  0.20199494676E+02 -0.23443005364E+02  0.31886041068E+02  0.00000000000E+00 0.  1.
         11    1    3    3    0    0  0.11168167725E+02 -0.13813419692E+02 -0.87104380544E+01  0.19784091217E+02  0.51100000000E-03 0. -1.
        -11    1    3    3    0    0 -0.28413719608E+01 -0.15031963140E+00 -0.28087963699E+01  0.39981655693E+01  0.51100000000E-03 0.  1.
         12    1    3    3    0    0 -0.63748309401E+00 -0.62357553525E+01  0.34962239788E+02  0.35519702146E+02  0.00000000000E+00 0. -1.
</event>
<event>
 7    1  0.6953847E-012  0.5930185E+02  0.7816164E-02  0.1266605E+00
        -11   -1    0    0    0    0  0.00000000000E+00  0.00000000000E+00  0.45593999997E+02  0.45594000000E+02  0.51100000000E-03 0.  1.
         11   -1    0    0    0    0 -0.00000000000E+00 -0.00000000000E+00 -0.45593999997E+02  0.45594000000E+02  0.51100000000E-03 0. -1.
    9900012    2    1    2    0    0 -0.74970642506E+01  0.16416454814E+02 -0.26287266343E+02  0.59301853591E+02  0.49999835065E+02 0.  0.
        -12    1    1    2    0    0  0.74970642506E+01 -0.16416454814E+02  0.26287266343E+02  0.31886146409E+02  0.00000000000E+00 0.  1.
         11    1    3    3    0    0 -0.98760017436E+01  0.21519905392E+02 -0.20709139429E+02  0.31456480965E+02  0.51100000000E-03 0. -1.
        -11    1    3    3    0    0 -0.91356048340E+01  0.72552529082E+00 -0.10586174310E+02  0.14001883781E+02  0.51100000000E-03 0.  1.
        -12    1    3    3    0    0  0.11514542327E+02 -0.58289758687E+01  0.50080473967E+01  0.13843488845E+02  0.00000000000E+00 0.  1.
</event>
<event>
 7    1  0.6953847E-012  0.5930194E+02  0.7816164E-02  0.1266605E+00
        -11   -1    0    0    0    0  0.00000000000E+00  0.00000000000E+00  0.45593999997E+02  0.45594000000E+02  0.51100000000E-03 0. -1.
         11   -1    0    0    0    0 -0.00000000000E+00 -0.00000000000E+00 -0.45593999997E+02  0.45594000000E+02  0.51100000000E-03 0.  1.
    9900012    2    1    2    0    0  0.16883742081E+02 -0.23692820776E+02  0.13050298828E+02  0.59301940311E+02  0.49999993222E+02 0.  0.
        -12    1    1    2    0    0 -0.16883742081E+02  0.23692820776E+02 -0.13050298828E+02  0.31886059689E+02  0.00000000000E+00 0.  1.
         11    1    3    3    0    0 -0.31973325951E+01 -0.15135503514E+02  0.94752658023E+01  0.18140757002E+02  0.51100000000E-03 0. -1.
        -11    1    3    3    0    0 -0.90937649083E+01 -0.57661229483E+01  0.48846217663E+01  0.11823885323E+02  0.51100000000E-03 0.  1.
        -12    1    3    3    0    0  0.29174839584E+02 -0.27911943144E+01 -0.13095887407E+01  0.29337297986E+02  0.00000000000E+00 0.  1.
</event>
<event>
 7    1  0.6953847E-012  0.5930206E+02  0.7816164E-02  0.1266604E+00
        -11   -1    0    0    0    0  0.00000000000E+00  0.00000000000E+00  0.45593999997E+02  0.45594000000E+02  0.51100000000E-03 0.  1.
         11   -1    0    0    0    0 -0.00000000000E+00 -0.00000000000E+00 -0.45593999997E+02  0.45594000000E+02  0.51100000000E-03 0. -1.
    9900012    2    1    2    0    0 -0.17374501445E+02  0.11509420516E+02 -0.24132412994E+02  0.59302056106E+02  0.50000204404E+02 0.  0.
        -12    1    1    2    0    0  0.17374501445E+02 -0.11509420516E+02  0.24132412994E+02  0.31885943894E+02  0.00000000000E+00 0.  1.
         11    1    3    3    0    0  0.47024480251E+01 -0.32986030329E+01 -0.67073348539E+01  0.88307497134E+01  0.51100000000E-03 0. -1.
        -11    1    3    3    0    0 -0.17184683829E+02 -0.30688492281E+01 -0.24964434113E+02  0.30462340106E+02  0.51100000000E-03 0.  1.
        -12    1    3    3    0    0 -0.48922656412E+01  0.17876872777E+02  0.75393559724E+01  0.20008966287E+02  0.00000000000E+00 0.  1.
</event>
<event>
 7    1  0.6953847E-012  0.5930188E+02  0.7816164E-02  0.1266605E+00
        -11   -1    0    0    0    0  0.00000000000E+00  0.00000000000E+00  0.45593999997E+02  0.45594000000E+02  0.51100000000E-03 0. -1.
         11   -1    0    0    0    0 -0.00000000000E+00 -0.00000000000E+00 -0.45593999997E+02  0.45594000000E+02  0.51100000000E-03 0.  1.
    9900012    2    1    2    0    0 -0.16987898377E+02 -0.93973535995E+01  0.25294780148E+02  0.59301876863E+02  0.49999877508E+02 0.  0.
        -12    1    1    2    0    0  0.16987898377E+02  0.93973535995E+01 -0.25294780148E+02  0.31886123137E+02  0.00000000000E+00 0.  1.
         11    1    3    3    0    0 -0.93170808630E+01  0.35843933964E+01  0.14614813466E+01  0.10089192228E+02  0.51100000000E-03 0. -1.
        -11    1    3    3    0    0  0.37193552426E+01  0.13074938745E+02  0.28953134942E+01  0.13898577880E+02  0.51100000000E-03 0.  1.
         12    1    3    3    0    0 -0.11390172757E+02 -0.26056685741E+02  0.20937985307E+02  0.35314106755E+02  0.00000000000E+00 0. -1.
</event>
<event>
 7    1  0.6953847E-012  0.5930194E+02  0.7816164E-02  0.1266605E+00
        -11   -1    0    0    0    0  0.00000000000E+00  0.00000000000E+00  0.45593999997E+02  0.45594000000E+02  0.51100000000E-03 0. -1.
         11   -1    0    0    0    0 -0.00000000000E+00 -0.00000000000E+00 -0.45593999997E+02  0.45594000000E+02  0.51100000000E-03 0.  1.
    9900012    2    1    2    0    0 -0.25867232146E+02  0.17869429572E+02 -0.53188823857E+01  0.59301941574E+02  0.49999995525E+02 0.  0.
        -12    1    1    2    0    0  0.25867232146E+02 -0.17869429572E+02  0.53188823857E+01  0.31886058426E+02  0.00000000000E+00 0.  1.
         11    1    3    3    0    0 -0.36265701878E+01  0.15751836795E+02  0.15222356377E+01  0.16235441951E+02  0.51100000000E-03 0. -1.
        -11    1    3    3    0    0 -0.41607198121E+00  0.15146090614E+02  0.36234093215E+01  0.15579033095E+02  0.51100000000E-03 0.  1.
         12    1    3    3    0    0 -0.21824589977E+02 -0.13028497838E+02 -0.10464527345E+02  0.27487466528E+02  0.00000000000E+00 0. -1.
</event>
<event>
 7    1  0.6953847E-012  0.5930195E+02  0.7816164E-02  0.1266605E+00
        -11   -1    0    0    0    0  0.00000000000E+00  0.00000000000E+00  0.45593999997E+02  0.45594000000E+02  0.51100000000E-03 0.  1.
         11   -1    0    0    0    0 -0.00000000000E+00 -0.00000000000E+00 -0.45593999997E+02  0.45594000000E+02  0.51100000000E-03 0. -1.
    9900012    2    1    2    0    0  0.27130091122E+02  0.48645010649E+01 -0.16031680276E+02  0.59301953093E+02  0.50000016532E+02 0.  0.
        -12    1    1    2    0    0 -0.27130091122E+02 -0.48645010649E+01  0.16031680276E+02  0.31886046907E+02  0.00000000000E+00 0.  1.
         11    1    3    3    0    0  0.28948167700E+01  0.24962189075E+01 -0.13690585477E+02  0.14214190231E+02  0.51100000000E-03 0. -1.
        -11    1    3    3    0    0  0.19419167710E+02 -0.12186159886E+02 -0.13056754986E+02  0.26383430754E+02  0.51100000000E-03 0.  1.
        -12    1    3    3    0    0  0.48161066415E+01  0.14554442043E+02  0.10715660186E+02  0.18704332108E+02  0.00000000000E+00 0.  1.
</event>
<event>
 7    1  0.6953847E-012  0.5930197E+02  0.7816164E-02  0.1266605E+00
        -11   -1    0    0    0    0  0.00000000000E+00  0.00000000000E+00  0.45593999997E+02  0.45594000000E+02  0.51100000000E-03 0.  1.
         11   -1    0    0    0    0 -0.00000000000E+00 -0.00000000000E+00 -0.45593999997E+02  0.45594000000E+02  0.51100000000E-03 0. -1.
    9900012    2    1    2    0    0 -0.34434537881E+01  0.93545560535E+01 -0.30287850926E+02  0.59301968471E+02  0.50000044579E+02 0.  0.
        -12    1    1    2    0    0  0.34434537881E+01 -0.93545560535E+01  0.30287850926E+02  0.31886031529E+02  0.00000000000E+00 0.  1.
         11    1    3    3    0    0  0.84737483736E+01  0.73910382029E+01 -0.66078329727E+01  0.13042059426E+02  0.51100000000E-03 0. -1.
        -11    1    3    3    0    0  0.46099180851E+01  0.16458953736E+02 -0.14585708942E+02  0.22469788794E+02  0.51100000000E-03 0.  1.
         12    1    3    3    0    0 -0.16527120247E+02 -0.14495435886E+02 -0.90943090108E+01  0.23790120251E+02  0.00000000000E+00 0. -1.
</event>
<event>
 7    1  0.6953847E-012  0.5930195E+02  0.7816164E-02  0.1266605E+00
        -11   -1    0    0    0    0  0.00000000000E+00  0.00000000000E+00  0.45593999997E+02  0.45594000000E+02  0.51100000000E-03 0.  1.
         11   -1    0    0    0    0 -0.00000000000E+00 -0.00000000000E+00 -0.45593999997E+02  0.45594000000E+02  0.51100000000E-03 0. -1.
    9900012    2    1    2    0    0  0.30065239880E+02 -0.86562905591E+01 -0.61538600446E+01  0.59301952758E+02  0.50000015922E+02 0.  0.
        -12    1    1    2    0    0 -0.30065239880E+02  0.86562905591E+01  0.61538600446E+01  0.31886047242E+02  0.00000000000E+00 0.  1.
         11    1    3    3    0    0  0.21511746131E+02  0.10155391392E+02 -0.35102790323E+01  0.24045982098E+02  0.51100000000E-03 0. -1.
        -11    1    3    3    0    0  0.24558016591E+01 -0.46139618544E+01  0.12544297855E+02  0.13589665732E+02  0.51100000000E-03 0.  1.
        -12    1    3    3    0    0  0.60976920896E+01 -0.14197720096E+02 -0.15187878867E+02  0.21666304928E+02  0.00000000000E+00 0.  1.
</event>
<event>
 7    1  0.6953847E-012  0.5930196E+02  0.7816164E-02  0.1266605E+00
        -11   -1    0    0    0    0  0.00000000000E+00  0.00000000000E+00  0.45593999997E+02  0.45594000000E+02  0.51100000000E-03 0. -1.
         11   -1    0    0    0    0 -0.00000000000E+00 -0.00000000000E+00 -0.45593999997E+02  0.45594000000E+02  0.51100000000E-03 0.  1.
    9900012    2    1    2    0    0  0.25545539337E+02 -0.18847641272E+02 -0.29851613782E+01  0.59301963087E+02  0.50000034760E+02 0.  0.
        -12    1    1    2    0    0 -0.25545539337E+02  0.18847641272E+02  0.29851613782E+01  0.31886036913E+02  0.00000000000E+00 0.  1.
         11    1    3    3    0    0  0.50324137844E+01 -0.24350955640E+02  0.25425046142E+01  0.24995170714E+02  0.51100000000E-03 0. -1.
        -11    1    3    3    0    0  0.24297855601E+02 -0.25271106387E+01 -0.67527549497E+01  0.25345054245E+02  0.51100000000E-03 0.  1.
        -12    1    3    3    0    0 -0.37847300485E+01  0.80304250064E+01  0.12250889573E+01  0.89617381281E+01  0.00000000000E+00 0.  1.
</event>
<event>
 7    1  0.6953847E-012  0.5930194E+02  0.7816164E-02  0.1266605E+00
        -11   -1    0    0    0    0  0.00000000000E+00  0.00000000000E+00  0.45593999997E+02  0.45594000000E+02  0.51100000000E-03 0.  1.
         11   -1    0    0    0    0 -0.00000000000E+00 -0.00000000000E+00 -0.45593999997E+02  0.45594000000E+02  0.51100000000E-03 0. -1.
    9900012    2    1    2    0    0  0.11687428066E+02  0.31894473355E+01 -0.29494951691E+02  0.59301941536E+02  0.49999995456E+02 0.  0.
        -12    1    1    2    0    0 -0.11687428066E+02 -0.31894473355E+01  0.29494951691E+02  0.31886058464E+02  0.00000000000E+00 0.  1.
         11    1    3    3    0    0  0.10982411007E+02 -0.77461497445E+01 -0.36964827120E+01  0.13938442241E+02  0.51100000000E-03 0. -1.
        -11    1    3    3    0    0  0.15647054723E+02  0.14562725616E+02 -0.18813016850E+02  0.28475127781E+02  0.51100000000E-03 0.  1.
        -12    1    3    3    0    0 -0.14942037665E+02 -0.36271285358E+01 -0.69854521290E+01  0.16888371515E+02  0.00000000000E+00 0.  1.
</event>
<event>
 7    1  0.6953847E-012  0.5930193E+02  0.7816164E-02  0.1266605E+00
        -11   -1    0    0    0    0  0.00000000000E+00  0.00000000000E+00  0.45593999997E+02  0.45594000000E+02  0.51100000000E-03 0.  1.
         11   -1    0    0    0    0 -0.00000000000E+00 -0.00000000000E+00 -0.45593999997E+02  0.45594000000E+02  0.51100000000E-03 0. -1.
    9900012    2    1    2    0    0 -0.24433576428E+02  0.44970028790E+01 -0.19987468191E+02  0.59301928171E+02  0.49999971082E+02 0.  0.
        -12    1    1    2    0    0  0.24433576428E+02 -0.44970028790E+01  0.19987468191E+02  0.31886071829E+02  0.00000000000E+00 0.  1.
         11    1    3    3    0    0  0.40763845579E+00  0.15785669635E+02 -0.56212905108E+01  0.16761636024E+02  0.51100000000E-03 0. -1.
        -11    1    3    3    0    0 -0.60003925600E+01  0.18955515737E+01  0.81903184268E+01  0.10328559572E+02  0.51100000000E-03 0.  1.
         12    1    3    3    0    0 -0.18840822324E+02 -0.13184218330E+02 -0.22556496107E+02  0.32211732575E+02  0.00000000000E+00 0. -1.
</event>
<event>
 7    1  0.6953847E-012  0.5930194E+02  0.7816164E-02  0.1266605E+00
        -11   -1    0    0    0    0  0.00000000000E+00  0.00000000000E+00  0.45593999997E+02  0.45594000000E+02  0.51100000000E-03 0. -1.
         11   -1    0    0    0    0 -0.00000000000E+00 -0.00000000000E+00 -0.45593999997E+02  0.45594000000E+02  0.51100000000E-03 0.  1.
    9900012    2    1    2    0    0 -0.23948943095E+02 -0.15067087859E+02  0.14702106217E+02  0.59301938169E+02  0.49999989314E+02 0.  0.
        -12    1    1    2    0    0  0.23948943095E+02  0.15067087859E+02 -0.14702106217E+02  0.31886061831E+02  0.00000000000E+00 0.  1.
         11    1    3    3    0    0  0.68702454396E+00 -0.43363267190E+01 -0.23306874630E+00  0.43965956648E+01  0.51100000000E-03 0. -1.
        -11    1    3    3    0    0 -0.18751866793E+00 -0.22359719986E+02 -0.28076875283E+01  0.22536089959E+02  0.51100000000E-03 0.  1.
        -12    1    3    3    0    0 -0.24448448971E+02  0.11628958846E+02  0.17742862492E+02  0.32369252545E+02  0.00000000000E+00 0.  1.
</event>
<event>
 7    1  0.6953847E-012  0.5930193E+02  0.7816164E-02  0.1266605E+00
        -11   -1    0    0    0    0  0.00000000000E+00  0.00000000000E+00  0.45593999997E+02  0.45594000000E+02  0.51100000000E-03 0.  1.
         11   -1    0    0    0    0 -0.00000000000E+00 -0.00000000000E+00 -0.45593999997E+02  0.45594000000E+02  0.51100000000E-03 0. -1.
    9900012    2    1    2    0    0 -0.53653749247E+01 -0.14182499261E+01 -0.31399402430E+02  0.59301934800E+02  0.49999983172E+02 0.  0.
        -12    1    1    2    0    0  0.53653749247E+01  0.14182499261E+01  0.31399402430E+02  0.31886065200E+02  0.00000000000E+00 0.  1.
         11    1    3    3    0    0  0.18486641344E+02 -0.10749236881E+02 -0.10462252755E+02  0.23806737170E+02  0.51100000000E-03 0. -1.
        -11    1    3    3    0    0  0.11482358485E+01  0.40847330311E+00  0.55639182177E+00  0.13397268839E+01  0.51100000000E-03 0.  1.
         12    1    3    3    0    0 -0.25000252118E+02  0.89225136519E+01 -0.21493541497E+02  0.34155470746E+02  0.00000000000E+00 0. -1.
</event>
<event>
 7    1  0.6953847E-012  0.5930195E+02  0.7816164E-02  0.1266605E+00
        -11   -1    0    0    0    0  0.00000000000E+00  0.00000000000E+00  0.45593999997E+02  0.45594000000E+02  0.51100000000E-03 0. -1.
         11   -1    0    0    0    0 -0.00000000000E+00 -0.00000000000E+00 -0.45593999997E+02  0.45594000000E+02  0.51100000000E-03 0.  1.
    9900012    2    1    2    0    0  0.28676694315E+02 -0.87719741252E+01  0.10836031838E+02  0.59301954260E+02  0.50000018662E+02 0.  0.
        -12    1    1    2    0    0 -0.28676694315E+02  0.87719741252E+01 -0.10836031838E+02  0.31886045740E+02  0.00000000000E+00 0.  1.
         11    1    3    3    0    0  0.18849856393E+02 -0.23893263583E+02 -0.69051547619E+01  0.31207151315E+02  0.51100000000E-03 0.  1.
        -11    1    3    3    0    0  0.75423247854E-01 -0.89961378441E-01  0.71499482195E+01  0.71509119361E+01  0.51100000000E-03 0. -1.
        -12    1    3    3    0    0  0.97514146746E+01  0.15211250836E+02  0.10591238381E+02  0.20943891009E+02  0.00000000000E+00 0.  1.
</event>
<event>
 7    1  0.6953847E-012  0.5930192E+02  0.7816164E-02  0.1266605E+00
        -11   -1    0    0    0    0  0.00000000000E+00  0.00000000000E+00  0.45593999997E+02  0.45594000000E+02  0.51100000000E-03 0. -1.
         11   -1    0    0    0    0 -0.00000000000E+00 -0.00000000000E+00 -0.45593999997E+02  0.45594000000E+02  0.51100000000E-03 0.  1.
    9900012    2    1    2    0    0 -0.10204470915E+02  0.26392013285E+02  0.14698721527E+02  0.59301921432E+02  0.49999958791E+02 0.  0.
        -12    1    1    2    0    0  0.10204470915E+02 -0.26392013285E+02 -0.14698721527E+02  0.31886078568E+02  0.00000000000E+00 0.  1.
         11    1    3    3    0    0  0.15037237677E+01  0.14506416439E+02  0.34263843511E+01  0.14981235364E+02  0.51100000000E-03 0. -1.
        -11    1    3    3    0    0 -0.26009930598E+01 -0.14746441152E+01 -0.14001556414E+02  0.14317238646E+02  0.51100000000E-03 0.  1.
         12    1    3    3    0    0 -0.91072016226E+01  0.13360240962E+02  0.25273893591E+02  0.30003447422E+02  0.00000000000E+00 0. -1.
</event>
<event>
 7    1  0.6953847E-012  0.5930193E+02  0.7816164E-02  0.1266605E+00
        -11   -1    0    0    0    0  0.00000000000E+00  0.00000000000E+00  0.45593999997E+02  0.45594000000E+02  0.51100000000E-03 0.  1.
         11   -1    0    0    0    0 -0.00000000000E+00 -0.00000000000E+00 -0.45593999997E+02  0.45594000000E+02  0.51100000000E-03 0. -1.
    9900012    2    1    2    0    0  0.27480434730E+02 -0.80242392869E+01 -0.14041327616E+02  0.59301927957E+02  0.49999970692E+02 0.  0.
        -12    1    1    2    0    0 -0.27480434730E+02  0.80242392869E+01  0.14041327616E+02  0.31886072043E+02  0.00000000000E+00 0.  1.
         11    1    3    3    0    0  0.11381143158E+02 -0.14981529674E+02  0.25575299911E+00  0.18816005442E+02  0.51100000000E-03 0. -1.
        -11    1    3    3    0    0 -0.12642662326E+01  0.21773245122E+01  0.99605166492E+01  0.10273801795E+02  0.51100000000E-03 0.  1.
         12    1    3    3    0    0  0.17363557805E+02  0.47799658744E+01 -0.24257597264E+02  0.30212120721E+02  0.00000000000E+00 0. -1.
</event>
<event>
 7    1  0.6953847E-012  0.5930194E+02  0.7816164E-02  0.1266605E+00
        -11   -1    0    0    0    0  0.00000000000E+00  0.00000000000E+00  0.45593999997E+02  0.45594000000E+02  0.51100000000E-03 0.  1.
         11   -1    0    0    0    0 -0.00000000000E+00 -0.00000000000E+00 -0.45593999997E+02  0.45594000000E+02  0.51100000000E-03 0. -1.
    9900012    2    1    2    0    0  0.19156362474E+02 -0.58561298496E+01 -0.24808474451E+02  0.59301939023E+02  0.49999990873E+02 0.  0.
        -12    1    1    2    0    0 -0.19156362474E+02  0.58561298496E+01  0.24808474451E+02  0.31886060977E+02  0.00000000000E+00 0.  1.
         11    1    3    3    0    0  0.27388666646E+02 -0.13446522400E+02 -0.25419647833E+02  0.39712800474E+02  0.51100000000E-03 0. -1.
        -11    1    3    3    0    0  0.21176236247E+01  0.75753102632E+01  0.38321660660E+01  0.87495801281E+01  0.51100000000E-03 0.  1.
        -12    1    3    3    0    0 -0.10349927797E+02  0.15082287083E-01 -0.32209926839E+01  0.10839558420E+02  0.00000000000E+00 0.  1.
</event>
<event>
 7    1  0.6953847E-012  0.5930194E+02  0.7816164E-02  0.1266605E+00
        -11   -1    0    0    0    0  0.00000000000E+00  0.00000000000E+00  0.45593999997E+02  0.45594000000E+02  0.51100000000E-03 0.  1.
         11   -1    0    0    0    0 -0.00000000000E+00 -0.00000000000E+00 -0.45593999997E+02  0.45594000000E+02  0.51100000000E-03 0. -1.
    9900012    2    1    2    0    0  0.48096091895E+01 -0.89117355067E+01 -0.30235236659E+02  0.59301938686E+02  0.49999990257E+02 0.  0.
        -12    1    1    2    0    0 -0.48096091895E+01  0.89117355067E+01  0.30235236659E+02  0.31886061314E+02  0.00000000000E+00 0.  1.
         11    1    3    3    0    0 -0.54326417060E+01 -0.14672203687E+02 -0.39947558091E+01  0.16147607600E+02  0.51100000000E-03 0. -1.
        -11    1    3    3    0    0 -0.52871491282E+01 -0.10386198530E+02 -0.68031268535E+01  0.13494799037E+02  0.51100000000E-03 0.  1.
        -12    1    3    3    0    0  0.15529400024E+02  0.16146666711E+02 -0.19437353997E+02  0.29659532049E+02  0.00000000000E+00 0.  1.
</event>
<event>
 7    1  0.6953847E-012  0.5930194E+02  0.7816164E-02  0.1266605E+00
        -11   -1    0    0    0    0  0.00000000000E+00  0.00000000000E+00  0.45593999997E+02  0.45594000000E+02  0.51100000000E-03 0.  1.
         11   -1    0    0    0    0 -0.00000000000E+00 -0.00000000000E+00 -0.45593999997E+02  0.45594000000E+02  0.51100000000E-03 0. -1.
    9900012    2    1    2    0    0 -0.27890613802E+02 -0.15022308601E+02 -0.36283455936E+01  0.59301937438E+02  0.49999987982E+02 0.  0.
        -12    1    1    2    0    0  0.27890613802E+02  0.15022308601E+02  0.36283455936E+01  0.31886062562E+02  0.00000000000E+00 0.  1.
         11    1    3    3    0    0 -0.43066938851E+01  0.83163042919E+01  0.19701791298E+01  0.95702735259E+01  0.51100000000E-03 0. -1.
        -11    1    3    3    0    0  0.78846852787E+01 -0.13699504697E+02 -0.57490943793E+01  0.16819535586E+02  0.51100000000E-03 0.  1.
         12    1    3    3    0    0 -0.31468605195E+02 -0.96391081964E+01  0.15056965590E+00  0.32912128327E+02  0.00000000000E+00 0. -1.
</event>
<event>
 7    1  0.6953847E-012  0.5930189E+02  0.7816164E-02  0.1266605E+00
        -11   -1    0    0    0    0  0.00000000000E+00  0.00000000000E+00  0.45593999997E+02  0.45594000000E+02  0.51100000000E-03 0.  1.
         11   -1    0    0    0    0 -0.00000000000E+00 -0.00000000000E+00 -0.45593999997E+02  0.45594000000E+02  0.51100000000E-03 0. -1.
    9900012    2    1    2    0    0 -0.92991011487E+01  0.29326513180E+02 -0.83789216137E+01  0.59301890408E+02  0.49999902211E+02 0.  0.
        -12    1    1    2    0    0  0.92991011487E+01 -0.29326513180E+02  0.83789216137E+01  0.31886109592E+02  0.00000000000E+00 0.  1.
         11    1    3    3    0    0 -0.67281133624E+01  0.98914658406E+01  0.27091396420E+01  0.12265726385E+02  0.51100000000E-03 0. -1.
        -11    1    3    3    0    0 -0.59276125788E+01  0.11471978896E+02  0.14860203931E+02  0.19686760826E+02  0.51100000000E-03 0.  1.
         12    1    3    3    0    0  0.33566247925E+01  0.79630684437E+01 -0.25948265187E+02  0.27349403197E+02  0.00000000000E+00 0. -1.
</event>
<event>
 7    1  0.6953847E-012  0.5930193E+02  0.7816164E-02  0.1266605E+00
        -11   -1    0    0    0    0  0.00000000000E+00  0.00000000000E+00  0.45593999997E+02  0.45594000000E+02  0.51100000000E-03 0.  1.
         11   -1    0    0    0    0 -0.00000000000E+00 -0.00000000000E+00 -0.45593999997E+02  0.45594000000E+02  0.51100000000E-03 0. -1.
    9900012    2    1    2    0    0 -0.22897754412E+02 -0.14124072978E+02 -0.17115049114E+02  0.59301929362E+02  0.49999973252E+02 0.  0.
        -12    1    1    2    0    0  0.22897754412E+02  0.14124072978E+02  0.17115049114E+02  0.31886070638E+02  0.00000000000E+00 0.  1.
         11    1    3    3    0    0 -0.51227981118E+01 -0.79547635505E+01 -0.45620972468E+01  0.10504001865E+02  0.51100000000E-03 0. -1.
        -11    1    3    3    0    0  0.13116424152E+02 -0.25281972654E+01  0.34800750331E+01  0.13803741756E+02  0.51100000000E-03 0.  1.
         12    1    3    3    0    0 -0.30891380453E+02 -0.36411121616E+01 -0.16033026900E+02  0.34994185740E+02  0.00000000000E+00 0. -1.
</event>
<event>
 7    1  0.6953847E-012  0.5930195E+02  0.7816164E-02  0.1266605E+00
        -11   -1    0    0    0    0  0.00000000000E+00  0.00000000000E+00  0.45593999997E+02  0.45594000000E+02  0.51100000000E-03 0.  1.
         11   -1    0    0    0    0 -0.00000000000E+00 -0.00000000000E+00 -0.45593999997E+02  0.45594000000E+02  0.51100000000E-03 0. -1.
    9900012    2    1    2    0    0 -0.16110434021E+02 -0.17177246791E+01 -0.27463131488E+02  0.59301948919E+02  0.50000008920E+02 0.  0.
        -12    1    1    2    0    0  0.16110434021E+02  0.17177246791E+01  0.27463131488E+02  0.31886051081E+02  0.00000000000E+00 0.  1.
         11    1    3    3    0    0 -0.14679440677E+02 -0.92293979001E+01 -0.32419155790E+02  0.36765057141E+02  0.51100000000E-03 0. -1.
        -11    1    3    3    0    0 -0.57662359184E+01 -0.61508208546E+00 -0.59184164275E+01  0.82858587913E+01  0.51100000000E-03 0.  1.
         12    1    3    3    0    0  0.43352425744E+01  0.81267553064E+01  0.10874440730E+02  0.14251032986E+02  0.00000000000E+00 0. -1.
</event>
<event>
 7    1  0.6953847E-012  0.5930195E+02  0.7816164E-02  0.1266605E+00
        -11   -1    0    0    0    0  0.00000000000E+00  0.00000000000E+00  0.45593999997E+02  0.45594000000E+02  0.51100000000E-03 0.  1.
         11   -1    0    0    0    0 -0.00000000000E+00 -0.00000000000E+00 -0.45593999997E+02  0.45594000000E+02  0.51100000000E-03 0. -1.
    9900012    2    1    2    0    0  0.14203265108E+02 -0.49759926429E+01 -0.28110975886E+02  0.59301949637E+02  0.50000010230E+02 0.  0.
        -12    1    1    2    0    0 -0.14203265108E+02  0.49759926429E+01  0.28110975886E+02  0.31886050363E+02  0.00000000000E+00 0.  1.
         11    1    3    3    0    0  0.92590452384E+01  0.96964994427E+01 -0.25112911667E+01  0.13640330046E+02  0.51100000000E-03 0. -1.
        -11    1    3    3    0    0 -0.56724805378E+01  0.59004569523E+01  0.31318648535E+01  0.87636182836E+01  0.51100000000E-03 0.  1.
        -12    1    3    3    0    0  0.10616700408E+02 -0.20572949038E+02 -0.28731549572E+02  0.36898001308E+02  0.00000000000E+00 0.  1.
</event>
<event>
 7    1  0.7008490E-012  0.5930190E+02  0.7816164E-02  0.1266605E+00
        -11   -1    0    0    0    0  0.00000000000E+00  0.00000000000E+00  0.45593999997E+02  0.45594000000E+02  0.51100000000E-03 0. -1.
         11   -1    0    0    0    0 -0.00000000000E+00 -0.00000000000E+00 -0.45593999997E+02  0.45594000000E+02  0.51100000000E-03 0.  1.
    9900012    2    1    2    0    0  0.27748828866E+02 -0.86699747504E+01  0.13097999044E+02  0.59301897313E+02  0.49999914803E+02 0.  0.
        -12    1    1    2    0    0 -0.27748828866E+02  0.86699747504E+01 -0.13097999044E+02  0.31886102687E+02  0.00000000000E+00 0.  1.
         11    1    3    3    0    0  0.19115529059E+02  0.21724939121E+01  0.17875989698E+02  0.26261648634E+02  0.51100000000E-03 0. -1.
        -11    1    3    3    0    0 -0.43197494475E+01  0.66041996334E+01  0.48614158745E+01  0.92687136460E+01  0.51100000000E-03 0.  1.
        -12    1    3    3    0    0  0.12953049254E+02 -0.17446668296E+02 -0.96394065287E+01  0.23771535033E+02  0.00000000000E+00 0.  1.
</event>
<event>
 7    1  0.6953847E-012  0.5930192E+02  0.7816164E-02  0.1266605E+00
        -11   -1    0    0    0    0  0.00000000000E+00  0.00000000000E+00  0.45593999997E+02  0.45594000000E+02  0.51100000000E-03 0.  1.
         11   -1    0    0    0    0 -0.00000000000E+00 -0.00000000000E+00 -0.45593999997E+02  0.45594000000E+02  0.51100000000E-03 0. -1.
    9900012    2    1    2    0    0 -0.10023575794E+02  0.18249307045E+02 -0.24149803477E+02  0.59301917028E+02  0.49999950759E+02 0.  0.
        -12    1    1    2    0    0  0.10023575794E+02 -0.18249307045E+02  0.24149803477E+02  0.31886082972E+02  0.00000000000E+00 0.  1.
         11    1    3    3    0    0 -0.15970397724E+02 -0.52921053689E+01  0.41950363989E+00  0.16829615749E+02  0.51100000000E-03 0.  1.
        -11    1    3    3    0    0 -0.96034349341E+01  0.95696976729E+01 -0.11817881355E+02  0.17985199361E+02  0.51100000000E-03 0. -1.
        -12    1    3    3    0    0  0.15550256864E+02  0.13971714741E+02 -0.12751425762E+02  0.24487101917E+02  0.00000000000E+00 0.  1.
</event>
<event>
 7    1  0.6953847E-012  0.5930186E+02  0.7816164E-02  0.1266605E+00
        -11   -1    0    0    0    0  0.00000000000E+00  0.00000000000E+00  0.45593999997E+02  0.45594000000E+02  0.51100000000E-03 0.  1.
         11   -1    0    0    0    0 -0.00000000000E+00 -0.00000000000E+00 -0.45593999997E+02  0.45594000000E+02  0.51100000000E-03 0. -1.
    9900012    2    1    2    0    0 -0.48039143096E+01 -0.22660354269E+02 -0.21912480790E+02  0.59301857828E+02  0.49999842792E+02 0.  0.
        -12    1    1    2    0    0  0.48039143096E+01  0.22660354269E+02  0.21912480790E+02  0.31886142172E+02  0.00000000000E+00 0.  1.
         11    1    3    3    0    0 -0.16779866401E+01  0.16313131520E+01 -0.12723226802E+01  0.26637618189E+01  0.51100000000E-03 0. -1.
        -11    1    3    3    0    0 -0.32187779065E+01  0.62208121321E+01  0.10770145204E+02  0.12847375715E+02  0.51100000000E-03 0.  1.
         12    1    3    3    0    0  0.92850236898E-01 -0.30512479553E+02 -0.31410303313E+02  0.43790720294E+02  0.00000000000E+00 0. -1.
</event>
<event>
 7    1  0.6953847E-012  0.5930195E+02  0.7816164E-02  0.1266605E+00
        -11   -1    0    0    0    0  0.00000000000E+00  0.00000000000E+00  0.45593999997E+02  0.45594000000E+02  0.51100000000E-03 0.  1.
         11   -1    0    0    0    0 -0.00000000000E+00 -0.00000000000E+00 -0.45593999997E+02  0.45594000000E+02  0.51100000000E-03 0. -1.
    9900012    2    1    2    0    0 -0.14562708709E+02 -0.11800229451E+01 -0.28341762514E+02  0.59301945972E+02  0.50000003545E+02 0.  0.
        -12    1    1    2    0    0  0.14562708709E+02  0.11800229451E+01  0.28341762514E+02  0.31886054028E+02  0.00000000000E+00 0.  1.
         11    1    3    3    0    0 -0.70457672136E+01 -0.91178063132E+01 -0.18197144415E+02  0.21538646492E+02  0.51100000000E-03 0. -1.
        -11    1    3    3    0    0 -0.91502032029E+01 -0.78389013534E+01 -0.16706852577E+02  0.20598386257E+02  0.51100000000E-03 0.  1.
        -12    1    3    3    0    0  0.16332617071E+01  0.15776684722E+02  0.65622344781E+01  0.17164913223E+02  0.00000000000E+00 0.  1.
</event>
<event>
 7    1  0.6953847E-012  0.5930195E+02  0.7816164E-02  0.1266605E+00
        -11   -1    0    0    0    0  0.00000000000E+00  0.00000000000E+00  0.45593999997E+02  0.45594000000E+02  0.51100000000E-03 0.  1.
         11   -1    0    0    0    0 -0.00000000000E+00 -0.00000000000E+00 -0.45593999997E+02  0.45594000000E+02  0.51100000000E-03 0. -1.
    9900012    2    1    2    0    0  0.54548568276E+01  0.19011462859E+02 -0.25010578476E+02  0.59301949464E+02  0.50000009915E+02 0.  0.
        -12    1    1    2    0    0 -0.54548568276E+01 -0.19011462859E+02  0.25010578476E+02  0.31886050536E+02  0.00000000000E+00 0.  1.
         11    1    3    3    0    0 -0.10697477835E+01 -0.85846446404E+01 -0.57272012306E+01  0.10375033403E+02  0.51100000000E-03 0. -1.
        -11    1    3    3    0    0  0.58564760274E+01  0.37777983910E+01 -0.23691174783E+02  0.24694975906E+02  0.51100000000E-03 0.  1.
        -12    1    3    3    0    0  0.66812858368E+00  0.23818309108E+02  0.44077975369E+01  0.24231940155E+02  0.00000000000E+00 0.  1.
</event>
<event>
 7    1  0.6953847E-012  0.5930206E+02  0.7816164E-02  0.1266604E+00
        -11   -1    0    0    0    0  0.00000000000E+00  0.00000000000E+00  0.45593999997E+02  0.45594000000E+02  0.51100000000E-03 0.  1.
         11   -1    0    0    0    0 -0.00000000000E+00 -0.00000000000E+00 -0.45593999997E+02  0.45594000000E+02  0.51100000000E-03 0. -1.
    9900012    2    1    2    0    0 -0.24631204762E+02  0.18836729314E+02  0.74293154420E+01  0.59302057216E+02  0.50000206428E+02 0.  0.
        -12    1    1    2    0    0  0.24631204762E+02 -0.18836729314E+02 -0.74293154420E+01  0.31885942784E+02  0.00000000000E+00 0.  1.
         11    1    3    3    0    0  0.11660426909E+01 -0.34619078309E+01  0.46036688204E+00  0.36819015893E+01  0.51100000000E-03 0. -1.
        -11    1    3    3    0    0 -0.10073105465E+02 -0.84707676485E+01  0.15192619302E+02  0.20100672620E+02  0.51100000000E-03 0.  1.
         12    1    3    3    0    0 -0.15724141988E+02  0.30769404794E+02 -0.82236707420E+01  0.35519483007E+02  0.00000000000E+00 0. -1.
</event>
<event>
 7    1  0.6953847E-012  0.5930203E+02  0.7816164E-02  0.1266604E+00
        -11   -1    0    0    0    0  0.00000000000E+00  0.00000000000E+00  0.45593999997E+02  0.45594000000E+02  0.51100000000E-03 0.  1.
         11   -1    0    0    0    0 -0.00000000000E+00 -0.00000000000E+00 -0.45593999997E+02  0.45594000000E+02  0.51100000000E-03 0. -1.
    9900012    2    1    2    0    0  0.28055493933E+02  0.63022260115E+01 -0.13779921598E+02  0.59302030801E+02  0.50000158254E+02 0.  0.
        -12    1    1    2    0    0 -0.28055493933E+02 -0.63022260115E+01  0.13779921598E+02  0.31885969199E+02  0.00000000000E+00 0.  1.
         11    1    3    3    0    0  0.64274744633E+01  0.17620215405E+02 -0.22260328201E+02  0.29108531924E+02  0.51100000000E-03 0. -1.
        -11    1    3    3    0    0 -0.22655698267E+01 -0.15941780424E+01  0.24577446462E+01  0.37033389364E+01  0.51100000000E-03 0.  1.
        -12    1    3    3    0    0  0.23893589296E+02 -0.97238113511E+01  0.60226619569E+01  0.26490159941E+02  0.00000000000E+00 0.  1.
</event>
<event>
 7    1  0.6953847E-012  0.5930191E+02  0.7816164E-02  0.1266605E+00
        -11   -1    0    0    0    0  0.00000000000E+00  0.00000000000E+00  0.45593999997E+02  0.45594000000E+02  0.51100000000E-03 0. -1.
         11   -1    0    0    0    0 -0.00000000000E+00 -0.00000000000E+00 -0.45593999997E+02  0.45594000000E+02  0.51100000000E-03 0.  1.
    9900012    2    1    2    0    0 -0.17995056288E+02  0.23439095851E+02  0.11979554084E+02  0.59301906147E+02  0.49999930914E+02 0.  0.
        -12    1    1    2    0    0  0.17995056288E+02 -0.23439095851E+02 -0.11979554084E+02  0.31886093853E+02  0.00000000000E+00 0.  1.
         11    1    3    3    0    0 -0.10605105741E+02  0.24927029227E+02  0.20459851552E+02  0.33947467942E+02  0.51100000000E-03 0. -1.
        -11    1    3    3    0    0 -0.15062256209E+02 -0.43796909137E+01 -0.58971960857E+01  0.16757988440E+02  0.51100000000E-03 0.  1.
        -12    1    3    3    0    0  0.76723056615E+01  0.28917575377E+01 -0.25831013816E+01  0.85964497654E+01  0.00000000000E+00 0.  1.
</event>
<event>
 7    1  0.6953847E-012  0.5930194E+02  0.7816164E-02  0.1266605E+00
        -11   -1    0    0    0    0  0.00000000000E+00  0.00000000000E+00  0.45593999997E+02  0.45594000000E+02  0.51100000000E-03 0.  1.
         11   -1    0    0    0    0 -0.00000000000E+00 -0.00000000000E+00 -0.45593999997E+02  0.45594000000E+02  0.51100000000E-03 0. -1.
    9900012    2    1    2    0    0 -0.23579366744E+01  0.27013046209E+02 -0.16776663914E+02  0.59301937481E+02  0.49999988061E+02 0.  0.
        -12    1    1    2    0    0  0.23579366744E+01 -0.27013046209E+02  0.16776663914E+02  0.31886062519E+02  0.00000000000E+00 0.  1.
         11    1    3    3    0    0 -0.38885923055E+01 -0.41362285919E+01 -0.18515797966E+02  0.19366577179E+02  0.51100000000E-03 0. -1.
        -11    1    3    3    0    0 -0.22714226696E+01 -0.29998609152E+01 -0.35469131276E+01  0.51709882470E+01  0.51100000000E-03 0.  1.
        -12    1    3    3    0    0  0.38020783007E+01  0.34149135716E+02  0.52860471798E+01  0.34764372055E+02  0.00000000000E+00 0.  1.
</event>
<event>
 7    1  0.6953847E-012  0.5930195E+02  0.7816164E-02  0.1266605E+00
        -11   -1    0    0    0    0  0.00000000000E+00  0.00000000000E+00  0.45593999997E+02  0.45594000000E+02  0.51100000000E-03 0. -1.
         11   -1    0    0    0    0 -0.00000000000E+00 -0.00000000000E+00 -0.45593999997E+02  0.45594000000E+02  0.51100000000E-03 0.  1.
    9900012    2    1    2    0    0  0.10434186325E+02  0.16792208201E+02  0.25017386544E+02  0.59301950856E+02  0.50000012453E+02 0.  0.
        -12    1    1    2    0    0 -0.10434186325E+02 -0.16792208201E+02 -0.25017386544E+02  0.31886049144E+02  0.00000000000E+00 0.  1.
         11    1    3    3    0    0  0.10101205500E+02  0.33075764434E+01 -0.34301247498E+01  0.11168713916E+02  0.51100000000E-03 0. -1.
        -11    1    3    3    0    0 -0.87606303652E+00  0.19100504202E+02  0.92612183395E-02  0.19120586634E+02  0.51100000000E-03 0.  1.
        -12    1    3    3    0    0  0.12090438615E+01 -0.56158724449E+01  0.28438250075E+02  0.29012650305E+02  0.00000000000E+00 0.  1.
</event>
<event>
 7    1  0.6953847E-012  0.5930192E+02  0.7816164E-02  0.1266605E+00
        -11   -1    0    0    0    0  0.00000000000E+00  0.00000000000E+00  0.45593999997E+02  0.45594000000E+02  0.51100000000E-03 0.  1.
         11   -1    0    0    0    0 -0.00000000000E+00 -0.00000000000E+00 -0.45593999997E+02  0.45594000000E+02  0.51100000000E-03 0. -1.
    9900012    2    1    2    0    0  0.66117546882E+01  0.18462710366E+02 -0.25142293333E+02  0.59301923287E+02  0.49999962174E+02 0.  0.
        -12    1    1    2    0    0 -0.66117546882E+01 -0.18462710366E+02  0.25142293333E+02  0.31886076713E+02  0.00000000000E+00 0.  1.
         11    1    3    3    0    0 -0.11596394682E+01  0.19074895238E+02 -0.13302579826E+02  0.23284222605E+02  0.51100000000E-03 0. -1.
        -11    1    3    3    0    0  0.10422960596E+02  0.96889848329E+01  0.58418793614E+01  0.15383175531E+02  0.51100000000E-03 0.  1.
         12    1    3    3    0    0 -0.26515664399E+01 -0.10301169705E+02 -0.17681592868E+02  0.20634525152E+02  0.00000000000E+00 0. -1.
</event>
<event>
 7    1  0.6953847E-012  0.5930194E+02  0.7816164E-02  0.1266605E+00
        -11   -1    0    0    0    0  0.00000000000E+00  0.00000000000E+00  0.45593999997E+02  0.45594000000E+02  0.51100000000E-03 0.  1.
         11   -1    0    0    0    0 -0.00000000000E+00 -0.00000000000E+00 -0.45593999997E+02  0.45594000000E+02  0.51100000000E-03 0. -1.
    9900012    2    1    2    0    0 -0.21237765589E+02  0.19080935571E+01 -0.23707321890E+02  0.59301943182E+02  0.49999998457E+02 0.  0.
        -12    1    1    2    0    0  0.21237765589E+02 -0.19080935571E+01  0.23707321890E+02  0.31886056818E+02  0.00000000000E+00 0.  1.
         11    1    3    3    0    0  0.43324030472E+01 -0.58967698851E+01 -0.20163644539E+01  0.75899497438E+01  0.51100000000E-03 0. -1.
        -11    1    3    3    0    0  0.33121965323E+01  0.10778104558E+02  0.49430604444E+01  0.12311459319E+02  0.51100000000E-03 0.  1.
         12    1    3    3    0    0 -0.28882365168E+02 -0.29732411160E+01 -0.26634017880E+02  0.39400534119E+02  0.00000000000E+00 0. -1.
</event>
<event>
 7    1  0.6953847E-012  0.5930191E+02  0.7816164E-02  0.1266605E+00
        -11   -1    0    0    0    0  0.00000000000E+00  0.00000000000E+00  0.45593999997E+02  0.45594000000E+02  0.51100000000E-03 0. -1.
         11   -1    0    0    0    0 -0.00000000000E+00 -0.00000000000E+00 -0.45593999997E+02  0.45594000000E+02  0.51100000000E-03 0.  1.
    9900012    2    1    2    0    0  0.14888726832E+02  0.28191975684E+02  0.51104010247E+00  0.59301908335E+02  0.49999934906E+02 0.  0.
        -12    1    1    2    0    0 -0.14888726832E+02 -0.28191975684E+02 -0.51104010247E+00  0.31886091665E+02  0.00000000000E+00 0.  1.
         11    1    3    3    0    0 -0.75638968496E+01  0.15141119133E+02  0.55680623044E+01  0.17817669383E+02  0.51100000000E-03 0. -1.
        -11    1    3    3    0    0 -0.50641207790E+01  0.77122690864E+01  0.63731517740E+01  0.11213450741E+02  0.51100000000E-03 0.  1.
        -12    1    3    3    0    0  0.27516744460E+02  0.53385874646E+01 -0.11430173976E+02  0.30270788211E+02  0.00000000000E+00 0.  1.
</event>
<event>
 7    1  0.6953847E-012  0.5930195E+02  0.7816164E-02  0.1266605E+00
        -11   -1    0    0    0    0  0.00000000000E+00  0.00000000000E+00  0.45593999997E+02  0.45594000000E+02  0.51100000000E-03 0.  1.
         11   -1    0    0    0    0 -0.00000000000E+00 -0.00000000000E+00 -0.45593999997E+02  0.45594000000E+02  0.51100000000E-03 0. -1.
    9900012    2    1    2    0    0 -0.14443505460E+02 -0.26142651170E+02 -0.11165454475E+02  0.59301946092E+02  0.50000003765E+02 0.  0.
        -12    1    1    2    0    0  0.14443505460E+02  0.26142651170E+02  0.11165454475E+02  0.31886053908E+02  0.00000000000E+00 0.  1.
         11    1    3    3    0    0 -0.96829364121E+01 -0.15864805860E+02 -0.69205498219E+01  0.19832935553E+02  0.51100000000E-03 0. -1.
        -11    1    3    3    0    0 -0.17350471931E+02  0.48992974387E+01  0.33502692797E+01  0.18337565163E+02  0.51100000000E-03 0.  1.
        -12    1    3    3    0    0  0.12589902883E+02 -0.15177142749E+02 -0.75951739326E+01  0.21131445376E+02  0.00000000000E+00 0.  1.
</event>
<event>
 7    1  0.6953847E-012  0.5930194E+02  0.7816164E-02  0.1266605E+00
        -11   -1    0    0    0    0  0.00000000000E+00  0.00000000000E+00  0.45593999997E+02  0.45594000000E+02  0.51100000000E-03 0. -1.
         11   -1    0    0    0    0 -0.00000000000E+00 -0.00000000000E+00 -0.45593999997E+02  0.45594000000E+02  0.51100000000E-03 0.  1.
    9900012    2    1    2    0    0  0.25108571454E+02 -0.10404869167E+02  0.16673904092E+02  0.59301941283E+02  0.49999994995E+02 0.  0.
        -12    1    1    2    0    0 -0.25108571454E+02  0.10404869167E+02 -0.16673904092E+02  0.31886058717E+02  0.00000000000E+00 0.  1.
         11    1    3    3    0    0  0.27371181350E+02 -0.51045097071E+01 -0.93618461979E+01  0.29374848976E+02  0.51100000000E-03 0. -1.
        -11    1    3    3    0    0 -0.10095937615E+01 -0.61950937416E+01  0.32109807534E+01  0.70504513111E+01  0.51100000000E-03 0.  1.
        -12    1    3    3    0    0 -0.12530161353E+01  0.89473428202E+00  0.22824769537E+02  0.22876640996E+02  0.00000000000E+00 0.  1.
</event>
<event>
 7    1  0.6953847E-012  0.5930199E+02  0.7816164E-02  0.1266605E+00
        -11   -1    0    0    0    0  0.00000000000E+00  0.00000000000E+00  0.45593999997E+02  0.45594000000E+02  0.51100000000E-03 0.  1.
         11   -1    0    0    0    0 -0.00000000000E+00 -0.00000000000E+00 -0.45593999997E+02  0.45594000000E+02  0.51100000000E-03 0. -1.
    9900012    2    1    2    0    0  0.52714720846E+01 -0.14229548471E+02 -0.28043701487E+02  0.59301989577E+02  0.50000083071E+02 0.  0.
        -12    1    1    2    0    0 -0.52714720846E+01  0.14229548471E+02  0.28043701487E+02  0.31886010423E+02  0.00000000000E+00 0.  1.
         11    1    3    3    0    0  0.16313809121E+02 -0.20840834631E+01 -0.10162576114E+02  0.19332918183E+02  0.51100000000E-03 0. -1.
        -11    1    3    3    0    0  0.10486056801E+02 -0.11420952312E+01 -0.10012556686E+02  0.14543488592E+02  0.51100000000E-03 0.  1.
        -12    1    3    3    0    0 -0.21528393838E+02 -0.11003369776E+02 -0.78685686863E+01  0.25425582803E+02  0.00000000000E+00 0.  1.
</event>
<event>
 7    1  0.6953847E-012  0.5930193E+02  0.7816164E-02  0.1266605E+00
        -11   -1    0    0    0    0  0.00000000000E+00  0.00000000000E+00  0.45593999997E+02  0.45594000000E+02  0.51100000000E-03 0. -1.
         11   -1    0    0    0    0 -0.00000000000E+00 -0.00000000000E+00 -0.45593999997E+02  0.45594000000E+02  0.51100000000E-03 0.  1.
    9900012    2    1    2    0    0  0.39828930379E+01 -0.31489783503E+02 -0.30416265105E+01  0.59301931038E+02  0.49999976310E+02 0.  0.
        -12    1    1    2    0    0 -0.39828930379E+01  0.31489783503E+02  0.30416265105E+01  0.31886068962E+02  0.00000000000E+00 0.  1.
         11    1    3    3    0    0 -0.13372222411E+02 -0.87530571615E+01 -0.75472978837E+01  0.17674672486E+02  0.51100000000E-03 0. -1.
        -11    1    3    3    0    0  0.77717933060E+01  0.64242950561E+01  0.42195832763E+01  0.10930563638E+02  0.51100000000E-03 0.  1.
         12    1    3    3    0    0  0.95833221428E+01 -0.29161021398E+02  0.28608809692E+00  0.30696694914E+02  0.00000000000E+00 0. -1.
</event>
<event>
 7    1  0.6953847E-012  0.5930197E+02  0.7816164E-02  0.1266605E+00
        -11   -1    0    0    0    0  0.00000000000E+00  0.00000000000E+00  0.45593999997E+02  0.45594000000E+02  0.51100000000E-03 0. -1.
         11   -1    0    0    0    0 -0.00000000000E+00 -0.00000000000E+00 -0.45593999997E+02  0.45594000000E+02  0.51100000000E-03 0.  1.
    9900012    2    1    2    0    0 -0.65439860924E+01 -0.30744628842E+02 -0.53538034116E+01  0.59301965947E+02  0.50000039976E+02 0.  0.
        -12    1    1    2    0    0  0.65439860924E+01  0.30744628842E+02  0.53538034116E+01  0.31886034053E+02  0.00000000000E+00 0.  1.
         11    1    3    3    0    0  0.13104776079E+02 -0.11421963874E+02  0.62564760835E+01  0.18475386547E+02  0.51100000000E-03 0. -1.
        -11    1    3    3    0    0  0.24791974273E+01 -0.66213936486E+01  0.64475553946E+01  0.95687117503E+01  0.51100000000E-03 0.  1.
        -12    1    3    3    0    0 -0.22127959599E+02 -0.12701271320E+02 -0.18057834890E+02  0.31257867650E+02  0.00000000000E+00 0.  1.
</event>
<event>
 7    1  0.6953847E-012  0.5930194E+02  0.7816164E-02  0.1266605E+00
        -11   -1    0    0    0    0  0.00000000000E+00  0.00000000000E+00  0.45593999997E+02  0.45594000000E+02  0.51100000000E-03 0.  1.
         11   -1    0    0    0    0 -0.00000000000E+00 -0.00000000000E+00 -0.45593999997E+02  0.45594000000E+02  0.51100000000E-03 0. -1.
    9900012    2    1    2    0    0  0.19572525484E+02 -0.10170755780E+02 -0.23025911813E+02  0.59301942831E+02  0.49999997818E+02 0.  0.
        -12    1    1    2    0    0 -0.19572525484E+02  0.10170755780E+02  0.23025911813E+02  0.31886057169E+02  0.00000000000E+00 0.  1.
         11    1    3    3    0    0  0.25928599037E+02 -0.65595221577E+01 -0.11639008434E+02  0.29168237803E+02  0.51100000000E-03 0.  1.
        -11    1    3    3    0    0  0.43854971050E+01  0.93010598899E+01 -0.87706576659E+00  0.10320443041E+02  0.51100000000E-03 0. -1.
         12    1    3    3    0    0 -0.10741570658E+02 -0.12912293513E+02 -0.10509837612E+02  0.19813261988E+02  0.00000000000E+00 0. -1.
</event>
<event>
 7    1  0.6953847E-012  0.5930196E+02  0.7816164E-02  0.1266605E+00
        -11   -1    0    0    0    0  0.00000000000E+00  0.00000000000E+00  0.45593999997E+02  0.45594000000E+02  0.51100000000E-03 0.  1.
         11   -1    0    0    0    0 -0.00000000000E+00 -0.00000000000E+00 -0.45593999997E+02  0.45594000000E+02  0.51100000000E-03 0. -1.
    9900012    2    1    2    0    0  0.20185449117E+02 -0.11537143400E+02 -0.21821129606E+02  0.59301957110E+02  0.50000023859E+02 0.  0.
        -12    1    1    2    0    0 -0.20185449117E+02  0.11537143400E+02  0.21821129606E+02  0.31886042890E+02  0.00000000000E+00 0.  1.
         11    1    3    3    0    0  0.76311708361E+01 -0.21480062189E+02 -0.18457630646E+02  0.29331075147E+02  0.51100000000E-03 0. -1.
        -11    1    3    3    0    0 -0.16970954959E+01 -0.66298692180E+01 -0.43186158681E+01  0.80923261333E+01  0.51100000000E-03 0.  1.
        -12    1    3    3    0    0  0.14251373777E+02  0.16572788007E+02  0.95511690753E+00  0.21878555829E+02  0.00000000000E+00 0.  1.
</event>
<event>
 7    1  0.6953847E-012  0.5930200E+02  0.7816164E-02  0.1266605E+00
        -11   -1    0    0    0    0  0.00000000000E+00  0.00000000000E+00  0.45593999997E+02  0.45594000000E+02  0.51100000000E-03 0.  1.
         11   -1    0    0    0    0 -0.00000000000E+00 -0.00000000000E+00 -0.45593999997E+02  0.45594000000E+02  0.51100000000E-03 0. -1.
    9900012    2    1    2    0    0  0.21679278564E+02 -0.12032522352E+02 -0.20048552607E+02  0.59301997196E+02  0.50000096966E+02 0.  0.
        -12    1    1    2    0    0 -0.21679278564E+02  0.12032522352E+02  0.20048552607E+02  0.31886002804E+02  0.00000000000E+00 0.  1.
         11    1    3    3    0    0 -0.37109871306E+01  0.32312823576E+00 -0.59043681305E+01  0.69812177034E+01  0.51100000000E-03 0. -1.
        -11    1    3    3    0    0 -0.90523503873E+01  0.60727174136E+01 -0.59098667365E+01  0.12399575373E+02  0.51100000000E-03 0.  1.
         12    1    3    3    0    0  0.34442616082E+02 -0.18428368002E+02 -0.82343177397E+01  0.39921204120E+02  0.00000000000E+00 0. -1.
</event>
<event>
 7    1  0.6953847E-012  0.5930196E+02  0.7816164E-02  0.1266605E+00
        -11   -1    0    0    0    0  0.00000000000E+00  0.00000000000E+00  0.45593999997E+02  0.45594000000E+02  0.51100000000E-03 0.  1.
         11   -1    0    0    0    0 -0.00000000000E+00 -0.00000000000E+00 -0.45593999997E+02  0.45594000000E+02  0.51100000000E-03 0. -1.
    9900012    2    1    2    0    0  0.26162264142E+02  0.14371183288E+02 -0.11212710253E+02  0.59301955320E+02  0.50000020594E+02 0.  0.
        -12    1    1    2    0    0 -0.26162264142E+02 -0.14371183288E+02  0.11212710253E+02  0.31886044680E+02  0.00000000000E+00 0.  1.
         11    1    3    3    0    0  0.15559372672E+02  0.11466104800E+02 -0.13596483400E+02  0.23631123509E+02  0.51100000000E-03 0. -1.
        -11    1    3    3    0    0  0.56288321275E+01  0.17642195816E+02 -0.38497538135E+01  0.18914318096E+02  0.51100000000E-03 0.  1.
         12    1    3    3    0    0  0.49740593428E+01 -0.14737117329E+02  0.62335269601E+01  0.16756513714E+02  0.00000000000E+00 0. -1.
</event>
<event>
 7    1  0.6953847E-012  0.5930186E+02  0.7816164E-02  0.1266605E+00
        -11   -1    0    0    0    0  0.00000000000E+00  0.00000000000E+00  0.45593999997E+02  0.45594000000E+02  0.51100000000E-03 0. -1.
         11   -1    0    0    0    0 -0.00000000000E+00 -0.00000000000E+00 -0.45593999997E+02  0.45594000000E+02  0.51100000000E-03 0.  1.
    9900012    2    1    2    0    0 -0.13982469498E+02  0.90343765299E+01  0.27195523409E+02  0.59301860283E+02  0.49999847270E+02 0.  0.
        -12    1    1    2    0    0  0.13982469498E+02 -0.90343765299E+01 -0.27195523409E+02  0.31886139717E+02  0.00000000000E+00 0.  1.
         11    1    3    3    0    0 -0.17270921010E+02 -0.21894725427E+01 -0.20942191649E+01  0.17534658728E+02  0.51100000000E-03 0. -1.
        -11    1    3    3    0    0  0.24665414230E-01  0.19286086490E+02  0.12869910140E+02  0.23185951086E+02  0.51100000000E-03 0.  1.
         12    1    3    3    0    0  0.32637860975E+01 -0.80622374175E+01  0.16419832433E+02  0.18581250469E+02  0.00000000000E+00 0. -1.
</event>
<event>
 7    1  0.6953847E-012  0.5930197E+02  0.7816164E-02  0.1266605E+00
        -11   -1    0    0    0    0  0.00000000000E+00  0.00000000000E+00  0.45593999997E+02  0.45594000000E+02  0.51100000000E-03 0. -1.
         11   -1    0    0    0    0 -0.00000000000E+00 -0.00000000000E+00 -0.45593999997E+02  0.45594000000E+02  0.51100000000E-03 0.  1.
    9900012    2    1    2    0    0  0.21892772675E+01  0.67440800994E+01  0.31087675922E+02  0.59301966293E+02  0.50000040607E+02 0.  0.
        -12    1    1    2    0    0 -0.21892772675E+01 -0.67440800994E+01 -0.31087675922E+02  0.31886033707E+02  0.00000000000E+00 0.  1.
         11    1    3    3    0    0  0.82483992017E+01 -0.64549983845E+01  0.49763305102E+01  0.11595988925E+02  0.51100000000E-03 0. -1.
        -11    1    3    3    0    0 -0.15658114378E+01  0.13599837797E+02 -0.62377644249E+01  0.15043837903E+02  0.51100000000E-03 0.  1.
         12    1    3    3    0    0 -0.44933104964E+01 -0.40075931352E+00  0.32349109836E+02  0.32662139465E+02  0.00000000000E+00 0. -1.
</event>
<event>
 7    1  0.6953847E-012  0.5930193E+02  0.7816164E-02  0.1266605E+00
        -11   -1    0    0    0    0  0.00000000000E+00  0.00000000000E+00  0.45593999997E+02  0.45594000000E+02  0.51100000000E-03 0. -1.
         11   -1    0    0    0    0 -0.00000000000E+00 -0.00000000000E+00 -0.45593999997E+02  0.45594000000E+02  0.51100000000E-03 0.  1.
    9900012    2    1    2    0    0 -0.13285663685E+02  0.24079380469E+02  0.16136799968E+02  0.59301925664E+02  0.49999966510E+02 0.  0.
        -12    1    1    2    0    0  0.13285663685E+02 -0.24079380469E+02 -0.16136799968E+02  0.31886074336E+02  0.00000000000E+00 0.  1.
         11    1    3    3    0    0  0.68588248005E+01  0.25671380383E+01  0.16365118338E+02  0.17929048324E+02  0.51100000000E-03 0. -1.
        -11    1    3    3    0    0  0.31034689538E+01  0.14337893668E+02  0.66246647729E+01  0.16096362881E+02  0.51100000000E-03 0.  1.
        -12    1    3    3    0    0 -0.23247957439E+02  0.71743487630E+01 -0.68529831425E+01  0.25276514459E+02  0.00000000000E+00 0.  1.
</event>
<event>
 7    1  0.6953847E-012  0.5930193E+02  0.7816164E-02  0.1266605E+00
        -11   -1    0    0    0    0  0.00000000000E+00  0.00000000000E+00  0.45593999997E+02  0.45594000000E+02  0.51100000000E-03 0.  1.
         11   -1    0    0    0    0 -0.00000000000E+00 -0.00000000000E+00 -0.45593999997E+02  0.45594000000E+02  0.51100000000E-03 0. -1.
    9900012    2    1    2    0    0 -0.71019912047E+00 -0.19374049151E+02 -0.25315275577E+02  0.59301931869E+02  0.49999977826E+02 0.  0.
        -12    1    1    2    0    0  0.71019912047E+00  0.19374049151E+02  0.25315275577E+02  0.31886068131E+02  0.00000000000E+00 0.  1.
         11    1    3    3    0    0  0.12730791277E+02 -0.61365052741E+01 -0.67193450953E+01  0.15648621098E+02  0.51100000000E-03 0. -1.
        -11    1    3    3    0    0 -0.11075344227E+02 -0.24355661219E+02 -0.75431517978E+01  0.27798572310E+02  0.51100000000E-03 0.  1.
         12    1    3    3    0    0 -0.23656461699E+01  0.11118117342E+02 -0.11052778684E+02  0.15854738461E+02  0.00000000000E+00 0. -1.
</event>
<event>
 7    1  0.6953847E-012  0.5930193E+02  0.7816164E-02  0.1266605E+00
        -11   -1    0    0    0    0  0.00000000000E+00  0.00000000000E+00  0.45593999997E+02  0.45594000000E+02  0.51100000000E-03 0.  1.
         11   -1    0    0    0    0 -0.00000000000E+00 -0.00000000000E+00 -0.45593999997E+02  0.45594000000E+02  0.51100000000E-03 0. -1.
    9900012    2    1    2    0    0 -0.30299016711E+02 -0.69745604057E+01 -0.70743652304E+01  0.59301928591E+02  0.49999971846E+02 0.  0.
        -12    1    1    2    0    0  0.30299016711E+02  0.69745604057E+01  0.70743652304E+01  0.31886071409E+02  0.00000000000E+00 0.  1.
         11    1    3    3    0    0  0.63388730498E+00  0.55062858992E+01 -0.15423456818E+02  0.16389143297E+02  0.51100000000E-03 0. -1.
        -11    1    3    3    0    0 -0.26001051568E+02 -0.29839632980E+01  0.15143278507E+02  0.30237023726E+02  0.51100000000E-03 0.  1.
        -12    1    3    3    0    0 -0.49318524479E+01 -0.94968830068E+01 -0.67941869193E+01  0.12675761567E+02  0.00000000000E+00 0.  1.
</event>
<event>
 7    1  0.6953847E-012  0.5930195E+02  0.7816164E-02  0.1266605E+00
        -11   -1    0    0    0    0  0.00000000000E+00  0.00000000000E+00  0.45593999997E+02  0.45594000000E+02  0.51100000000E-03 0. -1.
         11   -1    0    0    0    0 -0.00000000000E+00 -0.00000000000E+00 -0.45593999997E+02  0.45594000000E+02  0.51100000000E-03 0.  1.
    9900012    2    1    2    0    0 -0.25492037019E+02  0.38683523950E+01  0.18759315438E+02  0.59301952623E+02  0.50000015675E+02 0.  0.
        -12    1    1    2    0    0  0.25492037019E+02 -0.38683523950E+01 -0.18759315438E+02  0.31886047377E+02  0.00000000000E+00 0.  1.
         11    1    3    3    0    0 -0.31140545129E+01 -0.35130202530E+01  0.26258597478E+02  0.26674943085E+02  0.51100000000E-03 0. -1.
        -11    1    3    3    0    0 -0.15113735278E+02 -0.73881792472E-01  0.54018428030E+01  0.16050244811E+02  0.51100000000E-03 0.  1.
        -12    1    3    3    0    0 -0.72642472287E+01  0.74552544405E+01 -0.12901124844E+02  0.16576764727E+02  0.00000000000E+00 0.  1.
</event>
<event>
 7    1  0.6953847E-012  0.5930203E+02  0.7816164E-02  0.1266604E+00
        -11   -1    0    0    0    0  0.00000000000E+00  0.00000000000E+00  0.45593999997E+02  0.45594000000E+02  0.51100000000E-03 0. -1.
         11   -1    0    0    0    0 -0.00000000000E+00 -0.00000000000E+00 -0.45593999997E+02  0.45594000000E+02  0.51100000000E-03 0.  1.
    9900012    2    1    2    0    0  0.19368591273E+01 -0.18544497549E+02  0.25866298309E+02  0.59302028150E+02  0.50000153419E+02 0.  0.
        -12    1    1    2    0    0 -0.19368591273E+01  0.18544497549E+02 -0.25866298309E+02  0.31885971850E+02  0.00000000000E+00 0.  1.
         11    1    3    3    0    0  0.32323797407E+01 -0.46499852376E+01  0.32253219853E+02  0.32746615591E+02  0.51100000000E-03 0. -1.
        -11    1    3    3    0    0 -0.24316124486E+01 -0.16497786124E+02  0.28267118624E+01  0.16913899205E+02  0.51100000000E-03 0.  1.
        -12    1    3    3    0    0  0.11360918352E+01  0.26032738129E+01 -0.92136334071E+01  0.96415133544E+01  0.00000000000E+00 0.  1.
</event>
<event>
 7    1  0.6953847E-012  0.5930193E+02  0.7816164E-02  0.1266605E+00
        -11   -1    0    0    0    0  0.00000000000E+00  0.00000000000E+00  0.45593999997E+02  0.45594000000E+02  0.51100000000E-03 0.  1.
         11   -1    0    0    0    0 -0.00000000000E+00 -0.00000000000E+00 -0.45593999997E+02  0.45594000000E+02  0.51100000000E-03 0. -1.
    9900012    2    1    2    0    0 -0.14602719609E+02  0.78697495207E+01 -0.27231395663E+02  0.59301932709E+02  0.49999979358E+02 0.  0.
        -12    1    1    2    0    0  0.14602719609E+02 -0.78697495207E+01  0.27231395663E+02  0.31886067291E+02  0.00000000000E+00 0.  1.
         11    1    3    3    0    0 -0.15559083408E+02  0.41496290960E+01 -0.23170934698E+02  0.28216957901E+02  0.51100000000E-03 0. -1.
        -11    1    3    3    0    0 -0.14120729392E+02  0.31128133802E+01  0.24236648740E+01  0.14661471869E+02  0.51100000000E-03 0.  1.
        -12    1    3    3    0    0  0.15077093190E+02  0.60730704455E+00 -0.64841258392E+01  0.16423502939E+02  0.00000000000E+00 0.  1.
</event>
<event>
 7    1  0.6953847E-012  0.5930195E+02  0.7816164E-02  0.1266605E+00
        -11   -1    0    0    0    0  0.00000000000E+00  0.00000000000E+00  0.45593999997E+02  0.45594000000E+02  0.51100000000E-03 0.  1.
         11   -1    0    0    0    0 -0.00000000000E+00 -0.00000000000E+00 -0.45593999997E+02  0.45594000000E+02  0.51100000000E-03 0. -1.
    9900012    2    1    2    0    0 -0.24235529480E+02  0.20719626796E+02 -0.23806842115E+00  0.59301945050E+02  0.50000001864E+02 0.  0.
        -12    1    1    2    0    0  0.24235529480E+02 -0.20719626796E+02  0.23806842115E+00  0.31886054950E+02  0.00000000000E+00 0.  1.
         11    1    3    3    0    0 -0.20885875495E+02 -0.36010395285E+01  0.76242443126E+01  0.22523684922E+02  0.51100000000E-03 0. -1.
        -11    1    3    3    0    0 -0.73982422506E+01 -0.31035692290E+01 -0.33400863012E+01  0.86903571341E+01  0.51100000000E-03 0.  1.
        -12    1    3    3    0    0  0.40485882662E+01  0.27424235554E+02 -0.45222264325E+01  0.28087902993E+02  0.00000000000E+00 0.  1.
</event>
<event>
 7    1  0.6953847E-012  0.5930196E+02  0.7816164E-02  0.1266605E+00
        -11   -1    0    0    0    0  0.00000000000E+00  0.00000000000E+00  0.45593999997E+02  0.45594000000E+02  0.51100000000E-03 0. -1.
         11   -1    0    0    0    0 -0.00000000000E+00 -0.00000000000E+00 -0.45593999997E+02  0.45594000000E+02  0.51100000000E-03 0.  1.
    9900012    2    1    2    0    0 -0.22360256471E+02  0.22531218941E+02  0.30137413798E+01  0.59301960210E+02  0.50000029512E+02 0.  0.
        -12    1    1    2    0    0  0.22360256471E+02 -0.22531218941E+02 -0.30137413798E+01  0.31886039790E+02  0.00000000000E+00 0.  1.
         11    1    3    3    0    0 -0.10962358191E+02  0.71017197917E+01  0.19239990219E+02  0.23254783272E+02  0.51100000000E-03 0. -1.
        -11    1    3    3    0    0  0.38294714038E+01 -0.26141029151E+01  0.30648120370E+01  0.55580084892E+01  0.51100000000E-03 0.  1.
        -12    1    3    3    0    0 -0.15227369684E+02  0.18043602065E+02 -0.19291060877E+02  0.30489168449E+02  0.00000000000E+00 0.  1.
</event>
<event>
 7    1  0.6953847E-012  0.5930196E+02  0.7816164E-02  0.1266605E+00
        -11   -1    0    0    0    0  0.00000000000E+00  0.00000000000E+00  0.45593999997E+02  0.45594000000E+02  0.51100000000E-03 0. -1.
         11   -1    0    0    0    0 -0.00000000000E+00 -0.00000000000E+00 -0.45593999997E+02  0.45594000000E+02  0.51100000000E-03 0.  1.
    9900012    2    1    2    0    0  0.16332954991E+02 -0.27235859086E+02  0.28569795882E+01  0.59301956482E+02  0.50000022713E+02 0.  0.
        -12    1    1    2    0    0 -0.16332954991E+02  0.27235859086E+02 -0.28569795882E+01  0.31886043518E+02  0.00000000000E+00 0.  1.
         11    1    3    3    0    0  0.75361494692E+01 -0.96551040667E+01 -0.19957010702E+01  0.12409569146E+02  0.51100000000E-03 0. -1.
        -11    1    3    3    0    0  0.23945580324E+02 -0.20109045009E+02  0.37758796298E+01  0.31496377180E+02  0.51100000000E-03 0.  1.
         12    1    3    3    0    0 -0.15148774802E+02  0.25282899903E+01  0.10768010286E+01  0.15396010156E+02  0.00000000000E+00 0. -1.
</event>
<event>
 7    1  0.6953847E-012  0.5930197E+02  0.7816164E-02  0.1266605E+00
        -11   -1    0    0    0    0  0.00000000000E+00  0.00000000000E+00  0.45593999997E+02  0.45594000000E+02  0.51100000000E-03 0.  1.
         11   -1    0    0    0    0 -0.00000000000E+00 -0.00000000000E+00 -0.45593999997E+02  0.45594000000E+02  0.51100000000E-03 0. -1.
    9900012    2    1    2    0    0 -0.21939024874E+02  0.20621164807E+02 -0.10495972812E+02  0.59301973348E+02  0.50000053472E+02 0.  0.
        -12    1    1    2    0    0  0.21939024874E+02 -0.20621164807E+02  0.10495972812E+02  0.31886026652E+02  0.00000000000E+00 0.  1.
         11    1    3    3    0    0 -0.62407544854E+01 -0.42201335060E+01  0.51101353266E+01  0.91032975714E+01  0.51100000000E-03 0. -1.
        -11    1    3    3    0    0  0.29005426958E+01  0.20443507361E+02  0.58540202069E+01  0.21462052418E+02  0.51100000000E-03 0.  1.
         12    1    3    3    0    0 -0.18598813084E+02  0.43977909514E+01 -0.21460128346E+02  0.28736623358E+02  0.00000000000E+00 0. -1.
</event>
<event>
 7    1  0.6953847E-012  0.5930190E+02  0.7816164E-02  0.1266605E+00
        -11   -1    0    0    0    0  0.00000000000E+00  0.00000000000E+00  0.45593999997E+02  0.45594000000E+02  0.51100000000E-03 0. -1.
         11   -1    0    0    0    0 -0.00000000000E+00 -0.00000000000E+00 -0.45593999997E+02  0.45594000000E+02  0.51100000000E-03 0.  1.
    9900012    2    1    2    0    0 -0.31696610832E+02  0.20959333047E+01 -0.27668673769E+01  0.59301895977E+02  0.49999912367E+02 0.  0.
        -12    1    1    2    0    0  0.31696610832E+02 -0.20959333047E+01  0.27668673769E+01  0.31886104023E+02  0.00000000000E+00 0.  1.
         11    1    3    3    0    0 -0.32136766117E+01  0.16392013028E+01  0.13684121432E+02  0.14151674032E+02  0.51100000000E-03 0. -1.
        -11    1    3    3    0    0  0.24214766033E+01 -0.90711865311E+01 -0.14481422864E+01  0.94998468601E+01  0.51100000000E-03 0.  1.
         12    1    3    3    0    0 -0.30904410824E+02  0.95279185330E+01 -0.15002846523E+02  0.35650375085E+02  0.00000000000E+00 0. -1.
</event>
<event>
 7    1  0.6953847E-012  0.5930194E+02  0.7816164E-02  0.1266605E+00
        -11   -1    0    0    0    0  0.00000000000E+00  0.00000000000E+00  0.45593999997E+02  0.45594000000E+02  0.51100000000E-03 0.  1.
         11   -1    0    0    0    0 -0.00000000000E+00 -0.00000000000E+00 -0.45593999997E+02  0.45594000000E+02  0.51100000000E-03 0. -1.
    9900012    2    1    2    0    0  0.30275431825E+02 -0.20799004298E+01  0.97873960202E+01  0.59301939114E+02  0.49999991039E+02 0.  0.
        -12    1    1    2    0    0 -0.30275431825E+02  0.20799004298E+01 -0.97873960202E+01  0.31886060886E+02  0.00000000000E+00 0.  1.
         11    1    3    3    0    0  0.68868004761E+01  0.11864082794E+02  0.90252013466E+01  0.16420680283E+02  0.51100000000E-03 0. -1.
        -11    1    3    3    0    0  0.50465300628E+01  0.46687256599E+01  0.12475544655E+02  0.14244426267E+02  0.51100000000E-03 0.  1.
         12    1    3    3    0    0  0.18342101286E+02 -0.18612708884E+02 -0.11713349981E+02  0.28636832565E+02  0.00000000000E+00 0. -1.
</event>
<event>
 7    1  0.6953847E-012  0.5930195E+02  0.7816164E-02  0.1266605E+00
        -11   -1    0    0    0    0  0.00000000000E+00  0.00000000000E+00  0.45593999997E+02  0.45594000000E+02  0.51100000000E-03 0.  1.
         11   -1    0    0    0    0 -0.00000000000E+00 -0.00000000000E+00 -0.45593999997E+02  0.45594000000E+02  0.51100000000E-03 0. -1.
    9900012    2    1    2    0    0  0.39439782681E+01  0.18895711492E+02 -0.25379460181E+02  0.59301954832E+02  0.50000019705E+02 0.  0.
        -12    1    1    2    0    0 -0.39439782681E+01 -0.18895711492E+02  0.25379460181E+02  0.31886045168E+02  0.00000000000E+00 0.  1.
         11    1    3    3    0    0 -0.14100018111E+02  0.81741185345E+01  0.81121674596E+00  0.16318235120E+02  0.51100000000E-03 0. -1.
        -11    1    3    3    0    0  0.75335356278E+01  0.16656779661E+02 -0.24834135116E+02  0.30837262118E+02  0.51100000000E-03 0.  1.
        -12    1    3    3    0    0  0.10510460751E+02 -0.59351867037E+01 -0.13565418108E+01  0.12146457595E+02  0.00000000000E+00 0.  1.
</event>
<event>
 7    1  0.7456589E-012  0.5930193E+02  0.7816164E-02  0.1266605E+00
        -11   -1    0    0    0    0  0.00000000000E+00  0.00000000000E+00  0.45593999997E+02  0.45594000000E+02  0.51100000000E-03 0. -1.
         11   -1    0    0    0    0 -0.00000000000E+00 -0.00000000000E+00 -0.45593999997E+02  0.45594000000E+02  0.51100000000E-03 0.  1.
    9900012    2    1    2    0    0  0.19235138541E+01  0.12912016053E+02  0.29091259122E+02  0.59301930606E+02  0.49999975522E+02 0.  0.
        -12    1    1    2    0    0 -0.19235138541E+01 -0.12912016053E+02 -0.29091259122E+02  0.31886069394E+02  0.00000000000E+00 0.  1.
         11    1    3    3    0    0  0.38669895277E+00  0.50401452119E+01  0.25198250930E+02  0.25700281128E+02  0.51100000000E-03 0. -1.
        -11    1    3    3    0    0  0.10552314510E+02  0.10659210569E+02  0.13467855304E+02  0.20158205233E+02  0.51100000000E-03 0.  1.
        -12    1    3    3    0    0 -0.90154996090E+01 -0.27873397272E+01 -0.95748471120E+01  0.13443444245E+02  0.00000000000E+00 0.  1.
</event>
<event>
 7    1  0.6953847E-012  0.5930194E+02  0.7816164E-02  0.1266605E+00
        -11   -1    0    0    0    0  0.00000000000E+00  0.00000000000E+00  0.45593999997E+02  0.45594000000E+02  0.51100000000E-03 0.  1.
         11   -1    0    0    0    0 -0.00000000000E+00 -0.00000000000E+00 -0.45593999997E+02  0.45594000000E+02  0.51100000000E-03 0. -1.
    9900012    2    1    2    0    0  0.12059498953E+01 -0.53430858718E+01 -0.31412069043E+02  0.59301937788E+02  0.49999988621E+02 0.  0.
        -12    1    1    2    0    0 -0.12059498953E+01  0.53430858718E+01  0.31412069043E+02  0.31886062212E+02  0.00000000000E+00 0.  1.
         11    1    3    3    0    0 -0.49135599162E+01  0.12952002827E+02 -0.55586988055E+01  0.14926371996E+02  0.51100000000E-03 0. -1.
        -11    1    3    3    0    0  0.93546986207E+01  0.48403253469E+01 -0.15695652872E+02  0.18902186516E+02  0.51100000000E-03 0.  1.
        -12    1    3    3    0    0 -0.32351888092E+01 -0.23135414046E+02 -0.10157717366E+02  0.25473379277E+02  0.00000000000E+00 0.  1.
</event>
<event>
 7    1  0.6953847E-012  0.5930195E+02  0.7816164E-02  0.1266605E+00
        -11   -1    0    0    0    0  0.00000000000E+00  0.00000000000E+00  0.45593999997E+02  0.45594000000E+02  0.51100000000E-03 0. -1.
         11   -1    0    0    0    0 -0.00000000000E+00 -0.00000000000E+00 -0.45593999997E+02  0.45594000000E+02  0.51100000000E-03 0.  1.
    9900012    2    1    2    0    0 -0.19779711973E+02  0.22505932619E+02  0.10907159894E+02  0.59301950610E+02  0.50000012004E+02 0.  0.
        -12    1    1    2    0    0  0.19779711973E+02 -0.22505932619E+02 -0.10907159894E+02  0.31886049390E+02  0.00000000000E+00 0.  1.
         11    1    3    3    0    0  0.71584144035E+00  0.47558335436E+01 -0.14016729716E+01  0.50094978832E+01  0.51100000000E-03 0. -1.
        -11    1    3    3    0    0 -0.46098422776E+01  0.20903461831E+02 -0.12408141438E+02  0.24742015612E+02  0.51100000000E-03 0.  1.
         12    1    3    3    0    0 -0.15885711135E+02 -0.31533627559E+01  0.24716974303E+02  0.29550437114E+02  0.00000000000E+00 0. -1.
</event>
<event>
 7    1  0.6953847E-012  0.5930197E+02  0.7816164E-02  0.1266605E+00
        -11   -1    0    0    0    0  0.00000000000E+00  0.00000000000E+00  0.45593999997E+02  0.45594000000E+02  0.51100000000E-03 0.  1.
         11   -1    0    0    0    0 -0.00000000000E+00 -0.00000000000E+00 -0.45593999997E+02  0.45594000000E+02  0.51100000000E-03 0. -1.
    9900012    2    1    2    0    0  0.69083085342E+01  0.14106591162E+02 -0.27748841280E+02  0.59301971188E+02  0.50000049534E+02 0.  0.
        -12    1    1    2    0    0 -0.69083085342E+01 -0.14106591162E+02  0.27748841280E+02  0.31886028812E+02  0.00000000000E+00 0.  1.
         11    1    3    3    0    0  0.19279388358E+02 -0.26741687183E+01 -0.22394432967E+02  0.29670804202E+02  0.51100000000E-03 0. -1.
        -11    1    3    3    0    0  0.11390534852E+01  0.47565220870E+00  0.56389953445E+01  0.57725173557E+01  0.51100000000E-03 0.  1.
        -12    1    3    3    0    0 -0.13510133309E+02  0.16305107672E+02 -0.10993403658E+02  0.23858649631E+02  0.00000000000E+00 0.  1.
</event>
<event>
 7    1  0.6953847E-012  0.5930194E+02  0.7816164E-02  0.1266605E+00
        -11   -1    0    0    0    0  0.00000000000E+00  0.00000000000E+00  0.45593999997E+02  0.45594000000E+02  0.51100000000E-03 0.  1.
         11   -1    0    0    0    0 -0.00000000000E+00 -0.00000000000E+00 -0.45593999997E+02  0.45594000000E+02  0.51100000000E-03 0. -1.
    9900012    2    1    2    0    0 -0.31357538479E+02 -0.42441818111E+01 -0.39258581365E+01  0.59301942532E+02  0.49999997273E+02 0.  0.
        -12    1    1    2    0    0  0.31357538479E+02  0.42441818111E+01  0.39258581365E+01  0.31886057468E+02  0.00000000000E+00 0.  1.
         11    1    3    3    0    0  0.14264048028E+01 -0.95406132470E+01 -0.15503920594E+02  0.18260051638E+02  0.51100000000E-03 0. -1.
        -11    1    3    3    0    0  0.22125112429E+01 -0.11294167588E+01 -0.17580427837E+01  0.30432717436E+01  0.51100000000E-03 0.  1.
        -12    1    3    3    0    0 -0.34996454525E+02  0.64258481946E+01  0.13336105241E+02  0.37998619150E+02  0.00000000000E+00 0.  1.
</event>
<event>
 7    1  0.6953847E-012  0.5930191E+02  0.7816164E-02  0.1266605E+00
        -11   -1    0    0    0    0  0.00000000000E+00  0.00000000000E+00  0.45593999997E+02  0.45594000000E+02  0.51100000000E-03 0. -1.
         11   -1    0    0    0    0 -0.00000000000E+00 -0.00000000000E+00 -0.45593999997E+02  0.45594000000E+02  0.51100000000E-03 0.  1.
    9900012    2    1    2    0    0  0.81769786385E+01 -0.13905271708E+02  0.27504608392E+02  0.59301905167E+02  0.49999929127E+02 0.  0.
        -12    1    1    2    0    0 -0.81769786385E+01  0.13905271708E+02 -0.27504608392E+02  0.31886094833E+02  0.00000000000E+00 0.  1.
         11    1    3    3    0    0 -0.30417243332E+01 -0.18927380309E+02  0.16506736253E+02  0.25297631396E+02  0.51100000000E-03 0. -1.
        -11    1    3    3    0    0 -0.82408102679E+01 -0.54627053132E+01  0.17374051300E+01  0.10038460044E+02  0.51100000000E-03 0.  1.
         12    1    3    3    0    0  0.19459513240E+02  0.10484813914E+02  0.92604670094E+01  0.23965813726E+02  0.00000000000E+00 0. -1.
</event>
<event>
 7    1  0.6953847E-012  0.5930194E+02  0.7816164E-02  0.1266605E+00
        -11   -1    0    0    0    0  0.00000000000E+00  0.00000000000E+00  0.45593999997E+02  0.45594000000E+02  0.51100000000E-03 0.  1.
         11   -1    0    0    0    0 -0.00000000000E+00 -0.00000000000E+00 -0.45593999997E+02  0.45594000000E+02  0.51100000000E-03 0. -1.
    9900012    2    1    2    0    0  0.27434847420E+02 -0.16135719738E+02 -0.19204829036E+01  0.59301944129E+02  0.50000000185E+02 0.  0.
        -12    1    1    2    0    0 -0.27434847420E+02  0.16135719738E+02  0.19204829036E+01  0.31886055871E+02  0.00000000000E+00 0.  1.
         11    1    3    3    0    0  0.57717282980E+01 -0.30348547042E+01  0.46173928117E+01  0.79902132174E+01  0.51100000000E-03 0. -1.
        -11    1    3    3    0    0  0.17289490106E+02  0.22082935955E-01  0.16848184098E+02  0.24141007922E+02  0.51100000000E-03 0.  1.
         12    1    3    3    0    0  0.43736290158E+01 -0.13122947970E+02 -0.23386059814E+02  0.27170722990E+02  0.00000000000E+00 0. -1.
</event>
<event>
 7    1  0.6953847E-012  0.5930198E+02  0.7816164E-02  0.1266605E+00
        -11   -1    0    0    0    0  0.00000000000E+00  0.00000000000E+00  0.45593999997E+02  0.45594000000E+02  0.51100000000E-03 0. -1.
         11   -1    0    0    0    0 -0.00000000000E+00 -0.00000000000E+00 -0.45593999997E+02  0.45594000000E+02  0.51100000000E-03 0.  1.
    9900012    2    1    2    0    0  0.10244750145E+02 -0.28786736806E+02 -0.91152247930E+01  0.59301977287E+02  0.50000060656E+02 0.  0.
        -12    1    1    2    0    0 -0.10244750145E+02  0.28786736806E+02  0.91152247930E+01  0.31886022713E+02  0.00000000000E+00 0.  1.
         11    1    3    3    0    0  0.83895962560E+01  0.62440130930E+01 -0.13887582410E+02  0.17384992675E+02  0.51100000000E-03 0.  1.
        -11    1    3    3    0    0  0.37967697051E+01 -0.33838734380E+01  0.85888804453E+01  0.99817296698E+01  0.51100000000E-03 0. -1.
         12    1    3    3    0    0 -0.19416158165E+01 -0.31646876461E+02 -0.38165228277E+01  0.31935254942E+02  0.00000000000E+00 0. -1.
</event>
<event>
 7    1  0.6953847E-012  0.5930196E+02  0.7816164E-02  0.1266605E+00
        -11   -1    0    0    0    0  0.00000000000E+00  0.00000000000E+00  0.45593999997E+02  0.45594000000E+02  0.51100000000E-03 0.  1.
         11   -1    0    0    0    0 -0.00000000000E+00 -0.00000000000E+00 -0.45593999997E+02  0.45594000000E+02  0.51100000000E-03 0. -1.
    9900012    2    1    2    0    0  0.65944417360E+01 -0.31063854332E+02 -0.28757699081E+01  0.59301956653E+02  0.50000023026E+02 0.  0.
        -12    1    1    2    0    0 -0.65944417360E+01  0.31063854332E+02  0.28757699081E+01  0.31886043347E+02  0.00000000000E+00 0.  1.
         11    1    3    3    0    0 -0.68288838930E+01  0.36626521976E+01 -0.30891952261E+01  0.83421702063E+01  0.51100000000E-03 0. -1.
        -11    1    3    3    0    0 -0.98887793106E+01 -0.84603775614E+01  0.76019892070E+01  0.15071701460E+02  0.51100000000E-03 0.  1.
        -12    1    3    3    0    0  0.23312104940E+02 -0.26266128968E+02 -0.73885638890E+01  0.35888084987E+02  0.00000000000E+00 0.  1.
</event>
<event>
 7    1  0.6953847E-012  0.5930168E+02  0.7816164E-02  0.1266606E+00
        -11   -1    0    0    0    0  0.00000000000E+00  0.00000000000E+00  0.45593999997E+02  0.45594000000E+02  0.51100000000E-03 0. -1.
         11   -1    0    0    0    0 -0.00000000000E+00 -0.00000000000E+00 -0.45593999997E+02  0.45594000000E+02  0.51100000000E-03 0.  1.
    9900012    2    1    2    0    0  0.21170304238E+02 -0.13978101337E+01  0.23803398997E+02  0.59301679131E+02  0.49999516890E+02 0.  0.
        -12    1    1    2    0    0 -0.21170304238E+02  0.13978101337E+01 -0.23803398997E+02  0.31886320869E+02  0.00000000000E+00 0.  1.
         11    1    3    3    0    0  0.15953922515E+02  0.13511556555E+02 -0.31767553911E+01  0.21146668278E+02  0.51100000000E-03 0. -1.
        -11    1    3    3    0    0 -0.46578030239E+01 -0.34381028751E+01 -0.14311337842E+01  0.59635412767E+01  0.51100000000E-03 0.  1.
         12    1    3    3    0    0  0.98741847467E+01 -0.11471263814E+02  0.28411288173E+02  0.32191469577E+02  0.00000000000E+00 0. -1.
</event>
<event>
 7    1  0.6953847E-012  0.5930192E+02  0.7816164E-02  0.1266605E+00
        -11   -1    0    0    0    0  0.00000000000E+00  0.00000000000E+00  0.45593999997E+02  0.45594000000E+02  0.51100000000E-03 0.  1.
         11   -1    0    0    0    0 -0.00000000000E+00 -0.00000000000E+00 -0.45593999997E+02  0.45594000000E+02  0.51100000000E-03 0. -1.
    9900012    2    1    2    0    0  0.52887426319E+01 -0.14705490130E+02 -0.27793885913E+02  0.59301916315E+02  0.49999949459E+02 0.  0.
        -12    1    1    2    0    0 -0.52887426319E+01  0.14705490130E+02  0.27793885913E+02  0.31886083685E+02  0.00000000000E+00 0.  1.
         11    1    3    3    0    0  0.12118247359E+02  0.25597092132E+01 -0.19771509628E+00  0.12387216065E+02  0.51100000000E-03 0.  1.
        -11    1    3    3    0    0 -0.61814226258E+01 -0.19043827732E+02 -0.78554404238E+00  0.20037326171E+02  0.51100000000E-03 0. -1.
         12    1    3    3    0    0 -0.64808210178E+00  0.17786283894E+01 -0.26810626775E+02  0.26877374079E+02  0.00000000000E+00 0. -1.
</event>
<event>
 7    1  0.6953847E-012  0.5930193E+02  0.7816164E-02  0.1266605E+00
        -11   -1    0    0    0    0  0.00000000000E+00  0.00000000000E+00  0.45593999997E+02  0.45594000000E+02  0.51100000000E-03 0.  1.
         11   -1    0    0    0    0 -0.00000000000E+00 -0.00000000000E+00 -0.45593999997E+02  0.45594000000E+02  0.51100000000E-03 0. -1.
    9900012    2    1    2    0    0  0.76380075776E+01 -0.40771739390E+01 -0.30688094099E+02  0.59301927390E+02  0.49999969657E+02 0.  0.
        -12    1    1    2    0    0 -0.76380075776E+01  0.40771739390E+01  0.30688094099E+02  0.31886072610E+02  0.00000000000E+00 0.  1.
         11    1    3    3    0    0  0.17620733367E+02 -0.87180152581E+01 -0.10472397426E+02  0.22274764702E+02  0.51100000000E-03 0. -1.
        -11    1    3    3    0    0  0.95531420287E+01 -0.51247624212E+00 -0.11669685549E+02  0.15089954129E+02  0.51100000000E-03 0.  1.
        -12    1    3    3    0    0 -0.19535867818E+02  0.51533175612E+01 -0.85460111230E+01  0.21937208560E+02  0.00000000000E+00 0.  1.
</event>
<event>
 7    1  0.6953847E-012  0.5930194E+02  0.7816164E-02  0.1266605E+00
        -11   -1    0    0    0    0  0.00000000000E+00  0.00000000000E+00  0.45593999997E+02  0.45594000000E+02  0.51100000000E-03 0.  1.
         11   -1    0    0    0    0 -0.00000000000E+00 -0.00000000000E+00 -0.45593999997E+02  0.45594000000E+02  0.51100000000E-03 0. -1.
    9900012    2    1    2    0    0 -0.24842365687E+02 -0.45853366792E+01 -0.19456424286E+02  0.59301938917E+02  0.49999990679E+02 0.  0.
        -12    1    1    2    0    0  0.24842365687E+02  0.45853366792E+01  0.19456424286E+02  0.31886061083E+02  0.00000000000E+00 0.  1.
         11    1    3    3    0    0 -0.26686760853E+02  0.42297722190E+01 -0.71057028050E+01  0.27938596788E+02  0.51100000000E-03 0. -1.
        -11    1    3    3    0    0 -0.44087666824E+01 -0.78259812946E+01  0.67531334435E+01  0.11237794199E+02  0.51100000000E-03 0.  1.
        -12    1    3    3    0    0  0.62531618487E+01 -0.98912760358E+00 -0.19103854925E+02  0.20125547931E+02  0.00000000000E+00 0.  1.
</event>
<event>
 7    1  0.6953847E-012  0.5930194E+02  0.7816164E-02  0.1266605E+00
        -11   -1    0    0    0    0  0.00000000000E+00  0.00000000000E+00  0.45593999997E+02  0.45594000000E+02  0.51100000000E-03 0.  1.
         11   -1    0    0    0    0 -0.00000000000E+00 -0.00000000000E+00 -0.45593999997E+02  0.45594000000E+02  0.51100000000E-03 0. -1.
    9900012    2    1    2    0    0  0.18139452164E+02 -0.37374183086E+01 -0.25955982190E+02  0.59301936714E+02  0.49999986661E+02 0.  0.
        -12    1    1    2    0    0 -0.18139452164E+02  0.37374183086E+01  0.25955982190E+02  0.31886063286E+02  0.00000000000E+00 0.  1.
         11    1    3    3    0    0  0.11067871195E+01 -0.33579177660E+01  0.25393200051E+01  0.43530145648E+01  0.51100000000E-03 0. -1.
        -11    1    3    3    0    0 -0.55483572291E+01 -0.16965603546E+02 -0.54275785856E+01  0.18656756985E+02  0.51100000000E-03 0.  1.
         12    1    3    3    0    0  0.22581022274E+02  0.16586103003E+02 -0.23067723610E+02  0.36292165164E+02  0.00000000000E+00 0. -1.
</event>
<event>
 7    1  0.6953847E-012  0.5930195E+02  0.7816164E-02  0.1266605E+00
        -11   -1    0    0    0    0  0.00000000000E+00  0.00000000000E+00  0.45593999997E+02  0.45594000000E+02  0.51100000000E-03 0. -1.
         11   -1    0    0    0    0 -0.00000000000E+00 -0.00000000000E+00 -0.45593999997E+02  0.45594000000E+02  0.51100000000E-03 0.  1.
    9900012    2    1    2    0    0  0.84838350564E+01 -0.26845318726E+02  0.14969094784E+02  0.59301946726E+02  0.50000004921E+02 0.  0.
        -12    1    1    2    0    0 -0.84838350564E+01  0.26845318726E+02 -0.14969094784E+02  0.31886053274E+02  0.00000000000E+00 0.  1.
         11    1    3    3    0    0 -0.40614816400E+01 -0.21070288763E+02  0.21066974180E+01  0.21561328251E+02  0.51100000000E-03 0. -1.
        -11    1    3    3    0    0 -0.26132045287E+01  0.11091084042E+02 -0.52491458047E+00  0.11406862790E+02  0.51100000000E-03 0.  1.
         12    1    3    3    0    0  0.15158521225E+02 -0.16866114004E+02  0.13387311946E+02  0.26333755685E+02  0.00000000000E+00 0. -1.
</event>
<event>
 7    1  0.6953847E-012  0.5930195E+02  0.7816164E-02  0.1266605E+00
        -11   -1    0    0    0    0  0.00000000000E+00  0.00000000000E+00  0.45593999997E+02  0.45594000000E+02  0.51100000000E-03 0.  1.
         11   -1    0    0    0    0 -0.00000000000E+00 -0.00000000000E+00 -0.45593999997E+02  0.45594000000E+02  0.51100000000E-03 0. -1.
    9900012    2    1    2    0    0 -0.21737792072E+02  0.24741119312E+01 -0.23196284060E+02  0.59301946180E+02  0.50000003925E+02 0.  0.
        -12    1    1    2    0    0  0.21737792072E+02 -0.24741119312E+01  0.23196284060E+02  0.31886053820E+02  0.00000000000E+00 0.  1.
         11    1    3    3    0    0 -0.65877591712E+01  0.26969055523E+01  0.70249690453E+01  0.10001102979E+02  0.51100000000E-03 0.  1.
        -11    1    3    3    0    0  0.66640897418E+01  0.12114546179E+02 -0.94056698894E+01  0.16722408545E+02  0.51100000000E-03 0. -1.
         12    1    3    3    0    0 -0.21814122643E+02 -0.12337339800E+02 -0.20815583216E+02  0.32578434656E+02  0.00000000000E+00 0. -1.
</event>
<event>
 7    1  0.6953847E-012  0.5930196E+02  0.7816164E-02  0.1266605E+00
        -11   -1    0    0    0    0  0.00000000000E+00  0.00000000000E+00  0.45593999997E+02  0.45594000000E+02  0.51100000000E-03 0. -1.
         11   -1    0    0    0    0 -0.00000000000E+00 -0.00000000000E+00 -0.45593999997E+02  0.45594000000E+02  0.51100000000E-03 0.  1.
    9900012    2    1    2    0    0  0.41191591094E+01 -0.15414989265E+02  0.27606700715E+02  0.59301964025E+02  0.50000036470E+02 0.  0.
        -12    1    1    2    0    0 -0.41191591094E+01  0.15414989265E+02 -0.27606700715E+02  0.31886035975E+02  0.00000000000E+00 0.  1.
         11    1    3    3    0    0  0.63755079044E+01 -0.61243374397E+01  0.23500515544E+02  0.25108342064E+02  0.51100000000E-03 0. -1.
        -11    1    3    3    0    0 -0.47853768797E+01 -0.18367439398E+02  0.11520967619E+02  0.22203498757E+02  0.51100000000E-03 0.  1.
         12    1    3    3    0    0  0.25290280847E+01  0.90767875728E+01 -0.74147824475E+01  0.11990123204E+02  0.00000000000E+00 0. -1.
</event>
<event>
 7    1  0.6953847E-012  0.5930197E+02  0.7816164E-02  0.1266605E+00
        -11   -1    0    0    0    0  0.00000000000E+00  0.00000000000E+00  0.45593999997E+02  0.45594000000E+02  0.51100000000E-03 0.  1.
         11   -1    0    0    0    0 -0.00000000000E+00 -0.00000000000E+00 -0.45593999997E+02  0.45594000000E+02  0.51100000000E-03 0. -1.
    9900012    2    1    2    0    0 -0.22571390803E+01  0.96350288926E+01  0.30311556885E+02  0.59301969526E+02  0.50000046502E+02 0.  0.
        -12    1    1    2    0    0  0.22571390803E+01 -0.96350288926E+01 -0.30311556885E+02  0.31886030474E+02  0.00000000000E+00 0.  1.
         11    1    3    3    0    0  0.97582948947E+01 -0.11736391180E+01  0.11681648167E+02  0.15266389625E+02  0.51100000000E-03 0. -1.
        -11    1    3    3    0    0 -0.11881212720E+02 -0.91286985151E+01 -0.22662793108E+01  0.15153625786E+02  0.51100000000E-03 0.  1.
         12    1    3    3    0    0 -0.13422125465E+00  0.19937366526E+02  0.20896188029E+02  0.28881954114E+02  0.00000000000E+00 0. -1.
</event>
<event>
 7    1  0.6953847E-012  0.5930195E+02  0.7816164E-02  0.1266605E+00
        -11   -1    0    0    0    0  0.00000000000E+00  0.00000000000E+00  0.45593999997E+02  0.45594000000E+02  0.51100000000E-03 0.  1.
         11   -1    0    0    0    0 -0.00000000000E+00 -0.00000000000E+00 -0.45593999997E+02  0.45594000000E+02  0.51100000000E-03 0. -1.
    9900012    2    1    2    0    0  0.18719311678E+02 -0.23143063470E+02 -0.11432685424E+02  0.59301947995E+02  0.50000007235E+02 0.  0.
        -12    1    1    2    0    0 -0.18719311678E+02  0.23143063470E+02  0.11432685424E+02  0.31886052005E+02  0.00000000000E+00 0.  1.
         11    1    3    3    0    0 -0.12892245986E+01  0.22156626501E+00  0.56618899753E+01  0.58110403568E+01  0.51100000000E-03 0.  1.
        -11    1    3    3    0    0  0.27648184139E+02 -0.16481068665E+02  0.15212700373E+01  0.32223624460E+02  0.51100000000E-03 0. -1.
         12    1    3    3    0    0 -0.76396478626E+01 -0.68835610700E+01 -0.18615845437E+02  0.21267283179E+02  0.00000000000E+00 0. -1.
</event>
<event>
 7    1  0.6953847E-012  0.5930197E+02  0.7816164E-02  0.1266605E+00
        -11   -1    0    0    0    0  0.00000000000E+00  0.00000000000E+00  0.45593999997E+02  0.45594000000E+02  0.51100000000E-03 0. -1.
         11   -1    0    0    0    0 -0.00000000000E+00 -0.00000000000E+00 -0.45593999997E+02  0.45594000000E+02  0.51100000000E-03 0.  1.
    9900012    2    1    2    0    0  0.30910926510E+02  0.62768881091E+01 -0.46727196176E+01  0.59301968408E+02  0.50000044464E+02 0.  0.
        -12    1    1    2    0    0 -0.30910926510E+02 -0.62768881091E+01  0.46727196176E+01  0.31886031592E+02  0.00000000000E+00 0.  1.
         11    1    3    3    0    0  0.13528930908E+02 -0.15501976485E+02 -0.20847636667E+01  0.20680654879E+02  0.51100000000E-03 0. -1.
        -11    1    3    3    0    0  0.15801005555E+02  0.40689919695E+01 -0.10240791148E+02  0.19264015049E+02  0.51100000000E-03 0.  1.
         12    1    3    3    0    0  0.15809900475E+01  0.17709872624E+02  0.76528351973E+01  0.19357298480E+02  0.00000000000E+00 0. -1.
</event>
<event>
 7    1  0.6953847E-012  0.5930194E+02  0.7816164E-02  0.1266605E+00
        -11   -1    0    0    0    0  0.00000000000E+00  0.00000000000E+00  0.45593999997E+02  0.45594000000E+02  0.51100000000E-03 0. -1.
         11   -1    0    0    0    0 -0.00000000000E+00 -0.00000000000E+00 -0.45593999997E+02  0.45594000000E+02  0.51100000000E-03 0.  1.
    9900012    2    1    2    0    0 -0.22426820565E+02 -0.21410940912E+02  0.74384301215E+01  0.59301938561E+02  0.49999990031E+02 0.  0.
        -12    1    1    2    0    0  0.22426820565E+02  0.21410940912E+02 -0.74384301215E+01  0.31886061439E+02  0.00000000000E+00 0.  1.
         11    1    3    3    0    0  0.16683370602E+01 -0.79383120752E+01 -0.14572520703E+02  0.16678084633E+02  0.51100000000E-03 0. -1.
        -11    1    3    3    0    0  0.41332501931E+01  0.14013111506E+01  0.43177400063E+01  0.61392433674E+01  0.51100000000E-03 0.  1.
        -12    1    3    3    0    0 -0.28228407818E+02 -0.14873939988E+02  0.17693210818E+02  0.36484610561E+02  0.00000000000E+00 0.  1.
</event>
<event>
 7    1  0.6953847E-012  0.5930196E+02  0.7816164E-02  0.1266605E+00
        -11   -1    0    0    0    0  0.00000000000E+00  0.00000000000E+00  0.45593999997E+02  0.45594000000E+02  0.51100000000E-03 0. -1.
         11   -1    0    0    0    0 -0.00000000000E+00 -0.00000000000E+00 -0.45593999997E+02  0.45594000000E+02  0.51100000000E-03 0.  1.
    9900012    2    1    2    0    0 -0.16383900596E+02  0.22369932586E+02  0.15743998611E+02  0.59301959560E+02  0.50000028328E+02 0.  0.
        -12    1    1    2    0    0  0.16383900596E+02 -0.22369932586E+02 -0.15743998611E+02  0.31886040440E+02  0.00000000000E+00 0.  1.
         11    1    3    3    0    0 -0.85424996263E+01  0.28095220534E+02  0.30712418996E+01  0.29525383042E+02  0.51100000000E-03 0. -1.
        -11    1    3    3    0    0 -0.58565245087E+01 -0.66927501077E+01 -0.61577165931E+01  0.10817081733E+02  0.51100000000E-03 0.  1.
        -12    1    3    3    0    0 -0.19848764607E+01  0.96746215998E+00  0.18830473305E+02  0.18959494785E+02  0.00000000000E+00 0.  1.
</event>
<event>
 7    1  0.6953847E-012  0.5930194E+02  0.7816164E-02  0.1266605E+00
        -11   -1    0    0    0    0  0.00000000000E+00  0.00000000000E+00  0.45593999997E+02  0.45594000000E+02  0.51100000000E-03 0.  1.
         11   -1    0    0    0    0 -0.00000000000E+00 -0.00000000000E+00 -0.45593999997E+02  0.45594000000E+02  0.51100000000E-03 0. -1.
    9900012    2    1    2    0    0  0.28039153792E+02 -0.14184103283E+02 -0.54164479587E+01  0.59301939726E+02  0.49999992155E+02 0.  0.
        -12    1    1    2    0    0 -0.28039153792E+02  0.14184103283E+02  0.54164479587E+01  0.31886060274E+02  0.00000000000E+00 0.  1.
         11    1    3    3    0    0  0.17716697847E+02  0.70103707905E+01 -0.11036745920E+02  0.22019001839E+02  0.51100000000E-03 0. -1.
        -11    1    3    3    0    0  0.10772168628E+02  0.21332200074E+01 -0.44780701324E+01  0.11859315196E+02  0.51100000000E-03 0.  1.
        -12    1    3    3    0    0 -0.44971268276E+00 -0.23327694081E+02  0.10098368094E+02  0.25423622692E+02  0.00000000000E+00 0.  1.
</event>
<event>
 7    1  0.6953847E-012  0.5930196E+02  0.7816164E-02  0.1266605E+00
        -11   -1    0    0    0    0  0.00000000000E+00  0.00000000000E+00  0.45593999997E+02  0.45594000000E+02  0.51100000000E-03 0. -1.
         11   -1    0    0    0    0 -0.00000000000E+00 -0.00000000000E+00 -0.45593999997E+02  0.45594000000E+02  0.51100000000E-03 0.  1.
    9900012    2    1    2    0    0 -0.30908134787E+02 -0.60295777935E+00  0.78130163800E+01  0.59301959495E+02  0.50000028209E+02 0.  0.
        -12    1    1    2    0    0  0.30908134787E+02  0.60295777935E+00 -0.78130163800E+01  0.31886040505E+02  0.00000000000E+00 0.  1.
         11    1    3    3    0    0  0.94022486018E+01  0.10664351783E+02 -0.33150280845E+01  0.14598633127E+02  0.51100000000E-03 0.  1.
        -11    1    3    3    0    0 -0.99035088078E+01 -0.46492725628E+01  0.77380573622E+01  0.13400475890E+02  0.51100000000E-03 0. -1.
        -12    1    3    3    0    0 -0.30406874581E+02 -0.66180369990E+01  0.33899871022E+01  0.31302850479E+02  0.00000000000E+00 0.  1.
</event>
<event>
 7    1  0.6953847E-012  0.5930193E+02  0.7816164E-02  0.1266605E+00
        -11   -1    0    0    0    0  0.00000000000E+00  0.00000000000E+00  0.45593999997E+02  0.45594000000E+02  0.51100000000E-03 0.  1.
         11   -1    0    0    0    0 -0.00000000000E+00 -0.00000000000E+00 -0.45593999997E+02  0.45594000000E+02  0.51100000000E-03 0. -1.
    9900012    2    1    2    0    0  0.15774023462E+02 -0.15502982688E+02 -0.22968660574E+02  0.59301926912E+02  0.49999968785E+02 0.  0.
        -12    1    1    2    0    0 -0.15774023462E+02  0.15502982688E+02  0.22968660574E+02  0.31886073088E+02  0.00000000000E+00 0.  1.
         11    1    3    3    0    0  0.18631167727E+02 -0.17756096012E+02 -0.22350425373E+02  0.34087253792E+02  0.51100000000E-03 0. -1.
        -11    1    3    3    0    0  0.54329977364E+01  0.48947013764E+01 -0.10019960104E+02  0.12404642950E+02  0.51100000000E-03 0.  1.
         12    1    3    3    0    0 -0.82901420015E+01 -0.26415880524E+01  0.94017249023E+01  0.12810030171E+02  0.00000000000E+00 0. -1.
</event>
<event>
 7    1  0.6953847E-012  0.5930198E+02  0.7816164E-02  0.1266605E+00
        -11   -1    0    0    0    0  0.00000000000E+00  0.00000000000E+00  0.45593999997E+02  0.45594000000E+02  0.51100000000E-03 0.  1.
         11   -1    0    0    0    0 -0.00000000000E+00 -0.00000000000E+00 -0.45593999997E+02  0.45594000000E+02  0.51100000000E-03 0. -1.
    9900012    2    1    2    0    0  0.10675744053E+02  0.30044969477E+02  0.21509575935E+00  0.59301984756E+02  0.50000074278E+02 0.  0.
        -12    1    1    2    0    0 -0.10675744053E+02 -0.30044969477E+02 -0.21509575935E+00  0.31886015244E+02  0.00000000000E+00 0.  1.
         11    1    3    3    0    0  0.75205741159E+01  0.18429070038E+02  0.98739876614E+01  0.22219029909E+02  0.51100000000E-03 0. -1.
        -11    1    3    3    0    0 -0.31432856080E+01 -0.10597316924E+02 -0.85375111272E+01  0.13966834534E+02  0.51100000000E-03 0.  1.
         12    1    3    3    0    0  0.62984555450E+01  0.22213216363E+02 -0.11213807748E+01  0.23116120312E+02  0.00000000000E+00 0. -1.
</event>
<event>
 7    1  0.6953847E-012  0.5930196E+02  0.7816164E-02  0.1266605E+00
        -11   -1    0    0    0    0  0.00000000000E+00  0.00000000000E+00  0.45593999997E+02  0.45594000000E+02  0.51100000000E-03 0. -1.
         11   -1    0    0    0    0 -0.00000000000E+00 -0.00000000000E+00 -0.45593999997E+02  0.45594000000E+02  0.51100000000E-03 0.  1.
    9900012    2    1    2    0    0  0.28067542391E+02  0.52996235929E+00  0.15121236318E+02  0.59301959422E+02  0.50000028076E+02 0.  0.
        -12    1    1    2    0    0 -0.28067542391E+02 -0.52996235929E+00 -0.15121236318E+02  0.31886040578E+02  0.00000000000E+00 0.  1.
         11    1    3    3    0    0  0.13192299285E+02 -0.92542000922E+01 -0.92753799691E+01  0.18593269040E+02  0.51100000000E-03 0. -1.
        -11    1    3    3    0    0  0.17825204214E+02 -0.39363720087E+01  0.16494242629E+02  0.24602702495E+02  0.51100000000E-03 0.  1.
        -12    1    3    3    0    0 -0.29499611085E+01  0.13720534460E+02  0.79023736579E+01  0.16105987888E+02  0.00000000000E+00 0.  1.
</event>
<event>
 7    1  0.6953847E-012  0.5930194E+02  0.7816164E-02  0.1266605E+00
        -11   -1    0    0    0    0  0.00000000000E+00  0.00000000000E+00  0.45593999997E+02  0.45594000000E+02  0.51100000000E-03 0.  1.
         11   -1    0    0    0    0 -0.00000000000E+00 -0.00000000000E+00 -0.45593999997E+02  0.45594000000E+02  0.51100000000E-03 0. -1.
    9900012    2    1    2    0    0  0.23559249372E+02 -0.20333144478E+02 -0.69459382250E+01  0.59301936380E+02  0.49999986052E+02 0.  0.
        -12    1    1    2    0    0 -0.23559249372E+02  0.20333144478E+02  0.69459382250E+01  0.31886063620E+02  0.00000000000E+00 0.  1.
         11    1    3    3    0    0  0.17257877629E+02  0.54157677415E+00 -0.14854112829E+02  0.22776573796E+02  0.51100000000E-03 0. -1.
        -11    1    3    3    0    0 -0.28453969679E-01  0.68132282384E+01 -0.69516437795E+00  0.68486599003E+01  0.51100000000E-03 0.  1.
        -12    1    3    3    0    0  0.63298257126E+01 -0.27687949491E+02  0.86033389821E+01  0.29676702684E+02  0.00000000000E+00 0.  1.
</event>
<event>
 7    1  0.6953847E-012  0.5930194E+02  0.7816164E-02  0.1266605E+00
        -11   -1    0    0    0    0  0.00000000000E+00  0.00000000000E+00  0.45593999997E+02  0.45594000000E+02  0.51100000000E-03 0.  1.
         11   -1    0    0    0    0 -0.00000000000E+00 -0.00000000000E+00 -0.45593999997E+02  0.45594000000E+02  0.51100000000E-03 0. -1.
    9900012    2    1    2    0    0 -0.22271653326E+02 -0.15231362376E+02 -0.16991169433E+02  0.59301940657E+02  0.49999993853E+02 0.  0.
        -12    1    1    2    0    0  0.22271653326E+02  0.15231362376E+02  0.16991169433E+02  0.31886059343E+02  0.00000000000E+00 0.  1.
         11    1    3    3    0    0 -0.26725405380E+01  0.19079210715E+01 -0.15625437749E+01  0.36365064350E+01  0.51100000000E-03 0. -1.
        -11    1    3    3    0    0 -0.93473983109E+01  0.14107778762E+02  0.41070658107E+01  0.17414685372E+02  0.51100000000E-03 0.  1.
         12    1    3    3    0    0 -0.10251714477E+02 -0.31247062209E+02 -0.19535691469E+02  0.38250748850E+02  0.00000000000E+00 0. -1.
</event>
<event>
 7    1  0.6953847E-012  0.5930194E+02  0.7816164E-02  0.1266605E+00
        -11   -1    0    0    0    0  0.00000000000E+00  0.00000000000E+00  0.45593999997E+02  0.45594000000E+02  0.51100000000E-03 0. -1.
         11   -1    0    0    0    0 -0.00000000000E+00 -0.00000000000E+00 -0.45593999997E+02  0.45594000000E+02  0.51100000000E-03 0.  1.
    9900012    2    1    2    0    0 -0.27839663855E+02 -0.13516852049E+02  0.76791049273E+01  0.59301939952E+02  0.49999992567E+02 0.  0.
        -12    1    1    2    0    0  0.27839663855E+02  0.13516852049E+02 -0.76791049273E+01  0.31886060048E+02  0.00000000000E+00 0.  1.
         11    1    3    3    0    0 -0.11227302572E+02 -0.13070896724E+01  0.25319644055E+00  0.11305968121E+02  0.51100000000E-03 0. -1.
        -11    1    3    3    0    0 -0.30810072479E+02 -0.59608311010E+01  0.82962482868E+01  0.32459510308E+02  0.51100000000E-03 0.  1.
        -12    1    3    3    0    0  0.14197711195E+02 -0.62489312760E+01 -0.87033980007E+00  0.15536461523E+02  0.00000000000E+00 0.  1.
</event>
<event>
 7    1  0.6953847E-012  0.5930196E+02  0.7816164E-02  0.1266605E+00
        -11   -1    0    0    0    0  0.00000000000E+00  0.00000000000E+00  0.45593999997E+02  0.45594000000E+02  0.51100000000E-03 0.  1.
         11   -1    0    0    0    0 -0.00000000000E+00 -0.00000000000E+00 -0.45593999997E+02  0.45594000000E+02  0.51100000000E-03 0. -1.
    9900012    2    1    2    0    0  0.19443278823E+02  0.10703716460E+02 -0.22893419535E+02  0.59301963942E+02  0.50000036319E+02 0.  0.
        -12    1    1    2    0    0 -0.19443278823E+02 -0.10703716460E+02  0.22893419535E+02  0.31886036058E+02  0.00000000000E+00 0.  1.
         11    1    3    3    0    0  0.15392483593E+01 -0.12991462018E+02 -0.16403801875E+01  0.13184772212E+02  0.51100000000E-03 0. -1.
        -11    1    3    3    0    0  0.13829937390E+01  0.34394810919E+01  0.68180196843E+01  0.77606761652E+01  0.51100000000E-03 0.  1.
         12    1    3    3    0    0  0.16521036725E+02  0.20255697386E+02 -0.28071059032E+02  0.38356515565E+02  0.00000000000E+00 0. -1.
</event>
<event>
 7    1  0.6953847E-012  0.5930193E+02  0.7816164E-02  0.1266605E+00
        -11   -1    0    0    0    0  0.00000000000E+00  0.00000000000E+00  0.45593999997E+02  0.45594000000E+02  0.51100000000E-03 0. -1.
         11   -1    0    0    0    0 -0.00000000000E+00 -0.00000000000E+00 -0.45593999997E+02  0.45594000000E+02  0.51100000000E-03 0.  1.
    9900012    2    1    2    0    0  0.12834889112E+02  0.16109654372E+02  0.24340632228E+02  0.59301925928E+02  0.49999966990E+02 0.  0.
        -12    1    1    2    0    0 -0.12834889112E+02 -0.16109654372E+02 -0.24340632228E+02  0.31886074072E+02  0.00000000000E+00 0.  1.
         11    1    3    3    0    0  0.62037669561E+01 -0.11886375266E+02  0.18084932111E+02  0.22513049796E+02  0.51100000000E-03 0. -1.
        -11    1    3    3    0    0  0.10487969057E+01  0.86082146100E+00  0.88599820987E+01  0.89632734862E+01  0.51100000000E-03 0.  1.
        -12    1    3    3    0    0  0.55823252497E+01  0.27135208176E+02 -0.26042819817E+01  0.27825602646E+02  0.00000000000E+00 0.  1.
</event>
<event>
 7    1  0.6953847E-012  0.5930196E+02  0.7816164E-02  0.1266605E+00
        -11   -1    0    0    0    0  0.00000000000E+00  0.00000000000E+00  0.45593999997E+02  0.45594000000E+02  0.51100000000E-03 0.  1.
         11   -1    0    0    0    0 -0.00000000000E+00 -0.00000000000E+00 -0.45593999997E+02  0.45594000000E+02  0.51100000000E-03 0. -1.
    9900012    2    1    2    0    0  0.85088472520E+01  0.22061876887E+02 -0.21391420744E+02  0.59301956426E+02  0.50000022612E+02 0.  0.
        -12    1    1    2    0    0 -0.85088472520E+01 -0.22061876887E+02  0.21391420744E+02  0.31886043574E+02  0.00000000000E+00 0.  1.
         11    1    3    3    0    0  0.39218447936E+01 -0.32281256450E+01 -0.47371812603E+01  0.69456855903E+01  0.51100000000E-03 0. -1.
        -11    1    3    3    0    0  0.77575040691E+01  0.50393610465E+01  0.13214628549E+02  0.16130729589E+02  0.51100000000E-03 0.  1.
        -12    1    3    3    0    0 -0.31705016107E+01  0.20250641485E+02 -0.29868868033E+02  0.36225541246E+02  0.00000000000E+00 0.  1.
</event>
<event>
 7    1  0.6953847E-012  0.5930187E+02  0.7816164E-02  0.1266605E+00
        -11   -1    0    0    0    0  0.00000000000E+00  0.00000000000E+00  0.45593999997E+02  0.45594000000E+02  0.51100000000E-03 0.  1.
         11   -1    0    0    0    0 -0.00000000000E+00 -0.00000000000E+00 -0.45593999997E+02  0.45594000000E+02  0.51100000000E-03 0. -1.
    9900012    2    1    2    0    0 -0.13539599449E+02  0.94425681007E+01 -0.27280811519E+02  0.59301866294E+02  0.49999858232E+02 0.  0.
        -12    1    1    2    0    0  0.13539599449E+02 -0.94425681007E+01  0.27280811519E+02  0.31886133706E+02  0.00000000000E+00 0.  1.
         11    1    3    3    0    0 -0.69239821074E+01  0.62629478540E+01 -0.29721057236E+02  0.31152965951E+02  0.51100000000E-03 0. -1.
        -11    1    3    3    0    0 -0.39216654818E+01  0.10892966017E+02 -0.85944257921E+01  0.14418749036E+02  0.51100000000E-03 0.  1.
        -12    1    3    3    0    0 -0.26939518600E+01 -0.77133457702E+01  0.11034671509E+02  0.13730151307E+02  0.00000000000E+00 0.  1.
</event>
<event>
 7    1  0.6953847E-012  0.5930196E+02  0.7816164E-02  0.1266605E+00
        -11   -1    0    0    0    0  0.00000000000E+00  0.00000000000E+00  0.45593999997E+02  0.45594000000E+02  0.51100000000E-03 0.  1.
         11   -1    0    0    0    0 -0.00000000000E+00 -0.00000000000E+00 -0.45593999997E+02  0.45594000000E+02  0.51100000000E-03 0. -1.
    9900012    2    1    2    0    0 -0.29897274462E+02 -0.10858111965E+02  0.22302723219E+01  0.59301957124E+02  0.50000023884E+02 0.  0.
        -12    1    1    2    0    0  0.29897274462E+02  0.10858111965E+02 -0.22302723219E+01  0.31886042876E+02  0.00000000000E+00 0.  1.
         11    1    3    3    0    0 -0.22670883337E+02 -0.11591866503E+02 -0.81690568868E+01  0.26740864066E+02  0.51100000000E-03 0. -1.
        -11    1    3    3    0    0 -0.27866024695E+01  0.64606929911E+01 -0.92478624580E+01  0.11620183628E+02  0.51100000000E-03 0.  1.
        -12    1    3    3    0    0 -0.44397886555E+01 -0.57269384532E+01  0.19647191667E+02  0.20940909430E+02  0.00000000000E+00 0.  1.
</event>
<event>
 7    1  0.6953847E-012  0.5930226E+02  0.7816164E-02  0.1266604E+00
        -11   -1    0    0    0    0  0.00000000000E+00  0.00000000000E+00  0.45593999997E+02  0.45594000000E+02  0.51100000000E-03 0.  1.
         11   -1    0    0    0    0 -0.00000000000E+00 -0.00000000000E+00 -0.45593999997E+02  0.45594000000E+02  0.51100000000E-03 0. -1.
    9900012    2    1    2    0    0 -0.21380387696E+02 -0.22508368968E+02 -0.72768745261E+01  0.59302257818E+02  0.50000572275E+02 0.  0.
        -12    1    1    2    0    0  0.21380387696E+02  0.22508368968E+02  0.72768745261E+01  0.31885742182E+02  0.00000000000E+00 0.  1.
         11    1    3    3    0    0 -0.11592845865E+02 -0.14833858005E+02  0.12105214571E+02  0.22382440408E+02  0.51100000000E-03 0. -1.
        -11    1    3    3    0    0 -0.19027655039E+01  0.40403638296E+01  0.62344072751E+01  0.76689563026E+01  0.51100000000E-03 0.  1.
        -12    1    3    3    0    0 -0.78847763274E+01 -0.11714874792E+02 -0.25616496372E+02  0.29250861107E+02  0.00000000000E+00 0.  1.
</event>
<event>
 7    1  0.6953847E-012  0.5930194E+02  0.7816164E-02  0.1266605E+00
        -11   -1    0    0    0    0  0.00000000000E+00  0.00000000000E+00  0.45593999997E+02  0.45594000000E+02  0.51100000000E-03 0.  1.
         11   -1    0    0    0    0 -0.00000000000E+00 -0.00000000000E+00 -0.45593999997E+02  0.45594000000E+02  0.51100000000E-03 0. -1.
    9900012    2    1    2    0    0  0.95499008969E+01  0.28879126693E+02 -0.95664095066E+01  0.59301941032E+02  0.49999994536E+02 0.  0.
        -12    1    1    2    0    0 -0.95499008969E+01 -0.28879126693E+02  0.95664095066E+01  0.31886058968E+02  0.00000000000E+00 0.  1.
         11    1    3    3    0    0  0.83167050015E+01  0.73161607959E+01  0.49928155194E+00  0.11087969751E+02  0.51100000000E-03 0. -1.
        -11    1    3    3    0    0  0.97109577826E+01  0.18816763597E+02  0.12054885098E+02  0.24365827470E+02  0.51100000000E-03 0.  1.
        -12    1    3    3    0    0 -0.84777618873E+01  0.27462023004E+01 -0.22120576157E+02  0.23848143810E+02  0.00000000000E+00 0.  1.
</event>
<event>
 7    1  0.6953847E-012  0.5930196E+02  0.7816164E-02  0.1266605E+00
        -11   -1    0    0    0    0  0.00000000000E+00  0.00000000000E+00  0.45593999997E+02  0.45594000000E+02  0.51100000000E-03 0. -1.
         11   -1    0    0    0    0 -0.00000000000E+00 -0.00000000000E+00 -0.45593999997E+02  0.45594000000E+02  0.51100000000E-03 0.  1.
    9900012    2    1    2    0    0 -0.20899479202E+02 -0.57147425250E+01 -0.23393873528E+02  0.59301955534E+02  0.50000020985E+02 0.  0.
        -12    1    1    2    0    0  0.20899479202E+02  0.57147425250E+01  0.23393873528E+02  0.31886044466E+02  0.00000000000E+00 0.  1.
         11    1    3    3    0    0  0.13385290807E+01 -0.33017356411E+01  0.63438728958E+01  0.72758396026E+01  0.51100000000E-03 0. -1.
        -11    1    3    3    0    0 -0.47548277316E+01  0.86475856679E+01  0.54007363639E+01  0.11249759027E+02  0.51100000000E-03 0.  1.
         12    1    3    3    0    0 -0.17483180551E+02 -0.11060592552E+02 -0.35138482788E+02  0.40776356904E+02  0.00000000000E+00 0. -1.
</event>
<event>
 7    1  0.6953847E-012  0.5930193E+02  0.7816164E-02  0.1266605E+00
        -11   -1    0    0    0    0  0.00000000000E+00  0.00000000000E+00  0.45593999997E+02  0.45594000000E+02  0.51100000000E-03 0. -1.
         11   -1    0    0    0    0 -0.00000000000E+00 -0.00000000000E+00 -0.45593999997E+02  0.45594000000E+02  0.51100000000E-03 0.  1.
    9900012    2    1    2    0    0  0.17339806144E+02 -0.45472314094E+01  0.26369974734E+02  0.59301925327E+02  0.49999965894E+02 0.  0.
        -12    1    1    2    0    0 -0.17339806144E+02  0.45472314094E+01 -0.26369974734E+02  0.31886074673E+02  0.00000000000E+00 0.  1.
         11    1    3    3    0    0  0.18420774351E+01 -0.16795412668E+02  0.12432408286E+02  0.20977223649E+02  0.51100000000E-03 0. -1.
        -11    1    3    3    0    0  0.16522893657E+02  0.63740404042E+01  0.22034317334E+02  0.28269162466E+02  0.51100000000E-03 0.  1.
        -12    1    3    3    0    0 -0.10251649481E+01  0.58741408540E+01 -0.80967508859E+01  0.10055539212E+02  0.00000000000E+00 0.  1.
</event>
<event>
 7    1  0.6953847E-012  0.5930195E+02  0.7816164E-02  0.1266605E+00
        -11   -1    0    0    0    0  0.00000000000E+00  0.00000000000E+00  0.45593999997E+02  0.45594000000E+02  0.51100000000E-03 0. -1.
         11   -1    0    0    0    0 -0.00000000000E+00 -0.00000000000E+00 -0.45593999997E+02  0.45594000000E+02  0.51100000000E-03 0.  1.
    9900012    2    1    2    0    0 -0.35241300895E-01 -0.20130651057E+02  0.24728038159E+02  0.59301949365E+02  0.50000009734E+02 0.  0.
        -12    1    1    2    0    0  0.35241300895E-01  0.20130651057E+02 -0.24728038159E+02  0.31886050635E+02  0.00000000000E+00 0.  1.
         11    1    3    3    0    0  0.38909657929E+01 -0.13427189265E+02  0.20733438636E+02  0.25006089345E+02  0.51100000000E-03 0. -1.
        -11    1    3    3    0    0  0.83245482244E+01  0.35163566353E+01  0.13109047081E+02  0.15921996821E+02  0.51100000000E-03 0.  1.
        -12    1    3    3    0    0 -0.12250755318E+02 -0.10219818427E+02 -0.91144475591E+01  0.18373863199E+02  0.00000000000E+00 0.  1.
</event>
<event>
 7    1  0.6953847E-012  0.5930194E+02  0.7816164E-02  0.1266605E+00
        -11   -1    0    0    0    0  0.00000000000E+00  0.00000000000E+00  0.45593999997E+02  0.45594000000E+02  0.51100000000E-03 0. -1.
         11   -1    0    0    0    0 -0.00000000000E+00 -0.00000000000E+00 -0.45593999997E+02  0.45594000000E+02  0.51100000000E-03 0.  1.
    9900012    2    1    2    0    0  0.14290248019E+02  0.27945492373E+02 -0.56177393862E+01  0.59301941476E+02  0.49999995345E+02 0.  0.
        -12    1    1    2    0    0 -0.14290248019E+02 -0.27945492373E+02  0.56177393862E+01  0.31886058524E+02  0.00000000000E+00 0.  1.
         11    1    3    3    0    0  0.14110439520E+01  0.15437308834E+02  0.26732937471E+01  0.15730481518E+02  0.51100000000E-03 0. -1.
        -11    1    3    3    0    0  0.20527769145E+02  0.19921565815E+02  0.21112262197E+01  0.28683015306E+02  0.51100000000E-03 0.  1.
        -12    1    3    3    0    0 -0.76485650778E+01 -0.74133822760E+01 -0.10402259353E+02  0.14888444652E+02  0.00000000000E+00 0.  1.
</event>
<event>
 7    1  0.6953847E-012  0.5930192E+02  0.7816164E-02  0.1266605E+00
        -11   -1    0    0    0    0  0.00000000000E+00  0.00000000000E+00  0.45593999997E+02  0.45594000000E+02  0.51100000000E-03 0.  1.
         11   -1    0    0    0    0 -0.00000000000E+00 -0.00000000000E+00 -0.45593999997E+02  0.45594000000E+02  0.51100000000E-03 0. -1.
    9900012    2    1    2    0    0 -0.31810211443E+02  0.20086027782E+01  0.89323187620E+00  0.59301923096E+02  0.49999961825E+02 0.  0.
        -12    1    1    2    0    0  0.31810211443E+02 -0.20086027782E+01 -0.89323187620E+00  0.31886076904E+02  0.00000000000E+00 0.  1.
         11    1    3    3    0    0 -0.11611823372E+02  0.15199643754E+02 -0.30446125344E+00  0.19129984558E+02  0.51100000000E-03 0. -1.
        -11    1    3    3    0    0 -0.62530034954E+01 -0.12930340906E+01  0.15602226101E+02  0.16858275399E+02  0.51100000000E-03 0.  1.
         12    1    3    3    0    0 -0.13945384575E+02 -0.11898006885E+02 -0.14404532971E+02  0.23313663138E+02  0.00000000000E+00 0. -1.
</event>
<event>
 7    1  0.6953847E-012  0.5930196E+02  0.7816164E-02  0.1266605E+00
        -11   -1    0    0    0    0  0.00000000000E+00  0.00000000000E+00  0.45593999997E+02  0.45594000000E+02  0.51100000000E-03 0. -1.
         11   -1    0    0    0    0 -0.00000000000E+00 -0.00000000000E+00 -0.45593999997E+02  0.45594000000E+02  0.51100000000E-03 0.  1.
    9900012    2    1    2    0    0  0.13623841208E+02  0.37496205175E+00  0.28826545947E+02  0.59301962350E+02  0.50000033415E+02 0.  0.
        -12    1    1    2    0    0 -0.13623841208E+02 -0.37496205175E+00 -0.28826545947E+02  0.31886037650E+02  0.00000000000E+00 0.  1.
         11    1    3    3    0    0  0.13147860870E+02 -0.16520790214E+01  0.18673408313E+01  0.13382173687E+02  0.51100000000E-03 0. -1.
        -11    1    3    3    0    0 -0.28039382709E+01 -0.17255731534E+02  0.10804845345E+02  0.20551569862E+02  0.51100000000E-03 0.  1.
        -12    1    3    3    0    0  0.32799186086E+01  0.19282772607E+02  0.16154359771E+02  0.25368218800E+02  0.00000000000E+00 0.  1.
</event>
<event>
 7    1  0.6953847E-012  0.5930194E+02  0.7816164E-02  0.1266605E+00
        -11   -1    0    0    0    0  0.00000000000E+00  0.00000000000E+00  0.45593999997E+02  0.45594000000E+02  0.51100000000E-03 0. -1.
         11   -1    0    0    0    0 -0.00000000000E+00 -0.00000000000E+00 -0.45593999997E+02  0.45594000000E+02  0.51100000000E-03 0.  1.
    9900012    2    1    2    0    0 -0.22502265520E+02 -0.16690624410E+02  0.15224720276E+02  0.59301937148E+02  0.49999987454E+02 0.  0.
        -12    1    1    2    0    0  0.22502265520E+02  0.16690624410E+02 -0.15224720276E+02  0.31886062852E+02  0.00000000000E+00 0.  1.
         11    1    3    3    0    0  0.14689435783E+01  0.15515418788E+01  0.72126262910E+01  0.75224368202E+01  0.51100000000E-03 0. -1.
        -11    1    3    3    0    0  0.99391179696E+01  0.34147435986E+01  0.43608939565E+01  0.11378222015E+02  0.51100000000E-03 0.  1.
        -12    1    3    3    0    0 -0.33910327067E+02 -0.21656909888E+02  0.36512000282E+01  0.40401278313E+02  0.00000000000E+00 0.  1.
</event>
<event>
 7    1  0.6953847E-012  0.5930193E+02  0.7816164E-02  0.1266605E+00
        -11   -1    0    0    0    0  0.00000000000E+00  0.00000000000E+00  0.45593999997E+02  0.45594000000E+02  0.51100000000E-03 0. -1.
         11   -1    0    0    0    0 -0.00000000000E+00 -0.00000000000E+00 -0.45593999997E+02  0.45594000000E+02  0.51100000000E-03 0.  1.
    9900012    2    1    2    0    0 -0.38270521944E+01  0.35144212647E+01  0.31459876256E+02  0.59301932520E+02  0.49999979013E+02 0.  0.
        -12    1    1    2    0    0  0.38270521944E+01 -0.35144212647E+01 -0.31459876256E+02  0.31886067480E+02  0.00000000000E+00 0.  1.
         11    1    3    3    0    0 -0.33554577542E+01 -0.51152618810E+01  0.19929675648E+02  0.20847469212E+02  0.51100000000E-03 0. -1.
        -11    1    3    3    0    0 -0.12203995470E+01 -0.13877668689E+02  0.23155267389E+01  0.14122348517E+02  0.51100000000E-03 0.  1.
         12    1    3    3    0    0  0.74880510682E+00  0.22507351835E+02  0.92146738686E+01  0.24332114791E+02  0.00000000000E+00 0. -1.
</event>
<event>
 7    1  0.6953847E-012  0.5930184E+02  0.7816164E-02  0.1266605E+00
        -11   -1    0    0    0    0  0.00000000000E+00  0.00000000000E+00  0.45593999997E+02  0.45594000000E+02  0.51100000000E-03 0.  1.
         11   -1    0    0    0    0 -0.00000000000E+00 -0.00000000000E+00 -0.45593999997E+02  0.45594000000E+02  0.51100000000E-03 0. -1.
    9900012    2    1    2    0    0  0.82979993030E+01 -0.30357669839E+02 -0.51266020724E+01  0.59301843768E+02  0.49999817149E+02 0.  0.
        -12    1    1    2    0    0 -0.82979993030E+01  0.30357669839E+02  0.51266020724E+01  0.31886156232E+02  0.00000000000E+00 0.  1.
         11    1    3    3    0    0  0.13594655518E+02 -0.29794371578E+02 -0.14407257426E+01  0.32781014739E+02  0.51100000000E-03 0.  1.
        -11    1    3    3    0    0  0.76657649104E+01 -0.20006809346E+01 -0.93903326602E+01  0.12285968566E+02  0.51100000000E-03 0. -1.
        -12    1    3    3    0    0 -0.12962421126E+02  0.14373826735E+01  0.57044563304E+01  0.14234860464E+02  0.00000000000E+00 0.  1.
</event>
<event>
 7    1  0.6953847E-012  0.5930203E+02  0.7816164E-02  0.1266604E+00
        -11   -1    0    0    0    0  0.00000000000E+00  0.00000000000E+00  0.45593999997E+02  0.45594000000E+02  0.51100000000E-03 0.  1.
         11   -1    0    0    0    0 -0.00000000000E+00 -0.00000000000E+00 -0.45593999997E+02  0.45594000000E+02  0.51100000000E-03 0. -1.
    9900012    2    1    2    0    0  0.14494781405E+02  0.11144778753E+02 -0.26122982789E+02  0.59302031123E+02  0.50000158841E+02 0.  0.
        -12    1    1    2    0    0 -0.14494781405E+02 -0.11144778753E+02  0.26122982789E+02  0.31885968877E+02  0.00000000000E+00 0.  1.
         11    1    3    3    0    0  0.50760696927E+01  0.51365838683E+01 -0.91367230981E+01  0.11646058844E+02  0.51100000000E-03 0. -1.
        -11    1    3    3    0    0  0.14495139752E+02 -0.15884539360E+02 -0.12037224110E+02  0.24643912669E+02  0.51100000000E-03 0.  1.
         12    1    3    3    0    0 -0.50764280394E+01  0.21892734244E+02 -0.49490355810E+01  0.23012059610E+02  0.00000000000E+00 0. -1.
</event>
<event>
 7    1  0.6953847E-012  0.5930196E+02  0.7816164E-02  0.1266605E+00
        -11   -1    0    0    0    0  0.00000000000E+00  0.00000000000E+00  0.45593999997E+02  0.45594000000E+02  0.51100000000E-03 0. -1.
         11   -1    0    0    0    0 -0.00000000000E+00 -0.00000000000E+00 -0.45593999997E+02  0.45594000000E+02  0.51100000000E-03 0.  1.
    9900012    2    1    2    0    0 -0.17446211750E+02  0.25337632205E+02 -0.83876886865E+01  0.59301964942E+02  0.50000038143E+02 0.  0.
        -12    1    1    2    0    0  0.17446211750E+02 -0.25337632205E+02  0.83876886865E+01  0.31886035058E+02  0.00000000000E+00 0.  1.
         11    1    3    3    0    0  0.29056063858E+01  0.69810354400E+00  0.65554909545E+01  0.72044679847E+01  0.51100000000E-03 0. -1.
        -11    1    3    3    0    0  0.82821009381E+01  0.80915346817E+01 -0.15096399094E+02  0.19025440739E+02  0.51100000000E-03 0.  1.
         12    1    3    3    0    0 -0.28633919074E+02  0.16547993980E+02  0.15321945349E+00  0.33072056218E+02  0.00000000000E+00 0. -1.
</event>
<event>
 7    1  0.6953847E-012  0.5930196E+02  0.7816164E-02  0.1266605E+00
        -11   -1    0    0    0    0  0.00000000000E+00  0.00000000000E+00  0.45593999997E+02  0.45594000000E+02  0.51100000000E-03 0. -1.
         11   -1    0    0    0    0 -0.00000000000E+00 -0.00000000000E+00 -0.45593999997E+02  0.45594000000E+02  0.51100000000E-03 0.  1.
    9900012    2    1    2    0    0  0.16869752545E+02  0.22486852302E+02 -0.15049009971E+02  0.59301956368E+02  0.50000022505E+02 0.  0.
        -12    1    1    2    0    0 -0.16869752545E+02 -0.22486852302E+02  0.15049009971E+02  0.31886043632E+02  0.00000000000E+00 0.  1.
         11    1    3    3    0    0  0.11415778636E+02  0.31149283476E+02 -0.15102700950E+02  0.36451192562E+02  0.51100000000E-03 0.  1.
        -11    1    3    3    0    0 -0.33521941718E+01 -0.22279046990E+01  0.82688448806E+01  0.91964428467E+01  0.51100000000E-03 0. -1.
        -12    1    3    3    0    0  0.88061680809E+01 -0.64345264750E+01 -0.82151539011E+01  0.13654320959E+02  0.00000000000E+00 0.  1.
</event>
<event>
 7    1  0.6953847E-012  0.5930178E+02  0.7816164E-02  0.1266605E+00
        -11   -1    0    0    0    0  0.00000000000E+00  0.00000000000E+00  0.45593999997E+02  0.45594000000E+02  0.51100000000E-03 0. -1.
         11   -1    0    0    0    0 -0.00000000000E+00 -0.00000000000E+00 -0.45593999997E+02  0.45594000000E+02  0.51100000000E-03 0.  1.
    9900012    2    1    2    0    0 -0.30720945163E+02  0.83722623117E+01  0.16910381585E+01  0.59301782633E+02  0.49999705653E+02 0.  0.
        -12    1    1    2    0    0  0.30720945163E+02 -0.83722623117E+01 -0.16910381585E+01  0.31886217367E+02  0.00000000000E+00 0.  1.
         11    1    3    3    0    0 -0.57908151657E+01  0.44600645680E+01  0.43579866076E+01  0.85098627349E+01  0.51100000000E-03 0. -1.
        -11    1    3    3    0    0 -0.33822342894E+02 -0.88834668171E+01 -0.37628166563E+01  0.35171375449E+02  0.51100000000E-03 0.  1.
        -12    1    3    3    0    0  0.88922128962E+01  0.12795664561E+02  0.10958682073E+01  0.15620544449E+02  0.00000000000E+00 0.  1.
</event>
<event>
 7    1  0.6953847E-012  0.5930196E+02  0.7816164E-02  0.1266605E+00
        -11   -1    0    0    0    0  0.00000000000E+00  0.00000000000E+00  0.45593999997E+02  0.45594000000E+02  0.51100000000E-03 0.  1.
         11   -1    0    0    0    0 -0.00000000000E+00 -0.00000000000E+00 -0.45593999997E+02  0.45594000000E+02  0.51100000000E-03 0. -1.
    9900012    2    1    2    0    0 -0.40643007940E+01 -0.72069891933E+01 -0.30793839247E+02  0.59301956505E+02  0.50000022756E+02 0.  0.
        -12    1    1    2    0    0  0.40643007940E+01  0.72069891933E+01  0.30793839247E+02  0.31886043495E+02  0.00000000000E+00 0.  1.
         11    1    3    3    0    0  0.72591145030E+01 -0.65501705920E+01 -0.18106289021E+01  0.99437344813E+01  0.51100000000E-03 0. -1.
        -11    1    3    3    0    0  0.40578614981E+00  0.21943241040E+01  0.91198536535E+01  0.93889004465E+01  0.51100000000E-03 0.  1.
        -12    1    3    3    0    0 -0.11729201447E+02 -0.28511427053E+01 -0.38103063998E+02  0.39969321578E+02  0.00000000000E+00 0.  1.
</event>
<event>
 7    1  0.6953847E-012  0.5930193E+02  0.7816164E-02  0.1266605E+00
        -11   -1    0    0    0    0  0.00000000000E+00  0.00000000000E+00  0.45593999997E+02  0.45594000000E+02  0.51100000000E-03 0.  1.
         11   -1    0    0    0    0 -0.00000000000E+00 -0.00000000000E+00 -0.45593999997E+02  0.45594000000E+02  0.51100000000E-03 0. -1.
    9900012    2    1    2    0    0 -0.25359412416E+01 -0.31693360833E+02 -0.24127099579E+01  0.59301932694E+02  0.49999979330E+02 0.  0.
        -12    1    1    2    0    0  0.25359412416E+01  0.31693360833E+02  0.24127099579E+01  0.31886067306E+02  0.00000000000E+00 0.  1.
         11    1    3    3    0    0 -0.10165439594E+02 -0.91930175706E+00 -0.12845301575E+02  0.16406798915E+02  0.51100000000E-03 0. -1.
        -11    1    3    3    0    0  0.57853418011E+01  0.15081251200E+01  0.86449551097E+01  0.10510940502E+02  0.51100000000E-03 0.  1.
        -12    1    3    3    0    0  0.18441565508E+01 -0.32282184196E+02  0.17876365069E+01  0.32384193276E+02  0.00000000000E+00 0.  1.
</event>
<event>
 7    1  0.6953847E-012  0.5930189E+02  0.7816164E-02  0.1266605E+00
        -11   -1    0    0    0    0  0.00000000000E+00  0.00000000000E+00  0.45593999997E+02  0.45594000000E+02  0.51100000000E-03 0.  1.
         11   -1    0    0    0    0 -0.00000000000E+00 -0.00000000000E+00 -0.45593999997E+02  0.45594000000E+02  0.51100000000E-03 0. -1.
    9900012    2    1    2    0    0 -0.29479480370E+02 -0.10501686893E+02 -0.61154417694E+01  0.59301893017E+02  0.49999906969E+02 0.  0.
        -12    1    1    2    0    0  0.29479480370E+02  0.10501686893E+02  0.61154417694E+01  0.31886106983E+02  0.00000000000E+00 0.  1.
         11    1    3    3    0    0 -0.66461488015E+01  0.28565724507E+01 -0.88401760024E+01  0.11422784777E+02  0.51100000000E-03 0. -1.
        -11    1    3    3    0    0 -0.12168143713E+02  0.11868458398E+02  0.97611430398E+01  0.19601120883E+02  0.51100000000E-03 0.  1.
        -12    1    3    3    0    0 -0.10665187855E+02 -0.25226717742E+02 -0.70364088068E+01  0.28277987356E+02  0.00000000000E+00 0.  1.
</event>
<event>
 7    1  0.6953847E-012  0.5930195E+02  0.7816164E-02  0.1266605E+00
        -11   -1    0    0    0    0  0.00000000000E+00  0.00000000000E+00  0.45593999997E+02  0.45594000000E+02  0.51100000000E-03 0. -1.
         11   -1    0    0    0    0 -0.00000000000E+00 -0.00000000000E+00 -0.45593999997E+02  0.45594000000E+02  0.51100000000E-03 0.  1.
    9900012    2    1    2    0    0 -0.36298601597E+01 -0.17206705897E+02  0.26598369667E+02  0.59301954752E+02  0.50000019559E+02 0.  0.
        -12    1    1    2    0    0  0.36298601597E+01  0.17206705897E+02 -0.26598369667E+02  0.31886045248E+02  0.00000000000E+00 0.  1.
         11    1    3    3    0    0  0.11622298703E+00 -0.13296676211E+01  0.15126194786E+02  0.15184969303E+02  0.51100000000E-03 0. -1.
        -11    1    3    3    0    0 -0.16770984987E+01  0.75122034415E+01 -0.97808786532E+01  0.12446342732E+02  0.51100000000E-03 0.  1.
         12    1    3    3    0    0 -0.20689846480E+01 -0.23389241718E+02  0.21253053534E+02  0.31670642717E+02  0.00000000000E+00 0. -1.
</event>
<event>
 7    1  0.6953847E-012  0.5930182E+02  0.7816164E-02  0.1266605E+00
        -11   -1    0    0    0    0  0.00000000000E+00  0.00000000000E+00  0.45593999997E+02  0.45594000000E+02  0.51100000000E-03 0.  1.
         11   -1    0    0    0    0 -0.00000000000E+00 -0.00000000000E+00 -0.45593999997E+02  0.45594000000E+02  0.51100000000E-03 0. -1.
    9900012    2    1    2    0    0  0.31070248936E+02 -0.18898711857E+01  0.69134911244E+01  0.59301822092E+02  0.49999777618E+02 0.  0.
        -12    1    1    2    0    0 -0.31070248936E+02  0.18898711857E+01 -0.69134911244E+01  0.31886177908E+02  0.00000000000E+00 0.  1.
         11    1    3    3    0    0 -0.21954643001E+01 -0.30361151594E+01 -0.10444693783E+02  0.11096381718E+02  0.51100000000E-03 0. -1.
        -11    1    3    3    0    0  0.51610552077E+01 -0.20607838929E+01 -0.83176139895E+01  0.10003300648E+02  0.51100000000E-03 0.  1.
        -12    1    3    3    0    0  0.28104658029E+02  0.32070278665E+01  0.25675798897E+02  0.38202139726E+02  0.00000000000E+00 0.  1.
</event>
<event>
 7    1  0.6953847E-012  0.5930194E+02  0.7816164E-02  0.1266605E+00
        -11   -1    0    0    0    0  0.00000000000E+00  0.00000000000E+00  0.45593999997E+02  0.45594000000E+02  0.51100000000E-03 0.  1.
         11   -1    0    0    0    0 -0.00000000000E+00 -0.00000000000E+00 -0.45593999997E+02  0.45594000000E+02  0.51100000000E-03 0. -1.
    9900012    2    1    2    0    0  0.21058076995E+02  0.17965276287E+02  0.15828039104E+02  0.59301943789E+02  0.49999999565E+02 0.  0.
        -12    1    1    2    0    0 -0.21058076995E+02 -0.17965276287E+02 -0.15828039104E+02  0.31886056211E+02  0.00000000000E+00 0.  1.
         11    1    3    3    0    0 -0.14400755077E+01  0.76210942698E+01  0.53520336596E+01  0.94233306156E+01  0.51100000000E-03 0. -1.
        -11    1    3    3    0    0  0.13385462561E+02  0.44686598525E+01  0.26796222535E+02  0.30284931422E+02  0.51100000000E-03 0.  1.
         12    1    3    3    0    0  0.91126899420E+01  0.58755221645E+01 -0.16320217091E+02  0.19593681751E+02  0.00000000000E+00 0. -1.
</event>
<event>
 7    1  0.6953847E-012  0.5930197E+02  0.7816164E-02  0.1266605E+00
        -11   -1    0    0    0    0  0.00000000000E+00  0.00000000000E+00  0.45593999997E+02  0.45594000000E+02  0.51100000000E-03 0.  1.
         11   -1    0    0    0    0 -0.00000000000E+00 -0.00000000000E+00 -0.45593999997E+02  0.45594000000E+02  0.51100000000E-03 0. -1.
    9900012    2    1    2    0    0 -0.23714315210E+01  0.28870747695E+02 -0.13325723519E+02  0.59301973794E+02  0.50000054286E+02 0.  0.
        -12    1    1    2    0    0  0.23714315210E+01 -0.28870747695E+02  0.13325723519E+02  0.31886026206E+02  0.00000000000E+00 0.  1.
         11    1    3    3    0    0 -0.13075424488E+02  0.13099300512E+02  0.11322603488E+02  0.21696998627E+02  0.51100000000E-03 0.  1.
        -11    1    3    3    0    0  0.10828851827E+02  0.14618673312E+02 -0.63484968379E+01  0.19268447100E+02  0.51100000000E-03 0. -1.
        -12    1    3    3    0    0 -0.12485886061E+00  0.11527738711E+01 -0.18299830169E+02  0.18336528066E+02  0.00000000000E+00 0.  1.
</event>
<event>
 7    1  0.6953847E-012  0.5930197E+02  0.7816164E-02  0.1266605E+00
        -11   -1    0    0    0    0  0.00000000000E+00  0.00000000000E+00  0.45593999997E+02  0.45594000000E+02  0.51100000000E-03 0. -1.
         11   -1    0    0    0    0 -0.00000000000E+00 -0.00000000000E+00 -0.45593999997E+02  0.45594000000E+02  0.51100000000E-03 0.  1.
    9900012    2    1    2    0    0 -0.27345257233E+02 -0.30025431985E+01  0.16122665764E+02  0.59301973121E+02  0.50000053059E+02 0.  0.
        -12    1    1    2    0    0  0.27345257233E+02  0.30025431985E+01 -0.16122665764E+02  0.31886026879E+02  0.00000000000E+00 0.  1.
         11    1    3    3    0    0  0.27038853217E+01  0.10592774565E+01  0.13460779546E+01  0.32007796993E+01  0.51100000000E-03 0. -1.
        -11    1    3    3    0    0 -0.32555057122E+01  0.17108158727E+02 -0.28913367898E+01  0.17653533390E+02  0.51100000000E-03 0.  1.
         12    1    3    3    0    0 -0.26793636843E+02 -0.21169979382E+02  0.17667924599E+02  0.38447660032E+02  0.00000000000E+00 0. -1.
</event>
<event>
 7    1  0.6953847E-012  0.5930194E+02  0.7816164E-02  0.1266605E+00
        -11   -1    0    0    0    0  0.00000000000E+00  0.00000000000E+00  0.45593999997E+02  0.45594000000E+02  0.51100000000E-03 0. -1.
         11   -1    0    0    0    0 -0.00000000000E+00 -0.00000000000E+00 -0.45593999997E+02  0.45594000000E+02  0.51100000000E-03 0.  1.
    9900012    2    1    2    0    0 -0.58050852515E+01 -0.29613199699E+02  0.10299536281E+02  0.59301936292E+02  0.49999985893E+02 0.  0.
        -12    1    1    2    0    0  0.58050852515E+01  0.29613199699E+02 -0.10299536281E+02  0.31886063708E+02  0.00000000000E+00 0.  1.
         11    1    3    3    0    0  0.81741794284E+00  0.21663923228E+01  0.15954469208E+02  0.16121616412E+02  0.51100000000E-03 0. -1.
        -11    1    3    3    0    0 -0.89550559512E+01 -0.40152064417E+00 -0.74625562940E+01  0.11663789805E+02  0.51100000000E-03 0.  1.
        -12    1    3    3    0    0  0.23325527568E+01 -0.31378071377E+02  0.18076233670E+01  0.31516530075E+02  0.00000000000E+00 0.  1.
</event>
<event>
 7    1  0.6953847E-012  0.5930201E+02  0.7816164E-02  0.1266605E+00
        -11   -1    0    0    0    0  0.00000000000E+00  0.00000000000E+00  0.45593999997E+02  0.45594000000E+02  0.51100000000E-03 0.  1.
         11   -1    0    0    0    0 -0.00000000000E+00 -0.00000000000E+00 -0.45593999997E+02  0.45594000000E+02  0.51100000000E-03 0. -1.
    9900012    2    1    2    0    0  0.22856114182E+02 -0.30590643290E+00 -0.22231083479E+02  0.59302006101E+02  0.50000113207E+02 0.  0.
        -12    1    1    2    0    0 -0.22856114182E+02  0.30590643290E+00  0.22231083479E+02  0.31885993899E+02  0.00000000000E+00 0.  1.
         11    1    3    3    0    0  0.23309040736E+02  0.52866280671E+01 -0.43880208800E+01  0.24300505012E+02  0.51100000000E-03 0. -1.
        -11    1    3    3    0    0  0.38308899476E+01 -0.14222290283E+02 -0.65140039572E-02  0.14729198939E+02  0.51100000000E-03 0.  1.
        -12    1    3    3    0    0 -0.42838165016E+01  0.86297557829E+01 -0.17836548595E+02  0.20272302151E+02  0.00000000000E+00 0.  1.
</event>
<event>
 7    1  0.6953847E-012  0.5930192E+02  0.7816164E-02  0.1266605E+00
        -11   -1    0    0    0    0  0.00000000000E+00  0.00000000000E+00  0.45593999997E+02  0.45594000000E+02  0.51100000000E-03 0.  1.
         11   -1    0    0    0    0 -0.00000000000E+00 -0.00000000000E+00 -0.45593999997E+02  0.45594000000E+02  0.51100000000E-03 0. -1.
    9900012    2    1    2    0    0  0.28706103473E+02 -0.13406462304E+02  0.35983829632E+01  0.59301922033E+02  0.49999959888E+02 0.  0.
        -12    1    1    2    0    0 -0.28706103473E+02  0.13406462304E+02 -0.35983829632E+01  0.31886077967E+02  0.00000000000E+00 0.  1.
         11    1    3    3    0    0  0.29526860671E+02 -0.16323926126E+02  0.22772219323E+01  0.33815555670E+02  0.51100000000E-03 0. -1.
        -11    1    3    3    0    0  0.28113709229E+00 -0.27514591071E+01  0.12554476391E+02  0.12855521888E+02  0.51100000000E-03 0.  1.
         12    1    3    3    0    0 -0.11018942897E+01  0.56689229291E+01 -0.11233315360E+02  0.12630844476E+02  0.00000000000E+00 0. -1.
</event>
<event>
 7    1  0.6953847E-012  0.5930195E+02  0.7816164E-02  0.1266605E+00
        -11   -1    0    0    0    0  0.00000000000E+00  0.00000000000E+00  0.45593999997E+02  0.45594000000E+02  0.51100000000E-03 0.  1.
         11   -1    0    0    0    0 -0.00000000000E+00 -0.00000000000E+00 -0.45593999997E+02  0.45594000000E+02  0.51100000000E-03 0. -1.
    9900012    2    1    2    0    0 -0.10883561621E+02  0.28692822649E+02 -0.86596812347E+01  0.59301951887E+02  0.50000014334E+02 0.  0.
        -12    1    1    2    0    0  0.10883561621E+02 -0.28692822649E+02  0.86596812347E+01  0.31886048113E+02  0.00000000000E+00 0.  1.
         11    1    3    3    0    0  0.41762568829E+00  0.17363182455E+02 -0.24551134273E+02  0.30073455248E+02  0.51100000000E-03 0. -1.
        -11    1    3    3    0    0  0.32134470330E+01  0.14178963884E+01 -0.20873650124E+01  0.40858004061E+01  0.51100000000E-03 0.  1.
        -12    1    3    3    0    0 -0.14514634343E+02  0.99117438056E+01  0.17978818051E+02  0.25142696233E+02  0.00000000000E+00 0.  1.
</event>
<event>
 7    1  0.6953847E-012  0.5930187E+02  0.7816164E-02  0.1266605E+00
        -11   -1    0    0    0    0  0.00000000000E+00  0.00000000000E+00  0.45593999997E+02  0.45594000000E+02  0.51100000000E-03 0. -1.
         11   -1    0    0    0    0 -0.00000000000E+00 -0.00000000000E+00 -0.45593999997E+02  0.45594000000E+02  0.51100000000E-03 0.  1.
    9900012    2    1    2    0    0  0.21103345363E+02 -0.19144295472E+02  0.14313275176E+02  0.59301873222E+02  0.49999870867E+02 0.  0.
        -12    1    1    2    0    0 -0.21103345363E+02  0.19144295472E+02 -0.14313275176E+02  0.31886126778E+02  0.00000000000E+00 0.  1.
         11    1    3    3    0    0  0.79665583472E+01  0.67706188795E+01 -0.10542069268E+02  0.14847308060E+02  0.51100000000E-03 0. -1.
        -11    1    3    3    0    0  0.73872657158E+00 -0.11069268590E+02 -0.20869025708E+01  0.11288471406E+02  0.51100000000E-03 0.  1.
         12    1    3    3    0    0  0.12398060445E+02 -0.14845645761E+02  0.26942247015E+02  0.33166093756E+02  0.00000000000E+00 0. -1.
</event>
<event>
 7    1  0.6953847E-012  0.5930195E+02  0.7816164E-02  0.1266605E+00
        -11   -1    0    0    0    0  0.00000000000E+00  0.00000000000E+00  0.45593999997E+02  0.45594000000E+02  0.51100000000E-03 0.  1.
         11   -1    0    0    0    0 -0.00000000000E+00 -0.00000000000E+00 -0.45593999997E+02  0.45594000000E+02  0.51100000000E-03 0. -1.
    9900012    2    1    2    0    0 -0.27152565278E+02  0.16426824989E+02 -0.31012749479E+01  0.59301948400E+02  0.50000007973E+02 0.  0.
        -12    1    1    2    0    0  0.27152565278E+02 -0.16426824989E+02  0.31012749479E+01  0.31886051600E+02  0.00000000000E+00 0.  1.
         11    1    3    3    0    0 -0.12825191189E+02  0.13543599378E+02 -0.40311540272E+01  0.19083102897E+02  0.51100000000E-03 0. -1.
        -11    1    3    3    0    0 -0.26700135550E+02  0.45941713176E+00 -0.33295294566E+01  0.26910854114E+02  0.51100000000E-03 0.  1.
        -12    1    3    3    0    0  0.12372761461E+02  0.24238084794E+01  0.42594085358E+01  0.13307991388E+02  0.00000000000E+00 0.  1.
</event>
<event>
 7    1  0.6953847E-012  0.5930195E+02  0.7816164E-02  0.1266605E+00
        -11   -1    0    0    0    0  0.00000000000E+00  0.00000000000E+00  0.45593999997E+02  0.45594000000E+02  0.51100000000E-03 0. -1.
         11   -1    0    0    0    0 -0.00000000000E+00 -0.00000000000E+00 -0.45593999997E+02  0.45594000000E+02  0.51100000000E-03 0.  1.
    9900012    2    1    2    0    0  0.15440986576E+02  0.16402065485E+02  0.22566976585E+02  0.59301948962E+02  0.50000008998E+02 0.  0.
        -12    1    1    2    0    0 -0.15440986576E+02 -0.16402065485E+02 -0.22566976585E+02  0.31886051038E+02  0.00000000000E+00 0.  1.
         11    1    3    3    0    0  0.62755811296E+01  0.20238119694E+02  0.11548660507E+02  0.24131638300E+02  0.51100000000E-03 0. -1.
        -11    1    3    3    0    0  0.16018839834E+02  0.65768498967E+01  0.14098037088E+02  0.22329640261E+02  0.51100000000E-03 0.  1.
         12    1    3    3    0    0 -0.68534343875E+01 -0.10412904106E+02 -0.30797210103E+01  0.12840670400E+02  0.00000000000E+00 0. -1.
</event>
<event>
 7    1  0.6953847E-012  0.5930196E+02  0.7816164E-02  0.1266605E+00
        -11   -1    0    0    0    0  0.00000000000E+00  0.00000000000E+00  0.45593999997E+02  0.45594000000E+02  0.51100000000E-03 0.  1.
         11   -1    0    0    0    0 -0.00000000000E+00 -0.00000000000E+00 -0.45593999997E+02  0.45594000000E+02  0.51100000000E-03 0. -1.
    9900012    2    1    2    0    0 -0.11858375792E+02  0.29172071879E+02 -0.50088857053E+01  0.59301956185E+02  0.50000022172E+02 0.  0.
        -12    1    1    2    0    0  0.11858375792E+02 -0.29172071879E+02  0.50088857053E+01  0.31886043815E+02  0.00000000000E+00 0.  1.
         11    1    3    3    0    0 -0.85136035623E+01  0.25648877884E+01 -0.66414096016E+01  0.11098126722E+02  0.51100000000E-03 0. -1.
        -11    1    3    3    0    0  0.13485262986E+02  0.50865472917E+01 -0.10974390853E+02  0.18115256996E+02  0.51100000000E-03 0.  1.
        -12    1    3    3    0    0 -0.16830035216E+02  0.21520636799E+02  0.12606914750E+02  0.30088572467E+02  0.00000000000E+00 0.  1.
</event>
<event>
 7    1  0.6953847E-012  0.5930194E+02  0.7816164E-02  0.1266605E+00
        -11   -1    0    0    0    0  0.00000000000E+00  0.00000000000E+00  0.45593999997E+02  0.45594000000E+02  0.51100000000E-03 0.  1.
         11   -1    0    0    0    0 -0.00000000000E+00 -0.00000000000E+00 -0.45593999997E+02  0.45594000000E+02  0.51100000000E-03 0. -1.
    9900012    2    1    2    0    0  0.22144825713E+02 -0.18352535317E+02  0.13766341608E+02  0.59301936905E+02  0.49999987010E+02 0.  0.
        -12    1    1    2    0    0 -0.22144825713E+02  0.18352535317E+02 -0.13766341608E+02  0.31886063095E+02  0.00000000000E+00 0.  1.
         11    1    3    3    0    0  0.14074954216E+02 -0.30500407899E+02  0.10621872622E+01  0.33608145742E+02  0.51100000000E-03 0. -1.
        -11    1    3    3    0    0  0.39617708941E+01  0.67505513883E+01 -0.31595168266E+01  0.84408601163E+01  0.51100000000E-03 0.  1.
        -12    1    3    3    0    0  0.41081006025E+01  0.53973211937E+01  0.15863671173E+02  0.17252931047E+02  0.00000000000E+00 0.  1.
</event>
<event>
 7    1  0.6953847E-012  0.5930192E+02  0.7816164E-02  0.1266605E+00
        -11   -1    0    0    0    0  0.00000000000E+00  0.00000000000E+00  0.45593999997E+02  0.45594000000E+02  0.51100000000E-03 0. -1.
         11   -1    0    0    0    0 -0.00000000000E+00 -0.00000000000E+00 -0.45593999997E+02  0.45594000000E+02  0.51100000000E-03 0.  1.
    9900012    2    1    2    0    0  0.44909487447E+01  0.12055348051E+02  0.29175708508E+02  0.59301921467E+02  0.49999958856E+02 0.  0.
        -12    1    1    2    0    0 -0.44909487447E+01 -0.12055348051E+02 -0.29175708508E+02  0.31886078533E+02  0.00000000000E+00 0.  1.
         11    1    3    3    0    0  0.13293799018E+02  0.13317097714E+02  0.73643602737E+01  0.20206533259E+02  0.51100000000E-03 0. -1.
        -11    1    3    3    0    0  0.58937964876E+01  0.66481431858E+01 -0.28383208621E+01  0.93268810668E+01  0.51100000000E-03 0.  1.
         12    1    3    3    0    0 -0.14696646761E+02 -0.79098928488E+01  0.24649669096E+02  0.29768507142E+02  0.00000000000E+00 0. -1.
</event>
<event>
 7    1  0.6953847E-012  0.5930193E+02  0.7816164E-02  0.1266605E+00
        -11   -1    0    0    0    0  0.00000000000E+00  0.00000000000E+00  0.45593999997E+02  0.45594000000E+02  0.51100000000E-03 0.  1.
         11   -1    0    0    0    0 -0.00000000000E+00 -0.00000000000E+00 -0.45593999997E+02  0.45594000000E+02  0.51100000000E-03 0. -1.
    9900012    2    1    2    0    0 -0.28860230057E+02 -0.71257137289E+00 -0.13538858176E+02  0.59301932233E+02  0.49999978490E+02 0.  0.
        -12    1    1    2    0    0  0.28860230057E+02  0.71257137289E+00  0.13538858176E+02  0.31886067767E+02  0.00000000000E+00 0.  1.
         11    1    3    3    0    0 -0.11259080823E+01 -0.16328685554E+02  0.49452782492E+01  0.17098228509E+02  0.51100000000E-03 0. -1.
        -11    1    3    3    0    0 -0.20110085673E+00 -0.34214267617E+01  0.87173528449E+00  0.35364566034E+01  0.51100000000E-03 0.  1.
         12    1    3    3    0    0 -0.27533221118E+02  0.19037540943E+02 -0.19355871710E+02  0.38667247121E+02  0.00000000000E+00 0. -1.
</event>
<event>
 7    1  0.6953847E-012  0.5930194E+02  0.7816164E-02  0.1266605E+00
        -11   -1    0    0    0    0  0.00000000000E+00  0.00000000000E+00  0.45593999997E+02  0.45594000000E+02  0.51100000000E-03 0. -1.
         11   -1    0    0    0    0 -0.00000000000E+00 -0.00000000000E+00 -0.45593999997E+02  0.45594000000E+02  0.51100000000E-03 0.  1.
    9900012    2    1    2    0    0 -0.23146493040E+02  0.76602435072E+01  0.20549490861E+02  0.59301936504E+02  0.49999986278E+02 0.  0.
        -12    1    1    2    0    0  0.23146493040E+02 -0.76602435072E+01 -0.20549490861E+02  0.31886063496E+02  0.00000000000E+00 0.  1.
         11    1    3    3    0    0 -0.83360672936E+01 -0.12531566654E+02 -0.23145758481E+01  0.15227850878E+02  0.51100000000E-03 0. -1.
        -11    1    3    3    0    0  0.62129187294E+01  0.11825927995E+01 -0.17205165153E+01  0.65543163036E+01  0.51100000000E-03 0.  1.
        -12    1    3    3    0    0 -0.21023344476E+02  0.19009217362E+02  0.24584583224E+02  0.37519769322E+02  0.00000000000E+00 0.  1.
</event>
<event>
 7    1  0.6953847E-012  0.5930191E+02  0.7816164E-02  0.1266605E+00
        -11   -1    0    0    0    0  0.00000000000E+00  0.00000000000E+00  0.45593999997E+02  0.45594000000E+02  0.51100000000E-03 0. -1.
         11   -1    0    0    0    0 -0.00000000000E+00 -0.00000000000E+00 -0.45593999997E+02  0.45594000000E+02  0.51100000000E-03 0.  1.
    9900012    2    1    2    0    0 -0.28883866744E+02  0.85228485286E+01  0.10478849204E+02  0.59301906075E+02  0.49999930784E+02 0.  0.
        -12    1    1    2    0    0  0.28883866744E+02 -0.85228485286E+01 -0.10478849204E+02  0.31886093925E+02  0.00000000000E+00 0.  1.
         11    1    3    3    0    0 -0.10351578709E+02  0.12427825877E+02  0.55044112399E+01  0.17085215280E+02  0.51100000000E-03 0. -1.
        -11    1    3    3    0    0 -0.12933806231E+02  0.96509697768E+01 -0.11757567692E+02  0.19966596093E+02  0.51100000000E-03 0.  1.
         12    1    3    3    0    0 -0.55984818048E+01 -0.13555947126E+02  0.16732005656E+02  0.22250094703E+02  0.00000000000E+00 0. -1.
</event>
<event>
 7    1  0.6953847E-012  0.5930192E+02  0.7816164E-02  0.1266605E+00
        -11   -1    0    0    0    0  0.00000000000E+00  0.00000000000E+00  0.45593999997E+02  0.45594000000E+02  0.51100000000E-03 0. -1.
         11   -1    0    0    0    0 -0.00000000000E+00 -0.00000000000E+00 -0.45593999997E+02  0.45594000000E+02  0.51100000000E-03 0.  1.
    9900012    2    1    2    0    0  0.14307583221E+01 -0.30963185270E+02 -0.74804037510E+01  0.59301916017E+02  0.49999948916E+02 0.  0.
        -12    1    1    2    0    0 -0.14307583221E+01  0.30963185270E+02  0.74804037510E+01  0.31886083983E+02  0.00000000000E+00 0.  1.
         11    1    3    3    0    0  0.78845024858E+01 -0.54742368299E+01  0.12945636646E+01  0.96854810753E+01  0.51100000000E-03 0. -1.
        -11    1    3    3    0    0  0.52412212000E+01 -0.28932871036E+02 -0.17868251677E+02  0.34407206284E+02  0.51100000000E-03 0.  1.
         12    1    3    3    0    0 -0.11694965364E+02  0.34439225953E+01  0.90932842616E+01  0.15209228658E+02  0.00000000000E+00 0. -1.
</event>
<event>
 7    1  0.6953847E-012  0.5930194E+02  0.7816164E-02  0.1266605E+00
        -11   -1    0    0    0    0  0.00000000000E+00  0.00000000000E+00  0.45593999997E+02  0.45594000000E+02  0.51100000000E-03 0.  1.
         11   -1    0    0    0    0 -0.00000000000E+00 -0.00000000000E+00 -0.45593999997E+02  0.45594000000E+02  0.51100000000E-03 0. -1.
    9900012    2    1    2    0    0  0.37431903460E+01  0.29432646866E+02 -0.11680263082E+02  0.59301941587E+02  0.49999995548E+02 0.  0.
        -12    1    1    2    0    0 -0.37431903460E+01 -0.29432646866E+02  0.11680263082E+02  0.31886058413E+02  0.00000000000E+00 0.  1.
         11    1    3    3    0    0  0.37251536225E+01  0.27792261642E+02 -0.17640450715E+02  0.33128116131E+02  0.51100000000E-03 0. -1.
        -11    1    3    3    0    0 -0.51214491690E+01  0.12220599235E+02  0.56571134376E+01  0.14407470977E+02  0.51100000000E-03 0.  1.
         12    1    3    3    0    0  0.51394858925E+01 -0.10580214011E+02  0.30307419542E+00  0.11766354479E+02  0.00000000000E+00 0. -1.
</event>
<event>
 7    1  0.6953847E-012  0.5930187E+02  0.7816164E-02  0.1266605E+00
        -11   -1    0    0    0    0  0.00000000000E+00  0.00000000000E+00  0.45593999997E+02  0.45594000000E+02  0.51100000000E-03 0.  1.
         11   -1    0    0    0    0 -0.00000000000E+00 -0.00000000000E+00 -0.45593999997E+02  0.45594000000E+02  0.51100000000E-03 0. -1.
    9900012    2    1    2    0    0  0.75317464325E+00 -0.36103972710E+01 -0.31672117127E+02  0.59301870667E+02  0.49999866208E+02 0.  0.
        -12    1    1    2    0    0 -0.75317464325E+00  0.36103972710E+01  0.31672117127E+02  0.31886129333E+02  0.00000000000E+00 0.  1.
         11    1    3    3    0    0 -0.39454255280E+01 -0.38012436077E+01 -0.35454882245E+02  0.35875681330E+02  0.51100000000E-03 0. -1.
        -11    1    3    3    0    0  0.15208723504E+01 -0.67260587995E+01 -0.72606978341E+01  0.10013523505E+02  0.51100000000E-03 0.  1.
        -12    1    3    3    0    0  0.31777278208E+01  0.69169051361E+01  0.11043462952E+02  0.13412665833E+02  0.00000000000E+00 0.  1.
</event>
<event>
 7    1  0.6953847E-012  0.5930198E+02  0.7816164E-02  0.1266605E+00
        -11   -1    0    0    0    0  0.00000000000E+00  0.00000000000E+00  0.45593999997E+02  0.45594000000E+02  0.51100000000E-03 0.  1.
         11   -1    0    0    0    0 -0.00000000000E+00 -0.00000000000E+00 -0.45593999997E+02  0.45594000000E+02  0.51100000000E-03 0. -1.
    9900012    2    1    2    0    0  0.62559105143E+01 -0.30339992048E+02  0.75542471740E+01  0.59301981368E+02  0.50000068100E+02 0.  0.
        -12    1    1    2    0    0 -0.62559105143E+01  0.30339992048E+02 -0.75542471740E+01  0.31886018632E+02  0.00000000000E+00 0.  1.
         11    1    3    3    0    0  0.22194856696E+01 -0.10685228226E+02  0.50414259939E+01  0.12021488893E+02  0.51100000000E-03 0. -1.
        -11    1    3    3    0    0  0.15348536448E+01 -0.40051287204E+01  0.21856600986E+02  0.22273478370E+02  0.51100000000E-03 0.  1.
         12    1    3    3    0    0  0.25015712000E+01 -0.15649635101E+02 -0.19343779806E+02  0.25007014105E+02  0.00000000000E+00 0. -1.
</event>
<event>
 7    1  0.6953847E-012  0.5930194E+02  0.7816164E-02  0.1266605E+00
        -11   -1    0    0    0    0  0.00000000000E+00  0.00000000000E+00  0.45593999997E+02  0.45594000000E+02  0.51100000000E-03 0. -1.
         11   -1    0    0    0    0 -0.00000000000E+00 -0.00000000000E+00 -0.45593999997E+02  0.45594000000E+02  0.51100000000E-03 0.  1.
    9900012    2    1    2    0    0  0.30993157001E+01 -0.10924927144E+02  0.29795314556E+02  0.59301944107E+02  0.50000000145E+02 0.  0.
        -12    1    1    2    0    0 -0.30993157001E+01  0.10924927144E+02 -0.29795314556E+02  0.31886055893E+02  0.00000000000E+00 0.  1.
         11    1    3    3    0    0  0.90667768095E+01 -0.11990973022E+02  0.18525320940E+02  0.23857438922E+02  0.51100000000E-03 0. -1.
        -11    1    3    3    0    0 -0.10892141467E+02  0.65857904939E+01  0.20183195947E+02  0.23861533502E+02  0.51100000000E-03 0.  1.
         12    1    3    3    0    0  0.49246803574E+01 -0.55197446161E+01 -0.89132023305E+01  0.11582971684E+02  0.00000000000E+00 0. -1.
</event>
<event>
 7    1  0.6953847E-012  0.5930195E+02  0.7816164E-02  0.1266605E+00
        -11   -1    0    0    0    0  0.00000000000E+00  0.00000000000E+00  0.45593999997E+02  0.45594000000E+02  0.51100000000E-03 0.  1.
         11   -1    0    0    0    0 -0.00000000000E+00 -0.00000000000E+00 -0.45593999997E+02  0.45594000000E+02  0.51100000000E-03 0. -1.
    9900012    2    1    2    0    0 -0.48598421544E+01  0.15008518955E+02 -0.27710045380E+02  0.59301947847E+02  0.50000006965E+02 0.  0.
        -12    1    1    2    0    0  0.48598421544E+01 -0.15008518955E+02  0.27710045380E+02  0.31886052153E+02  0.00000000000E+00 0.  1.
         11    1    3    3    0    0 -0.17910559837E+02 -0.47898622212E+01 -0.21631796184E+02  0.28489744474E+02  0.51100000000E-03 0. -1.
        -11    1    3    3    0    0  0.45541366648E+00 -0.32452452212E+01 -0.28693056575E+01  0.43556782906E+01  0.51100000000E-03 0.  1.
        -12    1    3    3    0    0  0.12595304016E+02  0.23043626397E+02 -0.32089435383E+01  0.26456525082E+02  0.00000000000E+00 0.  1.
</event>
<event>
 7    1  0.6953847E-012  0.5930196E+02  0.7816164E-02  0.1266605E+00
        -11   -1    0    0    0    0  0.00000000000E+00  0.00000000000E+00  0.45593999997E+02  0.45594000000E+02  0.51100000000E-03 0.  1.
         11   -1    0    0    0    0 -0.00000000000E+00 -0.00000000000E+00 -0.45593999997E+02  0.45594000000E+02  0.51100000000E-03 0. -1.
    9900012    2    1    2    0    0 -0.30749486137E+02  0.23522095730E+01 -0.81028367230E+01  0.59301956807E+02  0.50000023306E+02 0.  0.
        -12    1    1    2    0    0  0.30749486137E+02 -0.23522095730E+01  0.81028367230E+01  0.31886043193E+02  0.00000000000E+00 0.  1.
         11    1    3    3    0    0 -0.15634127769E+02 -0.12735889261E+01 -0.16744030138E+02  0.22943638015E+02  0.51100000000E-03 0. -1.
        -11    1    3    3    0    0 -0.78066365065E+01 -0.11525965592E+02 -0.49051221950E+01  0.14759799469E+02  0.51100000000E-03 0.  1.
        -12    1    3    3    0    0 -0.73087218616E+01  0.15151764091E+02  0.13546315610E+02  0.21598519322E+02  0.00000000000E+00 0.  1.
</event>
<event>
 7    1  0.6953847E-012  0.5930200E+02  0.7816164E-02  0.1266605E+00
        -11   -1    0    0    0    0  0.00000000000E+00  0.00000000000E+00  0.45593999997E+02  0.45594000000E+02  0.51100000000E-03 0.  1.
         11   -1    0    0    0    0 -0.00000000000E+00 -0.00000000000E+00 -0.45593999997E+02  0.45594000000E+02  0.51100000000E-03 0. -1.
    9900012    2    1    2    0    0 -0.23612048437E+02  0.17091206247E+02  0.12925903779E+02  0.59301997572E+02  0.50000097652E+02 0.  0.
        -12    1    1    2    0    0  0.23612048437E+02 -0.17091206247E+02 -0.12925903779E+02  0.31886002428E+02  0.00000000000E+00 0.  1.
         11    1    3    3    0    0 -0.78656967977E+01 -0.57472175092E+01  0.30848170679E+01  0.10218404563E+02  0.51100000000E-03 0. -1.
        -11    1    3    3    0    0 -0.20560216394E+02 -0.36990650982E+00  0.14191741181E+02  0.24985292614E+02  0.51100000000E-03 0.  1.
         12    1    3    3    0    0  0.48138647551E+01  0.23208330266E+02 -0.43506544700E+01  0.24098300395E+02  0.00000000000E+00 0. -1.
</event>
<event>
 7    1  0.6953847E-012  0.5930195E+02  0.7816164E-02  0.1266605E+00
        -11   -1    0    0    0    0  0.00000000000E+00  0.00000000000E+00  0.45593999997E+02  0.45594000000E+02  0.51100000000E-03 0.  1.
         11   -1    0    0    0    0 -0.00000000000E+00 -0.00000000000E+00 -0.45593999997E+02  0.45594000000E+02  0.51100000000E-03 0. -1.
    9900012    2    1    2    0    0 -0.29520909277E+02 -0.47054494474E+01 -0.11094810895E+02  0.59301950263E+02  0.50000011371E+02 0.  0.
        -12    1    1    2    0    0  0.29520909277E+02  0.47054494474E+01  0.11094810895E+02  0.31886049737E+02  0.00000000000E+00 0.  1.
         11    1    3    3    0    0 -0.36437412714E+01  0.86390200009E+01  0.89419963936E+01  0.12956419907E+02  0.51100000000E-03 0. -1.
        -11    1    3    3    0    0  0.44555936239E+01  0.18245548524E+01  0.26950693997E+01  0.55176729045E+01  0.51100000000E-03 0.  1.
         12    1    3    3    0    0 -0.30332761630E+02 -0.15169024301E+02 -0.22731876688E+02  0.40827857452E+02  0.00000000000E+00 0. -1.
</event>
<event>
 7    1  0.6953847E-012  0.5930194E+02  0.7816164E-02  0.1266605E+00
        -11   -1    0    0    0    0  0.00000000000E+00  0.00000000000E+00  0.45593999997E+02  0.45594000000E+02  0.51100000000E-03 0.  1.
         11   -1    0    0    0    0 -0.00000000000E+00 -0.00000000000E+00 -0.45593999997E+02  0.45594000000E+02  0.51100000000E-03 0. -1.
    9900012    2    1    2    0    0  0.18295256509E+02 -0.75422113907E+01 -0.25002391578E+02  0.59301938029E+02  0.49999989061E+02 0.  0.
        -12    1    1    2    0    0 -0.18295256509E+02  0.75422113907E+01  0.25002391578E+02  0.31886061971E+02  0.00000000000E+00 0.  1.
         11    1    3    3    0    0 -0.95135963472E+00  0.11422603712E+02 -0.12992046886E+02  0.17325537315E+02  0.51100000000E-03 0. -1.
        -11    1    3    3    0    0  0.26487517965E+02 -0.11367984092E+02 -0.12616135501E+02  0.31464051638E+02  0.51100000000E-03 0.  1.
        -12    1    3    3    0    0 -0.72409018215E+01 -0.75968310108E+01  0.60579080899E+00  0.10512349076E+02  0.00000000000E+00 0.  1.
</event>
<event>
 7    1  0.6953847E-012  0.5930196E+02  0.7816164E-02  0.1266605E+00
        -11   -1    0    0    0    0  0.00000000000E+00  0.00000000000E+00  0.45593999997E+02  0.45594000000E+02  0.51100000000E-03 0. -1.
         11   -1    0    0    0    0 -0.00000000000E+00 -0.00000000000E+00 -0.45593999997E+02  0.45594000000E+02  0.51100000000E-03 0.  1.
    9900012    2    1    2    0    0  0.22372051429E+02 -0.10650312896E+02  0.20069414731E+02  0.59301964536E+02  0.50000037402E+02 0.  0.
        -12    1    1    2    0    0 -0.22372051429E+02  0.10650312896E+02 -0.20069414731E+02  0.31886035464E+02  0.00000000000E+00 0.  1.
         11    1    3    3    0    0  0.48312776897E+01 -0.44302131649E+01  0.19023529993E+02  0.20121200919E+02  0.51100000000E-03 0. -1.
        -11    1    3    3    0    0 -0.72592813034E+01  0.77364061585E+01  0.15332065907E+01  0.10719135600E+02  0.51100000000E-03 0.  1.
        -12    1    3    3    0    0  0.24800055043E+02 -0.13956505890E+02 -0.48732185204E+00  0.28461628017E+02  0.00000000000E+00 0.  1.
</event>
<event>
 7    1  0.6953847E-012  0.5930181E+02  0.7816164E-02  0.1266605E+00
        -11   -1    0    0    0    0  0.00000000000E+00  0.00000000000E+00  0.45593999997E+02  0.45594000000E+02  0.51100000000E-03 0.  1.
         11   -1    0    0    0    0 -0.00000000000E+00 -0.00000000000E+00 -0.45593999997E+02  0.45594000000E+02  0.51100000000E-03 0. -1.
    9900012    2    1    2    0    0  0.65906423335E+01  0.13647844231E+02 -0.28054029606E+02  0.59301814972E+02  0.49999764632E+02 0.  0.
        -12    1    1    2    0    0 -0.65906423335E+01 -0.13647844231E+02  0.28054029606E+02  0.31886185028E+02  0.00000000000E+00 0.  1.
         11    1    3    3    0    0 -0.30230010140E+01 -0.46665000284E+01 -0.75405997551E+01  0.93688527886E+01  0.51100000000E-03 0. -1.
        -11    1    3    3    0    0  0.12841476349E+02  0.93046067263E+00  0.88736995859E+01  0.15636873616E+02  0.51100000000E-03 0.  1.
         12    1    3    3    0    0 -0.32278330016E+01  0.17383883587E+02 -0.29387129437E+02  0.34296088567E+02  0.00000000000E+00 0. -1.
</event>
<event>
 7    1  0.6953847E-012  0.5930184E+02  0.7816164E-02  0.1266605E+00
        -11   -1    0    0    0    0  0.00000000000E+00  0.00000000000E+00  0.45593999997E+02  0.45594000000E+02  0.51100000000E-03 0. -1.
         11   -1    0    0    0    0 -0.00000000000E+00 -0.00000000000E+00 -0.45593999997E+02  0.45594000000E+02  0.51100000000E-03 0.  1.
    9900012    2    1    2    0    0  0.28601374875E+02 -0.14038012294E+02 -0.12739887350E+01  0.59301835584E+02  0.49999802223E+02 0.  0.
        -12    1    1    2    0    0 -0.28601374875E+02  0.14038012294E+02  0.12739887350E+01  0.31886164416E+02  0.00000000000E+00 0.  1.
         11    1    3    3    0    0 -0.78697138966E+01 -0.15357166061E+01  0.64746086092E+01  0.10305890510E+02  0.51100000000E-03 0. -1.
        -11    1    3    3    0    0  0.34567289939E+02 -0.19408260284E+02 -0.10982447068E+02  0.41136264352E+02  0.51100000000E-03 0.  1.
         12    1    3    3    0    0  0.19037988328E+01  0.69059645963E+01  0.32338497242E+01  0.78596807213E+01  0.00000000000E+00 0. -1.
</event>
<event>
 7    1  0.6953847E-012  0.5930194E+02  0.7816164E-02  0.1266605E+00
        -11   -1    0    0    0    0  0.00000000000E+00  0.00000000000E+00  0.45593999997E+02  0.45594000000E+02  0.51100000000E-03 0.  1.
         11   -1    0    0    0    0 -0.00000000000E+00 -0.00000000000E+00 -0.45593999997E+02  0.45594000000E+02  0.51100000000E-03 0. -1.
    9900012    2    1    2    0    0  0.21730248833E+02  0.10062179839E+02 -0.21053972592E+02  0.59301938165E+02  0.49999989307E+02 0.  0.
        -12    1    1    2    0    0 -0.21730248833E+02 -0.10062179839E+02  0.21053972592E+02  0.31886061835E+02  0.00000000000E+00 0.  1.
         11    1    3    3    0    0  0.68968451366E+01 -0.11531641447E+02 -0.10005639368E+01  0.13473913898E+02  0.51100000000E-03 0. -1.
        -11    1    3    3    0    0  0.16335572521E+02  0.22746306275E+02 -0.24370597879E+01  0.28110223041E+02  0.51100000000E-03 0.  1.
         12    1    3    3    0    0 -0.15021688248E+01 -0.11524849887E+01 -0.17616348868E+02  0.17717801225E+02  0.00000000000E+00 0. -1.
</event>
<event>
 7    1  0.6953847E-012  0.5930195E+02  0.7816164E-02  0.1266605E+00
        -11   -1    0    0    0    0  0.00000000000E+00  0.00000000000E+00  0.45593999997E+02  0.45594000000E+02  0.51100000000E-03 0.  1.
         11   -1    0    0    0    0 -0.00000000000E+00 -0.00000000000E+00 -0.45593999997E+02  0.45594000000E+02  0.51100000000E-03 0. -1.
    9900012    2    1    2    0    0 -0.27534821031E+01  0.48933322324E+01 -0.31387794627E+02  0.59301952651E+02  0.50000015726E+02 0.  0.
        -12    1    1    2    0    0  0.27534821031E+01 -0.48933322324E+01  0.31387794627E+02  0.31886047349E+02  0.00000000000E+00 0.  1.
         11    1    3    3    0    0  0.72826104894E+01  0.30637618744E+01  0.60527048584E+01  0.99528030588E+01  0.51100000000E-03 0. -1.
        -11    1    3    3    0    0 -0.70205034676E+01 -0.10409297874E+02 -0.33379394124E+01  0.12991643119E+02  0.51100000000E-03 0.  1.
         12    1    3    3    0    0 -0.30155891249E+01  0.12238868232E+02 -0.34102560073E+02  0.36357506472E+02  0.00000000000E+00 0. -1.
</event>
<event>
 7    1  0.6953847E-012  0.5930193E+02  0.7816164E-02  0.1266605E+00
        -11   -1    0    0    0    0  0.00000000000E+00  0.00000000000E+00  0.45593999997E+02  0.45594000000E+02  0.51100000000E-03 0. -1.
         11   -1    0    0    0    0 -0.00000000000E+00 -0.00000000000E+00 -0.45593999997E+02  0.45594000000E+02  0.51100000000E-03 0.  1.
    9900012    2    1    2    0    0  0.11477212737E+01 -0.16629793003E+02  0.27181872915E+02  0.59301929458E+02  0.49999973428E+02 0.  0.
        -12    1    1    2    0    0 -0.11477212737E+01  0.16629793003E+02 -0.27181872915E+02  0.31886070542E+02  0.00000000000E+00 0.  1.
         11    1    3    3    0    0 -0.11519061878E+02 -0.57838280635E+01  0.12011114476E+02  0.17618408692E+02  0.51100000000E-03 0. -1.
        -11    1    3    3    0    0 -0.23996144675E+01  0.12310722001E+01  0.21264957497E+02  0.21435300464E+02  0.51100000000E-03 0.  1.
         12    1    3    3    0    0  0.15066397619E+02 -0.12077037139E+02 -0.60941990576E+01  0.20248220303E+02  0.00000000000E+00 0. -1.
</event>
<event>
 7    1  0.6953847E-012  0.5930194E+02  0.7816164E-02  0.1266605E+00
        -11   -1    0    0    0    0  0.00000000000E+00  0.00000000000E+00  0.45593999997E+02  0.45594000000E+02  0.51100000000E-03 0.  1.
         11   -1    0    0    0    0 -0.00000000000E+00 -0.00000000000E+00 -0.45593999997E+02  0.45594000000E+02  0.51100000000E-03 0. -1.
    9900012    2    1    2    0    0  0.23038150797E+02  0.20126470466E+02 -0.89938795380E+01  0.59301936042E+02  0.49999985437E+02 0.  0.
        -12    1    1    2    0    0 -0.23038150797E+02 -0.20126470466E+02  0.89938795380E+01  0.31886063958E+02  0.00000000000E+00 0.  1.
         11    1    3    3    0    0  0.19524396088E+02  0.28196537272E+02 -0.15856795962E+02  0.37784715630E+02  0.51100000000E-03 0. -1.
        -11    1    3    3    0    0  0.11006605574E+02 -0.62854289641E+01  0.46820210826E+01  0.13511968961E+02  0.51100000000E-03 0.  1.
         12    1    3    3    0    0 -0.74928508652E+01 -0.17846378422E+01  0.21808953415E+01  0.80052514518E+01  0.00000000000E+00 0. -1.
</event>
<event>
 7    1  0.6953847E-012  0.5930194E+02  0.7816164E-02  0.1266605E+00
        -11   -1    0    0    0    0  0.00000000000E+00  0.00000000000E+00  0.45593999997E+02  0.45594000000E+02  0.51100000000E-03 0.  1.
         11   -1    0    0    0    0 -0.00000000000E+00 -0.00000000000E+00 -0.45593999997E+02  0.45594000000E+02  0.51100000000E-03 0. -1.
    9900012    2    1    2    0    0 -0.72317786493E+01 -0.31020383696E+02  0.14690755816E+01  0.59301937055E+02  0.49999987283E+02 0.  0.
        -12    1    1    2    0    0  0.72317786493E+01  0.31020383696E+02 -0.14690755816E+01  0.31886062945E+02  0.00000000000E+00 0.  1.
         11    1    3    3    0    0  0.81326265021E+01 -0.19970230755E+02  0.99330708806E+01  0.23740590296E+02  0.51100000000E-03 0. -1.
        -11    1    3    3    0    0  0.29308505250E+01 -0.48082395586E+01  0.82623056041E+01  0.99987372508E+01  0.51100000000E-03 0.  1.
         12    1    3    3    0    0 -0.18295255676E+02 -0.62419133830E+01 -0.16726300903E+02  0.25562609508E+02  0.00000000000E+00 0. -1.
</event>
<event>
 7    1  0.6953847E-012  0.5930195E+02  0.7816164E-02  0.1266605E+00
        -11   -1    0    0    0    0  0.00000000000E+00  0.00000000000E+00  0.45593999997E+02  0.45594000000E+02  0.51100000000E-03 0.  1.
         11   -1    0    0    0    0 -0.00000000000E+00 -0.00000000000E+00 -0.45593999997E+02  0.45594000000E+02  0.51100000000E-03 0. -1.
    9900012    2    1    2    0    0  0.29213079205E+02  0.12711360957E+02  0.13181183477E+01  0.59301950856E+02  0.50000012453E+02 0.  0.
        -12    1    1    2    0    0 -0.29213079205E+02 -0.12711360957E+02 -0.13181183477E+01  0.31886049144E+02  0.00000000000E+00 0.  1.
         11    1    3    3    0    0  0.62183942526E+01  0.92695321321E+00  0.51273912401E+01  0.81128176689E+01  0.51100000000E-03 0. -1.
        -11    1    3    3    0    0  0.57707008901E+00 -0.13671009715E+02  0.72847627358E+01  0.15501525244E+02  0.51100000000E-03 0.  1.
         12    1    3    3    0    0  0.22417614864E+02  0.25455417459E+02 -0.11094035628E+02  0.35687607943E+02  0.00000000000E+00 0. -1.
</event>
<event>
 7    1  0.6953847E-012  0.5930194E+02  0.7816164E-02  0.1266605E+00
        -11   -1    0    0    0    0  0.00000000000E+00  0.00000000000E+00  0.45593999997E+02  0.45594000000E+02  0.51100000000E-03 0. -1.
         11   -1    0    0    0    0 -0.00000000000E+00 -0.00000000000E+00 -0.45593999997E+02  0.45594000000E+02  0.51100000000E-03 0.  1.
    9900012    2    1    2    0    0  0.23522055893E+02  0.19631667162E+02  0.88335216934E+01  0.59301943886E+02  0.49999999742E+02 0.  0.
        -12    1    1    2    0    0 -0.23522055893E+02 -0.19631667162E+02 -0.88335216934E+01  0.31886056114E+02  0.00000000000E+00 0.  1.
         11    1    3    3    0    0  0.96629836089E+01  0.20622548342E+02  0.65377399823E+01  0.23693982289E+02  0.51100000000E-03 0. -1.
        -11    1    3    3    0    0 -0.14278877037E+01  0.79992341001E+01 -0.10833601228E+02  0.13542286562E+02  0.51100000000E-03 0.  1.
         12    1    3    3    0    0  0.15286959988E+02 -0.89901152805E+01  0.13129382940E+02  0.22065675036E+02  0.00000000000E+00 0. -1.
</event>
<event>
 7    1  0.6953847E-012  0.5930196E+02  0.7816164E-02  0.1266605E+00
        -11   -1    0    0    0    0  0.00000000000E+00  0.00000000000E+00  0.45593999997E+02  0.45594000000E+02  0.51100000000E-03 0.  1.
         11   -1    0    0    0    0 -0.00000000000E+00 -0.00000000000E+00 -0.45593999997E+02  0.45594000000E+02  0.51100000000E-03 0. -1.
    9900012    2    1    2    0    0 -0.24961266298E+02 -0.26260396231E+01 -0.19666174162E+02  0.59301963785E+02  0.50000036033E+02 0.  0.
        -12    1    1    2    0    0  0.24961266298E+02  0.26260396231E+01  0.19666174162E+02  0.31886036215E+02  0.00000000000E+00 0.  1.
         11    1    3    3    0    0 -0.18839916708E+02 -0.14760234727E+02 -0.15687779869E+02  0.28616663471E+02  0.51100000000E-03 0. -1.
        -11    1    3    3    0    0 -0.68068625938E+01 -0.74572975912E+01 -0.45474268603E+01  0.11073561173E+02  0.51100000000E-03 0.  1.
         12    1    3    3    0    0  0.68551300330E+00  0.19591492695E+02  0.56903256743E+00  0.19611739141E+02  0.00000000000E+00 0. -1.
</event>
<event>
 7    1  0.6953847E-012  0.5930197E+02  0.7816164E-02  0.1266605E+00
        -11   -1    0    0    0    0  0.00000000000E+00  0.00000000000E+00  0.45593999997E+02  0.45594000000E+02  0.51100000000E-03 0.  1.
         11   -1    0    0    0    0 -0.00000000000E+00 -0.00000000000E+00 -0.45593999997E+02  0.45594000000E+02  0.51100000000E-03 0. -1.
    9900012    2    1    2    0    0 -0.30344210005E+02  0.96633431342E+01  0.16023239186E+01  0.59301972915E+02  0.50000052683E+02 0.  0.
        -12    1    1    2    0    0  0.30344210005E+02 -0.96633431342E+01 -0.16023239186E+01  0.31886027085E+02  0.00000000000E+00 0.  1.
         11    1    3    3    0    0 -0.60004038777E+01  0.11831705884E+02 -0.93354903255E+01  0.16221759791E+02  0.51100000000E-03 0. -1.
        -11    1    3    3    0    0 -0.24834072473E+02  0.21015343944E+01  0.20710085157E+02  0.32404555696E+02  0.51100000000E-03 0.  1.
         12    1    3    3    0    0  0.49026634612E+00 -0.42698971446E+01 -0.97722709131E+01  0.10675657428E+02  0.00000000000E+00 0. -1.
</event>
<event>
 7    1  0.6953847E-012  0.5930196E+02  0.7816164E-02  0.1266605E+00
        -11   -1    0    0    0    0  0.00000000000E+00  0.00000000000E+00  0.45593999997E+02  0.45594000000E+02  0.51100000000E-03 0. -1.
         11   -1    0    0    0    0 -0.00000000000E+00 -0.00000000000E+00 -0.45593999997E+02  0.45594000000E+02  0.51100000000E-03 0.  1.
    9900012    2    1    2    0    0 -0.52366412601E+01  0.30307339791E+02  0.84120485426E+01  0.59301955755E+02  0.50000021388E+02 0.  0.
        -12    1    1    2    0    0  0.52366412601E+01 -0.30307339791E+02 -0.84120485426E+01  0.31886044245E+02  0.00000000000E+00 0.  1.
         11    1    3    3    0    0  0.56268026142E+01  0.36425498218E+02 -0.35257626281E+01  0.37025786021E+02  0.51100000000E-03 0.  1.
        -11    1    3    3    0    0 -0.70239701091E+01  0.25077409268E+01  0.54310559340E+00  0.74779599221E+01  0.51100000000E-03 0. -1.
        -12    1    3    3    0    0 -0.38394737652E+01 -0.86258993540E+01  0.11394705577E+02  0.14798209812E+02  0.00000000000E+00 0.  1.
</event>
<event>
 7    1  0.6953847E-012  0.5930195E+02  0.7816164E-02  0.1266605E+00
        -11   -1    0    0    0    0  0.00000000000E+00  0.00000000000E+00  0.45593999997E+02  0.45594000000E+02  0.51100000000E-03 0.  1.
         11   -1    0    0    0    0 -0.00000000000E+00 -0.00000000000E+00 -0.45593999997E+02  0.45594000000E+02  0.51100000000E-03 0. -1.
    9900012    2    1    2    0    0  0.26004618481E+02 -0.79434320131E+01 -0.16654791431E+02  0.59301947059E+02  0.50000005529E+02 0.  0.
        -12    1    1    2    0    0 -0.26004618481E+02  0.79434320131E+01  0.16654791431E+02  0.31886052941E+02  0.00000000000E+00 0.  1.
         11    1    3    3    0    0  0.24336047417E+02 -0.16857246174E+02 -0.11113126378E+02  0.31621377746E+02  0.51100000000E-03 0. -1.
        -11    1    3    3    0    0 -0.33845581063E+01 -0.83075124423E+01 -0.34527123103E+01  0.96120351181E+01  0.51100000000E-03 0.  1.
        -12    1    3    3    0    0  0.50531291709E+01  0.17221326603E+02 -0.20889527436E+01  0.18068534195E+02  0.00000000000E+00 0.  1.
</event>
<event>
 7    1  0.6953847E-012  0.5930194E+02  0.7816164E-02  0.1266605E+00
        -11   -1    0    0    0    0  0.00000000000E+00  0.00000000000E+00  0.45593999997E+02  0.45594000000E+02  0.51100000000E-03 0. -1.
         11   -1    0    0    0    0 -0.00000000000E+00 -0.00000000000E+00 -0.45593999997E+02  0.45594000000E+02  0.51100000000E-03 0.  1.
    9900012    2    1    2    0    0  0.65707069382E+01 -0.16683851212E+02  0.26366559084E+02  0.59301944758E+02  0.50000001333E+02 0.  0.
        -12    1    1    2    0    0 -0.65707069382E+01  0.16683851212E+02 -0.26366559084E+02  0.31886055242E+02  0.00000000000E+00 0.  1.
         11    1    3    3    0    0  0.10998433044E+02 -0.48555060397E+00  0.14934655425E+02  0.18553846548E+02  0.51100000000E-03 0. -1.
        -11    1    3    3    0    0  0.10871361541E+02 -0.91065923225E+01  0.17768494922E+02  0.22734025986E+02  0.51100000000E-03 0.  1.
        -12    1    3    3    0    0 -0.15299087648E+02 -0.70917082852E+01 -0.63365912624E+01  0.18014072224E+02  0.00000000000E+00 0.  1.
</event>
<event>
 7    1  0.6953847E-012  0.5930196E+02  0.7816164E-02  0.1266605E+00
        -11   -1    0    0    0    0  0.00000000000E+00  0.00000000000E+00  0.45593999997E+02  0.45594000000E+02  0.51100000000E-03 0.  1.
         11   -1    0    0    0    0 -0.00000000000E+00 -0.00000000000E+00 -0.45593999997E+02  0.45594000000E+02  0.51100000000E-03 0. -1.
    9900012    2    1    2    0    0  0.73929227573E+01  0.55996688397E+01 -0.30507510069E+02  0.59301956523E+02  0.50000022789E+02 0.  0.
        -12    1    1    2    0    0 -0.73929227573E+01 -0.55996688397E+01  0.30507510069E+02  0.31886043477E+02  0.00000000000E+00 0.  1.
         11    1    3    3    0    0  0.67418900027E+00 -0.91795115381E+01  0.12223441670E+01  0.92850464947E+01  0.51100000000E-03 0. -1.
        -11    1    3    3    0    0 -0.67890058334E+01 -0.87220558504E+01 -0.56998836433E+01  0.12435977335E+02  0.51100000000E-03 0.  1.
         12    1    3    3    0    0  0.13507739590E+02  0.23501236228E+02 -0.26029970592E+02  0.37580932694E+02  0.00000000000E+00 0. -1.
</event>
<event>
 7    1  0.6953847E-012  0.5930192E+02  0.7816164E-02  0.1266605E+00
        -11   -1    0    0    0    0  0.00000000000E+00  0.00000000000E+00  0.45593999997E+02  0.45594000000E+02  0.51100000000E-03 0.  1.
         11   -1    0    0    0    0 -0.00000000000E+00 -0.00000000000E+00 -0.45593999997E+02  0.45594000000E+02  0.51100000000E-03 0. -1.
    9900012    2    1    2    0    0  0.27434026548E+02 -0.15851883680E+02 -0.35796586937E+01  0.59301921765E+02  0.49999959398E+02 0.  0.
        -12    1    1    2    0    0 -0.27434026548E+02  0.15851883680E+02  0.35796586937E+01  0.31886078235E+02  0.00000000000E+00 0.  1.
         11    1    3    3    0    0  0.15637040424E+02 -0.41535845604E+01 -0.52854563743E+01  0.17020732865E+02  0.51100000000E-03 0. -1.
        -11    1    3    3    0    0  0.25971405438E+02 -0.49389476356E+01  0.25187225663E+01  0.26556563554E+02  0.51100000000E-03 0.  1.
        -12    1    3    3    0    0 -0.14174419314E+02 -0.67593514842E+01 -0.81292488567E+00  0.15724625345E+02  0.00000000000E+00 0.  1.
</event>
<event>
 7    1  0.6953847E-012  0.5930194E+02  0.7816164E-02  0.1266605E+00
        -11   -1    0    0    0    0  0.00000000000E+00  0.00000000000E+00  0.45593999997E+02  0.45594000000E+02  0.51100000000E-03 0. -1.
         11   -1    0    0    0    0 -0.00000000000E+00 -0.00000000000E+00 -0.45593999997E+02  0.45594000000E+02  0.51100000000E-03 0.  1.
    9900012    2    1    2    0    0 -0.18459288188E+02  0.79979507067E+01  0.24738796918E+02  0.59301943348E+02  0.49999998760E+02 0.  0.
        -12    1    1    2    0    0  0.18459288188E+02 -0.79979507067E+01 -0.24738796918E+02  0.31886056652E+02  0.00000000000E+00 0.  1.
         11    1    3    3    0    0 -0.81936908717E+01  0.24459201611E+01  0.10303301637E+01  0.86128204464E+01  0.51100000000E-03 0. -1.
        -11    1    3    3    0    0 -0.25163134772E+02 -0.51826113540E+01  0.92070507169E+01  0.27291254921E+02  0.51100000000E-03 0.  1.
         12    1    3    3    0    0  0.14897537456E+02  0.10734641900E+02  0.14501416037E+02  0.23397867981E+02  0.00000000000E+00 0. -1.
</event>
<event>
 7    1  0.6953847E-012  0.5930195E+02  0.7816164E-02  0.1266605E+00
        -11   -1    0    0    0    0  0.00000000000E+00  0.00000000000E+00  0.45593999997E+02  0.45594000000E+02  0.51100000000E-03 0. -1.
         11   -1    0    0    0    0 -0.00000000000E+00 -0.00000000000E+00 -0.45593999997E+02  0.45594000000E+02  0.51100000000E-03 0.  1.
    9900012    2    1    2    0    0  0.18169007431E+02  0.24670137071E+02 -0.88312826265E+01  0.59301952158E+02  0.50000014828E+02 0.  0.
        -12    1    1    2    0    0 -0.18169007431E+02 -0.24670137071E+02  0.88312826265E+01  0.31886047842E+02  0.00000000000E+00 0.  1.
         11    1    3    3    0    0  0.76883734206E+01  0.22605536368E+01  0.48408648152E+01  0.93624334988E+01  0.51100000000E-03 0. -1.
        -11    1    3    3    0    0  0.65092305951E+01  0.83417335638E+01  0.14647725788E+02  0.18069600793E+02  0.51100000000E-03 0.  1.
        -12    1    3    3    0    0  0.39714034153E+01  0.14067849871E+02 -0.28319873230E+02  0.31869917867E+02  0.00000000000E+00 0.  1.
</event>
<event>
 7    1  0.6953847E-012  0.5930197E+02  0.7816164E-02  0.1266605E+00
        -11   -1    0    0    0    0  0.00000000000E+00  0.00000000000E+00  0.45593999997E+02  0.45594000000E+02  0.51100000000E-03 0.  1.
         11   -1    0    0    0    0 -0.00000000000E+00 -0.00000000000E+00 -0.45593999997E+02  0.45594000000E+02  0.51100000000E-03 0. -1.
    9900012    2    1    2    0    0  0.23929167549E+02 -0.20892041667E+02  0.27634347000E+01  0.59301968012E+02  0.50000043742E+02 0.  0.
        -12    1    1    2    0    0 -0.23929167549E+02  0.20892041667E+02 -0.27634347000E+01  0.31886031988E+02  0.00000000000E+00 0.  1.
         11    1    3    3    0    0  0.25826429148E+02 -0.10041861641E+02 -0.82711261227E+01  0.28918073161E+02  0.51100000000E-03 0. -1.
        -11    1    3    3    0    0  0.11966856852E+02 -0.35040399010E+01  0.64441880877E+01  0.14036079186E+02  0.51100000000E-03 0.  1.
        -12    1    3    3    0    0 -0.13864118452E+02 -0.73461401248E+01  0.45903727349E+01  0.16347815665E+02  0.00000000000E+00 0.  1.
</event>
<event>
 7    1  0.6953847E-012  0.5930201E+02  0.7816164E-02  0.1266605E+00
        -11   -1    0    0    0    0  0.00000000000E+00  0.00000000000E+00  0.45593999997E+02  0.45594000000E+02  0.51100000000E-03 0.  1.
         11   -1    0    0    0    0 -0.00000000000E+00 -0.00000000000E+00 -0.45593999997E+02  0.45594000000E+02  0.51100000000E-03 0. -1.
    9900012    2    1    2    0    0  0.31423521161E+02 -0.35236589967E+01 -0.41063896729E+01  0.59302011055E+02  0.50000122241E+02 0.  0.
        -12    1    1    2    0    0 -0.31423521161E+02  0.35236589967E+01  0.41063896729E+01  0.31885988945E+02  0.00000000000E+00 0.  1.
         11    1    3    3    0    0  0.87577204336E+01 -0.25309138153E+02 -0.51753934954E+01  0.27277002023E+02  0.51100000000E-03 0. -1.
        -11    1    3    3    0    0  0.54809453056E+01  0.61481513122E+01  0.28663169679E+01  0.87210262711E+01  0.51100000000E-03 0.  1.
        -12    1    3    3    0    0  0.17184855422E+02  0.15637327844E+02 -0.17973131455E+01  0.23303982761E+02  0.00000000000E+00 0.  1.
</event>
<event>
 7    1  0.6953847E-012  0.5930194E+02  0.7816164E-02  0.1266605E+00
        -11   -1    0    0    0    0  0.00000000000E+00  0.00000000000E+00  0.45593999997E+02  0.45594000000E+02  0.51100000000E-03 0.  1.
         11   -1    0    0    0    0 -0.00000000000E+00 -0.00000000000E+00 -0.45593999997E+02  0.45594000000E+02  0.51100000000E-03 0. -1.
    9900012    2    1    2    0    0  0.66159672712E+01  0.12631494373E+02 -0.28520083653E+02  0.59301939651E+02  0.49999992017E+02 0.  0.
        -12    1    1    2    0    0 -0.66159672712E+01 -0.12631494373E+02  0.28520083653E+02  0.31886060349E+02  0.00000000000E+00 0.  1.
         11    1    3    3    0    0 -0.42606631461E+01  0.37029209069E+01 -0.81415189877E+01  0.99070280799E+01  0.51100000000E-03 0. -1.
        -11    1    3    3    0    0 -0.14156039149E+02 -0.44927804297E+01 -0.13724455902E+02  0.20222245435E+02  0.51100000000E-03 0.  1.
         12    1    3    3    0    0  0.25032669566E+02  0.13421353896E+02 -0.66541087633E+01  0.29172666135E+02  0.00000000000E+00 0. -1.
</event>
<event>
 7    1  0.6953847E-012  0.5930193E+02  0.7816164E-02  0.1266605E+00
        -11   -1    0    0    0    0  0.00000000000E+00  0.00000000000E+00  0.45593999997E+02  0.45594000000E+02  0.51100000000E-03 0.  1.
         11   -1    0    0    0    0 -0.00000000000E+00 -0.00000000000E+00 -0.45593999997E+02  0.45594000000E+02  0.51100000000E-03 0. -1.
    9900012    2    1    2    0    0 -0.22326231805E+02  0.22105487567E+02 -0.54413298878E+01  0.59301932852E+02  0.49999979619E+02 0.  0.
        -12    1    1    2    0    0  0.22326231805E+02 -0.22105487567E+02  0.54413298878E+01  0.31886067148E+02  0.00000000000E+00 0.  1.
         11    1    3    3    0    0  0.69179642752E+01  0.12117022051E+02  0.28320307442E+00  0.13955667570E+02  0.51100000000E-03 0. -1.
        -11    1    3    3    0    0  0.25555332769E+01  0.65154358523E+01  0.79198243210E+01  0.10569071492E+02  0.51100000000E-03 0.  1.
         12    1    3    3    0    0 -0.31799729357E+02  0.34730296643E+01 -0.13644357283E+02  0.34777193790E+02  0.00000000000E+00 0. -1.
</event>
<event>
 7    1  0.6953847E-012  0.5930191E+02  0.7816164E-02  0.1266605E+00
        -11   -1    0    0    0    0  0.00000000000E+00  0.00000000000E+00  0.45593999997E+02  0.45594000000E+02  0.51100000000E-03 0.  1.
         11   -1    0    0    0    0 -0.00000000000E+00 -0.00000000000E+00 -0.45593999997E+02  0.45594000000E+02  0.51100000000E-03 0. -1.
    9900012    2    1    2    0    0 -0.25811550366E+01 -0.12725432064E+02 -0.29122567787E+02  0.59301906840E+02  0.49999932178E+02 0.  0.
        -12    1    1    2    0    0  0.25811550366E+01  0.12725432064E+02  0.29122567787E+02  0.31886093160E+02  0.00000000000E+00 0.  1.
         11    1    3    3    0    0 -0.16516419920E+02 -0.23283341493E+01 -0.92567594852E+01  0.19076185764E+02  0.51100000000E-03 0. -1.
        -11    1    3    3    0    0 -0.20100288971E+01 -0.18387833488E+00  0.70405339529E+01  0.73241481424E+01  0.51100000000E-03 0.  1.
        -12    1    3    3    0    0  0.15945293781E+02 -0.10213219580E+02 -0.26906342254E+02  0.32901572933E+02  0.00000000000E+00 0.  1.
</event>
<event>
 7    1  0.6953847E-012  0.5930190E+02  0.7816164E-02  0.1266605E+00
        -11   -1    0    0    0    0  0.00000000000E+00  0.00000000000E+00  0.45593999997E+02  0.45594000000E+02  0.51100000000E-03 0. -1.
         11   -1    0    0    0    0 -0.00000000000E+00 -0.00000000000E+00 -0.45593999997E+02  0.45594000000E+02  0.51100000000E-03 0.  1.
    9900012    2    1    2    0    0  0.26151144925E+02  0.18166532549E+02 -0.16786566037E+01  0.59301903128E+02  0.49999925409E+02 0.  0.
        -12    1    1    2    0    0 -0.26151144925E+02 -0.18166532549E+02  0.16786566037E+01  0.31886096872E+02  0.00000000000E+00 0.  1.
         11    1    3    3    0    0  0.21179649319E+02  0.18413409197E+02 -0.60532668673E+01  0.28710158891E+02  0.51100000000E-03 0. -1.
        -11    1    3    3    0    0 -0.84612188210E+01  0.62147272004E+01 -0.63128672804E+01  0.12250198026E+02  0.51100000000E-03 0.  1.
         12    1    3    3    0    0  0.13432714427E+02 -0.64616038481E+01  0.10687477544E+02  0.18341546211E+02  0.00000000000E+00 0. -1.
</event>
<event>
 7    1  0.6953847E-012  0.5930194E+02  0.7816164E-02  0.1266605E+00
        -11   -1    0    0    0    0  0.00000000000E+00  0.00000000000E+00  0.45593999997E+02  0.45594000000E+02  0.51100000000E-03 0.  1.
         11   -1    0    0    0    0 -0.00000000000E+00 -0.00000000000E+00 -0.45593999997E+02  0.45594000000E+02  0.51100000000E-03 0. -1.
    9900012    2    1    2    0    0  0.19261294828E+02  0.28280904632E+01 -0.25253227472E+02  0.59301936087E+02  0.49999985517E+02 0.  0.
        -12    1    1    2    0    0 -0.19261294828E+02 -0.28280904632E+01  0.25253227472E+02  0.31886063913E+02  0.00000000000E+00 0.  1.
         11    1    3    3    0    0 -0.33615769867E+01  0.41952165882E+01 -0.47298064308E+01  0.71603848495E+01  0.51100000000E-03 0. -1.
        -11    1    3    3    0    0 -0.92573881007E+01  0.10047253135E+02 -0.28933789465E+01  0.13964890691E+02  0.51100000000E-03 0.  1.
         12    1    3    3    0    0  0.31880259916E+02 -0.11414379260E+02 -0.17630042095E+02  0.38176660546E+02  0.00000000000E+00 0. -1.
</event>
<event>
 7    1  0.6953847E-012  0.5930222E+02  0.7816164E-02  0.1266604E+00
        -11   -1    0    0    0    0  0.00000000000E+00  0.00000000000E+00  0.45593999997E+02  0.45594000000E+02  0.51100000000E-03 0.  1.
         11   -1    0    0    0    0 -0.00000000000E+00 -0.00000000000E+00 -0.45593999997E+02  0.45594000000E+02  0.51100000000E-03 0. -1.
    9900012    2    1    2    0    0 -0.20334623796E+02  0.18202216202E+02 -0.16488947003E+02  0.59302219896E+02  0.50000503115E+02 0.  0.
        -12    1    1    2    0    0  0.20334623796E+02 -0.18202216202E+02  0.16488947003E+02  0.31885780104E+02  0.00000000000E+00 0.  1.
         11    1    3    3    0    0  0.70177971378E+01 -0.60444973422E+01 -0.31910136352E+01  0.97963254881E+01  0.51100000000E-03 0. -1.
        -11    1    3    3    0    0  0.53345715786E+01  0.15896409200E+01  0.32311989853E+01  0.64362457478E+01  0.51100000000E-03 0.  1.
         12    1    3    3    0    0 -0.32686992512E+02  0.22657072624E+02 -0.16529132353E+02  0.43069648660E+02  0.00000000000E+00 0. -1.
</event>
<event>
 7    1  0.6953847E-012  0.5930199E+02  0.7816164E-02  0.1266605E+00
        -11   -1    0    0    0    0  0.00000000000E+00  0.00000000000E+00  0.45593999997E+02  0.45594000000E+02  0.51100000000E-03 0. -1.
         11   -1    0    0    0    0 -0.00000000000E+00 -0.00000000000E+00 -0.45593999997E+02  0.45594000000E+02  0.51100000000E-03 0.  1.
    9900012    2    1    2    0    0  0.14608373071E+01 -0.31803163958E+02 -0.17725923046E+01  0.59301994184E+02  0.50000091473E+02 0.  0.
        -12    1    1    2    0    0 -0.14608373071E+01  0.31803163958E+02  0.17725923046E+01  0.31886005816E+02  0.00000000000E+00 0.  1.
         11    1    3    3    0    0  0.48223044852E+01 -0.82849757363E+01  0.71860737283E+01  0.11980613481E+02  0.51100000000E-03 0. -1.
        -11    1    3    3    0    0  0.75179453414E+01 -0.31501037826E+02 -0.96996484992E+01  0.33807071265E+02  0.51100000000E-03 0.  1.
         12    1    3    3    0    0 -0.10879412519E+02  0.79828496036E+01  0.74098246620E+00  0.13514309438E+02  0.00000000000E+00 0. -1.
</event>
<event>
 7    1  0.6953847E-012  0.5930194E+02  0.7816164E-02  0.1266605E+00
        -11   -1    0    0    0    0  0.00000000000E+00  0.00000000000E+00  0.45593999997E+02  0.45594000000E+02  0.51100000000E-03 0.  1.
         11   -1    0    0    0    0 -0.00000000000E+00 -0.00000000000E+00 -0.45593999997E+02  0.45594000000E+02  0.51100000000E-03 0. -1.
    9900012    2    1    2    0    0 -0.27677872923E+02  0.12595477781E+02 -0.95921778050E+01  0.59301943720E+02  0.49999999439E+02 0.  0.
        -12    1    1    2    0    0  0.27677872923E+02 -0.12595477781E+02  0.95921778050E+01  0.31886056280E+02  0.00000000000E+00 0.  1.
         11    1    3    3    0    0  0.43443611431E+01 -0.37028643162E+01 -0.90757405547E+01  0.10721648416E+02  0.51100000000E-03 0.  1.
        -11    1    3    3    0    0 -0.20016437910E+02  0.25460588449E+02  0.44301913214E+01  0.32688315133E+02  0.51100000000E-03 0. -1.
         12    1    3    3    0    0 -0.12005796155E+02 -0.91622463516E+01 -0.49466285717E+01  0.15891980171E+02  0.00000000000E+00 0. -1.
</event>
<event>
 7    1  0.6953847E-012  0.5930195E+02  0.7816164E-02  0.1266605E+00
        -11   -1    0    0    0    0  0.00000000000E+00  0.00000000000E+00  0.45593999997E+02  0.45594000000E+02  0.51100000000E-03 0. -1.
         11   -1    0    0    0    0 -0.00000000000E+00 -0.00000000000E+00 -0.45593999997E+02  0.45594000000E+02  0.51100000000E-03 0.  1.
    9900012    2    1    2    0    0 -0.30935104173E+01  0.13165792319E+02  0.28875811533E+02  0.59301946845E+02  0.50000005138E+02 0.  0.
        -12    1    1    2    0    0  0.30935104173E+01 -0.13165792319E+02 -0.28875811533E+02  0.31886053155E+02  0.00000000000E+00 0.  1.
         11    1    3    3    0    0 -0.40464738852E+01  0.15509425944E+02  0.20586118532E+02  0.26090314688E+02  0.51100000000E-03 0. -1.
        -11    1    3    3    0    0  0.46496591914E+01  0.11252236413E+02 -0.56229012388E+01  0.13410785715E+02  0.51100000000E-03 0.  1.
        -12    1    3    3    0    0 -0.36966957235E+01 -0.13595870038E+02  0.13912594240E+02  0.19800846442E+02  0.00000000000E+00 0.  1.
</event>
<event>
 7    1  0.6953847E-012  0.5930196E+02  0.7816164E-02  0.1266605E+00
        -11   -1    0    0    0    0  0.00000000000E+00  0.00000000000E+00  0.45593999997E+02  0.45594000000E+02  0.51100000000E-03 0.  1.
         11   -1    0    0    0    0 -0.00000000000E+00 -0.00000000000E+00 -0.45593999997E+02  0.45594000000E+02  0.51100000000E-03 0. -1.
    9900012    2    1    2    0    0  0.97345788753E-01  0.19032969560E+02 -0.25582345945E+02  0.59301955553E+02  0.50000021019E+02 0.  0.
        -12    1    1    2    0    0 -0.97345788753E-01 -0.19032969560E+02  0.25582345945E+02  0.31886044447E+02  0.00000000000E+00 0.  1.
         11    1    3    3    0    0  0.11700102648E+01  0.25925356153E+02 -0.22686571499E+02  0.34469893274E+02  0.51100000000E-03 0. -1.
        -11    1    3    3    0    0 -0.11418271755E+02  0.85844724922E+00 -0.32414405120E+01  0.11900453706E+02  0.51100000000E-03 0.  1.
        -12    1    3    3    0    0  0.10345607279E+02 -0.77508338425E+01  0.34566606660E+00  0.12931608572E+02  0.00000000000E+00 0.  1.
</event>
<event>
 7    1  0.6953847E-012  0.5930192E+02  0.7816164E-02  0.1266605E+00
        -11   -1    0    0    0    0  0.00000000000E+00  0.00000000000E+00  0.45593999997E+02  0.45594000000E+02  0.51100000000E-03 0. -1.
         11   -1    0    0    0    0 -0.00000000000E+00 -0.00000000000E+00 -0.45593999997E+02  0.45594000000E+02  0.51100000000E-03 0.  1.
    9900012    2    1    2    0    0 -0.26386103669E+02 -0.17902364140E+02 -0.34490006890E-01  0.59301916857E+02  0.49999950447E+02 0.  0.
        -12    1    1    2    0    0  0.26386103669E+02  0.17902364140E+02  0.34490006890E-01  0.31886083143E+02  0.00000000000E+00 0.  1.
         11    1    3    3    0    0 -0.85893577358E+01 -0.92621366251E+01 -0.10548151237E+02  0.16456844654E+02  0.51100000000E-03 0. -1.
        -11    1    3    3    0    0 -0.43245924346E+01  0.11050325516E+02 -0.65110903826E+01  0.13535364493E+02  0.51100000000E-03 0.  1.
        -12    1    3    3    0    0 -0.13472153498E+02 -0.19690553031E+02  0.17024751613E+02  0.29309707710E+02  0.00000000000E+00 0.  1.
</event>
<event>
 7    1  0.6953847E-012  0.5930193E+02  0.7816164E-02  0.1266605E+00
        -11   -1    0    0    0    0  0.00000000000E+00  0.00000000000E+00  0.45593999997E+02  0.45594000000E+02  0.51100000000E-03 0.  1.
         11   -1    0    0    0    0 -0.00000000000E+00 -0.00000000000E+00 -0.45593999997E+02  0.45594000000E+02  0.51100000000E-03 0. -1.
    9900012    2    1    2    0    0  0.39313520953E+01  0.21795948511E+02 -0.22939102973E+02  0.59301931788E+02  0.49999977678E+02 0.  0.
        -12    1    1    2    0    0 -0.39313520953E+01 -0.21795948511E+02  0.22939102973E+02  0.31886068212E+02  0.00000000000E+00 0.  1.
         11    1    3    3    0    0 -0.13852318103E+01  0.33743759240E+02 -0.17356062892E+02  0.37970950399E+02  0.51100000000E-03 0. -1.
        -11    1    3    3    0    0  0.40111436927E+01  0.15817569416E+01  0.30024773778E+01  0.52541506841E+01  0.51100000000E-03 0.  1.
        -12    1    3    3    0    0  0.13054402130E+01 -0.13529567670E+02 -0.85855174590E+01  0.16076830705E+02  0.00000000000E+00 0.  1.
</event>
<event>
 7    1  0.6953847E-012  0.5930192E+02  0.7816164E-02  0.1266605E+00
        -11   -1    0    0    0    0  0.00000000000E+00  0.00000000000E+00  0.45593999997E+02  0.45594000000E+02  0.51100000000E-03 0.  1.
         11   -1    0    0    0    0 -0.00000000000E+00 -0.00000000000E+00 -0.45593999997E+02  0.45594000000E+02  0.51100000000E-03 0. -1.
    9900012    2    1    2    0    0 -0.26293467200E+02 -0.15227301936E+02 -0.96698043526E+01  0.59301917489E+02  0.49999951600E+02 0.  0.
        -12    1    1    2    0    0  0.26293467200E+02  0.15227301936E+02  0.96698043526E+01  0.31886082511E+02  0.00000000000E+00 0.  1.
         11    1    3    3    0    0 -0.85031608009E+01  0.41822611927E+01 -0.22861990783E+02  0.24748043864E+02  0.51100000000E-03 0.  1.
        -11    1    3    3    0    0 -0.10636992050E+02 -0.19159804170E+02  0.30284798328E+01  0.22122734597E+02  0.51100000000E-03 0. -1.
        -12    1    3    3    0    0 -0.71533143494E+01 -0.24975895937E+00  0.10163706598E+02  0.12431139028E+02  0.00000000000E+00 0.  1.
</event>
<event>
 7    1  0.6953847E-012  0.5930191E+02  0.7816164E-02  0.1266605E+00
        -11   -1    0    0    0    0  0.00000000000E+00  0.00000000000E+00  0.45593999997E+02  0.45594000000E+02  0.51100000000E-03 0.  1.
         11   -1    0    0    0    0 -0.00000000000E+00 -0.00000000000E+00 -0.45593999997E+02  0.45594000000E+02  0.51100000000E-03 0. -1.
    9900012    2    1    2    0    0  0.14360926465E+02  0.18429388356E+02 -0.21698941185E+02  0.59301911926E+02  0.49999941454E+02 0.  0.
        -12    1    1    2    0    0 -0.14360926465E+02 -0.18429388356E+02  0.21698941185E+02  0.31886088074E+02  0.00000000000E+00 0.  1.
         11    1    3    3    0    0 -0.29300692315E+01 -0.34699023120E+01 -0.33805510429E+01  0.56615945961E+01  0.51100000000E-03 0. -1.
        -11    1    3    3    0    0 -0.58556654968E+01  0.18239225553E+02 -0.22802333120E+02  0.29780942953E+02  0.51100000000E-03 0.  1.
         12    1    3    3    0    0  0.23146661193E+02  0.36600651156E+01  0.44839429778E+01  0.23859374377E+02  0.00000000000E+00 0. -1.
</event>
<event>
 7    1  0.6953847E-012  0.5930195E+02  0.7816164E-02  0.1266605E+00
        -11   -1    0    0    0    0  0.00000000000E+00  0.00000000000E+00  0.45593999997E+02  0.45594000000E+02  0.51100000000E-03 0.  1.
         11   -1    0    0    0    0 -0.00000000000E+00 -0.00000000000E+00 -0.45593999997E+02  0.45594000000E+02  0.51100000000E-03 0. -1.
    9900012    2    1    2    0    0 -0.70839615383E+00  0.22059244856E+02 -0.23013220813E+02  0.59301945981E+02  0.50000003561E+02 0.  0.
        -12    1    1    2    0    0  0.70839615383E+00 -0.22059244856E+02  0.23013220813E+02  0.31886054019E+02  0.00000000000E+00 0.  1.
         11    1    3    3    0    0  0.12892702950E+02 -0.69281720091E+01 -0.80057896050E+01  0.16682746303E+02  0.51100000000E-03 0. -1.
        -11    1    3    3    0    0  0.20768141788E+01 -0.33172000890E+01 -0.75365416592E+00  0.39855951157E+01  0.51100000000E-03 0.  1.
        -12    1    3    3    0    0 -0.15677913283E+02  0.32304616954E+02 -0.14253777043E+02  0.38633604562E+02  0.00000000000E+00 0.  1.
</event>
<event>
 7    1  0.6953847E-012  0.5930195E+02  0.7816164E-02  0.1266605E+00
        -11   -1    0    0    0    0  0.00000000000E+00  0.00000000000E+00  0.45593999997E+02  0.45594000000E+02  0.51100000000E-03 0.  1.
         11   -1    0    0    0    0 -0.00000000000E+00 -0.00000000000E+00 -0.45593999997E+02  0.45594000000E+02  0.51100000000E-03 0. -1.
    9900012    2    1    2    0    0  0.90441642976E+01 -0.29066998924E+02 -0.94885746757E+01  0.59301946878E+02  0.50000005199E+02 0.  0.
        -12    1    1    2    0    0 -0.90441642976E+01  0.29066998924E+02  0.94885746757E+01  0.31886053122E+02  0.00000000000E+00 0.  1.
         11    1    3    3    0    0  0.12915043391E+02 -0.10768984298E+02  0.21892150733E+01  0.16957654069E+02  0.51100000000E-03 0. -1.
        -11    1    3    3    0    0  0.80274129790E+01  0.81944396077E+01 -0.51698878732E+01  0.12582366252E+02  0.51100000000E-03 0.  1.
         12    1    3    3    0    0 -0.11898292073E+02 -0.26492454234E+02 -0.65079018758E+01  0.29761926558E+02  0.00000000000E+00 0. -1.
</event>
<event>
 7    1  0.6953847E-012  0.5930195E+02  0.7816164E-02  0.1266605E+00
        -11   -1    0    0    0    0  0.00000000000E+00  0.00000000000E+00  0.45593999997E+02  0.45594000000E+02  0.51100000000E-03 0.  1.
         11   -1    0    0    0    0 -0.00000000000E+00 -0.00000000000E+00 -0.45593999997E+02  0.45594000000E+02  0.51100000000E-03 0. -1.
    9900012    2    1    2    0    0 -0.16183722721E+02  0.27078659008E+02  0.46426074130E+01  0.59301945707E+02  0.50000003062E+02 0.  0.
        -12    1    1    2    0    0  0.16183722721E+02 -0.27078659008E+02 -0.46426074130E+01  0.31886054293E+02  0.00000000000E+00 0.  1.
         11    1    3    3    0    0  0.59554577239E+01  0.37203841042E+00  0.96689174963E+01  0.11361947680E+02  0.51100000000E-03 0. -1.
        -11    1    3    3    0    0  0.42991542353E+01  0.93698568384E+00  0.77167346287E+01  0.88830548181E+01  0.51100000000E-03 0.  1.
         12    1    3    3    0    0 -0.26438334680E+02  0.25769634914E+02 -0.12743044712E+02  0.39056943208E+02  0.00000000000E+00 0. -1.
</event>
<event>
 7    1  0.6953847E-012  0.5930196E+02  0.7816164E-02  0.1266605E+00
        -11   -1    0    0    0    0  0.00000000000E+00  0.00000000000E+00  0.45593999997E+02  0.45594000000E+02  0.51100000000E-03 0.  1.
         11   -1    0    0    0    0 -0.00000000000E+00 -0.00000000000E+00 -0.45593999997E+02  0.45594000000E+02  0.51100000000E-03 0. -1.
    9900012    2    1    2    0    0  0.34657485257E+00 -0.24262294053E+02 -0.20686728445E+02  0.59301956649E+02  0.50000023018E+02 0.  0.
        -12    1    1    2    0    0 -0.34657485257E+00  0.24262294053E+02  0.20686728445E+02  0.31886043351E+02  0.00000000000E+00 0.  1.
         11    1    3    3    0    0 -0.60399628581E+00 -0.13360623853E+02  0.10511407418E+02  0.17010607497E+02  0.51100000000E-03 0. -1.
        -11    1    3    3    0    0 -0.24419066177E-01 -0.43159782149E+01  0.43484111489E+01  0.61267400812E+01  0.51100000000E-03 0.  1.
         12    1    3    3    0    0  0.97499020456E+00 -0.65856919852E+01 -0.35546547011E+02  0.36164609071E+02  0.00000000000E+00 0. -1.
</event>
<event>
 7    1  0.6953847E-012  0.5930195E+02  0.7816164E-02  0.1266605E+00
        -11   -1    0    0    0    0  0.00000000000E+00  0.00000000000E+00  0.45593999997E+02  0.45594000000E+02  0.51100000000E-03 0. -1.
         11   -1    0    0    0    0 -0.00000000000E+00 -0.00000000000E+00 -0.45593999997E+02  0.45594000000E+02  0.51100000000E-03 0.  1.
    9900012    2    1    2    0    0 -0.10421824669E+02 -0.28696030852E+02 -0.92001903904E+01  0.59301951024E+02  0.50000012759E+02 0.  0.
        -12    1    1    2    0    0  0.10421824669E+02  0.28696030852E+02  0.92001903904E+01  0.31886048976E+02  0.00000000000E+00 0.  1.
         11    1    3    3    0    0 -0.24197892797E+02 -0.21373442009E+02 -0.13621166548E+02  0.35041378648E+02  0.51100000000E-03 0. -1.
        -11    1    3    3    0    0 -0.13146891139E+00 -0.34285300625E+01 -0.56803542651E+01  0.66361530500E+01  0.51100000000E-03 0.  1.
        -12    1    3    3    0    0  0.13907537039E+02 -0.38940587801E+01  0.10101330422E+02  0.17624419326E+02  0.00000000000E+00 0.  1.
</event>
<event>
 7    1  0.6953847E-012  0.5930195E+02  0.7816164E-02  0.1266605E+00
        -11   -1    0    0    0    0  0.00000000000E+00  0.00000000000E+00  0.45593999997E+02  0.45594000000E+02  0.51100000000E-03 0. -1.
         11   -1    0    0    0    0 -0.00000000000E+00 -0.00000000000E+00 -0.45593999997E+02  0.45594000000E+02  0.51100000000E-03 0.  1.
    9900012    2    1    2    0    0  0.30103831567E+02 -0.99139206591E+01 -0.34919070357E+01  0.59301954265E+02  0.50000018671E+02 0.  0.
        -12    1    1    2    0    0 -0.30103831567E+02  0.99139206591E+01  0.34919070357E+01  0.31886045735E+02  0.00000000000E+00 0.  1.
         11    1    3    3    0    0  0.39127365501E+01 -0.10078637605E+02 -0.92668438233E+00  0.10851137613E+02  0.51100000000E-03 0. -1.
        -11    1    3    3    0    0  0.68241167461E+01 -0.11300466733E+02 -0.17142288873E+02  0.21636247036E+02  0.51100000000E-03 0.  1.
         12    1    3    3    0    0  0.19366978271E+02  0.11465183680E+02  0.14577066219E+02  0.26814569616E+02  0.00000000000E+00 0. -1.
</event>
<event>
 7    1  0.6953847E-012  0.5930201E+02  0.7816164E-02  0.1266605E+00
        -11   -1    0    0    0    0  0.00000000000E+00  0.00000000000E+00  0.45593999997E+02  0.45594000000E+02  0.51100000000E-03 0.  1.
         11   -1    0    0    0    0 -0.00000000000E+00 -0.00000000000E+00 -0.45593999997E+02  0.45594000000E+02  0.51100000000E-03 0. -1.
    9900012    2    1    2    0    0 -0.17040285228E+02  0.14358464624E+02 -0.22807448544E+02  0.59302007212E+02  0.50000115232E+02 0.  0.
        -12    1    1    2    0    0  0.17040285228E+02 -0.14358464624E+02  0.22807448544E+02  0.31885992788E+02  0.00000000000E+00 0.  1.
         11    1    3    3    0    0 -0.94923751813E+01  0.32415503499E+01 -0.31791510840E+02  0.33336361484E+02  0.51100000000E-03 0. -1.
        -11    1    3    3    0    0 -0.10168862039E+02  0.19464247276E+01 -0.28767715635E+01  0.10745703294E+02  0.51100000000E-03 0.  1.
        -12    1    3    3    0    0  0.26209519926E+01  0.91704895461E+01  0.11860833859E+02  0.15219942434E+02  0.00000000000E+00 0.  1.
</event>
<event>
 7    1  0.6953847E-012  0.5930194E+02  0.7816164E-02  0.1266605E+00
        -11   -1    0    0    0    0  0.00000000000E+00  0.00000000000E+00  0.45593999997E+02  0.45594000000E+02  0.51100000000E-03 0.  1.
         11   -1    0    0    0    0 -0.00000000000E+00 -0.00000000000E+00 -0.45593999997E+02  0.45594000000E+02  0.51100000000E-03 0. -1.
    9900012    2    1    2    0    0 -0.24649970139E+02 -0.17680592974E+02  0.98232458953E+01  0.59301944181E+02  0.50000000280E+02 0.  0.
        -12    1    1    2    0    0  0.24649970139E+02  0.17680592974E+02 -0.98232458953E+01  0.31886055819E+02  0.00000000000E+00 0.  1.
         11    1    3    3    0    0 -0.22772509384E+02 -0.29185161840E+02  0.33765350917E+01  0.37172057312E+02  0.51100000000E-03 0. -1.
        -11    1    3    3    0    0 -0.85708171944E+01  0.10809248383E+02  0.17096637377E+01  0.13900421157E+02  0.51100000000E-03 0.  1.
        -12    1    3    3    0    0  0.66933564401E+01  0.69532048327E+00  0.47370470659E+01  0.82294657125E+01  0.00000000000E+00 0.  1.
</event>
<event>
 7    1  0.6953847E-012  0.5930192E+02  0.7816164E-02  0.1266605E+00
        -11   -1    0    0    0    0  0.00000000000E+00  0.00000000000E+00  0.45593999997E+02  0.45594000000E+02  0.51100000000E-03 0. -1.
         11   -1    0    0    0    0 -0.00000000000E+00 -0.00000000000E+00 -0.45593999997E+02  0.45594000000E+02  0.51100000000E-03 0.  1.
    9900012    2    1    2    0    0  0.32636077548E+01 -0.31693081621E+02  0.12726094474E+01  0.59301920075E+02  0.49999956316E+02 0.  0.
        -12    1    1    2    0    0 -0.32636077548E+01  0.31693081621E+02 -0.12726094474E+01  0.31886079925E+02  0.00000000000E+00 0.  1.
         11    1    3    3    0    0  0.13084186492E+02  0.11280381330E+01  0.14751653816E+01  0.13215313820E+02  0.51100000000E-03 0. -1.
        -11    1    3    3    0    0  0.89596052836E+01 -0.61490055002E+01  0.66694041447E+01  0.12750127348E+02  0.51100000000E-03 0.  1.
         12    1    3    3    0    0 -0.18780184021E+02 -0.26672114253E+02 -0.68719600789E+01  0.33336478907E+02  0.00000000000E+00 0. -1.
</event>
<event>
 7    1  0.6953847E-012  0.5930193E+02  0.7816164E-02  0.1266605E+00
        -11   -1    0    0    0    0  0.00000000000E+00  0.00000000000E+00  0.45593999997E+02  0.45594000000E+02  0.51100000000E-03 0.  1.
         11   -1    0    0    0    0 -0.00000000000E+00 -0.00000000000E+00 -0.45593999997E+02  0.45594000000E+02  0.51100000000E-03 0. -1.
    9900012    2    1    2    0    0 -0.20034512287E+02 -0.61460745532E+01 -0.24032590074E+02  0.59301932499E+02  0.49999978975E+02 0.  0.
        -12    1    1    2    0    0  0.20034512287E+02  0.61460745532E+01  0.24032590074E+02  0.31886067501E+02  0.00000000000E+00 0.  1.
         11    1    3    3    0    0 -0.25320050608E+02 -0.96243158598E+01 -0.30750544282E+02  0.40979609472E+02  0.51100000000E-03 0. -1.
        -11    1    3    3    0    0 -0.70656014924E+00 -0.24943511818E+01 -0.39388991436E+01  0.47155001630E+01  0.51100000000E-03 0.  1.
        -12    1    3    3    0    0  0.59920984700E+01  0.59725924884E+01  0.10656853352E+02  0.13606822864E+02  0.00000000000E+00 0.  1.
</event>
<event>
 7    1  0.6953847E-012  0.5930193E+02  0.7816164E-02  0.1266605E+00
        -11   -1    0    0    0    0  0.00000000000E+00  0.00000000000E+00  0.45593999997E+02  0.45594000000E+02  0.51100000000E-03 0. -1.
         11   -1    0    0    0    0 -0.00000000000E+00 -0.00000000000E+00 -0.45593999997E+02  0.45594000000E+02  0.51100000000E-03 0.  1.
    9900012    2    1    2    0    0 -0.89816880701E+01  0.26988226985E+02  0.14411321602E+02  0.59301932405E+02  0.49999978803E+02 0.  0.
        -12    1    1    2    0    0  0.89816880701E+01 -0.26988226985E+02 -0.14411321602E+02  0.31886067595E+02  0.00000000000E+00 0.  1.
         11    1    3    3    0    0 -0.49009423265E+01  0.20102612457E+01  0.45653735390E+01  0.69930695532E+01  0.51100000000E-03 0. -1.
        -11    1    3    3    0    0 -0.18572241242E+02 -0.39714350022E+01  0.40815677153E+01  0.19425746730E+02  0.51100000000E-03 0.  1.
         12    1    3    3    0    0  0.14491495499E+02  0.28949400741E+02  0.57643803472E+01  0.32883116122E+02  0.00000000000E+00 0. -1.
</event>
<event>
 7    1  0.6953847E-012  0.5930196E+02  0.7816164E-02  0.1266605E+00
        -11   -1    0    0    0    0  0.00000000000E+00  0.00000000000E+00  0.45593999997E+02  0.45594000000E+02  0.51100000000E-03 0.  1.
         11   -1    0    0    0    0 -0.00000000000E+00 -0.00000000000E+00 -0.45593999997E+02  0.45594000000E+02  0.51100000000E-03 0. -1.
    9900012    2    1    2    0    0  0.83663113665E+01  0.18394552961E+02 -0.24665054546E+02  0.59301958222E+02  0.50000025887E+02 0.  0.
        -12    1    1    2    0    0 -0.83663113665E+01 -0.18394552961E+02  0.24665054546E+02  0.31886041778E+02  0.00000000000E+00 0.  1.
         11    1    3    3    0    0  0.11988749372E+02  0.18597518330E+01 -0.61139916593E+01  0.13585642519E+02  0.51100000000E-03 0.  1.
        -11    1    3    3    0    0  0.11074769958E+02 -0.50185754274E+01 -0.15122835718E+02  0.19404555892E+02  0.51100000000E-03 0. -1.
        -12    1    3    3    0    0 -0.14697207963E+02  0.21553376556E+02 -0.34282271684E+01  0.26311759812E+02  0.00000000000E+00 0.  1.
</event>
<event>
 7    1  0.6953847E-012  0.5930194E+02  0.7816164E-02  0.1266605E+00
        -11   -1    0    0    0    0  0.00000000000E+00  0.00000000000E+00  0.45593999997E+02  0.45594000000E+02  0.51100000000E-03 0.  1.
         11   -1    0    0    0    0 -0.00000000000E+00 -0.00000000000E+00 -0.45593999997E+02  0.45594000000E+02  0.51100000000E-03 0. -1.
    9900012    2    1    2    0    0  0.30062551230E+01 -0.31406135664E+02  0.46192817409E+01  0.59301942059E+02  0.49999996410E+02 0.  0.
        -12    1    1    2    0    0 -0.30062551230E+01  0.31406135664E+02 -0.46192817409E+01  0.31886057941E+02  0.00000000000E+00 0.  1.
         11    1    3    3    0    0 -0.31222189701E+01  0.30049420874E+00 -0.17719147846E+01  0.36025311007E+01  0.51100000000E-03 0. -1.
        -11    1    3    3    0    0 -0.15566759963E+02 -0.17750793920E+02 -0.94464325733E+01  0.25429309648E+02  0.51100000000E-03 0.  1.
        -12    1    3    3    0    0  0.21695234056E+02 -0.13955835953E+02  0.15837629099E+02  0.30270101311E+02  0.00000000000E+00 0.  1.
</event>
<event>
 7    1  0.6953847E-012  0.5930196E+02  0.7816164E-02  0.1266605E+00
        -11   -1    0    0    0    0  0.00000000000E+00  0.00000000000E+00  0.45593999997E+02  0.45594000000E+02  0.51100000000E-03 0.  1.
         11   -1    0    0    0    0 -0.00000000000E+00 -0.00000000000E+00 -0.45593999997E+02  0.45594000000E+02  0.51100000000E-03 0. -1.
    9900012    2    1    2    0    0  0.47918208631E+01  0.57249177227E+01 -0.30999733137E+02  0.59301957839E+02  0.50000025188E+02 0.  0.
        -12    1    1    2    0    0 -0.47918208631E+01 -0.57249177227E+01  0.30999733137E+02  0.31886042161E+02  0.00000000000E+00 0.  1.
         11    1    3    3    0    0  0.15972799141E+02  0.48823969560E+01 -0.59260843283E+01  0.17722488205E+02  0.51100000000E-03 0. -1.
        -11    1    3    3    0    0  0.67618375834E+01  0.55072030034E+00  0.36554091247E+01  0.77063452092E+01  0.51100000000E-03 0.  1.
        -12    1    3    3    0    0 -0.17942815862E+02  0.29180046635E+00 -0.28729057934E+02  0.33873124425E+02  0.00000000000E+00 0.  1.
</event>
<event>
 7    1  0.6953847E-012  0.5930188E+02  0.7816164E-02  0.1266605E+00
        -11   -1    0    0    0    0  0.00000000000E+00  0.00000000000E+00  0.45593999997E+02  0.45594000000E+02  0.51100000000E-03 0.  1.
         11   -1    0    0    0    0 -0.00000000000E+00 -0.00000000000E+00 -0.45593999997E+02  0.45594000000E+02  0.51100000000E-03 0. -1.
    9900012    2    1    2    0    0  0.82531849664E+01  0.29934163713E+02 -0.72495056804E+01  0.59301881517E+02  0.49999885996E+02 0.  0.
        -12    1    1    2    0    0 -0.82531849664E+01 -0.29934163713E+02  0.72495056804E+01  0.31886118483E+02  0.00000000000E+00 0.  1.
         11    1    3    3    0    0 -0.48634784911E+01  0.34947115460E+01 -0.75680173814E+01  0.96509750373E+01  0.51100000000E-03 0. -1.
        -11    1    3    3    0    0  0.15015973947E+02 -0.18086446006E+01 -0.11470958854E+02  0.18982454166E+02  0.51100000000E-03 0.  1.
        -12    1    3    3    0    0 -0.18993104895E+01  0.28248096768E+02  0.11789470556E+02  0.30668452314E+02  0.00000000000E+00 0.  1.
</event>
<event>
 7    1  0.6953847E-012  0.5930202E+02  0.7816164E-02  0.1266605E+00
        -11   -1    0    0    0    0  0.00000000000E+00  0.00000000000E+00  0.45593999997E+02  0.45594000000E+02  0.51100000000E-03 0.  1.
         11   -1    0    0    0    0 -0.00000000000E+00 -0.00000000000E+00 -0.45593999997E+02  0.45594000000E+02  0.51100000000E-03 0. -1.
    9900012    2    1    2    0    0  0.24049734640E+02 -0.10868222954E+01 -0.20908010848E+02  0.59302018181E+02  0.50000135238E+02 0.  0.
        -12    1    1    2    0    0 -0.24049734640E+02  0.10868222954E+01  0.20908010848E+02  0.31885981819E+02  0.00000000000E+00 0.  1.
         11    1    3    3    0    0 -0.95062093773E+01  0.70824748141E+01 -0.17630522596E+01  0.11984899655E+02  0.51100000000E-03 0. -1.
        -11    1    3    3    0    0 -0.27961876884E+01 -0.15677858680E+01 -0.81675589517E+01  0.87741459759E+01  0.51100000000E-03 0.  1.
        -12    1    3    3    0    0  0.36352131706E+02 -0.66015112415E+01 -0.10977399636E+02  0.38542972550E+02  0.00000000000E+00 0.  1.
</event>
<event>
 7    1  0.6953847E-012  0.5930205E+02  0.7816164E-02  0.1266604E+00
        -11   -1    0    0    0    0  0.00000000000E+00  0.00000000000E+00  0.45593999997E+02  0.45594000000E+02  0.51100000000E-03 0. -1.
         11   -1    0    0    0    0 -0.00000000000E+00 -0.00000000000E+00 -0.45593999997E+02  0.45594000000E+02  0.51100000000E-03 0.  1.
    9900012    2    1    2    0    0 -0.30612422629E+02 -0.74777487078E+01 -0.48658843511E+01  0.59302047365E+02  0.50000188462E+02 0.  0.
        -12    1    1    2    0    0  0.30612422629E+02  0.74777487078E+01  0.48658843511E+01  0.31885952635E+02  0.00000000000E+00 0.  1.
         11    1    3    3    0    0 -0.99136221687E+01 -0.72181149501E+01  0.92589086569E+00  0.12297900719E+02  0.51100000000E-03 0. -1.
        -11    1    3    3    0    0 -0.14777245222E+02 -0.20359052626E+02  0.38342975745E+00  0.25159590991E+02  0.51100000000E-03 0.  1.
        -12    1    3    3    0    0 -0.59215552376E+01  0.20099418869E+02 -0.61752049742E+01  0.21844555655E+02  0.00000000000E+00 0.  1.
</event>
<event>
 7    1  0.6953847E-012  0.5930194E+02  0.7816164E-02  0.1266605E+00
        -11   -1    0    0    0    0  0.00000000000E+00  0.00000000000E+00  0.45593999997E+02  0.45594000000E+02  0.51100000000E-03 0.  1.
         11   -1    0    0    0    0 -0.00000000000E+00 -0.00000000000E+00 -0.45593999997E+02  0.45594000000E+02  0.51100000000E-03 0. -1.
    9900012    2    1    2    0    0  0.12763160747E+02  0.13305081413E+02 -0.26015325541E+02  0.59301943068E+02  0.49999998250E+02 0.  0.
        -12    1    1    2    0    0 -0.12763160747E+02 -0.13305081413E+02  0.26015325541E+02  0.31886056932E+02  0.00000000000E+00 0.  1.
         11    1    3    3    0    0  0.18656542111E+02  0.24815693105E+01 -0.82413052390E+01  0.20546139834E+02  0.51100000000E-03 0. -1.
        -11    1    3    3    0    0 -0.51568069111E-01 -0.86855348319E+01  0.34462666161E+01  0.93444062643E+01  0.51100000000E-03 0.  1.
         12    1    3    3    0    0 -0.58418132950E+01  0.19509046934E+02 -0.21220286918E+02  0.29411396970E+02  0.00000000000E+00 0. -1.
</event>
<event>
 7    1  0.6953847E-012  0.5930222E+02  0.7816164E-02  0.1266604E+00
        -11   -1    0    0    0    0  0.00000000000E+00  0.00000000000E+00  0.45593999997E+02  0.45594000000E+02  0.51100000000E-03 0.  1.
         11   -1    0    0    0    0 -0.00000000000E+00 -0.00000000000E+00 -0.45593999997E+02  0.45594000000E+02  0.51100000000E-03 0. -1.
    9900012    2    1    2    0    0 -0.21635709065E+02  0.14498181929E+02 -0.18395697184E+02  0.59302221651E+02  0.50000506316E+02 0.  0.
        -12    1    1    2    0    0  0.21635709065E+02 -0.14498181929E+02  0.18395697184E+02  0.31885778349E+02  0.00000000000E+00 0.  1.
         11    1    3    3    0    0 -0.46542329414E+01  0.10726528479E+02 -0.26187863943E+01  0.11982417950E+02  0.51100000000E-03 0. -1.
        -11    1    3    3    0    0 -0.61971341339E+01  0.10449196443E+02  0.11818398115E+02  0.16948885274E+02  0.51100000000E-03 0.  1.
         12    1    3    3    0    0 -0.10784341990E+02 -0.66775429929E+01 -0.27595308904E+02  0.30370918427E+02  0.00000000000E+00 0. -1.
</event>
<event>
 7    1  0.6953847E-012  0.5930194E+02  0.7816164E-02  0.1266605E+00
        -11   -1    0    0    0    0  0.00000000000E+00  0.00000000000E+00  0.45593999997E+02  0.45594000000E+02  0.51100000000E-03 0. -1.
         11   -1    0    0    0    0 -0.00000000000E+00 -0.00000000000E+00 -0.45593999997E+02  0.45594000000E+02  0.51100000000E-03 0.  1.
    9900012    2    1    2    0    0  0.27719856833E+02  0.15359020442E+02 -0.35257028878E+01  0.59301944229E+02  0.50000000368E+02 0.  0.
        -12    1    1    2    0    0 -0.27719856833E+02 -0.15359020442E+02  0.35257028878E+01  0.31886055771E+02  0.00000000000E+00 0.  1.
         11    1    3    3    0    0  0.63622313026E+01 -0.28094586016E+01 -0.67122110361E+01  0.96656516612E+01  0.51100000000E-03 0. -1.
        -11    1    3    3    0    0 -0.41740513189E+01 -0.23558591597E+01  0.14270179965E+02  0.15053598018E+02  0.51100000000E-03 0.  1.
         12    1    3    3    0    0  0.25531676849E+02  0.20524338203E+02 -0.11083671817E+02  0.34582694550E+02  0.00000000000E+00 0. -1.
</event>
<event>
 7    1  0.6953847E-012  0.5930193E+02  0.7816164E-02  0.1266605E+00
        -11   -1    0    0    0    0  0.00000000000E+00  0.00000000000E+00  0.45593999997E+02  0.45594000000E+02  0.51100000000E-03 0.  1.
         11   -1    0    0    0    0 -0.00000000000E+00 -0.00000000000E+00 -0.45593999997E+02  0.45594000000E+02  0.51100000000E-03 0. -1.
    9900012    2    1    2    0    0  0.29253150277E+02 -0.11541134290E+02 -0.52703891140E+01  0.59301928068E+02  0.49999970893E+02 0.  0.
        -12    1    1    2    0    0 -0.29253150277E+02  0.11541134290E+02  0.52703891140E+01  0.31886071932E+02  0.00000000000E+00 0.  1.
         11    1    3    3    0    0  0.33544154111E+01 -0.19136630991E+01 -0.42171661747E+01  0.57182777139E+01  0.51100000000E-03 0. -1.
        -11    1    3    3    0    0  0.38253247213E+02 -0.33403217262E+01  0.44771340455E+01  0.38658936886E+02  0.51100000000E-03 0.  1.
         12    1    3    3    0    0 -0.12354512347E+02 -0.62871494652E+01 -0.55303569848E+01  0.14924713468E+02  0.00000000000E+00 0. -1.
</event>
<event>
 7    1  0.6953847E-012  0.5930193E+02  0.7816164E-02  0.1266605E+00
        -11   -1    0    0    0    0  0.00000000000E+00  0.00000000000E+00  0.45593999997E+02  0.45594000000E+02  0.51100000000E-03 0.  1.
         11   -1    0    0    0    0 -0.00000000000E+00 -0.00000000000E+00 -0.45593999997E+02  0.45594000000E+02  0.51100000000E-03 0. -1.
    9900012    2    1    2    0    0 -0.15612179100E+02 -0.24031058831E+02 -0.13981766859E+02  0.59301925778E+02  0.49999966718E+02 0.  0.
        -12    1    1    2    0    0  0.15612179100E+02  0.24031058831E+02  0.13981766859E+02  0.31886074222E+02  0.00000000000E+00 0.  1.
         11    1    3    3    0    0 -0.83762580862E+01 -0.23883056627E+02  0.10935791363E+02  0.27570883670E+02  0.51100000000E-03 0. -1.
        -11    1    3    3    0    0  0.44688162379E+01 -0.47835083042E+01 -0.12146313347E+02  0.13798014293E+02  0.51100000000E-03 0.  1.
        -12    1    3    3    0    0 -0.11704737252E+02  0.46355061001E+01 -0.12771244875E+02  0.17933027815E+02  0.00000000000E+00 0.  1.
</event>
<event>
 7    1  0.6953847E-012  0.5930203E+02  0.7816164E-02  0.1266604E+00
        -11   -1    0    0    0    0  0.00000000000E+00  0.00000000000E+00  0.45593999997E+02  0.45594000000E+02  0.51100000000E-03 0. -1.
         11   -1    0    0    0    0 -0.00000000000E+00 -0.00000000000E+00 -0.45593999997E+02  0.45594000000E+02  0.51100000000E-03 0.  1.
    9900012    2    1    2    0    0  0.14303592504E+02 -0.31763190621E+01  0.28320195154E+02  0.59302027930E+02  0.50000153017E+02 0.  0.
        -12    1    1    2    0    0 -0.14303592504E+02  0.31763190621E+01 -0.28320195154E+02  0.31885972070E+02  0.00000000000E+00 0.  1.
         11    1    3    3    0    0  0.24193180585E+02 -0.12827784927E+02  0.31359982325E+02  0.41633046306E+02  0.51100000000E-03 0. -1.
        -11    1    3    3    0    0  0.13756494149E+00  0.69009459502E+01 -0.21687004072E+01  0.72350010945E+01  0.51100000000E-03 0.  1.
        -12    1    3    3    0    0 -0.10027153023E+02  0.27505199151E+01 -0.87108676445E+00  0.10433980530E+02  0.00000000000E+00 0.  1.
</event>
<event>
 7    1  0.6953847E-012  0.5930194E+02  0.7816164E-02  0.1266605E+00
        -11   -1    0    0    0    0  0.00000000000E+00  0.00000000000E+00  0.45593999997E+02  0.45594000000E+02  0.51100000000E-03 0. -1.
         11   -1    0    0    0    0 -0.00000000000E+00 -0.00000000000E+00 -0.45593999997E+02  0.45594000000E+02  0.51100000000E-03 0.  1.
    9900012    2    1    2    0    0 -0.18398144097E+02 -0.18385641208E+02  0.18444438716E+02  0.59301939905E+02  0.49999992480E+02 0.  0.
        -12    1    1    2    0    0  0.18398144097E+02  0.18385641208E+02 -0.18444438716E+02  0.31886060095E+02  0.00000000000E+00 0.  1.
         11    1    3    3    0    0 -0.38933601581E+01  0.85431551966E+01  0.60379564841E+00  0.94078862387E+01  0.51100000000E-03 0. -1.
        -11    1    3    3    0    0  0.41892872577E+01 -0.17300442056E+02 -0.53523272463E+01  0.18587706428E+02  0.51100000000E-03 0.  1.
         12    1    3    3    0    0 -0.18694071197E+02 -0.96283543494E+01  0.23192970314E+02  0.31306347238E+02  0.00000000000E+00 0. -1.
</event>
<event>
 7    1  0.6953847E-012  0.5930194E+02  0.7816164E-02  0.1266605E+00
        -11   -1    0    0    0    0  0.00000000000E+00  0.00000000000E+00  0.45593999997E+02  0.45594000000E+02  0.51100000000E-03 0.  1.
         11   -1    0    0    0    0 -0.00000000000E+00 -0.00000000000E+00 -0.45593999997E+02  0.45594000000E+02  0.51100000000E-03 0. -1.
    9900012    2    1    2    0    0  0.44571303885E+01  0.28026018800E+02 -0.14539502319E+02  0.59301939272E+02  0.49999991327E+02 0.  0.
        -12    1    1    2    0    0 -0.44571303885E+01 -0.28026018800E+02  0.14539502319E+02  0.31886060728E+02  0.00000000000E+00 0.  1.
         11    1    3    3    0    0  0.12202337446E+01  0.13698836337E+02 -0.12207388404E+02  0.18389328951E+02  0.51100000000E-03 0. -1.
        -11    1    3    3    0    0  0.17406234205E+02  0.11558239162E+02 -0.11461059247E+02  0.23831193026E+02  0.51100000000E-03 0.  1.
        -12    1    3    3    0    0 -0.14169337561E+02  0.27689433004E+01  0.91289453318E+01  0.17081417294E+02  0.00000000000E+00 0.  1.
</event>
<event>
 7    1  0.6953847E-012  0.5930196E+02  0.7816164E-02  0.1266605E+00
        -11   -1    0    0    0    0  0.00000000000E+00  0.00000000000E+00  0.45593999997E+02  0.45594000000E+02  0.51100000000E-03 0. -1.
         11   -1    0    0    0    0 -0.00000000000E+00 -0.00000000000E+00 -0.45593999997E+02  0.45594000000E+02  0.51100000000E-03 0.  1.
    9900012    2    1    2    0    0  0.21889824744E+02  0.88616932911E+00  0.23168297852E+02  0.59301956835E+02  0.50000023357E+02 0.  0.
        -12    1    1    2    0    0 -0.21889824744E+02 -0.88616932911E+00 -0.23168297852E+02  0.31886043165E+02  0.00000000000E+00 0.  1.
         11    1    3    3    0    0 -0.69573060645E+01 -0.65939578054E+01  0.97197606035E+01  0.13651305200E+02  0.51100000000E-03 0. -1.
        -11    1    3    3    0    0 -0.63584728107E+00 -0.75603740104E+01  0.97391984651E+01  0.12345669036E+02  0.51100000000E-03 0.  1.
         12    1    3    3    0    0  0.29482978089E+02  0.15040501145E+02  0.37093387831E+01  0.33304982599E+02  0.00000000000E+00 0. -1.
</event>
<event>
 7    1  0.6953847E-012  0.5930193E+02  0.7816164E-02  0.1266605E+00
        -11   -1    0    0    0    0  0.00000000000E+00  0.00000000000E+00  0.45593999997E+02  0.45594000000E+02  0.51100000000E-03 0. -1.
         11   -1    0    0    0    0 -0.00000000000E+00 -0.00000000000E+00 -0.45593999997E+02  0.45594000000E+02  0.51100000000E-03 0.  1.
    9900012    2    1    2    0    0 -0.22676450506E+02  0.39993365608E+01  0.22056859620E+02  0.59301934755E+02  0.49999983089E+02 0.  0.
        -12    1    1    2    0    0  0.22676450506E+02 -0.39993365608E+01 -0.22056859620E+02  0.31886065245E+02  0.00000000000E+00 0.  1.
         11    1    3    3    0    0  0.13174469187E+01  0.58731483496E-01  0.83407471053E+00  0.15603834960E+01  0.51100000000E-03 0. -1.
        -11    1    3    3    0    0  0.74766654937E+01 -0.93772454889E+00 -0.10412462864E+02  0.12852985544E+02  0.51100000000E-03 0.  1.
         12    1    3    3    0    0 -0.31470562919E+02  0.48783296262E+01  0.31635247773E+02  0.44888565716E+02  0.00000000000E+00 0. -1.
</event>
<event>
 7    1  0.6953847E-012  0.5930194E+02  0.7816164E-02  0.1266605E+00
        -11   -1    0    0    0    0  0.00000000000E+00  0.00000000000E+00  0.45593999997E+02  0.45594000000E+02  0.51100000000E-03 0.  1.
         11   -1    0    0    0    0 -0.00000000000E+00 -0.00000000000E+00 -0.45593999997E+02  0.45594000000E+02  0.51100000000E-03 0. -1.
    9900012    2    1    2    0    0 -0.26029918252E+02 -0.16484931628E+02  0.82104181125E+01  0.59301943791E+02  0.49999999568E+02 0.  0.
        -12    1    1    2    0    0  0.26029918252E+02  0.16484931628E+02 -0.82104181125E+01  0.31886056209E+02  0.00000000000E+00 0.  1.
         11    1    3    3    0    0 -0.84973377893E+01 -0.73370261775E+01 -0.36785291991E+01  0.11813901979E+02  0.51100000000E-03 0. -1.
        -11    1    3    3    0    0  0.12765380968E+02 -0.55991684368E+01 -0.17948443479E+01  0.14054433640E+02  0.51100000000E-03 0.  1.
         12    1    3    3    0    0 -0.30297961431E+02 -0.35487370137E+01  0.13683791659E+02  0.33433608172E+02  0.00000000000E+00 0. -1.
</event>
<event>
 7    1  0.6953847E-012  0.5930193E+02  0.7816164E-02  0.1266605E+00
        -11   -1    0    0    0    0  0.00000000000E+00  0.00000000000E+00  0.45593999997E+02  0.45594000000E+02  0.51100000000E-03 0.  1.
         11   -1    0    0    0    0 -0.00000000000E+00 -0.00000000000E+00 -0.45593999997E+02  0.45594000000E+02  0.51100000000E-03 0. -1.
    9900012    2    1    2    0    0 -0.84375502692E+01  0.49262779361E+01 -0.30352277434E+02  0.59301933854E+02  0.49999981446E+02 0.  0.
        -12    1    1    2    0    0  0.84375502692E+01 -0.49262779361E+01  0.30352277434E+02  0.31886066146E+02  0.00000000000E+00 0.  1.
         11    1    3    3    0    0  0.58620823714E+01 -0.72308138005E+00 -0.82290846186E+01  0.10129397333E+02  0.51100000000E-03 0. -1.
        -11    1    3    3    0    0  0.11839806672E+02  0.78668496360E+01  0.93519177117E+00  0.14245803914E+02  0.51100000000E-03 0.  1.
         12    1    3    3    0    0 -0.26139439313E+02 -0.22174903199E+01 -0.23058384586E+02  0.34926732608E+02  0.00000000000E+00 0. -1.
</event>
<event>
 7    1  0.6953847E-012  0.5930194E+02  0.7816164E-02  0.1266605E+00
        -11   -1    0    0    0    0  0.00000000000E+00  0.00000000000E+00  0.45593999997E+02  0.45594000000E+02  0.51100000000E-03 0.  1.
         11   -1    0    0    0    0 -0.00000000000E+00 -0.00000000000E+00 -0.45593999997E+02  0.45594000000E+02  0.51100000000E-03 0. -1.
    9900012    2    1    2    0    0  0.10134103500E+02 -0.12414872577E+02 -0.27566133083E+02  0.59301940224E+02  0.49999993063E+02 0.  0.
        -12    1    1    2    0    0 -0.10134103500E+02  0.12414872577E+02  0.27566133083E+02  0.31886059776E+02  0.00000000000E+00 0.  1.
         11    1    3    3    0    0  0.10365004531E+02  0.48888660046E+01  0.35635334468E+01  0.12001379113E+02  0.51100000000E-03 0.  1.
        -11    1    3    3    0    0  0.78823221306E+01 -0.13421741921E+02 -0.71244421229E+00  0.15581454855E+02  0.51100000000E-03 0. -1.
         12    1    3    3    0    0 -0.81132231618E+01 -0.38819966605E+01 -0.30417222318E+02  0.31719106256E+02  0.00000000000E+00 0. -1.
</event>
<event>
 7    1  0.6953847E-012  0.5930199E+02  0.7816164E-02  0.1266605E+00
        -11   -1    0    0    0    0  0.00000000000E+00  0.00000000000E+00  0.45593999997E+02  0.45594000000E+02  0.51100000000E-03 0.  1.
         11   -1    0    0    0    0 -0.00000000000E+00 -0.00000000000E+00 -0.45593999997E+02  0.45594000000E+02  0.51100000000E-03 0. -1.
    9900012    2    1    2    0    0  0.51903458338E+01  0.28709441698E+01 -0.31329472619E+02  0.59301986375E+02  0.50000077231E+02 0.  0.
        -12    1    1    2    0    0 -0.51903458338E+01 -0.28709441698E+01  0.31329472619E+02  0.31886013625E+02  0.00000000000E+00 0.  1.
         11    1    3    3    0    0 -0.21455605954E+01  0.18653413914E+02 -0.74231506886E+01  0.20190503890E+02  0.51100000000E-03 0. -1.
        -11    1    3    3    0    0  0.49997610065E+01 -0.89933250717E+01  0.34313163692E+01  0.10846724771E+02  0.51100000000E-03 0.  1.
        -12    1    3    3    0    0  0.23361454227E+01 -0.67891446725E+01 -0.27337638300E+02  0.28264757714E+02  0.00000000000E+00 0.  1.
</event>
<event>
 7    1  0.6953847E-012  0.5930191E+02  0.7816164E-02  0.1266605E+00
        -11   -1    0    0    0    0  0.00000000000E+00  0.00000000000E+00  0.45593999997E+02  0.45594000000E+02  0.51100000000E-03 0.  1.
         11   -1    0    0    0    0 -0.00000000000E+00 -0.00000000000E+00 -0.45593999997E+02  0.45594000000E+02  0.51100000000E-03 0. -1.
    9900012    2    1    2    0    0 -0.92932095568E+01  0.14804831807E+02 -0.26667885092E+02  0.59301907672E+02  0.49999933695E+02 0.  0.
        -12    1    1    2    0    0  0.92932095568E+01 -0.14804831807E+02  0.26667885092E+02  0.31886092328E+02  0.00000000000E+00 0.  1.
         11    1    3    3    0    0  0.18186733025E+01 -0.62361833271E+00  0.94275030527E+01  0.96215532258E+01  0.51100000000E-03 0. -1.
        -11    1    3    3    0    0  0.81174127029E+00  0.14986786362E+02 -0.41388835042E+01  0.15568977046E+02  0.51100000000E-03 0.  1.
         12    1    3    3    0    0 -0.11923624130E+02  0.44166377805E+00 -0.31956504640E+02  0.34111377400E+02  0.00000000000E+00 0. -1.
</event>
<event>
 7    1  0.6953847E-012  0.5930197E+02  0.7816164E-02  0.1266605E+00
        -11   -1    0    0    0    0  0.00000000000E+00  0.00000000000E+00  0.45593999997E+02  0.45594000000E+02  0.51100000000E-03 0.  1.
         11   -1    0    0    0    0 -0.00000000000E+00 -0.00000000000E+00 -0.45593999997E+02  0.45594000000E+02  0.51100000000E-03 0. -1.
    9900012    2    1    2    0    0  0.67714779199E+01  0.28824092932E+02 -0.11833756911E+02  0.59301967804E+02  0.50000043362E+02 0.  0.
        -12    1    1    2    0    0 -0.67714779199E+01 -0.28824092932E+02  0.11833756911E+02  0.31886032196E+02  0.00000000000E+00 0.  1.
         11    1    3    3    0    0  0.16235079120E+02  0.20841862323E+02 -0.40882956056E+01  0.26733409441E+02  0.51100000000E-03 0. -1.
        -11    1    3    3    0    0  0.12719730931E+01  0.74086412689E+01  0.95808621820E+01  0.12177799531E+02  0.51100000000E-03 0.  1.
         12    1    3    3    0    0 -0.10735574294E+02  0.57358934019E+00 -0.17326323488E+02  0.20390758832E+02  0.00000000000E+00 0. -1.
</event>
<event>
 7    1  0.6953847E-012  0.5930192E+02  0.7816164E-02  0.1266605E+00
        -11   -1    0    0    0    0  0.00000000000E+00  0.00000000000E+00  0.45593999997E+02  0.45594000000E+02  0.51100000000E-03 0.  1.
         11   -1    0    0    0    0 -0.00000000000E+00 -0.00000000000E+00 -0.45593999997E+02  0.45594000000E+02  0.51100000000E-03 0. -1.
    9900012    2    1    2    0    0 -0.27900096667E+02  0.38580315449E+01 -0.14947318732E+02  0.59301919358E+02  0.49999955008E+02 0.  0.
        -12    1    1    2    0    0  0.27900096667E+02 -0.38580315449E+01  0.14947318732E+02  0.31886080642E+02  0.00000000000E+00 0.  1.
         11    1    3    3    0    0 -0.54825291209E+01 -0.87198715112E+01  0.23437179319E+01  0.10563488947E+02  0.51100000000E-03 0. -1.
        -11    1    3    3    0    0 -0.84759574277E+01  0.11235373993E+02  0.10539077121E+02  0.17582594516E+02  0.51100000000E-03 0.  1.
         12    1    3    3    0    0 -0.13941610119E+02  0.13425290628E+01 -0.27830113785E+02  0.31155835895E+02  0.00000000000E+00 0. -1.
</event>
<event>
 7    1  0.6953847E-012  0.5930201E+02  0.7816164E-02  0.1266605E+00
        -11   -1    0    0    0    0  0.00000000000E+00  0.00000000000E+00  0.45593999997E+02  0.45594000000E+02  0.51100000000E-03 0.  1.
         11   -1    0    0    0    0 -0.00000000000E+00 -0.00000000000E+00 -0.45593999997E+02  0.45594000000E+02  0.51100000000E-03 0. -1.
    9900012    2    1    2    0    0 -0.18382752798E+01 -0.24685314602E+02 -0.20099064909E+02  0.59302008982E+02  0.50000118460E+02 0.  0.
        -12    1    1    2    0    0  0.18382752798E+01  0.24685314602E+02  0.20099064909E+02  0.31885991018E+02  0.00000000000E+00 0.  1.
         11    1    3    3    0    0  0.96052510221E+01 -0.29629363034E+02 -0.80905548366E+01  0.32181004938E+02  0.51100000000E-03 0. -1.
        -11    1    3    3    0    0 -0.55940098745E+01 -0.21017835537E+01  0.50080276684E+01  0.77968443598E+01  0.51100000000E-03 0.  1.
        -12    1    3    3    0    0 -0.58495164274E+01  0.70458319854E+01 -0.17016537740E+02  0.19324159684E+02  0.00000000000E+00 0.  1.
</event>
<event>
 7    1  0.6953847E-012  0.5930193E+02  0.7816164E-02  0.1266605E+00
        -11   -1    0    0    0    0  0.00000000000E+00  0.00000000000E+00  0.45593999997E+02  0.45594000000E+02  0.51100000000E-03 0. -1.
         11   -1    0    0    0    0 -0.00000000000E+00 -0.00000000000E+00 -0.45593999997E+02  0.45594000000E+02  0.51100000000E-03 0.  1.
    9900012    2    1    2    0    0 -0.18275319316E+02  0.25824121101E+02 -0.39810421363E+01  0.59301933714E+02  0.49999981190E+02 0.  0.
        -12    1    1    2    0    0  0.18275319316E+02 -0.25824121101E+02  0.39810421363E+01  0.31886066286E+02  0.00000000000E+00 0.  1.
         11    1    3    3    0    0 -0.92330755056E+01 -0.98066741451E+01  0.10768479688E+02  0.17244729518E+02  0.51100000000E-03 0. -1.
        -11    1    3    3    0    0  0.29484958157E+01  0.40611040617E+01  0.42061303261E+00  0.50361800365E+01  0.51100000000E-03 0.  1.
        -12    1    3    3    0    0 -0.11990739626E+02  0.31569691184E+02 -0.15170134857E+02  0.37021024160E+02  0.00000000000E+00 0.  1.
</event>
<event>
 7    1  0.6953847E-012  0.5930193E+02  0.7816164E-02  0.1266605E+00
        -11   -1    0    0    0    0  0.00000000000E+00  0.00000000000E+00  0.45593999997E+02  0.45594000000E+02  0.51100000000E-03 0. -1.
         11   -1    0    0    0    0 -0.00000000000E+00 -0.00000000000E+00 -0.45593999997E+02  0.45594000000E+02  0.51100000000E-03 0.  1.
    9900012    2    1    2    0    0 -0.17361486663E+02  0.49471959297E+01  0.26283564054E+02  0.59301926142E+02  0.49999967380E+02 0.  0.
        -12    1    1    2    0    0  0.17361486663E+02 -0.49471959297E+01 -0.26283564054E+02  0.31886073858E+02  0.00000000000E+00 0.  1.
         11    1    3    3    0    0 -0.88689863806E+01 -0.10270876342E+02  0.20040004760E+02  0.24202305908E+02  0.51100000000E-03 0. -1.
        -11    1    3    3    0    0  0.24504206601E+01 -0.31682307689E+01 -0.83085818491E+01  0.92235990926E+01  0.51100000000E-03 0.  1.
         12    1    3    3    0    0 -0.10942920943E+02  0.18386303040E+02  0.14552141143E+02  0.25876021141E+02  0.00000000000E+00 0. -1.
</event>
<event>
 7    1  0.6953847E-012  0.5930195E+02  0.7816164E-02  0.1266605E+00
        -11   -1    0    0    0    0  0.00000000000E+00  0.00000000000E+00  0.45593999997E+02  0.45594000000E+02  0.51100000000E-03 0.  1.
         11   -1    0    0    0    0 -0.00000000000E+00 -0.00000000000E+00 -0.45593999997E+02  0.45594000000E+02  0.51100000000E-03 0. -1.
    9900012    2    1    2    0    0  0.24844570171E+02 -0.13087674972E+02 -0.15105643717E+02  0.59301947010E+02  0.50000005439E+02 0.  0.
        -12    1    1    2    0    0 -0.24844570171E+02  0.13087674972E+02  0.15105643717E+02  0.31886052990E+02  0.00000000000E+00 0.  1.
         11    1    3    3    0    0  0.35918737139E+02 -0.46121865752E+01 -0.28497462688E+01  0.36325596991E+02  0.51100000000E-03 0. -1.
        -11    1    3    3    0    0  0.17550010884E+01  0.11594647327E+01  0.84095725737E+00  0.22653027737E+01  0.51100000000E-03 0.  1.
         12    1    3    3    0    0 -0.12829168056E+02 -0.96349531300E+01 -0.13096854706E+02  0.20711047246E+02  0.00000000000E+00 0. -1.
</event>
<event>
 7    1  0.6953847E-012  0.5930193E+02  0.7816164E-02  0.1266605E+00
        -11   -1    0    0    0    0  0.00000000000E+00  0.00000000000E+00  0.45593999997E+02  0.45594000000E+02  0.51100000000E-03 0.  1.
         11   -1    0    0    0    0 -0.00000000000E+00 -0.00000000000E+00 -0.45593999997E+02  0.45594000000E+02  0.51100000000E-03 0. -1.
    9900012    2    1    2    0    0 -0.31000459961E+02  0.31189765930E+01 -0.67797583100E+01  0.59301926935E+02  0.49999968827E+02 0.  0.
        -12    1    1    2    0    0  0.31000459961E+02 -0.31189765930E+01  0.67797583100E+01  0.31886073065E+02  0.00000000000E+00 0.  1.
         11    1    3    3    0    0 -0.10220686614E+02  0.10964574154E+02 -0.69197861435E+01  0.16509626337E+02  0.51100000000E-03 0. -1.
        -11    1    3    3    0    0 -0.41430931372E+01  0.13813288278E+02 -0.44633259702E+01  0.15096139665E+02  0.51100000000E-03 0.  1.
         12    1    3    3    0    0 -0.16636680209E+02 -0.21658885839E+02  0.46033538037E+01  0.27696160933E+02  0.00000000000E+00 0. -1.
</event>
<event>
 7    1  0.6953847E-012  0.5930192E+02  0.7816164E-02  0.1266605E+00
        -11   -1    0    0    0    0  0.00000000000E+00  0.00000000000E+00  0.45593999997E+02  0.45594000000E+02  0.51100000000E-03 0.  1.
         11   -1    0    0    0    0 -0.00000000000E+00 -0.00000000000E+00 -0.45593999997E+02  0.45594000000E+02  0.51100000000E-03 0. -1.
    9900012    2    1    2    0    0  0.28946974708E+01 -0.14043236034E+01 -0.31723343843E+02  0.59301922430E+02  0.49999960611E+02 0.  0.
        -12    1    1    2    0    0 -0.28946974708E+01  0.14043236034E+01  0.31723343843E+02  0.31886077570E+02  0.00000000000E+00 0.  1.
         11    1    3    3    0    0  0.37841535089E-01  0.58690537627E+01 -0.19852892275E+02  0.20702283835E+02  0.51100000000E-03 0. -1.
        -11    1    3    3    0    0  0.26241526922E+01  0.41843916955E+01 -0.22459601519E+02  0.22996282566E+02  0.51100000000E-03 0.  1.
        -12    1    3    3    0    0  0.23270324349E+00 -0.11457769062E+02  0.10589149951E+02  0.15603356029E+02  0.00000000000E+00 0.  1.
</event>
<event>
 7    1  0.6953847E-012  0.5930190E+02  0.7816164E-02  0.1266605E+00
        -11   -1    0    0    0    0  0.00000000000E+00  0.00000000000E+00  0.45593999997E+02  0.45594000000E+02  0.51100000000E-03 0.  1.
         11   -1    0    0    0    0 -0.00000000000E+00 -0.00000000000E+00 -0.45593999997E+02  0.45594000000E+02  0.51100000000E-03 0. -1.
    9900012    2    1    2    0    0  0.14858030348E+02  0.32238879272E+01 -0.28027996685E+02  0.59301904012E+02  0.49999927020E+02 0.  0.
        -12    1    1    2    0    0 -0.14858030348E+02 -0.32238879272E+01  0.28027996685E+02  0.31886095988E+02  0.00000000000E+00 0.  1.
         11    1    3    3    0    0 -0.99537425058E+00  0.11634556005E+02 -0.71967187230E+01  0.13716647694E+02  0.51100000000E-03 0. -1.
        -11    1    3    3    0    0  0.21530798352E+02  0.48514706831E+01 -0.24312720724E+01  0.22204124158E+02  0.51100000000E-03 0.  1.
        -12    1    3    3    0    0 -0.56773937531E+01 -0.13262138761E+02 -0.18400005890E+02  0.23381132160E+02  0.00000000000E+00 0.  1.
</event>
<event>
 7    1  0.6953847E-012  0.5930192E+02  0.7816164E-02  0.1266605E+00
        -11   -1    0    0    0    0  0.00000000000E+00  0.00000000000E+00  0.45593999997E+02  0.45594000000E+02  0.51100000000E-03 0. -1.
         11   -1    0    0    0    0 -0.00000000000E+00 -0.00000000000E+00 -0.45593999997E+02  0.45594000000E+02  0.51100000000E-03 0.  1.
    9900012    2    1    2    0    0  0.17162157847E+02 -0.24568251976E+02  0.10889603057E+02  0.59301919622E+02  0.49999955490E+02 0.  0.
        -12    1    1    2    0    0 -0.17162157847E+02  0.24568251976E+02 -0.10889603057E+02  0.31886080378E+02  0.00000000000E+00 0.  1.
         11    1    3    3    0    0 -0.43569094732E+01  0.33807062212E+01  0.40267961003E+01  0.68283908650E+01  0.51100000000E-03 0. -1.
        -11    1    3    3    0    0 -0.30814605717E+01  0.58501979930E+01 -0.57982826038E+01  0.87943332451E+01  0.51100000000E-03 0.  1.
        -12    1    3    3    0    0  0.24600527892E+02 -0.33799156190E+02  0.12661089561E+02  0.43679195512E+02  0.00000000000E+00 0.  1.
</event>
<event>
 7    1  0.6953847E-012  0.5930196E+02  0.7816164E-02  0.1266605E+00
        -11   -1    0    0    0    0  0.00000000000E+00  0.00000000000E+00  0.45593999997E+02  0.45594000000E+02  0.51100000000E-03 0.  1.
         11   -1    0    0    0    0 -0.00000000000E+00 -0.00000000000E+00 -0.45593999997E+02  0.45594000000E+02  0.51100000000E-03 0. -1.
    9900012    2    1    2    0    0 -0.67906843959E+00 -0.35086574532E+01 -0.31685138694E+02  0.59301955637E+02  0.50000021173E+02 0.  0.
        -12    1    1    2    0    0  0.67906843959E+00  0.35086574532E+01  0.31685138694E+02  0.31886044363E+02  0.00000000000E+00 0.  1.
         11    1    3    3    0    0  0.34416721794E+00 -0.31971326829E+01 -0.28994455140E+02  0.29172222020E+02  0.51100000000E-03 0. -1.
        -11    1    3    3    0    0 -0.34204388312E+01  0.12559935564E+02 -0.87683605066E+01  0.15695079783E+02  0.51100000000E-03 0.  1.
         12    1    3    3    0    0  0.23972031737E+01 -0.12871460334E+02  0.60776769523E+01  0.14434653834E+02  0.00000000000E+00 0. -1.
</event>
<event>
 7    1  0.6953847E-012  0.5930192E+02  0.7816164E-02  0.1266605E+00
        -11   -1    0    0    0    0  0.00000000000E+00  0.00000000000E+00  0.45593999997E+02  0.45594000000E+02  0.51100000000E-03 0. -1.
         11   -1    0    0    0    0 -0.00000000000E+00 -0.00000000000E+00 -0.45593999997E+02  0.45594000000E+02  0.51100000000E-03 0.  1.
    9900012    2    1    2    0    0  0.68442842574E+01  0.26792380349E+02  0.15875963227E+02  0.59301920276E+02  0.49999956682E+02 0.  0.
        -12    1    1    2    0    0 -0.68442842574E+01 -0.26792380349E+02 -0.15875963227E+02  0.31886079724E+02  0.00000000000E+00 0.  1.
         11    1    3    3    0    0  0.18363892982E+02  0.74431284219E+01  0.84782712859E+01  0.21552582454E+02  0.51100000000E-03 0. -1.
        -11    1    3    3    0    0  0.85534192915E+01  0.73495471348E+00 -0.19833919086E+01  0.88110716562E+01  0.51100000000E-03 0.  1.
        -12    1    3    3    0    0 -0.20073028016E+02  0.18614297214E+02  0.93810838500E+01  0.28938266166E+02  0.00000000000E+00 0.  1.
</event>
<event>
 7    1  0.6953847E-012  0.5930195E+02  0.7816164E-02  0.1266605E+00
        -11   -1    0    0    0    0  0.00000000000E+00  0.00000000000E+00  0.45593999997E+02  0.45594000000E+02  0.51100000000E-03 0.  1.
         11   -1    0    0    0    0 -0.00000000000E+00 -0.00000000000E+00 -0.45593999997E+02  0.45594000000E+02  0.51100000000E-03 0. -1.
    9900012    2    1    2    0    0  0.10280384436E+02 -0.30074513926E+02  0.25608174823E+01  0.59301945396E+02  0.50000002495E+02 0.  0.
        -12    1    1    2    0    0 -0.10280384436E+02  0.30074513926E+02 -0.25608174823E+01  0.31886054604E+02  0.00000000000E+00 0.  1.
         11    1    3    3    0    0  0.14843844715E+02 -0.13187643899E+02  0.23446425369E-01  0.19855836108E+02  0.51100000000E-03 0. -1.
        -11    1    3    3    0    0  0.12688726865E+02  0.23510551839E+01 -0.24324614494E+01  0.13131950308E+02  0.51100000000E-03 0.  1.
         12    1    3    3    0    0 -0.17252187144E+02 -0.19237925211E+02  0.49698325063E+01  0.26314158980E+02  0.00000000000E+00 0. -1.
</event>
<event>
 7    1  0.6953847E-012  0.5930193E+02  0.7816164E-02  0.1266605E+00
        -11   -1    0    0    0    0  0.00000000000E+00  0.00000000000E+00  0.45593999997E+02  0.45594000000E+02  0.51100000000E-03 0.  1.
         11   -1    0    0    0    0 -0.00000000000E+00 -0.00000000000E+00 -0.45593999997E+02  0.45594000000E+02  0.51100000000E-03 0. -1.
    9900012    2    1    2    0    0  0.49390924534E+01 -0.14013189150E+02 -0.28212713644E+02  0.59301932266E+02  0.49999978549E+02 0.  0.
        -12    1    1    2    0    0 -0.49390924534E+01  0.14013189150E+02  0.28212713644E+02  0.31886067734E+02  0.00000000000E+00 0.  1.
         11    1    3    3    0    0  0.60115290833E-01 -0.23492670503E+02 -0.83792882188E+01  0.24942366618E+02  0.51100000000E-03 0. -1.
        -11    1    3    3    0    0  0.17354597836E+01 -0.10427511623E+01  0.59766878480E+01  0.63103049483E+01  0.51100000000E-03 0.  1.
         12    1    3    3    0    0  0.31435173789E+01  0.10522232515E+02 -0.25810113273E+02  0.28049260699E+02  0.00000000000E+00 0. -1.
</event>
<event>
 7    1  0.6953847E-012  0.5930199E+02  0.7816164E-02  0.1266605E+00
        -11   -1    0    0    0    0  0.00000000000E+00  0.00000000000E+00  0.45593999997E+02  0.45594000000E+02  0.51100000000E-03 0. -1.
         11   -1    0    0    0    0 -0.00000000000E+00 -0.00000000000E+00 -0.45593999997E+02  0.45594000000E+02  0.51100000000E-03 0.  1.
    9900012    2    1    2    0    0  0.13549216889E+02  0.22941742599E+02  0.17516080795E+02  0.59301985539E+02  0.50000075706E+02 0.  0.
        -12    1    1    2    0    0 -0.13549216889E+02 -0.22941742599E+02 -0.17516080795E+02  0.31886014461E+02  0.00000000000E+00 0.  1.
         11    1    3    3    0    0 -0.12148163669E+02 -0.65077903388E+01  0.35931886072E+01  0.14242198575E+02  0.51100000000E-03 0. -1.
        -11    1    3    3    0    0 -0.25603359725E+00  0.30378581429E+00 -0.26360119120E+01  0.26657828279E+01  0.51100000000E-03 0.  1.
        -12    1    3    3    0    0  0.25953414155E+02  0.29145747124E+02  0.16558904100E+02  0.42394004136E+02  0.00000000000E+00 0.  1.
</event>
<event>
 7    1  0.6953847E-012  0.5930192E+02  0.7816164E-02  0.1266605E+00
        -11   -1    0    0    0    0  0.00000000000E+00  0.00000000000E+00  0.45593999997E+02  0.45594000000E+02  0.51100000000E-03 0.  1.
         11   -1    0    0    0    0 -0.00000000000E+00 -0.00000000000E+00 -0.45593999997E+02  0.45594000000E+02  0.51100000000E-03 0. -1.
    9900012    2    1    2    0    0 -0.15132612220E+02  0.19457117370E+02 -0.20227383526E+02  0.59301915053E+02  0.49999947156E+02 0.  0.
        -12    1    1    2    0    0  0.15132612220E+02 -0.19457117370E+02  0.20227383526E+02  0.31886084947E+02  0.00000000000E+00 0.  1.
         11    1    3    3    0    0  0.66437216452E+01  0.15022315022E+02 -0.18339973588E+02  0.24620390277E+02  0.51100000000E-03 0. -1.
        -11    1    3    3    0    0  0.50775206348E+01  0.56848512960E+01 -0.16437935816E+01  0.77974872655E+01  0.51100000000E-03 0.  1.
         12    1    3    3    0    0 -0.26853854500E+02 -0.12500489482E+01 -0.24361635619E+00  0.26884037510E+02  0.00000000000E+00 0. -1.
</event>
<event>
 7    1  0.6953847E-012  0.5930194E+02  0.7816164E-02  0.1266605E+00
        -11   -1    0    0    0    0  0.00000000000E+00  0.00000000000E+00  0.45593999997E+02  0.45594000000E+02  0.51100000000E-03 0.  1.
         11   -1    0    0    0    0 -0.00000000000E+00 -0.00000000000E+00 -0.45593999997E+02  0.45594000000E+02  0.51100000000E-03 0. -1.
    9900012    2    1    2    0    0 -0.21953834061E+02  0.45631366927E+01 -0.22669975065E+02  0.59301940101E+02  0.49999992839E+02 0.  0.
        -12    1    1    2    0    0  0.21953834061E+02 -0.45631366927E+01  0.22669975065E+02  0.31886059899E+02  0.00000000000E+00 0.  1.
         11    1    3    3    0    0 -0.26822670048E+02  0.17049486270E+01 -0.30146277626E+01  0.27045340803E+02  0.51100000000E-03 0. -1.
        -11    1    3    3    0    0 -0.44775982401E+01 -0.29241330539E+01 -0.20545513622E+02  0.21230109994E+02  0.51100000000E-03 0.  1.
        -12    1    3    3    0    0  0.93464342274E+01  0.57823211196E+01  0.89016632011E+00  0.11026489304E+02  0.00000000000E+00 0.  1.
</event>
<event>
 7    1  0.6953847E-012  0.5930194E+02  0.7816164E-02  0.1266605E+00
        -11   -1    0    0    0    0  0.00000000000E+00  0.00000000000E+00  0.45593999997E+02  0.45594000000E+02  0.51100000000E-03 0.  1.
         11   -1    0    0    0    0 -0.00000000000E+00 -0.00000000000E+00 -0.45593999997E+02  0.45594000000E+02  0.51100000000E-03 0. -1.
    9900012    2    1    2    0    0 -0.22294089175E+02 -0.21510783448E+02 -0.75485334270E+01  0.59301943901E+02  0.49999999768E+02 0.  0.
        -12    1    1    2    0    0  0.22294089175E+02  0.21510783448E+02  0.75485334270E+01  0.31886056099E+02  0.00000000000E+00 0.  1.
         11    1    3    3    0    0 -0.94423034954E+01  0.36286460673E+01 -0.59050453088E+01  0.11712972635E+02  0.51100000000E-03 0. -1.
        -11    1    3    3    0    0 -0.16911089281E+02 -0.33576118480E+02  0.17379811381E+01  0.37634575214E+02  0.51100000000E-03 0.  1.
         12    1    3    3    0    0  0.40593036018E+01  0.84366889650E+01 -0.33814692563E+01  0.99543960518E+01  0.00000000000E+00 0. -1.
</event>
<event>
 7    1  0.6953847E-012  0.5930187E+02  0.7816164E-02  0.1266605E+00
        -11   -1    0    0    0    0  0.00000000000E+00  0.00000000000E+00  0.45593999997E+02  0.45594000000E+02  0.51100000000E-03 0.  1.
         11   -1    0    0    0    0 -0.00000000000E+00 -0.00000000000E+00 -0.45593999997E+02  0.45594000000E+02  0.51100000000E-03 0. -1.
    9900012    2    1    2    0    0 -0.19380267716E+02 -0.25139588690E+02  0.30218553759E+01  0.59301869690E+02  0.49999864426E+02 0.  0.
        -12    1    1    2    0    0  0.19380267716E+02  0.25139588690E+02 -0.30218553759E+01  0.31886130310E+02  0.00000000000E+00 0.  1.
         11    1    3    3    0    0  0.85798592113E+01  0.10053292467E+01 -0.39371737711E+01  0.94934718909E+01  0.51100000000E-03 0. -1.
        -11    1    3    3    0    0  0.31899490619E+01 -0.11513091007E+02  0.95512590881E+01  0.15295541506E+02  0.51100000000E-03 0.  1.
         12    1    3    3    0    0 -0.31150075989E+02 -0.14631826930E+02 -0.25922299411E+01  0.34512856293E+02  0.00000000000E+00 0. -1.
</event>
<event>
 7    1  0.6953847E-012  0.5930183E+02  0.7816164E-02  0.1266605E+00
        -11   -1    0    0    0    0  0.00000000000E+00  0.00000000000E+00  0.45593999997E+02  0.45594000000E+02  0.51100000000E-03 0.  1.
         11   -1    0    0    0    0 -0.00000000000E+00 -0.00000000000E+00 -0.45593999997E+02  0.45594000000E+02  0.51100000000E-03 0. -1.
    9900012    2    1    2    0    0 -0.23317255207E+02  0.61330450804E+01 -0.20866702561E+02  0.59301828890E+02  0.49999790015E+02 0.  0.
        -12    1    1    2    0    0  0.23317255207E+02 -0.61330450804E+01  0.20866702561E+02  0.31886171110E+02  0.00000000000E+00 0.  1.
         11    1    3    3    0    0  0.51862822553E+01 -0.23392304146E+01  0.41941940842E+01  0.70682944789E+01  0.51100000000E-03 0. -1.
        -11    1    3    3    0    0 -0.16612384296E+02 -0.12374437091E+02 -0.59439687830E+01  0.21550609515E+02  0.51100000000E-03 0.  1.
         12    1    3    3    0    0 -0.11891153166E+02  0.20846712586E+02 -0.19116927862E+02  0.30682924896E+02  0.00000000000E+00 0. -1.
</event>
<event>
 7    1  0.6953847E-012  0.5930176E+02  0.7816164E-02  0.1266605E+00
        -11   -1    0    0    0    0  0.00000000000E+00  0.00000000000E+00  0.45593999997E+02  0.45594000000E+02  0.51100000000E-03 0.  1.
         11   -1    0    0    0    0 -0.00000000000E+00 -0.00000000000E+00 -0.45593999997E+02  0.45594000000E+02  0.51100000000E-03 0. -1.
    9900012    2    1    2    0    0 -0.30175805184E+02 -0.44472971741E+01 -0.92937907951E+01  0.59301761306E+02  0.49999666759E+02 0.  0.
        -12    1    1    2    0    0  0.30175805184E+02  0.44472971741E+01  0.92937907951E+01  0.31886238694E+02  0.00000000000E+00 0.  1.
         11    1    3    3    0    0 -0.11355894976E+02 -0.20208450666E+01 -0.53148002722E+01  0.12699892428E+02  0.51100000000E-03 0. -1.
        -11    1    3    3    0    0 -0.73240698228E+01 -0.21023335630E+02  0.52457435804E+01  0.22872264115E+02  0.51100000000E-03 0.  1.
        -12    1    3    3    0    0 -0.11495840385E+02  0.18596883523E+02 -0.92247341033E+01  0.23729604763E+02  0.00000000000E+00 0.  1.
</event>
<event>
 7    1  0.6953847E-012  0.5930194E+02  0.7816164E-02  0.1266605E+00
        -11   -1    0    0    0    0  0.00000000000E+00  0.00000000000E+00  0.45593999997E+02  0.45594000000E+02  0.51100000000E-03 0. -1.
         11   -1    0    0    0    0 -0.00000000000E+00 -0.00000000000E+00 -0.45593999997E+02  0.45594000000E+02  0.51100000000E-03 0.  1.
    9900012    2    1    2    0    0  0.26127667972E+02  0.98727623583E+01 -0.15381626198E+02  0.59301938865E+02  0.49999990584E+02 0.  0.
        -12    1    1    2    0    0 -0.26127667972E+02 -0.98727623583E+01  0.15381626198E+02  0.31886061135E+02  0.00000000000E+00 0.  1.
         11    1    3    3    0    0  0.27315871773E+02  0.97032728047E+01 -0.23029004211E+02  0.37022228310E+02  0.51100000000E-03 0. -1.
        -11    1    3    3    0    0  0.62542975577E+01  0.55923041978E+00 -0.47096753266E+01  0.78492049627E+01  0.51100000000E-03 0.  1.
        -12    1    3    3    0    0 -0.74425013592E+01 -0.38974086622E+00  0.12357053339E+02  0.14430505592E+02  0.00000000000E+00 0.  1.
</event>
<event>
 7    1  0.6953847E-012  0.5930195E+02  0.7816164E-02  0.1266605E+00
        -11   -1    0    0    0    0  0.00000000000E+00  0.00000000000E+00  0.45593999997E+02  0.45594000000E+02  0.51100000000E-03 0. -1.
         11   -1    0    0    0    0 -0.00000000000E+00 -0.00000000000E+00 -0.45593999997E+02  0.45594000000E+02  0.51100000000E-03 0.  1.
    9900012    2    1    2    0    0 -0.48148449899E+01 -0.15417939393E+01  0.31482696977E+02  0.59301951800E+02  0.50000014175E+02 0.  0.
        -12    1    1    2    0    0  0.48148449899E+01  0.15417939393E+01 -0.31482696977E+02  0.31886048200E+02  0.00000000000E+00 0.  1.
         11    1    3    3    0    0  0.17408379108E+02  0.93048114479E+01  0.79989193478E+00  0.19755277943E+02  0.51100000000E-03 0.  1.
        -11    1    3    3    0    0 -0.48514445252E+01 -0.23952278878E+01  0.46850352318E+01  0.71570375156E+01  0.51100000000E-03 0. -1.
        -12    1    3    3    0    0 -0.17371779573E+02 -0.84513774994E+01  0.25997769811E+02  0.32389636341E+02  0.00000000000E+00 0.  1.
</event>
<event>
 7    1  0.6953847E-012  0.5930194E+02  0.7816164E-02  0.1266605E+00
        -11   -1    0    0    0    0  0.00000000000E+00  0.00000000000E+00  0.45593999997E+02  0.45594000000E+02  0.51100000000E-03 0.  1.
         11   -1    0    0    0    0 -0.00000000000E+00 -0.00000000000E+00 -0.45593999997E+02  0.45594000000E+02  0.51100000000E-03 0. -1.
    9900012    2    1    2    0    0  0.12600777285E+02  0.92125083401E+01 -0.27804152587E+02  0.59301940363E+02  0.49999993316E+02 0.  0.
        -12    1    1    2    0    0 -0.12600777285E+02 -0.92125083401E+01  0.27804152587E+02  0.31886059637E+02  0.00000000000E+00 0.  1.
         11    1    3    3    0    0  0.42566299548E+01 -0.39415918995E+01 -0.17472045429E+02  0.18409981451E+02  0.51100000000E-03 0. -1.
        -11    1    3    3    0    0 -0.72046377636E+01  0.15580166950E+02 -0.16669033894E+02  0.23927078775E+02  0.51100000000E-03 0.  1.
         12    1    3    3    0    0  0.15548785094E+02 -0.24260667103E+01  0.63369267367E+01  0.16964880137E+02  0.00000000000E+00 0. -1.
</event>
<event>
 7    1  0.6953847E-012  0.5930192E+02  0.7816164E-02  0.1266605E+00
        -11   -1    0    0    0    0  0.00000000000E+00  0.00000000000E+00  0.45593999997E+02  0.45594000000E+02  0.51100000000E-03 0.  1.
         11   -1    0    0    0    0 -0.00000000000E+00 -0.00000000000E+00 -0.45593999997E+02  0.45594000000E+02  0.51100000000E-03 0. -1.
    9900012    2    1    2    0    0  0.51688515114E+01  0.75956581096E+01 -0.30533773119E+02  0.59301916061E+02  0.49999948995E+02 0.  0.
        -12    1    1    2    0    0 -0.51688515114E+01 -0.75956581096E+01  0.30533773119E+02  0.31886083939E+02  0.00000000000E+00 0.  1.
         11    1    3    3    0    0 -0.13691042240E+01  0.14078391558E+02 -0.65254687129E+01  0.15577461200E+02  0.51100000000E-03 0. -1.
        -11    1    3    3    0    0 -0.45967243426E+01  0.13082613709E+02 -0.11193333616E+02  0.17820644597E+02  0.51100000000E-03 0.  1.
         12    1    3    3    0    0  0.11134680078E+02 -0.19565347158E+02 -0.12814970791E+02  0.25903810265E+02  0.00000000000E+00 0. -1.
</event>
<event>
 7    1  0.6953847E-012  0.5930195E+02  0.7816164E-02  0.1266605E+00
        -11   -1    0    0    0    0  0.00000000000E+00  0.00000000000E+00  0.45593999997E+02  0.45594000000E+02  0.51100000000E-03 0.  1.
         11   -1    0    0    0    0 -0.00000000000E+00 -0.00000000000E+00 -0.45593999997E+02  0.45594000000E+02  0.51100000000E-03 0. -1.
    9900012    2    1    2    0    0 -0.34771171023E+00 -0.61292240848E+01 -0.31289490264E+02  0.59301945175E+02  0.50000002093E+02 0.  0.
        -12    1    1    2    0    0  0.34771171023E+00  0.61292240848E+01  0.31289490264E+02  0.31886054825E+02  0.00000000000E+00 0.  1.
         11    1    3    3    0    0 -0.97220548933E+01 -0.10772779934E+01 -0.13130980389E+02  0.16373806077E+02  0.51100000000E-03 0. -1.
        -11    1    3    3    0    0  0.35543589497E+01 -0.21182553178E+02 -0.75676392919E+01  0.22772860852E+02  0.51100000000E-03 0.  1.
        -12    1    3    3    0    0  0.58199842334E+01  0.16130607086E+02 -0.10590870583E+02  0.20155278246E+02  0.00000000000E+00 0.  1.
</event>
<event>
 7    1  0.6953847E-012  0.5930194E+02  0.7816164E-02  0.1266605E+00
        -11   -1    0    0    0    0  0.00000000000E+00  0.00000000000E+00  0.45593999997E+02  0.45594000000E+02  0.51100000000E-03 0.  1.
         11   -1    0    0    0    0 -0.00000000000E+00 -0.00000000000E+00 -0.45593999997E+02  0.45594000000E+02  0.51100000000E-03 0. -1.
    9900012    2    1    2    0    0 -0.25125396463E+02  0.13227694145E+01 -0.19587898903E+02  0.59301936433E+02  0.49999986150E+02 0.  0.
        -12    1    1    2    0    0  0.25125396463E+02 -0.13227694145E+01  0.19587898903E+02  0.31886063567E+02  0.00000000000E+00 0.  1.
         11    1    3    3    0    0 -0.72393584822E+01 -0.16113830879E+02  0.40768946985E+01  0.18129669811E+02  0.51100000000E-03 0. -1.
        -11    1    3    3    0    0  0.51386928470E+01  0.54474019856E+01 -0.74603580742E+01  0.10570586333E+02  0.51100000000E-03 0.  1.
        -12    1    3    3    0    0 -0.23024730828E+02  0.11989198308E+02 -0.16204435527E+02  0.30601680289E+02  0.00000000000E+00 0.  1.
</event>
<event>
 7    1  0.6953847E-012  0.5930209E+02  0.7816164E-02  0.1266604E+00
        -11   -1    0    0    0    0  0.00000000000E+00  0.00000000000E+00  0.45593999997E+02  0.45594000000E+02  0.51100000000E-03 0. -1.
         11   -1    0    0    0    0 -0.00000000000E+00 -0.00000000000E+00 -0.45593999997E+02  0.45594000000E+02  0.51100000000E-03 0.  1.
    9900012    2    1    2    0    0 -0.21163081533E+02 -0.79414842696E+00  0.23837047087E+02  0.59302086095E+02  0.50000259096E+02 0.  0.
        -12    1    1    2    0    0  0.21163081533E+02  0.79414842696E+00 -0.23837047087E+02  0.31885913905E+02  0.00000000000E+00 0.  1.
         11    1    3    3    0    0 -0.75762683174E+01  0.60164211906E+01  0.24330627388E+02  0.26183517620E+02  0.51100000000E-03 0. -1.
        -11    1    3    3    0    0 -0.84904462698E+01  0.10442924669E+02 -0.53514412624E+01  0.14483793611E+02  0.51100000000E-03 0.  1.
         12    1    3    3    0    0 -0.50963669461E+01 -0.17253494287E+02  0.48578609610E+01  0.18634774865E+02  0.00000000000E+00 0. -1.
</event>
<event>
 7    1  0.6953847E-012  0.5930188E+02  0.7816164E-02  0.1266605E+00
        -11   -1    0    0    0    0  0.00000000000E+00  0.00000000000E+00  0.45593999997E+02  0.45594000000E+02  0.51100000000E-03 0. -1.
         11   -1    0    0    0    0 -0.00000000000E+00 -0.00000000000E+00 -0.45593999997E+02  0.45594000000E+02  0.51100000000E-03 0.  1.
    9900012    2    1    2    0    0 -0.41101146495E+01 -0.20669811045E+02  0.23928861376E+02  0.59301881738E+02  0.49999886398E+02 0.  0.
        -12    1    1    2    0    0  0.41101146495E+01  0.20669811045E+02 -0.23928861376E+02  0.31886118262E+02  0.00000000000E+00 0.  1.
         11    1    3    3    0    0 -0.18084428384E+02 -0.10151306221E+02 -0.60275861180E+01  0.21596929472E+02  0.51100000000E-03 0. -1.
        -11    1    3    3    0    0  0.66337310677E+00  0.20852351929E+01  0.11447200717E+02  0.11654470138E+02  0.51100000000E-03 0.  1.
        -12    1    3    3    0    0  0.13310940627E+02 -0.12603740017E+02  0.18509246777E+02  0.26050482127E+02  0.00000000000E+00 0.  1.
</event>
<event>
 7    1  0.6953847E-012  0.5930166E+02  0.7816164E-02  0.1266606E+00
        -11   -1    0    0    0    0  0.00000000000E+00  0.00000000000E+00  0.45593999997E+02  0.45594000000E+02  0.51100000000E-03 0.  1.
         11   -1    0    0    0    0 -0.00000000000E+00 -0.00000000000E+00 -0.45593999997E+02  0.45594000000E+02  0.51100000000E-03 0. -1.
    9900012    2    1    2    0    0 -0.18432273588E+02  0.22035760106E+02 -0.13835300272E+02  0.59301655482E+02  0.49999473760E+02 0.  0.
        -12    1    1    2    0    0  0.18432273588E+02 -0.22035760106E+02  0.13835300272E+02  0.31886344518E+02  0.00000000000E+00 0.  1.
         11    1    3    3    0    0 -0.14751074048E+02 -0.44483945838E+01 -0.67550120939E+01  0.16822977994E+02  0.51100000000E-03 0. -1.
        -11    1    3    3    0    0  0.11600151850E+01 -0.65805967399E+01 -0.60990209715E+01  0.90469854512E+01  0.51100000000E-03 0.  1.
        -12    1    3    3    0    0 -0.48412147256E+01  0.33064751430E+02 -0.98126720674E+00  0.33431692037E+02  0.00000000000E+00 0.  1.
</event>
<event>
 7    1  0.6953847E-012  0.5930194E+02  0.7816164E-02  0.1266605E+00
        -11   -1    0    0    0    0  0.00000000000E+00  0.00000000000E+00  0.45593999997E+02  0.45594000000E+02  0.51100000000E-03 0.  1.
         11   -1    0    0    0    0 -0.00000000000E+00 -0.00000000000E+00 -0.45593999997E+02  0.45594000000E+02  0.51100000000E-03 0. -1.
    9900012    2    1    2    0    0 -0.15740711593E+02 -0.17065127535E+02 -0.21857084755E+02  0.59301941397E+02  0.49999995202E+02 0.  0.
        -12    1    1    2    0    0  0.15740711593E+02  0.17065127535E+02  0.21857084755E+02  0.31886058603E+02  0.00000000000E+00 0.  1.
         11    1    3    3    0    0 -0.67380270833E+01 -0.32876155128E+01 -0.14374085043E+02  0.16211839680E+02  0.51100000000E-03 0. -1.
        -11    1    3    3    0    0  0.47124407446E+01  0.70903795466E+01 -0.14795427377E+02  0.17070010294E+02  0.51100000000E-03 0.  1.
        -12    1    3    3    0    0 -0.13715125255E+02 -0.20867891569E+02  0.73124276653E+01  0.26020091423E+02  0.00000000000E+00 0.  1.
</event>
<event>
 7    1  0.6953847E-012  0.5930196E+02  0.7816164E-02  0.1266605E+00
        -11   -1    0    0    0    0  0.00000000000E+00  0.00000000000E+00  0.45593999997E+02  0.45594000000E+02  0.51100000000E-03 0. -1.
         11   -1    0    0    0    0 -0.00000000000E+00 -0.00000000000E+00 -0.45593999997E+02  0.45594000000E+02  0.51100000000E-03 0.  1.
    9900012    2    1    2    0    0 -0.11523765477E+02  0.36211760207E+01  0.29509480908E+02  0.59301959951E+02  0.50000029040E+02 0.  0.
        -12    1    1    2    0    0  0.11523765477E+02 -0.36211760207E+01 -0.29509480908E+02  0.31886040049E+02  0.00000000000E+00 0.  1.
         11    1    3    3    0    0  0.72217729911E+01  0.12722950687E+02  0.76605688401E+01  0.16513987845E+02  0.51100000000E-03 0. -1.
        -11    1    3    3    0    0 -0.42445649272E+01  0.44603952024E+01 -0.59926294297E+01  0.85920349467E+01  0.51100000000E-03 0.  1.
         12    1    3    3    0    0 -0.14500973541E+02 -0.13562169869E+02  0.27841541498E+02  0.34195937159E+02  0.00000000000E+00 0. -1.
</event>
<event>
 7    1  0.6953847E-012  0.5930194E+02  0.7816164E-02  0.1266605E+00
        -11   -1    0    0    0    0  0.00000000000E+00  0.00000000000E+00  0.45593999997E+02  0.45594000000E+02  0.51100000000E-03 0.  1.
         11   -1    0    0    0    0 -0.00000000000E+00 -0.00000000000E+00 -0.45593999997E+02  0.45594000000E+02  0.51100000000E-03 0. -1.
    9900012    2    1    2    0    0  0.67826614341E+01  0.96646592721E+01 -0.29619428767E+02  0.59301941989E+02  0.49999996283E+02 0.  0.
        -12    1    1    2    0    0 -0.67826614341E+01 -0.96646592721E+01  0.29619428767E+02  0.31886058011E+02  0.00000000000E+00 0.  1.
         11    1    3    3    0    0 -0.18682447056E+01  0.41187298297E+01 -0.42161615098E+01  0.61830649219E+01  0.51100000000E-03 0. -1.
        -11    1    3    3    0    0  0.10023390290E+02  0.24768276020E+02 -0.10306700105E+02  0.28638504103E+02  0.51100000000E-03 0.  1.
        -12    1    3    3    0    0 -0.13724841506E+01 -0.19222346578E+02 -0.15096567152E+02  0.24480372965E+02  0.00000000000E+00 0.  1.
</event>
<event>
 7    1  0.6953847E-012  0.5930194E+02  0.7816164E-02  0.1266605E+00
        -11   -1    0    0    0    0  0.00000000000E+00  0.00000000000E+00  0.45593999997E+02  0.45594000000E+02  0.51100000000E-03 0. -1.
         11   -1    0    0    0    0 -0.00000000000E+00 -0.00000000000E+00 -0.45593999997E+02  0.45594000000E+02  0.51100000000E-03 0.  1.
    9900012    2    1    2    0    0  0.98971138892E+01  0.16424866306E+02  0.25475311768E+02  0.59301943389E+02  0.49999998836E+02 0.  0.
        -12    1    1    2    0    0 -0.98971138892E+01 -0.16424866306E+02 -0.25475311768E+02  0.31886056611E+02  0.00000000000E+00 0.  1.
         11    1    3    3    0    0 -0.22133417991E+01  0.47414874939E+01 -0.45822319107E+01  0.69553889266E+01  0.51100000000E-03 0. -1.
        -11    1    3    3    0    0  0.21160323398E+02  0.18963700188E+02  0.11930118413E+02  0.30817347983E+02  0.51100000000E-03 0.  1.
        -12    1    3    3    0    0 -0.90498677095E+01 -0.72803213756E+01  0.18127425265E+02  0.21529206480E+02  0.00000000000E+00 0.  1.
</event>
<event>
 7    1  0.6953847E-012  0.5930193E+02  0.7816164E-02  0.1266605E+00
        -11   -1    0    0    0    0  0.00000000000E+00  0.00000000000E+00  0.45593999997E+02  0.45594000000E+02  0.51100000000E-03 0.  1.
         11   -1    0    0    0    0 -0.00000000000E+00 -0.00000000000E+00 -0.45593999997E+02  0.45594000000E+02  0.51100000000E-03 0. -1.
    9900012    2    1    2    0    0  0.93125797008E+00  0.14425923700E+02 -0.28420888126E+02  0.59301930975E+02  0.49999976195E+02 0.  0.
        -12    1    1    2    0    0 -0.93125797008E+00 -0.14425923700E+02  0.28420888126E+02  0.31886069025E+02  0.00000000000E+00 0.  1.
         11    1    3    3    0    0 -0.15827292606E+02  0.12913187380E+02 -0.27347711291E+02  0.34134306975E+02  0.51100000000E-03 0. -1.
        -11    1    3    3    0    0 -0.30226137831E+01  0.67766813156E+00 -0.41001970271E+01  0.51387784639E+01  0.51100000000E-03 0.  1.
        -12    1    3    3    0    0  0.19781164359E+02  0.83506818838E+00  0.30270201922E+01  0.20028845536E+02  0.00000000000E+00 0.  1.
</event>
<event>
 7    1  0.6953847E-012  0.5930195E+02  0.7816164E-02  0.1266605E+00
        -11   -1    0    0    0    0  0.00000000000E+00  0.00000000000E+00  0.45593999997E+02  0.45594000000E+02  0.51100000000E-03 0. -1.
         11   -1    0    0    0    0 -0.00000000000E+00 -0.00000000000E+00 -0.45593999997E+02  0.45594000000E+02  0.51100000000E-03 0.  1.
    9900012    2    1    2    0    0  0.14495907734E+02 -0.28400320366E+02 -0.10281739160E+00  0.59301951180E+02  0.50000013045E+02 0.  0.
        -12    1    1    2    0    0 -0.14495907734E+02  0.28400320366E+02  0.10281739160E+00  0.31886048820E+02  0.00000000000E+00 0.  1.
         11    1    3    3    0    0  0.15901491438E+02 -0.24583326487E+02 -0.14464678193E+02  0.32656152355E+02  0.51100000000E-03 0.  1.
        -11    1    3    3    0    0  0.76680974455E+01 -0.90134462646E+01  0.91727309037E+01  0.14972672590E+02  0.51100000000E-03 0. -1.
        -12    1    3    3    0    0 -0.90736811498E+01  0.51964523858E+01  0.51891298980E+01  0.11673126235E+02  0.00000000000E+00 0.  1.
</event>
<event>
 7    1  0.6953847E-012  0.5930195E+02  0.7816164E-02  0.1266605E+00
        -11   -1    0    0    0    0  0.00000000000E+00  0.00000000000E+00  0.45593999997E+02  0.45594000000E+02  0.51100000000E-03 0. -1.
         11   -1    0    0    0    0 -0.00000000000E+00 -0.00000000000E+00 -0.45593999997E+02  0.45594000000E+02  0.51100000000E-03 0.  1.
    9900012    2    1    2    0    0 -0.13936507146E+02  0.17630033576E+02  0.22620252518E+02  0.59301950711E+02  0.50000012189E+02 0.  0.
        -12    1    1    2    0    0  0.13936507146E+02 -0.17630033576E+02 -0.22620252518E+02  0.31886049289E+02  0.00000000000E+00 0.  1.
         11    1    3    3    0    0  0.32556384011E+01 -0.46630096699E+01 -0.73542366551E+01  0.92966465793E+01  0.51100000000E-03 0.  1.
        -11    1    3    3    0    0  0.64695651850E+01  0.11661610217E+02  0.14926473794E+02  0.20016194611E+02  0.51100000000E-03 0. -1.
        -12    1    3    3    0    0 -0.23661710732E+02  0.10631433029E+02  0.15048015379E+02  0.29989109521E+02  0.00000000000E+00 0.  1.
</event>
<event>
 7    1  0.6953847E-012  0.5930193E+02  0.7816164E-02  0.1266605E+00
        -11   -1    0    0    0    0  0.00000000000E+00  0.00000000000E+00  0.45593999997E+02  0.45594000000E+02  0.51100000000E-03 0.  1.
         11   -1    0    0    0    0 -0.00000000000E+00 -0.00000000000E+00 -0.45593999997E+02  0.45594000000E+02  0.51100000000E-03 0. -1.
    9900012    2    1    2    0    0 -0.75723387763E+01 -0.12593759995E+01 -0.30948263327E+02  0.59301931798E+02  0.49999977695E+02 0.  0.
        -12    1    1    2    0    0  0.75723387763E+01  0.12593759995E+01  0.30948263327E+02  0.31886068202E+02  0.00000000000E+00 0.  1.
         11    1    3    3    0    0  0.14944290192E+02 -0.48593167881E+01 -0.83201751222E+01  0.17781172158E+02  0.51100000000E-03 0. -1.
        -11    1    3    3    0    0 -0.10979637094E+02 -0.10000784098E+02 -0.32852652478E+01  0.15210558218E+02  0.51100000000E-03 0.  1.
         12    1    3    3    0    0 -0.11536991874E+02  0.13600724886E+02 -0.19342822957E+02  0.26310201422E+02  0.00000000000E+00 0. -1.
</event>
<event>
 7    1  0.6953847E-012  0.5930191E+02  0.7816164E-02  0.1266605E+00
        -11   -1    0    0    0    0  0.00000000000E+00  0.00000000000E+00  0.45593999997E+02  0.45594000000E+02  0.51100000000E-03 0.  1.
         11   -1    0    0    0    0 -0.00000000000E+00 -0.00000000000E+00 -0.45593999997E+02  0.45594000000E+02  0.51100000000E-03 0. -1.
    9900012    2    1    2    0    0  0.22592629237E+02 -0.13850603910E+02  0.17732920890E+02  0.59301912002E+02  0.49999941593E+02 0.  0.
        -12    1    1    2    0    0 -0.22592629237E+02  0.13850603910E+02 -0.17732920890E+02  0.31886087998E+02  0.00000000000E+00 0.  1.
         11    1    3    3    0    0  0.13398007463E+02 -0.96841754977E+01 -0.75795218891E+01  0.18186231368E+02  0.51100000000E-03 0. -1.
        -11    1    3    3    0    0  0.46785094807E+01  0.11469685287E+01 -0.67562073939E+01  0.82976096786E+01  0.51100000000E-03 0.  1.
        -12    1    3    3    0    0  0.45161122929E+01 -0.53133969414E+01  0.32068650173E+02  0.32818070955E+02  0.00000000000E+00 0.  1.
</event>
<event>
 7    1  0.6953847E-012  0.5930222E+02  0.7816164E-02  0.1266604E+00
        -11   -1    0    0    0    0  0.00000000000E+00  0.00000000000E+00  0.45593999997E+02  0.45594000000E+02  0.51100000000E-03 0.  1.
         11   -1    0    0    0    0 -0.00000000000E+00 -0.00000000000E+00 -0.45593999997E+02  0.45594000000E+02  0.51100000000E-03 0. -1.
    9900012    2    1    2    0    0  0.18319984396E+02  0.19177977696E+02 -0.17699900527E+02  0.59302217346E+02  0.50000498465E+02 0.  0.
        -12    1    1    2    0    0 -0.18319984396E+02 -0.19177977696E+02  0.17699900527E+02  0.31885782654E+02  0.00000000000E+00 0.  1.
         11    1    3    3    0    0  0.10264513925E+02  0.30918303509E+01 -0.30347147134E+02  0.32184918836E+02  0.51100000000E-03 0. -1.
        -11    1    3    3    0    0  0.30592907678E+01  0.16527406364E+02  0.42515880530E+01  0.17337543724E+02  0.51100000000E-03 0.  1.
        -12    1    3    3    0    0  0.49961797033E+01 -0.44125901949E+00  0.83956585536E+01  0.97797547873E+01  0.00000000000E+00 0.  1.
</event>
<event>
 7    1  0.6953847E-012  0.5930194E+02  0.7816164E-02  0.1266605E+00
        -11   -1    0    0    0    0  0.00000000000E+00  0.00000000000E+00  0.45593999997E+02  0.45594000000E+02  0.51100000000E-03 0.  1.
         11   -1    0    0    0    0 -0.00000000000E+00 -0.00000000000E+00 -0.45593999997E+02  0.45594000000E+02  0.51100000000E-03 0. -1.
    9900012    2    1    2    0    0 -0.88533574869E+01 -0.54284611385E+01 -0.30147479921E+02  0.59301942314E+02  0.49999996875E+02 0.  0.
        -12    1    1    2    0    0  0.88533574869E+01  0.54284611385E+01  0.30147479921E+02  0.31886057686E+02  0.00000000000E+00 0.  1.
         11    1    3    3    0    0 -0.19023392306E+02 -0.30391692396E+01  0.55831318817E+00  0.19272719538E+02  0.51100000000E-03 0. -1.
        -11    1    3    3    0    0 -0.28712270855E+01  0.39821854977E+01  0.11327351353E+01  0.50383365769E+01  0.51100000000E-03 0.  1.
         12    1    3    3    0    0  0.13041261905E+02 -0.63714773966E+01 -0.31838528245E+02  0.34990886200E+02  0.00000000000E+00 0. -1.
</event>
<event>
 7    1  0.6953847E-012  0.5930195E+02  0.7816164E-02  0.1266605E+00
        -11   -1    0    0    0    0  0.00000000000E+00  0.00000000000E+00  0.45593999997E+02  0.45594000000E+02  0.51100000000E-03 0. -1.
         11   -1    0    0    0    0 -0.00000000000E+00 -0.00000000000E+00 -0.45593999997E+02  0.45594000000E+02  0.51100000000E-03 0.  1.
    9900012    2    1    2    0    0 -0.83869415555E+01  0.21694081888E+01  0.30686688325E+02  0.59301953508E+02  0.50000017289E+02 0.  0.
        -12    1    1    2    0    0  0.83869415555E+01 -0.21694081888E+01 -0.30686688325E+02  0.31886046492E+02  0.00000000000E+00 0.  1.
         11    1    3    3    0    0 -0.21330796011E+02  0.11934430504E+02  0.26630728535E+02  0.36147326215E+02  0.51100000000E-03 0. -1.
        -11    1    3    3    0    0  0.61437123561E+01  0.25070872994E+01  0.60547039001E+01  0.89827683829E+01  0.51100000000E-03 0.  1.
        -12    1    3    3    0    0  0.68001420990E+01 -0.12272109614E+02 -0.19987441102E+01  0.14171858910E+02  0.00000000000E+00 0.  1.
</event>
<event>
 7    1  0.6953847E-012  0.5930194E+02  0.7816164E-02  0.1266605E+00
        -11   -1    0    0    0    0  0.00000000000E+00  0.00000000000E+00  0.45593999997E+02  0.45594000000E+02  0.51100000000E-03 0.  1.
         11   -1    0    0    0    0 -0.00000000000E+00 -0.00000000000E+00 -0.45593999997E+02  0.45594000000E+02  0.51100000000E-03 0. -1.
    9900012    2    1    2    0    0  0.15132283986E+02 -0.19687543695E+02 -0.20003379800E+02  0.59301943505E+02  0.49999999046E+02 0.  0.
        -12    1    1    2    0    0 -0.15132283986E+02  0.19687543695E+02  0.20003379800E+02  0.31886056495E+02  0.00000000000E+00 0.  1.
         11    1    3    3    0    0  0.14035740336E+02 -0.63009154053E+01 -0.18250873975E+02  0.23870440776E+02  0.51100000000E-03 0. -1.
        -11    1    3    3    0    0  0.13308291562E+02 -0.17952399056E+02 -0.86564986727E+00  0.22364002462E+02  0.51100000000E-03 0.  1.
        -12    1    3    3    0    0 -0.12211747912E+02  0.45657707661E+01 -0.88685595787E+00  0.13067500267E+02  0.00000000000E+00 0.  1.
</event>
<event>
 7    1  0.6953847E-012  0.5930195E+02  0.7816164E-02  0.1266605E+00
        -11   -1    0    0    0    0  0.00000000000E+00  0.00000000000E+00  0.45593999997E+02  0.45594000000E+02  0.51100000000E-03 0.  1.
         11   -1    0    0    0    0 -0.00000000000E+00 -0.00000000000E+00 -0.45593999997E+02  0.45594000000E+02  0.51100000000E-03 0. -1.
    9900012    2    1    2    0    0  0.31421526922E+02  0.48465037986E+00 -0.54011692514E+01  0.59301954943E+02  0.50000019907E+02 0.  0.
        -12    1    1    2    0    0 -0.31421526922E+02 -0.48465037986E+00  0.54011692514E+01  0.31886045057E+02  0.00000000000E+00 0.  1.
         11    1    3    3    0    0 -0.10966744253E+02 -0.49144633349E+01 -0.12595459815E+01  0.12083372282E+02  0.51100000000E-03 0. -1.
        -11    1    3    3    0    0 -0.77866914640E+00 -0.11533576745E+01  0.26873993573E+01  0.30263303078E+01  0.51100000000E-03 0.  1.
         12    1    3    3    0    0  0.43166940321E+02  0.65524713892E+01 -0.68290226272E+01  0.44192252353E+02  0.00000000000E+00 0. -1.
</event>
<event>
 7    1  0.6953847E-012  0.5930197E+02  0.7816164E-02  0.1266605E+00
        -11   -1    0    0    0    0  0.00000000000E+00  0.00000000000E+00  0.45593999997E+02  0.45594000000E+02  0.51100000000E-03 0. -1.
         11   -1    0    0    0    0 -0.00000000000E+00 -0.00000000000E+00 -0.45593999997E+02  0.45594000000E+02  0.51100000000E-03 0.  1.
    9900012    2    1    2    0    0 -0.17231504601E+02  0.72845014022E+01  0.25821119872E+02  0.59301969471E+02  0.50000046402E+02 0.  0.
        -12    1    1    2    0    0  0.17231504601E+02 -0.72845014022E+01 -0.25821119872E+02  0.31886030529E+02  0.00000000000E+00 0.  1.
         11    1    3    3    0    0 -0.12007883154E+02 -0.41932511457E+01 -0.26270581373E+01  0.12987457323E+02  0.51100000000E-03 0. -1.
        -11    1    3    3    0    0 -0.13861695682E+02 -0.21692747282E+01  0.50503856780E+00  0.14039495156E+02  0.51100000000E-03 0.  1.
         12    1    3    3    0    0  0.86380742348E+01  0.13647027276E+02  0.27943139441E+02  0.32275016991E+02  0.00000000000E+00 0. -1.
</event>
<event>
 7    1  0.6953847E-012  0.5930191E+02  0.7816164E-02  0.1266605E+00
        -11   -1    0    0    0    0  0.00000000000E+00  0.00000000000E+00  0.45593999997E+02  0.45594000000E+02  0.51100000000E-03 0. -1.
         11   -1    0    0    0    0 -0.00000000000E+00 -0.00000000000E+00 -0.45593999997E+02  0.45594000000E+02  0.51100000000E-03 0.  1.
    9900012    2    1    2    0    0 -0.61769698009E+01 -0.97302662775E+01  0.29730284163E+02  0.59301908453E+02  0.49999935120E+02 0.  0.
        -12    1    1    2    0    0  0.61769698009E+01  0.97302662775E+01 -0.29730284163E+02  0.31886091547E+02  0.00000000000E+00 0.  1.
         11    1    3    3    0    0 -0.45178640181E+01  0.10364406591E+02  0.14076504538E+02  0.18054916215E+02  0.51100000000E-03 0. -1.
        -11    1    3    3    0    0  0.10747791768E+01  0.89314345634E+01  0.32786175514E+01  0.95747066247E+01  0.51100000000E-03 0.  1.
        -12    1    3    3    0    0 -0.27338849596E+01 -0.29026107431E+02  0.12375162073E+02  0.31672285613E+02  0.00000000000E+00 0.  1.
</event>
<event>
 7    1  0.6953847E-012  0.5930202E+02  0.7816164E-02  0.1266604E+00
        -11   -1    0    0    0    0  0.00000000000E+00  0.00000000000E+00  0.45593999997E+02  0.45594000000E+02  0.51100000000E-03 0.  1.
         11   -1    0    0    0    0 -0.00000000000E+00 -0.00000000000E+00 -0.45593999997E+02  0.45594000000E+02  0.51100000000E-03 0. -1.
    9900012    2    1    2    0    0 -0.11039198877E+02  0.26740023534E+02 -0.13409797848E+02  0.59302024261E+02  0.50000146327E+02 0.  0.
        -12    1    1    2    0    0  0.11039198877E+02 -0.26740023534E+02  0.13409797848E+02  0.31885975739E+02  0.00000000000E+00 0.  1.
         11    1    3    3    0    0  0.42814299463E+01  0.23793039313E+02  0.14133963571E+01  0.24216462410E+02  0.51100000000E-03 0. -1.
        -11    1    3    3    0    0 -0.60211817315E+01 -0.13444336073E+01  0.79806919766E+01  0.10087297748E+02  0.51100000000E-03 0.  1.
        -12    1    3    3    0    0 -0.92994470920E+01  0.42914178287E+01 -0.22803886182E+02  0.24998264104E+02  0.00000000000E+00 0.  1.
</event>
<event>
 7    1  0.6953847E-012  0.5930196E+02  0.7816164E-02  0.1266605E+00
        -11   -1    0    0    0    0  0.00000000000E+00  0.00000000000E+00  0.45593999997E+02  0.45594000000E+02  0.51100000000E-03 0.  1.
         11   -1    0    0    0    0 -0.00000000000E+00 -0.00000000000E+00 -0.45593999997E+02  0.45594000000E+02  0.51100000000E-03 0. -1.
    9900012    2    1    2    0    0  0.79537702152E+00 -0.15110631650E+02 -0.28066984365E+02  0.59301961915E+02  0.50000032621E+02 0.  0.
        -12    1    1    2    0    0 -0.79537702152E+00  0.15110631650E+02  0.28066984365E+02  0.31886038085E+02  0.00000000000E+00 0.  1.
         11    1    3    3    0    0  0.20897579205E+01 -0.63268610505E+01 -0.25354030009E+02  0.26214940337E+02  0.51100000000E-03 0. -1.
        -11    1    3    3    0    0 -0.13929079846E+02 -0.57704707252E+01 -0.10097092064E+02  0.18145767169E+02  0.51100000000E-03 0.  1.
        -12    1    3    3    0    0  0.12634698947E+02 -0.30132998738E+01  0.73841377082E+01  0.14941254409E+02  0.00000000000E+00 0.  1.
</event>
<event>
 7    1  0.6953847E-012  0.5930195E+02  0.7816164E-02  0.1266605E+00
        -11   -1    0    0    0    0  0.00000000000E+00  0.00000000000E+00  0.45593999997E+02  0.45594000000E+02  0.51100000000E-03 0. -1.
         11   -1    0    0    0    0 -0.00000000000E+00 -0.00000000000E+00 -0.45593999997E+02  0.45594000000E+02  0.51100000000E-03 0.  1.
    9900012    2    1    2    0    0 -0.21266438368E+02 -0.31953527951E+01  0.23542487684E+02  0.59301946517E+02  0.50000004540E+02 0.  0.
        -12    1    1    2    0    0  0.21266438368E+02  0.31953527951E+01 -0.23542487684E+02  0.31886053483E+02  0.00000000000E+00 0.  1.
         11    1    3    3    0    0 -0.52340236357E+01  0.12560692892E+02  0.63416913882E+01  0.15012763212E+02  0.51100000000E-03 0. -1.
        -11    1    3    3    0    0  0.64992897005E+01 -0.49699074198E+00  0.15741465126E+02  0.17037649221E+02  0.51100000000E-03 0.  1.
         12    1    3    3    0    0 -0.22531704433E+02 -0.15259054945E+02  0.14593311706E+01  0.27251534084E+02  0.00000000000E+00 0. -1.
</event>
<event>
 7    1  0.7557788E-012  0.5930194E+02  0.7816164E-02  0.1266605E+00
        -11   -1    0    0    0    0  0.00000000000E+00  0.00000000000E+00  0.45593999997E+02  0.45594000000E+02  0.51100000000E-03 0. -1.
         11   -1    0    0    0    0 -0.00000000000E+00 -0.00000000000E+00 -0.45593999997E+02  0.45594000000E+02  0.51100000000E-03 0.  1.
    9900012    2    1    2    0    0 -0.40669365231E+01 -0.92837638008E+01  0.30232312156E+02  0.59301938135E+02  0.49999989253E+02 0.  0.
        -12    1    1    2    0    0  0.40669365231E+01  0.92837638008E+01 -0.30232312156E+02  0.31886061865E+02  0.00000000000E+00 0.  1.
         11    1    3    3    0    0  0.53377387505E+01 -0.43660812885E+01  0.19816261422E+02  0.20981857349E+02  0.51100000000E-03 0. -1.
        -11    1    3    3    0    0 -0.75183956770E+01  0.12262165090E+02  0.14644998110E+02  0.20527126836E+02  0.51100000000E-03 0.  1.
        -12    1    3    3    0    0 -0.18862795965E+01 -0.17179847602E+02 -0.42289473767E+01  0.17792953950E+02  0.00000000000E+00 0.  1.
</event>
<event>
 7    1  0.6953847E-012  0.5930192E+02  0.7816164E-02  0.1266605E+00
        -11   -1    0    0    0    0  0.00000000000E+00  0.00000000000E+00  0.45593999997E+02  0.45594000000E+02  0.51100000000E-03 0. -1.
         11   -1    0    0    0    0 -0.00000000000E+00 -0.00000000000E+00 -0.45593999997E+02  0.45594000000E+02  0.51100000000E-03 0.  1.
    9900012    2    1    2    0    0 -0.11142500028E+01 -0.30149069682E+02  0.10320556864E+02  0.59301923889E+02  0.49999963272E+02 0.  0.
        -12    1    1    2    0    0  0.11142500028E+01  0.30149069682E+02 -0.10320556864E+02  0.31886076111E+02  0.00000000000E+00 0.  1.
         11    1    3    3    0    0  0.83834352323E+01 -0.63452494021E+01  0.11274375262E+02  0.15416086211E+02  0.51100000000E-03 0. -1.
        -11    1    3    3    0    0  0.13170026314E+02 -0.13870067068E+02 -0.42066942039E+00  0.19131265421E+02  0.51100000000E-03 0.  1.
        -12    1    3    3    0    0 -0.22667711549E+02 -0.99337532119E+01 -0.53314897737E+00  0.24754572256E+02  0.00000000000E+00 0.  1.
</event>
<event>
 7    1  0.6953847E-012  0.5930197E+02  0.7816164E-02  0.1266605E+00
        -11   -1    0    0    0    0  0.00000000000E+00  0.00000000000E+00  0.45593999997E+02  0.45594000000E+02  0.51100000000E-03 0.  1.
         11   -1    0    0    0    0 -0.00000000000E+00 -0.00000000000E+00 -0.45593999997E+02  0.45594000000E+02  0.51100000000E-03 0. -1.
    9900012    2    1    2    0    0  0.19645422321E+01 -0.28157765142E+02 -0.14832379849E+02  0.59301973971E+02  0.50000054609E+02 0.  0.
        -12    1    1    2    0    0 -0.19645422321E+01  0.28157765142E+02  0.14832379849E+02  0.31886026029E+02  0.00000000000E+00 0.  1.
         11    1    3    3    0    0  0.13780502339E+01 -0.23931127035E+01 -0.22214169074E+01  0.35441083782E+01  0.51100000000E-03 0. -1.
        -11    1    3    3    0    0 -0.53840759285E+01 -0.24578631759E+02 -0.28929615639E+02  0.38340840810E+02  0.51100000000E-03 0.  1.
        -12    1    3    3    0    0  0.59705679267E+01 -0.11860206790E+01  0.16318652697E+02  0.17417024782E+02  0.00000000000E+00 0.  1.
</event>
<event>
 7    1  0.6953847E-012  0.5930195E+02  0.7816164E-02  0.1266605E+00
        -11   -1    0    0    0    0  0.00000000000E+00  0.00000000000E+00  0.45593999997E+02  0.45594000000E+02  0.51100000000E-03 0.  1.
         11   -1    0    0    0    0 -0.00000000000E+00 -0.00000000000E+00 -0.45593999997E+02  0.45594000000E+02  0.51100000000E-03 0. -1.
    9900012    2    1    2    0    0  0.12113441546E+02 -0.42900791040E+00 -0.29492384784E+02  0.59301948596E+02  0.50000008332E+02 0.  0.
        -12    1    1    2    0    0 -0.12113441546E+02  0.42900791040E+00  0.29492384784E+02  0.31886051404E+02  0.00000000000E+00 0.  1.
         11    1    3    3    0    0  0.99554290145E+01 -0.11563530984E+02 -0.17402695040E+02  0.23144753414E+02  0.51100000000E-03 0.  1.
        -11    1    3    3    0    0  0.16651972027E+02  0.33272376195E+01 -0.26696317522E+01  0.17189695068E+02  0.51100000000E-03 0. -1.
         12    1    3    3    0    0 -0.14493959496E+02  0.78072854541E+01 -0.94200579919E+01  0.18967500115E+02  0.00000000000E+00 0. -1.
</event>
<event>
 7    1  0.6953847E-012  0.5930193E+02  0.7816164E-02  0.1266605E+00
        -11   -1    0    0    0    0  0.00000000000E+00  0.00000000000E+00  0.45593999997E+02  0.45594000000E+02  0.51100000000E-03 0. -1.
         11   -1    0    0    0    0 -0.00000000000E+00 -0.00000000000E+00 -0.45593999997E+02  0.45594000000E+02  0.51100000000E-03 0.  1.
    9900012    2    1    2    0    0  0.26398735146E+02 -0.73265993619E+01  0.16314078577E+02  0.59301930387E+02  0.49999975123E+02 0.  0.
        -12    1    1    2    0    0 -0.26398735146E+02  0.73265993619E+01 -0.16314078577E+02  0.31886069613E+02  0.00000000000E+00 0.  1.
         11    1    3    3    0    0  0.11380297874E+02  0.32496008630E+01  0.24162170350E+01  0.12079287665E+02  0.51100000000E-03 0. -1.
        -11    1    3    3    0    0 -0.54066674089E+01  0.24824540412E+01 -0.10978741047E+02  0.12487088763E+02  0.51100000000E-03 0.  1.
         12    1    3    3    0    0  0.20425104682E+02 -0.13058654266E+02  0.24876602589E+02  0.34735553960E+02  0.00000000000E+00 0. -1.
</event>
<event>
 7    1  0.6953847E-012  0.5930195E+02  0.7816164E-02  0.1266605E+00
        -11   -1    0    0    0    0  0.00000000000E+00  0.00000000000E+00  0.45593999997E+02  0.45594000000E+02  0.51100000000E-03 0. -1.
         11   -1    0    0    0    0 -0.00000000000E+00 -0.00000000000E+00 -0.45593999997E+02  0.45594000000E+02  0.51100000000E-03 0.  1.
    9900012    2    1    2    0    0  0.84477713194E+01  0.75921632471E+01  0.29794536907E+02  0.59301949562E+02  0.50000010093E+02 0.  0.
        -12    1    1    2    0    0 -0.84477713194E+01 -0.75921632471E+01 -0.29794536907E+02  0.31886050438E+02  0.00000000000E+00 0.  1.
         11    1    3    3    0    0  0.55596693788E+00  0.91393502928E+01  0.62154365618E+00  0.91773165898E+01  0.51100000000E-03 0. -1.
        -11    1    3    3    0    0  0.62687793232E+01 -0.99303088898E+01 -0.65148360956E+01  0.13429509241E+02  0.51100000000E-03 0.  1.
         12    1    3    3    0    0  0.16230250583E+01  0.83831218441E+01  0.35687829346E+02  0.36695123731E+02  0.00000000000E+00 0. -1.
</event>
<event>
 7    1  0.6953847E-012  0.5930194E+02  0.7816164E-02  0.1266605E+00
        -11   -1    0    0    0    0  0.00000000000E+00  0.00000000000E+00  0.45593999997E+02  0.45594000000E+02  0.51100000000E-03 0.  1.
         11   -1    0    0    0    0 -0.00000000000E+00 -0.00000000000E+00 -0.45593999997E+02  0.45594000000E+02  0.51100000000E-03 0. -1.
    9900012    2    1    2    0    0  0.73562038023E+01  0.28771305032E+02 -0.11611157837E+02  0.59301941699E+02  0.49999995754E+02 0.  0.
        -12    1    1    2    0    0 -0.73562038023E+01 -0.28771305032E+02  0.11611157837E+02  0.31886058301E+02  0.00000000000E+00 0.  1.
         11    1    3    3    0    0 -0.48510516541E+00  0.13344262064E+01 -0.43497965983E+01  0.45756694625E+01  0.51100000000E-03 0. -1.
        -11    1    3    3    0    0 -0.58511106669E+01  0.24287921149E+02 -0.22768083409E+02  0.33801246015E+02  0.51100000000E-03 0.  1.
         12    1    3    3    0    0  0.13692419635E+02  0.31489576769E+01  0.15506722171E+02  0.20925026222E+02  0.00000000000E+00 0. -1.
</event>
<event>
 7    1  0.6953847E-012  0.5930194E+02  0.7816164E-02  0.1266605E+00
        -11   -1    0    0    0    0  0.00000000000E+00  0.00000000000E+00  0.45593999997E+02  0.45594000000E+02  0.51100000000E-03 0.  1.
         11   -1    0    0    0    0 -0.00000000000E+00 -0.00000000000E+00 -0.45593999997E+02  0.45594000000E+02  0.51100000000E-03 0. -1.
    9900012    2    1    2    0    0  0.88676971236E+01  0.21627836097E+02 -0.21686889334E+02  0.59301944811E+02  0.50000001429E+02 0.  0.
        -12    1    1    2    0    0 -0.88676971236E+01 -0.21627836097E+02  0.21686889334E+02  0.31886055189E+02  0.00000000000E+00 0.  1.
         11    1    3    3    0    0 -0.92667452672E+01  0.22917355362E+01  0.78391607107E+01  0.12352208731E+02  0.51100000000E-03 0.  1.
        -11    1    3    3    0    0 -0.36842785399E+01 -0.19039438629E+01  0.51038257912E+00  0.41784448340E+01  0.51100000000E-03 0. -1.
         12    1    3    3    0    0  0.21818720931E+02  0.21240044423E+02 -0.30036432624E+02  0.42771291247E+02  0.00000000000E+00 0. -1.
</event>
<event>
 7    1  0.6953847E-012  0.5930198E+02  0.7816164E-02  0.1266605E+00
        -11   -1    0    0    0    0  0.00000000000E+00  0.00000000000E+00  0.45593999997E+02  0.45594000000E+02  0.51100000000E-03 0.  1.
         11   -1    0    0    0    0 -0.00000000000E+00 -0.00000000000E+00 -0.45593999997E+02  0.45594000000E+02  0.51100000000E-03 0. -1.
    9900012    2    1    2    0    0 -0.28582567372E+00  0.52726485482E+01 -0.31445763953E+02  0.59301975011E+02  0.50000056506E+02 0.  0.
        -12    1    1    2    0    0  0.28582567372E+00 -0.52726485482E+01  0.31445763953E+02  0.31886024989E+02  0.00000000000E+00 0.  1.
         11    1    3    3    0    0 -0.65917182645E+01 -0.47168438217E+01 -0.16898318840E+01  0.82797884860E+01  0.51100000000E-03 0. -1.
        -11    1    3    3    0    0 -0.53782558511E+01  0.13925348911E+02  0.36891331234E+01  0.15376952941E+02  0.51100000000E-03 0.  1.
         12    1    3    3    0    0  0.11684148442E+02 -0.39358565413E+01 -0.33445065192E+02  0.35645233584E+02  0.00000000000E+00 0. -1.
</event>
<event>
 7    1  0.6953847E-012  0.5930196E+02  0.7816164E-02  0.1266605E+00
        -11   -1    0    0    0    0  0.00000000000E+00  0.00000000000E+00  0.45593999997E+02  0.45594000000E+02  0.51100000000E-03 0.  1.
         11   -1    0    0    0    0 -0.00000000000E+00 -0.00000000000E+00 -0.45593999997E+02  0.45594000000E+02  0.51100000000E-03 0. -1.
    9900012    2    1    2    0    0 -0.19164133935E+02  0.12673758341E+02 -0.22109535663E+02  0.59301956859E+02  0.50000023401E+02 0.  0.
        -12    1    1    2    0    0  0.19164133935E+02 -0.12673758341E+02  0.22109535663E+02  0.31886043141E+02  0.00000000000E+00 0.  1.
         11    1    3    3    0    0 -0.60850827767E+01 -0.96875613438E+00 -0.13612851413E+02  0.14942437709E+02  0.51100000000E-03 0. -1.
        -11    1    3    3    0    0 -0.25699289768E+02  0.15005440758E+02 -0.10399525894E+02  0.31524068361E+02  0.51100000000E-03 0.  1.
        -12    1    3    3    0    0  0.12620238610E+02 -0.13629262822E+01  0.19028416440E+01  0.12835450789E+02  0.00000000000E+00 0.  1.
</event>
<event>
 7    1  0.6953847E-012  0.5930204E+02  0.7816164E-02  0.1266604E+00
        -11   -1    0    0    0    0  0.00000000000E+00  0.00000000000E+00  0.45593999997E+02  0.45594000000E+02  0.51100000000E-03 0.  1.
         11   -1    0    0    0    0 -0.00000000000E+00 -0.00000000000E+00 -0.45593999997E+02  0.45594000000E+02  0.51100000000E-03 0. -1.
    9900012    2    1    2    0    0 -0.26503184782E+02  0.13028742454E+01 -0.17680452641E+02  0.59302036153E+02  0.50000168014E+02 0.  0.
        -12    1    1    2    0    0  0.26503184782E+02 -0.13028742454E+01  0.17680452641E+02  0.31885963847E+02  0.00000000000E+00 0.  1.
         11    1    3    3    0    0  0.16649873524E+01 -0.48742106881E+01 -0.15735726584E+02  0.16557270430E+02  0.51100000000E-03 0. -1.
        -11    1    3    3    0    0 -0.12998693750E+02 -0.12908691980E+02 -0.99272869247E+00  0.18346276961E+02  0.51100000000E-03 0.  1.
        -12    1    3    3    0    0 -0.15169478384E+02  0.19085776913E+02 -0.95199736477E+00  0.24398488761E+02  0.00000000000E+00 0.  1.
</event>
<event>
 7    1  0.6953847E-012  0.5930218E+02  0.7816164E-02  0.1266604E+00
        -11   -1    0    0    0    0  0.00000000000E+00  0.00000000000E+00  0.45593999997E+02  0.45594000000E+02  0.51100000000E-03 0. -1.
         11   -1    0    0    0    0 -0.00000000000E+00 -0.00000000000E+00 -0.45593999997E+02  0.45594000000E+02  0.51100000000E-03 0.  1.
    9900012    2    1    2    0    0  0.25890643102E+02  0.18265738200E+02 -0.35697513789E+01  0.59302176862E+02  0.50000424633E+02 0.  0.
        -12    1    1    2    0    0 -0.25890643102E+02 -0.18265738200E+02  0.35697513789E+01  0.31885823138E+02  0.00000000000E+00 0.  1.
         11    1    3    3    0    0 -0.18843415350E+01  0.19540822270E+01 -0.29167518088E+01  0.39845478721E+01  0.51100000000E-03 0. -1.
        -11    1    3    3    0    0  0.17958226378E+02  0.31946312376E+02 -0.26794436635E+01  0.36745668965E+02  0.51100000000E-03 0.  1.
        -12    1    3    3    0    0  0.98167582591E+01 -0.15634656402E+02  0.20264440933E+01  0.18571960026E+02  0.00000000000E+00 0.  1.
</event>
<event>
 7    1  0.6953847E-012  0.5930193E+02  0.7816164E-02  0.1266605E+00
        -11   -1    0    0    0    0  0.00000000000E+00  0.00000000000E+00  0.45593999997E+02  0.45594000000E+02  0.51100000000E-03 0. -1.
         11   -1    0    0    0    0 -0.00000000000E+00 -0.00000000000E+00 -0.45593999997E+02  0.45594000000E+02  0.51100000000E-03 0.  1.
    9900012    2    1    2    0    0 -0.17231217973E+02 -0.26338249818E+02 -0.51091518715E+01  0.59301926094E+02  0.49999967294E+02 0.  0.
        -12    1    1    2    0    0  0.17231217973E+02  0.26338249818E+02  0.51091518715E+01  0.31886073906E+02  0.00000000000E+00 0.  1.
         11    1    3    3    0    0 -0.14410909839E+02 -0.14913621109E+02  0.10971998205E+02  0.23462207097E+02  0.51100000000E-03 0. -1.
        -11    1    3    3    0    0 -0.11046376027E+02 -0.14039729943E+02 -0.19598693893E+02  0.26518771517E+02  0.51100000000E-03 0.  1.
         12    1    3    3    0    0  0.82260678930E+01  0.26151012341E+01  0.35175438159E+01  0.93209474809E+01  0.00000000000E+00 0. -1.
</event>
<event>
 7    1  0.6953847E-012  0.5930197E+02  0.7816164E-02  0.1266605E+00
        -11   -1    0    0    0    0  0.00000000000E+00  0.00000000000E+00  0.45593999997E+02  0.45594000000E+02  0.51100000000E-03 0. -1.
         11   -1    0    0    0    0 -0.00000000000E+00 -0.00000000000E+00 -0.45593999997E+02  0.45594000000E+02  0.51100000000E-03 0.  1.
    9900012    2    1    2    0    0 -0.26574126518E+02  0.11949086125E+02  0.12951978640E+02  0.59301974690E+02  0.50000055920E+02 0.  0.
        -12    1    1    2    0    0  0.26574126518E+02 -0.11949086125E+02 -0.12951978640E+02  0.31886025310E+02  0.00000000000E+00 0.  1.
         11    1    3    3    0    0  0.57616468839E+01  0.10008971649E+02  0.80091648607E+01  0.14054280854E+02  0.51100000000E-03 0. -1.
        -11    1    3    3    0    0 -0.61461494297E+01 -0.11158313500E+02  0.91222989605E+01  0.15668422114E+02  0.51100000000E-03 0.  1.
         12    1    3    3    0    0 -0.26189623972E+02  0.13098427976E+02 -0.41794851810E+01  0.29579271722E+02  0.00000000000E+00 0. -1.
</event>
<event>
 7    1  0.6953847E-012  0.5930191E+02  0.7816164E-02  0.1266605E+00
        -11   -1    0    0    0    0  0.00000000000E+00  0.00000000000E+00  0.45593999997E+02  0.45594000000E+02  0.51100000000E-03 0.  1.
         11   -1    0    0    0    0 -0.00000000000E+00 -0.00000000000E+00 -0.45593999997E+02  0.45594000000E+02  0.51100000000E-03 0. -1.
    9900012    2    1    2    0    0  0.20347618945E+02 -0.24517038156E+02  0.12695608189E+01  0.59301913044E+02  0.49999943493E+02 0.  0.
        -12    1    1    2    0    0 -0.20347618945E+02  0.24517038156E+02 -0.12695608189E+01  0.31886086956E+02  0.00000000000E+00 0.  1.
         11    1    3    3    0    0  0.23218203281E+02 -0.21324818006E+02 -0.28172524274E+01  0.31650746248E+02  0.51100000000E-03 0. -1.
        -11    1    3    3    0    0  0.41937996156E+01 -0.75356813727E+01 -0.88034329389E+01  0.12323752705E+02  0.51100000000E-03 0.  1.
        -12    1    3    3    0    0 -0.70643839515E+01  0.43434612221E+01  0.12890246185E+02  0.15327414091E+02  0.00000000000E+00 0.  1.
</event>
<event>
 7    1  0.6953847E-012  0.5930194E+02  0.7816164E-02  0.1266605E+00
        -11   -1    0    0    0    0  0.00000000000E+00  0.00000000000E+00  0.45593999997E+02  0.45594000000E+02  0.51100000000E-03 0. -1.
         11   -1    0    0    0    0 -0.00000000000E+00 -0.00000000000E+00 -0.45593999997E+02  0.45594000000E+02  0.51100000000E-03 0.  1.
    9900012    2    1    2    0    0  0.15033858893E+02  0.21351548360E+02  0.18297963319E+02  0.59301937336E+02  0.49999987796E+02 0.  0.
        -12    1    1    2    0    0 -0.15033858893E+02 -0.21351548360E+02 -0.18297963319E+02  0.31886062664E+02  0.00000000000E+00 0.  1.
         11    1    3    3    0    0  0.14384353606E+02  0.93012198041E+01  0.16518604135E+02  0.23796777121E+02  0.51100000000E-03 0. -1.
        -11    1    3    3    0    0  0.25932691551E+01 -0.10483069987E+02  0.62113125303E+01  0.12457937424E+02  0.51100000000E-03 0.  1.
         12    1    3    3    0    0 -0.19437638683E+01  0.22533398543E+02 -0.44319533470E+01  0.23047222790E+02  0.00000000000E+00 0. -1.
</event>
<event>
 7    1  0.6953847E-012  0.5930195E+02  0.7816164E-02  0.1266605E+00
        -11   -1    0    0    0    0  0.00000000000E+00  0.00000000000E+00  0.45593999997E+02  0.45594000000E+02  0.51100000000E-03 0. -1.
         11   -1    0    0    0    0 -0.00000000000E+00 -0.00000000000E+00 -0.45593999997E+02  0.45594000000E+02  0.51100000000E-03 0.  1.
    9900012    2    1    2    0    0 -0.25061123192E+02  0.19106573075E+02 -0.48578855131E+01  0.59301951609E+02  0.50000013827E+02 0.  0.
        -12    1    1    2    0    0  0.25061123192E+02 -0.19106573075E+02  0.48578855131E+01  0.31886048391E+02  0.00000000000E+00 0.  1.
         11    1    3    3    0    0  0.52914779906E+01  0.11683422052E+02 -0.46815575467E+01  0.13653536959E+02  0.51100000000E-03 0. -1.
        -11    1    3    3    0    0 -0.23270892321E+02  0.61906110132E+01 -0.15558735418E+02  0.28669362430E+02  0.51100000000E-03 0.  1.
        -12    1    3    3    0    0 -0.70817088622E+01  0.12325400096E+01  0.15382407451E+02  0.16979052220E+02  0.00000000000E+00 0.  1.
</event>
<event>
 7    1  0.6953847E-012  0.5930169E+02  0.7816164E-02  0.1266606E+00
        -11   -1    0    0    0    0  0.00000000000E+00  0.00000000000E+00  0.45593999997E+02  0.45594000000E+02  0.51100000000E-03 0.  1.
         11   -1    0    0    0    0 -0.00000000000E+00 -0.00000000000E+00 -0.45593999997E+02  0.45594000000E+02  0.51100000000E-03 0. -1.
    9900012    2    1    2    0    0  0.11326898666E+02  0.27987495817E+02 -0.10253700775E+02  0.59301687340E+02  0.49999531860E+02 0.  0.
        -12    1    1    2    0    0 -0.11326898666E+02 -0.27987495817E+02  0.10253700775E+02  0.31886312660E+02  0.00000000000E+00 0.  1.
         11    1    3    3    0    0  0.10866160697E+02  0.19672300438E+02  0.18310855219E+01  0.22548297658E+02  0.51100000000E-03 0. -1.
        -11    1    3    3    0    0  0.16222356664E+02  0.80344384875E+01 -0.24240057446E+01  0.18264524676E+02  0.51100000000E-03 0.  1.
         12    1    3    3    0    0 -0.15761618695E+02  0.28075689098E+00 -0.96607805522E+01  0.18488865005E+02  0.00000000000E+00 0. -1.
</event>
<event>
 7    1  0.6953847E-012  0.5930214E+02  0.7816164E-02  0.1266604E+00
        -11   -1    0    0    0    0  0.00000000000E+00  0.00000000000E+00  0.45593999997E+02  0.45594000000E+02  0.51100000000E-03 0. -1.
         11   -1    0    0    0    0 -0.00000000000E+00 -0.00000000000E+00 -0.45593999997E+02  0.45594000000E+02  0.51100000000E-03 0.  1.
    9900012    2    1    2    0    0 -0.14873050614E+02  0.48433086031E+01  0.27785663300E+02  0.59302135455E+02  0.50000349116E+02 0.  0.
        -12    1    1    2    0    0  0.14873050614E+02 -0.48433086031E+01 -0.27785663300E+02  0.31885864545E+02  0.00000000000E+00 0.  1.
         11    1    3    3    0    0  0.65891625578E+01  0.11565063015E+02  0.20280053157E+02  0.24257953378E+02  0.51100000000E-03 0. -1.
        -11    1    3    3    0    0  0.57875719390E+01 -0.15090918933E+01 -0.91478896003E+00  0.60506352058E+01  0.51100000000E-03 0.  1.
         12    1    3    3    0    0 -0.27249785111E+02 -0.52126625190E+01  0.84203991030E+01  0.28993546871E+02  0.00000000000E+00 0. -1.
</event>
<event>
 7    1  0.6953847E-012  0.5930195E+02  0.7816164E-02  0.1266605E+00
        -11   -1    0    0    0    0  0.00000000000E+00  0.00000000000E+00  0.45593999997E+02  0.45594000000E+02  0.51100000000E-03 0.  1.
         11   -1    0    0    0    0 -0.00000000000E+00 -0.00000000000E+00 -0.45593999997E+02  0.45594000000E+02  0.51100000000E-03 0. -1.
    9900012    2    1    2    0    0  0.13307596845E+02 -0.96512210326E+01 -0.27321826372E+02  0.59301946662E+02  0.50000004804E+02 0.  0.
        -12    1    1    2    0    0 -0.13307596845E+02  0.96512210326E+01  0.27321826372E+02  0.31886053338E+02  0.00000000000E+00 0.  1.
         11    1    3    3    0    0 -0.23299122674E+01  0.14056216737E+02 -0.16583807139E+02  0.21863860126E+02  0.51100000000E-03 0.  1.
        -11    1    3    3    0    0 -0.35345120669E-01  0.26449756284E+01 -0.58098632432E+01  0.63837024146E+01  0.51100000000E-03 0. -1.
        -12    1    3    3    0    0  0.15672854233E+02 -0.26352413398E+02 -0.49281559890E+01  0.31054384121E+02  0.00000000000E+00 0.  1.
</event>
<event>
 7    1  0.6953847E-012  0.5930183E+02  0.7816164E-02  0.1266605E+00
        -11   -1    0    0    0    0  0.00000000000E+00  0.00000000000E+00  0.45593999997E+02  0.45594000000E+02  0.51100000000E-03 0.  1.
         11   -1    0    0    0    0 -0.00000000000E+00 -0.00000000000E+00 -0.45593999997E+02  0.45594000000E+02  0.51100000000E-03 0. -1.
    9900012    2    1    2    0    0 -0.15746265195E+02 -0.26057369465E+02 -0.94760959070E+01  0.59301831139E+02  0.49999794117E+02 0.  0.
        -12    1    1    2    0    0  0.15746265195E+02  0.26057369465E+02  0.94760959070E+01  0.31886168861E+02  0.00000000000E+00 0.  1.
         11    1    3    3    0    0 -0.21825896138E+02 -0.30824896635E+02  0.46884111862E+01  0.38059495457E+02  0.51100000000E-03 0. -1.
        -11    1    3    3    0    0 -0.14030858910E+00 -0.42125565836E+01 -0.13992002715E+01  0.44410675666E+01  0.51100000000E-03 0.  1.
        -12    1    3    3    0    0  0.62199395325E+01  0.89800837532E+01 -0.12765306822E+02  0.16801268114E+02  0.00000000000E+00 0.  1.
</event>
<event>
 7    1  0.6953847E-012  0.5930192E+02  0.7816164E-02  0.1266605E+00
        -11   -1    0    0    0    0  0.00000000000E+00  0.00000000000E+00  0.45593999997E+02  0.45594000000E+02  0.51100000000E-03 0. -1.
         11   -1    0    0    0    0 -0.00000000000E+00 -0.00000000000E+00 -0.45593999997E+02  0.45594000000E+02  0.51100000000E-03 0.  1.
    9900012    2    1    2    0    0  0.89051947559E+01  0.30599476686E+02  0.10447349384E+01  0.59301922502E+02  0.49999960742E+02 0.  0.
        -12    1    1    2    0    0 -0.89051947559E+01 -0.30599476686E+02 -0.10447349384E+01  0.31886077498E+02  0.00000000000E+00 0.  1.
         11    1    3    3    0    0  0.15442067665E+02  0.24796248852E+02  0.32360232216E+01  0.29390189817E+02  0.51100000000E-03 0. -1.
        -11    1    3    3    0    0  0.85182973748E+01  0.59631798193E+01 -0.86530925036E+01  0.13527635191E+02  0.51100000000E-03 0.  1.
        -12    1    3    3    0    0 -0.15055170284E+02 -0.15995198516E+00  0.64618042204E+01  0.16384097494E+02  0.00000000000E+00 0.  1.
</event>
<event>
 7    1  0.6953847E-012  0.5930198E+02  0.7816164E-02  0.1266605E+00
        -11   -1    0    0    0    0  0.00000000000E+00  0.00000000000E+00  0.45593999997E+02  0.45594000000E+02  0.51100000000E-03 0.  1.
         11   -1    0    0    0    0 -0.00000000000E+00 -0.00000000000E+00 -0.45593999997E+02  0.45594000000E+02  0.51100000000E-03 0. -1.
    9900012    2    1    2    0    0 -0.30728081117E+02  0.31626233645E+01 -0.79057456990E+01  0.59301984715E+02  0.50000074204E+02 0.  0.
        -12    1    1    2    0    0  0.30728081117E+02 -0.31626233645E+01  0.79057456990E+01  0.31886015285E+02  0.00000000000E+00 0.  1.
         11    1    3    3    0    0 -0.21342574953E+02  0.46175073273E+01 -0.18842884506E+02  0.28842350395E+02  0.51100000000E-03 0. -1.
        -11    1    3    3    0    0 -0.27168290778E+01  0.72205908173E+01  0.16477862130E+02  0.18194450600E+02  0.51100000000E-03 0.  1.
         12    1    3    3    0    0 -0.66686770868E+01 -0.86754747802E+01 -0.55407233226E+01  0.12265183720E+02  0.00000000000E+00 0. -1.
</event>
<event>
 7    1  0.6953847E-012  0.5930194E+02  0.7816164E-02  0.1266605E+00
        -11   -1    0    0    0    0  0.00000000000E+00  0.00000000000E+00  0.45593999997E+02  0.45594000000E+02  0.51100000000E-03 0. -1.
         11   -1    0    0    0    0 -0.00000000000E+00 -0.00000000000E+00 -0.45593999997E+02  0.45594000000E+02  0.51100000000E-03 0.  1.
    9900012    2    1    2    0    0  0.21042000182E+01 -0.27512886528E+02 -0.15979176795E+02  0.59301942328E+02  0.49999996901E+02 0.  0.
        -12    1    1    2    0    0 -0.21042000182E+01  0.27512886528E+02  0.15979176795E+02  0.31886057672E+02  0.00000000000E+00 0.  1.
         11    1    3    3    0    0 -0.32649437100E+01  0.23144352609E+01  0.49416479711E+01  0.63589584790E+01  0.51100000000E-03 0. -1.
        -11    1    3    3    0    0 -0.22119431816E+01  0.80060848412E+01  0.13143449078E+01  0.84093751207E+01  0.51100000000E-03 0.  1.
        -12    1    3    3    0    0  0.75810869098E+01 -0.37833406630E+02 -0.22235169674E+02  0.44533608728E+02  0.00000000000E+00 0.  1.
</event>
<event>
 7    1  0.6953847E-012  0.5930193E+02  0.7816164E-02  0.1266605E+00
        -11   -1    0    0    0    0  0.00000000000E+00  0.00000000000E+00  0.45593999997E+02  0.45594000000E+02  0.51100000000E-03 0.  1.
         11   -1    0    0    0    0 -0.00000000000E+00 -0.00000000000E+00 -0.45593999997E+02  0.45594000000E+02  0.51100000000E-03 0. -1.
    9900012    2    1    2    0    0 -0.75954904876E+01  0.14039052564E+02 -0.27603168992E+02  0.59301930769E+02  0.49999975819E+02 0.  0.
        -12    1    1    2    0    0  0.75954904876E+01 -0.14039052564E+02  0.27603168992E+02  0.31886069231E+02  0.00000000000E+00 0.  1.
         11    1    3    3    0    0 -0.59227938264E+01  0.76813368036E+01 -0.27806605708E+02  0.29449783413E+02  0.51100000000E-03 0. -1.
        -11    1    3    3    0    0  0.96208016166E+01 -0.84750180483E+00 -0.93153986083E+01  0.13418447546E+02  0.51100000000E-03 0.  1.
         12    1    3    3    0    0 -0.11293498278E+02  0.72052175651E+01  0.95188353245E+01  0.16433699810E+02  0.00000000000E+00 0. -1.
</event>
<event>
 7    1  0.6953847E-012  0.5930194E+02  0.7816164E-02  0.1266605E+00
        -11   -1    0    0    0    0  0.00000000000E+00  0.00000000000E+00  0.45593999997E+02  0.45594000000E+02  0.51100000000E-03 0. -1.
         11   -1    0    0    0    0 -0.00000000000E+00 -0.00000000000E+00 -0.45593999997E+02  0.45594000000E+02  0.51100000000E-03 0.  1.
    9900012    2    1    2    0    0 -0.26560521510E+02  0.63816889026E+01  0.16447905429E+02  0.59301939580E+02  0.49999991888E+02 0.  0.
        -12    1    1    2    0    0  0.26560521510E+02 -0.63816889026E+01 -0.16447905429E+02  0.31886060420E+02  0.00000000000E+00 0.  1.
         11    1    3    3    0    0 -0.10120446952E+02 -0.90352455261E+00 -0.69195652957E+01  0.12293095106E+02  0.51100000000E-03 0. -1.
        -11    1    3    3    0    0  0.38762615162E+01  0.17363775944E+02  0.73794040540E+01  0.19260885826E+02  0.51100000000E-03 0.  1.
         12    1    3    3    0    0 -0.20316336073E+02 -0.10078562488E+02  0.15988066671E+02  0.27747958648E+02  0.00000000000E+00 0. -1.
</event>
<event>
 7    1  0.6953847E-012  0.5930190E+02  0.7816164E-02  0.1266605E+00
        -11   -1    0    0    0    0  0.00000000000E+00  0.00000000000E+00  0.45593999997E+02  0.45594000000E+02  0.51100000000E-03 0. -1.
         11   -1    0    0    0    0 -0.00000000000E+00 -0.00000000000E+00 -0.45593999997E+02  0.45594000000E+02  0.51100000000E-03 0.  1.
    9900012    2    1    2    0    0  0.59107629662E+01  0.29939917389E+02  0.92405532723E+01  0.59301896493E+02  0.49999913308E+02 0.  0.
        -12    1    1    2    0    0 -0.59107629662E+01 -0.29939917389E+02 -0.92405532723E+01  0.31886103507E+02  0.00000000000E+00 0.  1.
         11    1    3    3    0    0  0.21371122146E+02  0.21539626034E+02  0.17488970720E+02  0.35022056601E+02  0.51100000000E-03 0. -1.
        -11    1    3    3    0    0  0.23609916718E+01 -0.89437795171E+00 -0.20322234739E+01  0.32410069583E+01  0.51100000000E-03 0.  1.
        -12    1    3    3    0    0 -0.17821350852E+02  0.92946693059E+01 -0.62161939733E+01  0.21038832934E+02  0.00000000000E+00 0.  1.
</event>
<event>
 7    1  0.6953847E-012  0.5930195E+02  0.7816164E-02  0.1266605E+00
        -11   -1    0    0    0    0  0.00000000000E+00  0.00000000000E+00  0.45593999997E+02  0.45594000000E+02  0.51100000000E-03 0.  1.
         11   -1    0    0    0    0 -0.00000000000E+00 -0.00000000000E+00 -0.45593999997E+02  0.45594000000E+02  0.51100000000E-03 0. -1.
    9900012    2    1    2    0    0 -0.73447015820E+01 -0.30933111230E+02  0.24327236298E+01  0.59301950449E+02  0.50000011712E+02 0.  0.
        -12    1    1    2    0    0  0.73447015820E+01  0.30933111230E+02 -0.24327236298E+01  0.31886049551E+02  0.00000000000E+00 0.  1.
         11    1    3    3    0    0  0.43148300856E+01 -0.10455214676E+02 -0.94068388245E+01  0.14711148477E+02  0.51100000000E-03 0. -1.
        -11    1    3    3    0    0 -0.53157276912E+01 -0.13235695215E+02  0.24702007544E+02  0.28524196145E+02  0.51100000000E-03 0.  1.
         12    1    3    3    0    0 -0.63438039764E+01 -0.72422013389E+01 -0.12862445090E+02  0.16066605828E+02  0.00000000000E+00 0. -1.
</event>
<event>
 7    1  0.6953847E-012  0.5930194E+02  0.7816164E-02  0.1266605E+00
        -11   -1    0    0    0    0  0.00000000000E+00  0.00000000000E+00  0.45593999997E+02  0.45594000000E+02  0.51100000000E-03 0. -1.
         11   -1    0    0    0    0 -0.00000000000E+00 -0.00000000000E+00 -0.45593999997E+02  0.45594000000E+02  0.51100000000E-03 0.  1.
    9900012    2    1    2    0    0 -0.16429551136E+02  0.26137926736E+02  0.79749440735E+01  0.59301935684E+02  0.49999984783E+02 0.  0.
        -12    1    1    2    0    0  0.16429551136E+02 -0.26137926736E+02 -0.79749440735E+01  0.31886064316E+02  0.00000000000E+00 0.  1.
         11    1    3    3    0    0  0.12762335438E+02  0.99436610047E+01  0.51755627972E+01  0.16986466688E+02  0.51100000000E-03 0.  1.
        -11    1    3    3    0    0 -0.91722188446E+01 -0.63177971105E+01  0.47896382346E+01  0.12123728533E+02  0.51100000000E-03 0. -1.
         12    1    3    3    0    0 -0.20019667730E+02  0.22512062842E+02 -0.19902569583E+01  0.30191740463E+02  0.00000000000E+00 0. -1.
</event>
<event>
 7    1  0.6953847E-012  0.5930178E+02  0.7816164E-02  0.1266605E+00
        -11   -1    0    0    0    0  0.00000000000E+00  0.00000000000E+00  0.45593999997E+02  0.45594000000E+02  0.51100000000E-03 0.  1.
         11   -1    0    0    0    0 -0.00000000000E+00 -0.00000000000E+00 -0.45593999997E+02  0.45594000000E+02  0.51100000000E-03 0. -1.
    9900012    2    1    2    0    0 -0.29087376309E+02  0.13002186506E+02 -0.12645175590E+01  0.59301775402E+02  0.49999692466E+02 0.  0.
        -12    1    1    2    0    0  0.29087376309E+02 -0.13002186506E+02  0.12645175590E+01  0.31886224598E+02  0.00000000000E+00 0.  1.
         11    1    3    3    0    0 -0.27797904456E+02  0.30780722406E+01 -0.11957653733E+02  0.30416829287E+02  0.51100000000E-03 0. -1.
        -11    1    3    3    0    0  0.38353174210E+01  0.82258589882E+01 -0.63042801715E+01  0.11050717830E+02  0.51100000000E-03 0.  1.
        -12    1    3    3    0    0 -0.51247892741E+01  0.16982552772E+01  0.16997416345E+02  0.17834228285E+02  0.00000000000E+00 0.  1.
</event>
<event>
 7    1  0.6953847E-012  0.5930191E+02  0.7816164E-02  0.1266605E+00
        -11   -1    0    0    0    0  0.00000000000E+00  0.00000000000E+00  0.45593999997E+02  0.45594000000E+02  0.51100000000E-03 0. -1.
         11   -1    0    0    0    0 -0.00000000000E+00 -0.00000000000E+00 -0.45593999997E+02  0.45594000000E+02  0.51100000000E-03 0.  1.
    9900012    2    1    2    0    0 -0.14530411787E+02  0.13695109854E+02  0.24860280437E+02  0.59301914570E+02  0.49999946277E+02 0.  0.
        -12    1    1    2    0    0  0.14530411787E+02 -0.13695109854E+02 -0.24860280437E+02  0.31886085430E+02  0.00000000000E+00 0.  1.
         11    1    3    3    0    0 -0.61202020148E+01 -0.41370880380E+01  0.10486222550E+02  0.12827050860E+02  0.51100000000E-03 0. -1.
        -11    1    3    3    0    0  0.13266210903E+02  0.10161630768E+02  0.16372430689E+02  0.23394605757E+02  0.51100000000E-03 0.  1.
         12    1    3    3    0    0 -0.21676420676E+02  0.76705671234E+01 -0.19983728026E+01  0.23080257953E+02  0.00000000000E+00 0. -1.
</event>
<event>
 7    1  0.6953847E-012  0.5930194E+02  0.7816164E-02  0.1266605E+00
        -11   -1    0    0    0    0  0.00000000000E+00  0.00000000000E+00  0.45593999997E+02  0.45594000000E+02  0.51100000000E-03 0.  1.
         11   -1    0    0    0    0 -0.00000000000E+00 -0.00000000000E+00 -0.45593999997E+02  0.45594000000E+02  0.51100000000E-03 0. -1.
    9900012    2    1    2    0    0 -0.10865917790E+01 -0.31339184293E+02 -0.57788717756E+01  0.59301944853E+02  0.50000001505E+02 0.  0.
        -12    1    1    2    0    0  0.10865917790E+01  0.31339184293E+02  0.57788717756E+01  0.31886055147E+02  0.00000000000E+00 0.  1.
         11    1    3    3    0    0 -0.22036619089E+02 -0.16589340425E+02 -0.86896771473E+01  0.28919358322E+02  0.51100000000E-03 0. -1.
        -11    1    3    3    0    0  0.21983131791E+01  0.21896477585E+01  0.40320868613E+01  0.50877168610E+01  0.51100000000E-03 0.  1.
        -12    1    3    3    0    0  0.18751714131E+02 -0.16939491627E+02 -0.11212814896E+01  0.25294869670E+02  0.00000000000E+00 0.  1.
</event>
<event>
 7    1  0.6953847E-012  0.5930193E+02  0.7816164E-02  0.1266605E+00
        -11   -1    0    0    0    0  0.00000000000E+00  0.00000000000E+00  0.45593999997E+02  0.45594000000E+02  0.51100000000E-03 0.  1.
         11   -1    0    0    0    0 -0.00000000000E+00 -0.00000000000E+00 -0.45593999997E+02  0.45594000000E+02  0.51100000000E-03 0. -1.
    9900012    2    1    2    0    0  0.10765071100E+01 -0.23811046549E+02 -0.21180096924E+02  0.59301932336E+02  0.49999978678E+02 0.  0.
        -12    1    1    2    0    0 -0.10765071100E+01  0.23811046549E+02  0.21180096924E+02  0.31886067664E+02  0.00000000000E+00 0.  1.
         11    1    3    3    0    0  0.11172519391E+02 -0.21937298627E+02 -0.77200313049E+01  0.25800564804E+02  0.51100000000E-03 0. -1.
        -11    1    3    3    0    0  0.77371487848E+01  0.36623197990E+01  0.25210031661E+01  0.89236491893E+01  0.51100000000E-03 0.  1.
         12    1    3    3    0    0 -0.17833161066E+02 -0.55360677215E+01 -0.15981068785E+02  0.24577718343E+02  0.00000000000E+00 0. -1.
</event>
<event>
 7    1  0.6953847E-012  0.5930190E+02  0.7816164E-02  0.1266605E+00
        -11   -1    0    0    0    0  0.00000000000E+00  0.00000000000E+00  0.45593999997E+02  0.45594000000E+02  0.51100000000E-03 0.  1.
         11   -1    0    0    0    0 -0.00000000000E+00 -0.00000000000E+00 -0.45593999997E+02  0.45594000000E+02  0.51100000000E-03 0. -1.
    9900012    2    1    2    0    0 -0.12768872654E+02 -0.25913526518E+01 -0.29102643596E+02  0.59301904571E+02  0.49999928040E+02 0.  0.
        -12    1    1    2    0    0  0.12768872654E+02  0.25913526518E+01  0.29102643596E+02  0.31886095429E+02  0.00000000000E+00 0.  1.
         11    1    3    3    0    0  0.47904636086E+01 -0.26643856797E+01 -0.10063508892E+02  0.11459568234E+02  0.51100000000E-03 0. -1.
        -11    1    3    3    0    0  0.11735048194E+02 -0.14613677651E+01 -0.13574455396E+02  0.18003132822E+02  0.51100000000E-03 0.  1.
         12    1    3    3    0    0 -0.29294384456E+02  0.15344007931E+01 -0.54646793084E+01  0.29839203515E+02  0.00000000000E+00 0. -1.
</event>
<event>
 7    1  0.6953847E-012  0.5930186E+02  0.7816164E-02  0.1266605E+00
        -11   -1    0    0    0    0  0.00000000000E+00  0.00000000000E+00  0.45593999997E+02  0.45594000000E+02  0.51100000000E-03 0.  1.
         11   -1    0    0    0    0 -0.00000000000E+00 -0.00000000000E+00 -0.45593999997E+02  0.45594000000E+02  0.51100000000E-03 0. -1.
    9900012    2    1    2    0    0  0.13483090951E+02 -0.19730646209E+02 -0.21110034575E+02  0.59301863496E+02  0.49999853129E+02 0.  0.
        -12    1    1    2    0    0 -0.13483090951E+02  0.19730646209E+02  0.21110034575E+02  0.31886136504E+02  0.00000000000E+00 0.  1.
         11    1    3    3    0    0  0.44434326665E+01  0.28298027881E+01 -0.68862111381E+01  0.86701661910E+01  0.51100000000E-03 0. -1.
        -11    1    3    3    0    0  0.62763492887E+01 -0.23359812713E+02 -0.27744716524E+02  0.36808188024E+02  0.51100000000E-03 0.  1.
        -12    1    3    3    0    0  0.27633089959E+01  0.79936371563E+00  0.13520893087E+02  0.13823509281E+02  0.00000000000E+00 0.  1.
</event>
<event>
 7    1  0.6953847E-012  0.5930195E+02  0.7816164E-02  0.1266605E+00
        -11   -1    0    0    0    0  0.00000000000E+00  0.00000000000E+00  0.45593999997E+02  0.45594000000E+02  0.51100000000E-03 0. -1.
         11   -1    0    0    0    0 -0.00000000000E+00 -0.00000000000E+00 -0.45593999997E+02  0.45594000000E+02  0.51100000000E-03 0.  1.
    9900012    2    1    2    0    0  0.97281641737E+01 -0.30333445006E+02 -0.14019018416E+01  0.59301946734E+02  0.50000004935E+02 0.  0.
        -12    1    1    2    0    0 -0.97281641737E+01  0.30333445006E+02  0.14019018416E+01  0.31886053266E+02  0.00000000000E+00 0.  1.
         11    1    3    3    0    0 -0.28284597672E+01  0.73246549648E+00  0.76515230172E+00  0.30202895000E+01  0.51100000000E-03 0. -1.
        -11    1    3    3    0    0  0.17004206745E+02 -0.40609977703E+02  0.37809132144E+01  0.44188331504E+02  0.51100000000E-03 0.  1.
         12    1    3    3    0    0 -0.44475828045E+01  0.95440672003E+01 -0.59479673577E+01  0.12093325730E+02  0.00000000000E+00 0. -1.
</event>
<event>
 7    1  0.6953847E-012  0.5930194E+02  0.7816164E-02  0.1266605E+00
        -11   -1    0    0    0    0  0.00000000000E+00  0.00000000000E+00  0.45593999997E+02  0.45594000000E+02  0.51100000000E-03 0. -1.
         11   -1    0    0    0    0 -0.00000000000E+00 -0.00000000000E+00 -0.45593999997E+02  0.45594000000E+02  0.51100000000E-03 0.  1.
    9900012    2    1    2    0    0  0.18511653187E+02 -0.25781446719E+02 -0.30588039421E+01  0.59301943797E+02  0.49999999580E+02 0.  0.
        -12    1    1    2    0    0 -0.18511653187E+02  0.25781446719E+02  0.30588039421E+01  0.31886056203E+02  0.00000000000E+00 0.  1.
         11    1    3    3    0    0 -0.13223469700E+01  0.82062102663E+00 -0.46047470955E+01  0.48606292240E+01  0.51100000000E-03 0. -1.
        -11    1    3    3    0    0  0.65866976257E+01  0.11866035233E+00 -0.17740620927E+02  0.18924277979E+02  0.51100000000E-03 0.  1.
         12    1    3    3    0    0  0.13247302531E+02 -0.26720728098E+02  0.19286564080E+02  0.35517036594E+02  0.00000000000E+00 0. -1.
</event>
<event>
 7    1  0.6953847E-012  0.5930192E+02  0.7816164E-02  0.1266605E+00
        -11   -1    0    0    0    0  0.00000000000E+00  0.00000000000E+00  0.45593999997E+02  0.45594000000E+02  0.51100000000E-03 0.  1.
         11   -1    0    0    0    0 -0.00000000000E+00 -0.00000000000E+00 -0.45593999997E+02  0.45594000000E+02  0.51100000000E-03 0. -1.
    9900012    2    1    2    0    0 -0.63050685660E+00  0.73703344822E+01 -0.31016166377E+02  0.59301922379E+02  0.49999960519E+02 0.  0.
        -12    1    1    2    0    0  0.63050685660E+00 -0.73703344822E+01  0.31016166377E+02  0.31886077621E+02  0.00000000000E+00 0.  1.
         11    1    3    3    0    0  0.81269882525E-01  0.20242082428E+01 -0.19350781420E+01  0.28015266340E+01  0.51100000000E-03 0. -1.
        -11    1    3    3    0    0  0.17965759073E+02  0.17832529751E+02 -0.10739360647E+02  0.27497299573E+02  0.51100000000E-03 0.  1.
         12    1    3    3    0    0 -0.18677535813E+02 -0.12486403512E+02 -0.18341727588E+02  0.29003096173E+02  0.00000000000E+00 0. -1.
</event>
<event>
 7    1  0.6953847E-012  0.5930197E+02  0.7816164E-02  0.1266605E+00
        -11   -1    0    0    0    0  0.00000000000E+00  0.00000000000E+00  0.45593999997E+02  0.45594000000E+02  0.51100000000E-03 0.  1.
         11   -1    0    0    0    0 -0.00000000000E+00 -0.00000000000E+00 -0.45593999997E+02  0.45594000000E+02  0.51100000000E-03 0. -1.
    9900012    2    1    2    0    0 -0.26511579041E+02 -0.15013699172E+02 -0.94044722155E+01  0.59301967263E+02  0.50000042375E+02 0.  0.
        -12    1    1    2    0    0  0.26511579041E+02  0.15013699172E+02  0.94044722155E+01  0.31886032737E+02  0.00000000000E+00 0.  1.
         11    1    3    3    0    0 -0.13703486974E+02 -0.10095152946E+02 -0.26759755360E+01  0.17229582513E+02  0.51100000000E-03 0. -1.
        -11    1    3    3    0    0 -0.19478425933E+02 -0.15417117938E+02 -0.13114246904E+02  0.28090569137E+02  0.51100000000E-03 0.  1.
        -12    1    3    3    0    0  0.66703338661E+01  0.10498571712E+02  0.63857502243E+01  0.13981815612E+02  0.00000000000E+00 0.  1.
</event>
<event>
 7    1  0.6953847E-012  0.5930186E+02  0.7816164E-02  0.1266605E+00
        -11   -1    0    0    0    0  0.00000000000E+00  0.00000000000E+00  0.45593999997E+02  0.45594000000E+02  0.51100000000E-03 0. -1.
         11   -1    0    0    0    0 -0.00000000000E+00 -0.00000000000E+00 -0.45593999997E+02  0.45594000000E+02  0.51100000000E-03 0.  1.
    9900012    2    1    2    0    0 -0.73932093053E+01  0.27089788540E+02  0.15106620384E+02  0.59301856200E+02  0.49999839824E+02 0.  0.
        -12    1    1    2    0    0  0.73932093053E+01 -0.27089788540E+02 -0.15106620384E+02  0.31886143800E+02  0.00000000000E+00 0.  1.
         11    1    3    3    0    0  0.91493321091E+01  0.29950507687E+01  0.82760082829E+01  0.12695389734E+02  0.51100000000E-03 0. -1.
        -11    1    3    3    0    0  0.60012741381E+01 -0.47279360286E+01 -0.37567874742E+01  0.85136433305E+01  0.51100000000E-03 0.  1.
         12    1    3    3    0    0 -0.22543815553E+02  0.28822673800E+02  0.10587399575E+02  0.38092823135E+02  0.00000000000E+00 0. -1.
</event>
<event>
 7    1  0.6953847E-012  0.5930194E+02  0.7816164E-02  0.1266605E+00
        -11   -1    0    0    0    0  0.00000000000E+00  0.00000000000E+00  0.45593999997E+02  0.45594000000E+02  0.51100000000E-03 0. -1.
         11   -1    0    0    0    0 -0.00000000000E+00 -0.00000000000E+00 -0.45593999997E+02  0.45594000000E+02  0.51100000000E-03 0.  1.
    9900012    2    1    2    0    0 -0.18205150619E+02 -0.45587222179E+01  0.25778117911E+02  0.59301940031E+02  0.49999992711E+02 0.  0.
        -12    1    1    2    0    0  0.18205150619E+02  0.45587222179E+01 -0.25778117911E+02  0.31886059969E+02  0.00000000000E+00 0.  1.
         11    1    3    3    0    0 -0.50689844824E+01  0.29638955690E+01 -0.56381549506E+00  0.58989125099E+01  0.51100000000E-03 0. -1.
        -11    1    3    3    0    0 -0.19938681195E+02 -0.72718974365E+01 -0.46042142938E+01  0.21717050666E+02  0.51100000000E-03 0.  1.
         12    1    3    3    0    0  0.68025150576E+01 -0.25072035034E+00  0.30946147700E+02  0.31685976855E+02  0.00000000000E+00 0. -1.
</event>
<event>
 7    1  0.6953847E-012  0.5930195E+02  0.7816164E-02  0.1266605E+00
        -11   -1    0    0    0    0  0.00000000000E+00  0.00000000000E+00  0.45593999997E+02  0.45594000000E+02  0.51100000000E-03 0.  1.
         11   -1    0    0    0    0 -0.00000000000E+00 -0.00000000000E+00 -0.45593999997E+02  0.45594000000E+02  0.51100000000E-03 0. -1.
    9900012    2    1    2    0    0 -0.12102710778E+02 -0.10415905586E+02 -0.27599876289E+02  0.59301954956E+02  0.50000019931E+02 0.  0.
        -12    1    1    2    0    0  0.12102710778E+02  0.10415905586E+02  0.27599876289E+02  0.31886045044E+02  0.00000000000E+00 0.  1.
         11    1    3    3    0    0 -0.11762030587E+02 -0.93888687324E+01 -0.60609771218E+01  0.16224415661E+02  0.51100000000E-03 0. -1.
        -11    1    3    3    0    0 -0.14797721937E+01 -0.17876066949E+02 -0.33311523583E+01  0.18243905054E+02  0.51100000000E-03 0.  1.
         12    1    3    3    0    0  0.11390920029E+01  0.16849030096E+02 -0.18207746809E+02  0.24833634241E+02  0.00000000000E+00 0. -1.
</event>
<event>
 7    1  0.6953847E-012  0.5930195E+02  0.7816164E-02  0.1266605E+00
        -11   -1    0    0    0    0  0.00000000000E+00  0.00000000000E+00  0.45593999997E+02  0.45594000000E+02  0.51100000000E-03 0.  1.
         11   -1    0    0    0    0 -0.00000000000E+00 -0.00000000000E+00 -0.45593999997E+02  0.45594000000E+02  0.51100000000E-03 0. -1.
    9900012    2    1    2    0    0  0.22410986445E+02  0.21864925703E+02 -0.60326282376E+01  0.59301954574E+02  0.50000019234E+02 0.  0.
        -12    1    1    2    0    0 -0.22410986445E+02 -0.21864925703E+02  0.60326282376E+01  0.31886045426E+02  0.00000000000E+00 0.  1.
         11    1    3    3    0    0 -0.34926586205E+01  0.22591139664E+02  0.49607514040E+01  0.23391607690E+02  0.51100000000E-03 0. -1.
        -11    1    3    3    0    0  0.12093286367E+02  0.38207155148E+00  0.63885027205E+01  0.13682343407E+02  0.51100000000E-03 0.  1.
        -12    1    3    3    0    0  0.13810358698E+02 -0.11082855122E+01 -0.17381882362E+02  0.22228003478E+02  0.00000000000E+00 0.  1.
</event>
<event>
 7    1  0.6953847E-012  0.5930195E+02  0.7816164E-02  0.1266605E+00
        -11   -1    0    0    0    0  0.00000000000E+00  0.00000000000E+00  0.45593999997E+02  0.45594000000E+02  0.51100000000E-03 0.  1.
         11   -1    0    0    0    0 -0.00000000000E+00 -0.00000000000E+00 -0.45593999997E+02  0.45594000000E+02  0.51100000000E-03 0. -1.
    9900012    2    1    2    0    0 -0.19016634216E+02 -0.42879386439E+00 -0.25591094785E+02  0.59301947040E+02  0.50000005494E+02 0.  0.
        -12    1    1    2    0    0  0.19016634216E+02  0.42879386439E+00  0.25591094785E+02  0.31886052960E+02  0.00000000000E+00 0.  1.
         11    1    3    3    0    0 -0.95090915406E+01 -0.19575032765E+00  0.29654300230E+01  0.99626761264E+01  0.51100000000E-03 0. -1.
        -11    1    3    3    0    0 -0.35642636334E+01  0.19333442184E+02 -0.12040929691E+02  0.23053632035E+02  0.51100000000E-03 0.  1.
         12    1    3    3    0    0 -0.59432790417E+01 -0.19566485720E+02 -0.16515595117E+02  0.26285638879E+02  0.00000000000E+00 0. -1.
</event>
<event>
 7    1  0.6953847E-012  0.5930203E+02  0.7816164E-02  0.1266604E+00
        -11   -1    0    0    0    0  0.00000000000E+00  0.00000000000E+00  0.45593999997E+02  0.45594000000E+02  0.51100000000E-03 0. -1.
         11   -1    0    0    0    0 -0.00000000000E+00 -0.00000000000E+00 -0.45593999997E+02  0.45594000000E+02  0.51100000000E-03 0.  1.
    9900012    2    1    2    0    0 -0.30237439971E+02 -0.52777694224E+01  0.86346797858E+01  0.59302026264E+02  0.50000149980E+02 0.  0.
        -12    1    1    2    0    0  0.30237439971E+02  0.52777694224E+01 -0.86346797858E+01  0.31885973736E+02  0.00000000000E+00 0.  1.
         11    1    3    3    0    0 -0.25683933090E+02 -0.89198538006E+01  0.58572176634E+00  0.27195059865E+02  0.51100000000E-03 0. -1.
        -11    1    3    3    0    0  0.90268775103E+01 -0.58967580640E+01 -0.41044781734E+01  0.11537027979E+02  0.51100000000E-03 0.  1.
         12    1    3    3    0    0 -0.13580384391E+02  0.95388424421E+01  0.12153436193E+02  0.20569938421E+02  0.00000000000E+00 0. -1.
</event>
<event>
 7    1  0.6953847E-012  0.5930194E+02  0.7816164E-02  0.1266605E+00
        -11   -1    0    0    0    0  0.00000000000E+00  0.00000000000E+00  0.45593999997E+02  0.45594000000E+02  0.51100000000E-03 0.  1.
         11   -1    0    0    0    0 -0.00000000000E+00 -0.00000000000E+00 -0.45593999997E+02  0.45594000000E+02  0.51100000000E-03 0. -1.
    9900012    2    1    2    0    0  0.13437576873E+02  0.16581446143E+02 -0.23689831245E+02  0.59301938267E+02  0.49999989494E+02 0.  0.
        -12    1    1    2    0    0 -0.13437576873E+02 -0.16581446143E+02  0.23689831245E+02  0.31886061733E+02  0.00000000000E+00 0.  1.
         11    1    3    3    0    0 -0.35514129895E+01  0.50000567869E+01 -0.17596653704E+02  0.18634788004E+02  0.51100000000E-03 0. -1.
        -11    1    3    3    0    0 -0.80899578166E+01 -0.16847653796E+01 -0.89148075100E+01  0.12155642519E+02  0.51100000000E-03 0.  1.
        -12    1    3    3    0    0  0.25078947679E+02  0.13266154736E+02  0.28216299693E+01  0.28511507744E+02  0.00000000000E+00 0.  1.
</event>
<event>
 7    1  0.6953847E-012  0.5930193E+02  0.7816164E-02  0.1266605E+00
        -11   -1    0    0    0    0  0.00000000000E+00  0.00000000000E+00  0.45593999997E+02  0.45594000000E+02  0.51100000000E-03 0. -1.
         11   -1    0    0    0    0 -0.00000000000E+00 -0.00000000000E+00 -0.45593999997E+02  0.45594000000E+02  0.51100000000E-03 0.  1.
    9900012    2    1    2    0    0  0.24012411688E+02  0.19569151971E+02  0.75613341242E+01  0.59301930978E+02  0.49999976200E+02 0.  0.
        -12    1    1    2    0    0 -0.24012411688E+02 -0.19569151971E+02 -0.75613341242E+01  0.31886069022E+02  0.00000000000E+00 0.  1.
         11    1    3    3    0    0  0.21859233053E+02  0.86411555275E+01  0.15218948238E+02  0.28002000362E+02  0.51100000000E-03 0. -1.
        -11    1    3    3    0    0  0.19317113439E+01 -0.89123194558E+01 -0.69148536029E+01  0.11444481090E+02  0.51100000000E-03 0.  1.
        -12    1    3    3    0    0  0.22146729132E+00  0.19840315899E+02 -0.74276051120E+00  0.19855449527E+02  0.00000000000E+00 0.  1.
</event>
<event>
 7    1  0.6953847E-012  0.5930194E+02  0.7816164E-02  0.1266605E+00
        -11   -1    0    0    0    0  0.00000000000E+00  0.00000000000E+00  0.45593999997E+02  0.45594000000E+02  0.51100000000E-03 0. -1.
         11   -1    0    0    0    0 -0.00000000000E+00 -0.00000000000E+00 -0.45593999997E+02  0.45594000000E+02  0.51100000000E-03 0.  1.
    9900012    2    1    2    0    0 -0.92174405843E+01  0.12915412936E+02  0.27657758603E+02  0.59301941712E+02  0.49999995776E+02 0.  0.
        -12    1    1    2    0    0  0.92174405843E+01 -0.12915412936E+02 -0.27657758603E+02  0.31886058288E+02  0.00000000000E+00 0.  1.
         11    1    3    3    0    0 -0.37215398363E+01  0.23338548594E+02  0.12753592944E+02  0.26855015220E+02  0.51100000000E-03 0.  1.
        -11    1    3    3    0    0 -0.95576876498E+01  0.32909589565E+01  0.15066207639E+02  0.18143054234E+02  0.51100000000E-03 0. -1.
        -12    1    3    3    0    0  0.40617869017E+01 -0.13714094615E+02 -0.16204198021E+00  0.14303872257E+02  0.00000000000E+00 0.  1.
</event>
<event>
 7    1  0.6953847E-012  0.5930194E+02  0.7816164E-02  0.1266605E+00
        -11   -1    0    0    0    0  0.00000000000E+00  0.00000000000E+00  0.45593999997E+02  0.45594000000E+02  0.51100000000E-03 0. -1.
         11   -1    0    0    0    0 -0.00000000000E+00 -0.00000000000E+00 -0.45593999997E+02  0.45594000000E+02  0.51100000000E-03 0.  1.
    9900012    2    1    2    0    0  0.15877429699E+02  0.94060256930E+01  0.26002980881E+02  0.59301935522E+02  0.49999984488E+02 0.  0.
        -12    1    1    2    0    0 -0.15877429699E+02 -0.94060256930E+01 -0.26002980881E+02  0.31886064478E+02  0.00000000000E+00 0.  1.
         11    1    3    3    0    0 -0.73110409396E+01 -0.64755463313E+01 -0.44908500978E+00  0.97767938260E+01  0.51100000000E-03 0.  1.
        -11    1    3    3    0    0  0.19106614572E+01 -0.85821163199E+01  0.22779672902E+01  0.90825372539E+01  0.51100000000E-03 0. -1.
         12    1    3    3    0    0  0.21277809181E+02  0.24463688344E+02  0.24174098600E+02  0.40442604443E+02  0.00000000000E+00 0. -1.
</event>
<event>
 7    1  0.6953847E-012  0.5930194E+02  0.7816164E-02  0.1266605E+00
        -11   -1    0    0    0    0  0.00000000000E+00  0.00000000000E+00  0.45593999997E+02  0.45594000000E+02  0.51100000000E-03 0. -1.
         11   -1    0    0    0    0 -0.00000000000E+00 -0.00000000000E+00 -0.45593999997E+02  0.45594000000E+02  0.51100000000E-03 0.  1.
    9900012    2    1    2    0    0 -0.15833862430E+02  0.27656205238E+02  0.10694693541E+01  0.59301942666E+02  0.49999997517E+02 0.  0.
        -12    1    1    2    0    0  0.15833862430E+02 -0.27656205238E+02 -0.10694693541E+01  0.31886057334E+02  0.00000000000E+00 0.  1.
         11    1    3    3    0    0 -0.15295161770E+02 -0.49618750940E+01 -0.10303673715E+02  0.19097849887E+02  0.51100000000E-03 0. -1.
        -11    1    3    3    0    0 -0.87731184382E+00  0.57742655119E+00 -0.43760887199E+01  0.45003611231E+01  0.51100000000E-03 0.  1.
         12    1    3    3    0    0  0.33861118382E+00  0.32040653780E+02  0.15749231789E+02  0.35703731656E+02  0.00000000000E+00 0. -1.
</event>
<event>
 7    1  0.6953847E-012  0.5930198E+02  0.7816164E-02  0.1266605E+00
        -11   -1    0    0    0    0  0.00000000000E+00  0.00000000000E+00  0.45593999997E+02  0.45594000000E+02  0.51100000000E-03 0. -1.
         11   -1    0    0    0    0 -0.00000000000E+00 -0.00000000000E+00 -0.45593999997E+02  0.45594000000E+02  0.51100000000E-03 0.  1.
    9900012    2    1    2    0    0  0.17379938186E+02 -0.35792683050E+01  0.26492351728E+02  0.59301982484E+02  0.50000070135E+02 0.  0.
        -12    1    1    2    0    0 -0.17379938186E+02  0.35792683050E+01 -0.26492351728E+02  0.31886017516E+02  0.00000000000E+00 0.  1.
         11    1    3    3    0    0  0.12938623998E+02 -0.38287017151E+01 -0.30411381608E+01  0.13831683534E+02  0.51100000000E-03 0. -1.
        -11    1    3    3    0    0 -0.14820436368E+02  0.15766456671E+01  0.96513656385E+01  0.17756125834E+02  0.51100000000E-03 0.  1.
         12    1    3    3    0    0  0.19261750555E+02 -0.13272122570E+01  0.19882124250E+02  0.27714173116E+02  0.00000000000E+00 0. -1.
</event>
<event>
 7    1  0.6953847E-012  0.5930219E+02  0.7816164E-02  0.1266604E+00
        -11   -1    0    0    0    0  0.00000000000E+00  0.00000000000E+00  0.45593999997E+02  0.45594000000E+02  0.51100000000E-03 0. -1.
         11   -1    0    0    0    0 -0.00000000000E+00 -0.00000000000E+00 -0.45593999997E+02  0.45594000000E+02  0.51100000000E-03 0.  1.
    9900012    2    1    2    0    0  0.30384027287E+02 -0.16370446512E+01 -0.95307748366E+01  0.59302192838E+02  0.50000453769E+02 0.  0.
        -12    1    1    2    0    0 -0.30384027287E+02  0.16370446512E+01  0.95307748366E+01  0.31885807162E+02  0.00000000000E+00 0.  1.
         11    1    3    3    0    0  0.17526808800E+02 -0.12091832928E+02 -0.73547323244E+01  0.22527617231E+02  0.51100000000E-03 0. -1.
        -11    1    3    3    0    0  0.22135121049E+02  0.55339048281E+00  0.28076228033E+01  0.22319331777E+02  0.51100000000E-03 0.  1.
        -12    1    3    3    0    0 -0.92779025622E+01  0.99013977942E+01 -0.49836653156E+01  0.14455243831E+02  0.00000000000E+00 0.  1.
</event>
<event>
 7    1  0.6953847E-012  0.5930196E+02  0.7816164E-02  0.1266605E+00
        -11   -1    0    0    0    0  0.00000000000E+00  0.00000000000E+00  0.45593999997E+02  0.45594000000E+02  0.51100000000E-03 0. -1.
         11   -1    0    0    0    0 -0.00000000000E+00 -0.00000000000E+00 -0.45593999997E+02  0.45594000000E+02  0.51100000000E-03 0.  1.
    9900012    2    1    2    0    0  0.11070698958E+02  0.12457672587E+02  0.27183923763E+02  0.59301957711E+02  0.50000024955E+02 0.  0.
        -12    1    1    2    0    0 -0.11070698958E+02 -0.12457672587E+02 -0.27183923763E+02  0.31886042289E+02  0.00000000000E+00 0.  1.
         11    1    3    3    0    0 -0.55969543799E+01  0.65116737086E+01  0.82534067973E+01  0.11909933536E+02  0.51100000000E-03 0. -1.
        -11    1    3    3    0    0 -0.62920746172E+00 -0.91244391580E+01  0.22395036995E+02  0.24190679491E+02  0.51100000000E-03 0.  1.
        -12    1    3    3    0    0  0.17296860799E+02  0.15070438036E+02 -0.34645200285E+01  0.23201344684E+02  0.00000000000E+00 0.  1.
</event>
<event>
 7    1  0.6953847E-012  0.5930190E+02  0.7816164E-02  0.1266605E+00
        -11   -1    0    0    0    0  0.00000000000E+00  0.00000000000E+00  0.45593999997E+02  0.45594000000E+02  0.51100000000E-03 0.  1.
         11   -1    0    0    0    0 -0.00000000000E+00 -0.00000000000E+00 -0.45593999997E+02  0.45594000000E+02  0.51100000000E-03 0. -1.
    9900012    2    1    2    0    0  0.25462420569E+02 -0.18232380197E+02 -0.59973817104E+01  0.59301903716E+02  0.49999926481E+02 0.  0.
        -12    1    1    2    0    0 -0.25462420569E+02  0.18232380197E+02  0.59973817104E+01  0.31886096284E+02  0.00000000000E+00 0.  1.
         11    1    3    3    0    0  0.10078072606E+00 -0.28591645874E+01 -0.89851621672E+01  0.94296404133E+01  0.51100000000E-03 0. -1.
        -11    1    3    3    0    0  0.43303028736E+01 -0.24662758823E+02 -0.49967248617E+01  0.25533712134E+02  0.51100000000E-03 0.  1.
        -12    1    3    3    0    0  0.21031336969E+02  0.92895432136E+01  0.79845053184E+01  0.24338551169E+02  0.00000000000E+00 0.  1.
</event>
<event>
 7    1  0.6953847E-012  0.5930195E+02  0.7816164E-02  0.1266605E+00
        -11   -1    0    0    0    0  0.00000000000E+00  0.00000000000E+00  0.45593999997E+02  0.45594000000E+02  0.51100000000E-03 0.  1.
         11   -1    0    0    0    0 -0.00000000000E+00 -0.00000000000E+00 -0.45593999997E+02  0.45594000000E+02  0.51100000000E-03 0. -1.
    9900012    2    1    2    0    0  0.35157434798E+01 -0.12462930120E+02 -0.29138209865E+02  0.59301947351E+02  0.50000006061E+02 0.  0.
        -12    1    1    2    0    0 -0.35157434798E+01  0.12462930120E+02  0.29138209865E+02  0.31886052649E+02  0.00000000000E+00 0.  1.
         11    1    3    3    0    0 -0.62932682551E+01  0.29641066914E+01 -0.14223393412E+02  0.15833384800E+02  0.51100000000E-03 0. -1.
        -11    1    3    3    0    0  0.15386661431E+01  0.87037339682E+01 -0.15623119689E+02  0.17950051464E+02  0.51100000000E-03 0.  1.
        -12    1    3    3    0    0  0.82703455918E+01 -0.24130770780E+02  0.70830323636E+00  0.25518511087E+02  0.00000000000E+00 0.  1.
</event>
<event>
 7    1  0.6953847E-012  0.5930193E+02  0.7816164E-02  0.1266605E+00
        -11   -1    0    0    0    0  0.00000000000E+00  0.00000000000E+00  0.45593999997E+02  0.45594000000E+02  0.51100000000E-03 0. -1.
         11   -1    0    0    0    0 -0.00000000000E+00 -0.00000000000E+00 -0.45593999997E+02  0.45594000000E+02  0.51100000000E-03 0.  1.
    9900012    2    1    2    0    0 -0.29624061876E+02  0.30939585038E+01  0.11382609830E+02  0.59301930506E+02  0.49999975339E+02 0.  0.
        -12    1    1    2    0    0  0.29624061876E+02 -0.30939585038E+01 -0.11382609830E+02  0.31886069494E+02  0.00000000000E+00 0.  1.
         11    1    3    3    0    0 -0.17479689368E+02 -0.22707051143E+01  0.17855210114E+02  0.25089921694E+02  0.51100000000E-03 0. -1.
        -11    1    3    3    0    0  0.56897925687E+01 -0.90175835186E+01 -0.26166654741E+01  0.10978956711E+02  0.51100000000E-03 0.  1.
         12    1    3    3    0    0 -0.17834165076E+02  0.14382247137E+02 -0.38559348102E+01  0.23233052101E+02  0.00000000000E+00 0. -1.
</event>
<event>
 7    1  0.6953847E-012  0.5930194E+02  0.7816164E-02  0.1266605E+00
        -11   -1    0    0    0    0  0.00000000000E+00  0.00000000000E+00  0.45593999997E+02  0.45594000000E+02  0.51100000000E-03 0.  1.
         11   -1    0    0    0    0 -0.00000000000E+00 -0.00000000000E+00 -0.45593999997E+02  0.45594000000E+02  0.51100000000E-03 0. -1.
    9900012    2    1    2    0    0  0.49359173453E+01  0.22322089879E+02 -0.22227958020E+02  0.59301935734E+02  0.49999984875E+02 0.  0.
        -12    1    1    2    0    0 -0.49359173453E+01 -0.22322089879E+02  0.22227958020E+02  0.31886064266E+02  0.00000000000E+00 0.  1.
         11    1    3    3    0    0  0.11757306075E+02  0.21434172583E+02 -0.22223505693E+02  0.33038495819E+02  0.51100000000E-03 0. -1.
        -11    1    3    3    0    0 -0.18375346259E+00  0.77758484771E+01 -0.98403563993E+01  0.12543133548E+02  0.51100000000E-03 0.  1.
        -12    1    3    3    0    0 -0.66376352675E+01 -0.68879311806E+01  0.98359040722E+01  0.13720306367E+02  0.00000000000E+00 0.  1.
</event>
<event>
 7    1  0.6953847E-012  0.5930192E+02  0.7816164E-02  0.1266605E+00
        -11   -1    0    0    0    0  0.00000000000E+00  0.00000000000E+00  0.45593999997E+02  0.45594000000E+02  0.51100000000E-03 0. -1.
         11   -1    0    0    0    0 -0.00000000000E+00 -0.00000000000E+00 -0.45593999997E+02  0.45594000000E+02  0.51100000000E-03 0.  1.
    9900012    2    1    2    0    0  0.30427490864E+02  0.91254839977E+01  0.27596540223E+01  0.59301916064E+02  0.49999949001E+02 0.  0.
        -12    1    1    2    0    0 -0.30427490864E+02 -0.91254839977E+01 -0.27596540223E+01  0.31886083936E+02  0.00000000000E+00 0.  1.
         11    1    3    3    0    0 -0.70546011512E+01 -0.80361697684E+01 -0.21286658840E+01  0.10903148199E+02  0.51100000000E-03 0. -1.
        -11    1    3    3    0    0  0.22732937355E+02  0.13289607910E+02 -0.89448460496E+01  0.27810256926E+02  0.51100000000E-03 0.  1.
         12    1    3    3    0    0  0.14749154660E+02  0.38720458560E+01  0.13833165956E+02  0.20588510939E+02  0.00000000000E+00 0. -1.
</event>
<event>
 7    1  0.6953847E-012  0.5930195E+02  0.7816164E-02  0.1266605E+00
        -11   -1    0    0    0    0  0.00000000000E+00  0.00000000000E+00  0.45593999997E+02  0.45594000000E+02  0.51100000000E-03 0. -1.
         11   -1    0    0    0    0 -0.00000000000E+00 -0.00000000000E+00 -0.45593999997E+02  0.45594000000E+02  0.51100000000E-03 0.  1.
    9900012    2    1    2    0    0  0.11873447583E+02 -0.65200951312E+01  0.28865725204E+02  0.59301945218E+02  0.50000002170E+02 0.  0.
        -12    1    1    2    0    0 -0.11873447583E+02  0.65200951312E+01 -0.28865725204E+02  0.31886054782E+02  0.00000000000E+00 0.  1.
         11    1    3    3    0    0  0.35786765424E+01 -0.17490735762E+02  0.39747187164E+01  0.18290192794E+02  0.51100000000E-03 0. -1.
        -11    1    3    3    0    0  0.18371830359E+02  0.22529723928E+01  0.10031509563E+02  0.21053057254E+02  0.51100000000E-03 0.  1.
         12    1    3    3    0    0 -0.10077059319E+02  0.87176682384E+01  0.14859496925E+02  0.19958695170E+02  0.00000000000E+00 0. -1.
</event>
<event>
 7    1  0.6953847E-012  0.5930196E+02  0.7816164E-02  0.1266605E+00
        -11   -1    0    0    0    0  0.00000000000E+00  0.00000000000E+00  0.45593999997E+02  0.45594000000E+02  0.51100000000E-03 0.  1.
         11   -1    0    0    0    0 -0.00000000000E+00 -0.00000000000E+00 -0.45593999997E+02  0.45594000000E+02  0.51100000000E-03 0. -1.
    9900012    2    1    2    0    0  0.23113010952E+01 -0.74625263522E+01 -0.30914210416E+02  0.59301955749E+02  0.50000021377E+02 0.  0.
        -12    1    1    2    0    0 -0.23113010952E+01  0.74625263522E+01  0.30914210416E+02  0.31886044251E+02  0.00000000000E+00 0.  1.
         11    1    3    3    0    0  0.52533812813E+01  0.44889967740E+01 -0.20304240589E+02  0.21447873859E+02  0.51100000000E-03 0. -1.
        -11    1    3    3    0    0  0.23740489661E+01  0.80594716069E+01  0.67947194276E+01  0.10805526523E+02  0.51100000000E-03 0.  1.
         12    1    3    3    0    0 -0.53161291523E+01 -0.20010994733E+02 -0.17404689255E+02  0.27048555367E+02  0.00000000000E+00 0. -1.
</event>
<event>
 7    1  0.6953847E-012  0.5930195E+02  0.7816164E-02  0.1266605E+00
        -11   -1    0    0    0    0  0.00000000000E+00  0.00000000000E+00  0.45593999997E+02  0.45594000000E+02  0.51100000000E-03 0.  1.
         11   -1    0    0    0    0 -0.00000000000E+00 -0.00000000000E+00 -0.45593999997E+02  0.45594000000E+02  0.51100000000E-03 0. -1.
    9900012    2    1    2    0    0  0.21524302736E+02  0.21636542972E+02  0.92349641432E+01  0.59301950343E+02  0.50000011517E+02 0.  0.
        -12    1    1    2    0    0 -0.21524302736E+02 -0.21636542972E+02 -0.92349641432E+01  0.31886049657E+02  0.00000000000E+00 0.  1.
         11    1    3    3    0    0  0.22570634117E+02  0.21431078206E+02  0.37735458160E+01  0.31352261255E+02  0.51100000000E-03 0. -1.
        -11    1    3    3    0    0  0.84620455688E+01 -0.79428273390E+01  0.92783408010E+01  0.14858745897E+02  0.51100000000E-03 0.  1.
        -12    1    3    3    0    0 -0.95083769502E+01  0.81482921050E+01 -0.38169224738E+01  0.13090943191E+02  0.00000000000E+00 0.  1.
</event>
<event>
 7    1  0.6953847E-012  0.5930195E+02  0.7816164E-02  0.1266605E+00
        -11   -1    0    0    0    0  0.00000000000E+00  0.00000000000E+00  0.45593999997E+02  0.45594000000E+02  0.51100000000E-03 0.  1.
         11   -1    0    0    0    0 -0.00000000000E+00 -0.00000000000E+00 -0.45593999997E+02  0.45594000000E+02  0.51100000000E-03 0. -1.
    9900012    2    1    2    0    0  0.19410065977E+01  0.26140852602E+02 -0.18155121636E+02  0.59301950966E+02  0.50000012654E+02 0.  0.
        -12    1    1    2    0    0 -0.19410065977E+01 -0.26140852602E+02  0.18155121636E+02  0.31886049034E+02  0.00000000000E+00 0.  1.
         11    1    3    3    0    0 -0.12976678371E+02  0.13407897892E+02 -0.97409203444E+01  0.21048787063E+02  0.51100000000E-03 0. -1.
        -11    1    3    3    0    0  0.18130403987E+01  0.21433865259E+02 -0.60607210165E+01  0.22347931334E+02  0.51100000000E-03 0.  1.
        -12    1    3    3    0    0  0.13104644569E+02 -0.87009105486E+01 -0.23534802749E+01  0.15905232569E+02  0.00000000000E+00 0.  1.
</event>
<event>
 7    1  0.6953847E-012  0.5930195E+02  0.7816164E-02  0.1266605E+00
        -11   -1    0    0    0    0  0.00000000000E+00  0.00000000000E+00  0.45593999997E+02  0.45594000000E+02  0.51100000000E-03 0. -1.
         11   -1    0    0    0    0 -0.00000000000E+00 -0.00000000000E+00 -0.45593999997E+02  0.45594000000E+02  0.51100000000E-03 0.  1.
    9900012    2    1    2    0    0  0.10610611080E+02  0.15271584430E+02  0.25902000285E+02  0.59301953251E+02  0.50000016822E+02 0.  0.
        -12    1    1    2    0    0 -0.10610611080E+02 -0.15271584430E+02 -0.25902000285E+02  0.31886046749E+02  0.00000000000E+00 0.  1.
         11    1    3    3    0    0  0.12750448162E+02  0.58701021194E+01  0.67360391313E+01  0.15569401101E+02  0.51100000000E-03 0. -1.
        -11    1    3    3    0    0  0.16640632123E+02  0.77965207173E+01  0.24498553322E+01  0.18539098256E+02  0.51100000000E-03 0.  1.
         12    1    3    3    0    0 -0.18780469205E+02  0.16049615938E+01  0.16716105821E+02  0.25193453894E+02  0.00000000000E+00 0. -1.
</event>
<event>
 7    1  0.6953847E-012  0.5930189E+02  0.7816164E-02  0.1266605E+00
        -11   -1    0    0    0    0  0.00000000000E+00  0.00000000000E+00  0.45593999997E+02  0.45594000000E+02  0.51100000000E-03 0. -1.
         11   -1    0    0    0    0 -0.00000000000E+00 -0.00000000000E+00 -0.45593999997E+02  0.45594000000E+02  0.51100000000E-03 0.  1.
    9900012    2    1    2    0    0  0.18532881515E+02 -0.24644966897E+02  0.81167551574E+01  0.59301893231E+02  0.49999907360E+02 0.  0.
        -12    1    1    2    0    0 -0.18532881515E+02  0.24644966897E+02 -0.81167551574E+01  0.31886106769E+02  0.00000000000E+00 0.  1.
         11    1    3    3    0    0  0.97990246181E+01  0.40993050680E+01 -0.33033015277E+01  0.11123712813E+02  0.51100000000E-03 0. -1.
        -11    1    3    3    0    0  0.28929252182E+01  0.44974034166E+01 -0.77098564491E+01  0.93828322237E+01  0.51100000000E-03 0.  1.
        -12    1    3    3    0    0  0.58409316784E+01 -0.33241675381E+02  0.19129913134E+02  0.38795348195E+02  0.00000000000E+00 0.  1.
</event>
<event>
 7    1  0.6953847E-012  0.5930194E+02  0.7816164E-02  0.1266605E+00
        -11   -1    0    0    0    0  0.00000000000E+00  0.00000000000E+00  0.45593999997E+02  0.45594000000E+02  0.51100000000E-03 0.  1.
         11   -1    0    0    0    0 -0.00000000000E+00 -0.00000000000E+00 -0.45593999997E+02  0.45594000000E+02  0.51100000000E-03 0. -1.
    9900012    2    1    2    0    0 -0.11753534595E+02  0.21347400567E+02 -0.20563647850E+02  0.59301941928E+02  0.49999996171E+02 0.  0.
        -12    1    1    2    0    0  0.11753534595E+02 -0.21347400567E+02  0.20563647850E+02  0.31886058072E+02  0.00000000000E+00 0.  1.
         11    1    3    3    0    0  0.44740088037E+00  0.16152977863E+02 -0.12897421474E+02  0.20675162451E+02  0.51100000000E-03 0. -1.
        -11    1    3    3    0    0 -0.23483464329E+01 -0.12594827644E+01 -0.20808799034E+02  0.20978730784E+02  0.51100000000E-03 0.  1.
        -12    1    3    3    0    0 -0.98525890424E+01  0.64539054681E+01  0.13142572658E+02  0.17648048694E+02  0.00000000000E+00 0.  1.
</event>
<event>
 7    1  0.7353512E-012  0.5930194E+02  0.7816164E-02  0.1266605E+00
        -11   -1    0    0    0    0  0.00000000000E+00  0.00000000000E+00  0.45593999997E+02  0.45594000000E+02  0.51100000000E-03 0. -1.
         11   -1    0    0    0    0 -0.00000000000E+00 -0.00000000000E+00 -0.45593999997E+02  0.45594000000E+02  0.51100000000E-03 0.  1.
    9900012    2    1    2    0    0  0.11709930269E+02 -0.38486201534E+01  0.29407256475E+02  0.59301936000E+02  0.49999985360E+02 0.  0.
        -12    1    1    2    0    0 -0.11709930269E+02  0.38486201534E+01 -0.29407256475E+02  0.31886064000E+02  0.00000000000E+00 0.  1.
         11    1    3    3    0    0  0.18039334208E+02  0.25232570110E+01  0.15951985842E+02  0.24212605337E+02  0.51100000000E-03 0. -1.
        -11    1    3    3    0    0 -0.22656358294E+01  0.15569281588E+01  0.22339032123E+02  0.22507542901E+02  0.51100000000E-03 0.  1.
        -12    1    3    3    0    0 -0.40637681098E+01 -0.79288053233E+01 -0.88837614893E+01  0.12581787763E+02  0.00000000000E+00 0.  1.
</event>
<event>
 7    1  0.6953847E-012  0.5930173E+02  0.7816164E-02  0.1266606E+00
        -11   -1    0    0    0    0  0.00000000000E+00  0.00000000000E+00  0.45593999997E+02  0.45594000000E+02  0.51100000000E-03 0.  1.
         11   -1    0    0    0    0 -0.00000000000E+00 -0.00000000000E+00 -0.45593999997E+02  0.45594000000E+02  0.51100000000E-03 0. -1.
    9900012    2    1    2    0    0 -0.10269270264E+02  0.31337704740E+01 -0.30024255017E+02  0.59301728370E+02  0.49999606690E+02 0.  0.
        -12    1    1    2    0    0  0.10269270264E+02 -0.31337704740E+01  0.30024255017E+02  0.31886271630E+02  0.00000000000E+00 0.  1.
         11    1    3    3    0    0  0.79694467504E+01  0.78488441990E+01 -0.16239111104E+02  0.19718650219E+02  0.51100000000E-03 0. -1.
        -11    1    3    3    0    0  0.10073329207E+01 -0.14173142297E+02 -0.10977784731E+02  0.17955624190E+02  0.51100000000E-03 0.  1.
        -12    1    3    3    0    0 -0.19246049936E+02  0.94580685721E+01 -0.28073591826E+01  0.21627453961E+02  0.00000000000E+00 0.  1.
</event>
<event>
 7    1  0.6953847E-012  0.5930196E+02  0.7816164E-02  0.1266605E+00
        -11   -1    0    0    0    0  0.00000000000E+00  0.00000000000E+00  0.45593999997E+02  0.45594000000E+02  0.51100000000E-03 0.  1.
         11   -1    0    0    0    0 -0.00000000000E+00 -0.00000000000E+00 -0.45593999997E+02  0.45594000000E+02  0.51100000000E-03 0. -1.
    9900012    2    1    2    0    0 -0.16851020387E+02 -0.95648985577E+01 -0.25323416366E+02  0.59301959340E+02  0.50000027926E+02 0.  0.
        -12    1    1    2    0    0  0.16851020387E+02  0.95648985577E+01  0.25323416366E+02  0.31886040660E+02  0.00000000000E+00 0.  1.
         11    1    3    3    0    0 -0.10814774716E+02 -0.68136302089E+00 -0.20826874403E+02  0.23477272103E+02  0.51100000000E-03 0. -1.
        -11    1    3    3    0    0 -0.16337720707E+02 -0.10178729191E+02 -0.12294043560E+02  0.22840121567E+02  0.51100000000E-03 0.  1.
         12    1    3    3    0    0  0.10301475035E+02  0.12951936544E+01  0.77975015974E+01  0.12984565671E+02  0.00000000000E+00 0. -1.
</event>
<event>
 7    1  0.6953847E-012  0.5930194E+02  0.7816164E-02  0.1266605E+00
        -11   -1    0    0    0    0  0.00000000000E+00  0.00000000000E+00  0.45593999997E+02  0.45594000000E+02  0.51100000000E-03 0.  1.
         11   -1    0    0    0    0 -0.00000000000E+00 -0.00000000000E+00 -0.45593999997E+02  0.45594000000E+02  0.51100000000E-03 0. -1.
    9900012    2    1    2    0    0  0.17564387362E+02  0.25238402268E+02  0.84401423449E+01  0.59301942620E+02  0.49999997433E+02 0.  0.
        -12    1    1    2    0    0 -0.17564387362E+02 -0.25238402268E+02 -0.84401423449E+01  0.31886057380E+02  0.00000000000E+00 0.  1.
         11    1    3    3    0    0  0.82049312923E+01  0.15607977925E+02  0.14270691973E+02  0.22684411433E+02  0.51100000000E-03 0.  1.
        -11    1    3    3    0    0  0.17059336569E+02  0.14781848920E+02 -0.11924465484E+02  0.25528746522E+02  0.51100000000E-03 0. -1.
         12    1    3    3    0    0 -0.76998804990E+01 -0.51514245774E+01  0.60939158557E+01  0.11088784664E+02  0.00000000000E+00 0. -1.
</event>
<event>
 7    1  0.6953847E-012  0.5930196E+02  0.7816164E-02  0.1266605E+00
        -11   -1    0    0    0    0  0.00000000000E+00  0.00000000000E+00  0.45593999997E+02  0.45594000000E+02  0.51100000000E-03 0.  1.
         11   -1    0    0    0    0 -0.00000000000E+00 -0.00000000000E+00 -0.45593999997E+02  0.45594000000E+02  0.51100000000E-03 0. -1.
    9900012    2    1    2    0    0  0.20820974534E+01  0.94701209617E+01 -0.30375996966E+02  0.59301960539E+02  0.50000030112E+02 0.  0.
        -12    1    1    2    0    0 -0.20820974534E+01 -0.94701209617E+01  0.30375996966E+02  0.31886039461E+02  0.00000000000E+00 0.  1.
         11    1    3    3    0    0 -0.15836695532E+01  0.18991231952E+02 -0.19464292616E+01  0.19156291067E+02  0.51100000000E-03 0. -1.
        -11    1    3    3    0    0  0.12500470318E+00  0.51686917880E+01  0.24845676294E+01  0.57362075923E+01  0.51100000000E-03 0.  1.
         12    1    3    3    0    0  0.35407623035E+01 -0.14689802779E+02 -0.30914135334E+02  0.34409461879E+02  0.00000000000E+00 0. -1.
</event>
<event>
 7    1  0.6953847E-012  0.5930192E+02  0.7816164E-02  0.1266605E+00
        -11   -1    0    0    0    0  0.00000000000E+00  0.00000000000E+00  0.45593999997E+02  0.45594000000E+02  0.51100000000E-03 0.  1.
         11   -1    0    0    0    0 -0.00000000000E+00 -0.00000000000E+00 -0.45593999997E+02  0.45594000000E+02  0.51100000000E-03 0. -1.
    9900012    2    1    2    0    0 -0.37336383293E+01  0.63222709573E+01 -0.31029191798E+02  0.59301922962E+02  0.49999961581E+02 0.  0.
        -12    1    1    2    0    0  0.37336383293E+01 -0.63222709573E+01  0.31029191798E+02  0.31886077038E+02  0.00000000000E+00 0.  1.
         11    1    3    3    0    0  0.11642218254E+02  0.10177352233E+02 -0.20182405977E+02  0.25425366381E+02  0.51100000000E-03 0. -1.
        -11    1    3    3    0    0 -0.13547838293E+02 -0.33917368290E+01 -0.20076385007E+02  0.24456267834E+02  0.51100000000E-03 0.  1.
        -12    1    3    3    0    0 -0.18280182899E+01 -0.46334444677E+00  0.92295991857E+01  0.94202887468E+01  0.00000000000E+00 0.  1.
</event>
<event>
 7    1  0.6953847E-012  0.5930196E+02  0.7816164E-02  0.1266605E+00
        -11   -1    0    0    0    0  0.00000000000E+00  0.00000000000E+00  0.45593999997E+02  0.45594000000E+02  0.51100000000E-03 0. -1.
         11   -1    0    0    0    0 -0.00000000000E+00 -0.00000000000E+00 -0.45593999997E+02  0.45594000000E+02  0.51100000000E-03 0.  1.
    9900012    2    1    2    0    0 -0.20454005337E+02 -0.20631971890E+02  0.13140581783E+02  0.59301960924E+02  0.50000030814E+02 0.  0.
        -12    1    1    2    0    0  0.20454005337E+02  0.20631971890E+02 -0.13140581783E+02  0.31886039076E+02  0.00000000000E+00 0.  1.
         11    1    3    3    0    0 -0.96454891539E+01 -0.36729860296E+01  0.51721589066E+01  0.11544588144E+02  0.51100000000E-03 0. -1.
        -11    1    3    3    0    0  0.13526020113E+01  0.13251060451E+02 -0.24954101993E+01  0.13551649626E+02  0.51100000000E-03 0.  1.
         12    1    3    3    0    0 -0.12161118194E+02 -0.30210046311E+02  0.10463833076E+02  0.34205723154E+02  0.00000000000E+00 0. -1.
</event>
<event>
 7    1  0.6953847E-012  0.5930195E+02  0.7816164E-02  0.1266605E+00
        -11   -1    0    0    0    0  0.00000000000E+00  0.00000000000E+00  0.45593999997E+02  0.45594000000E+02  0.51100000000E-03 0.  1.
         11   -1    0    0    0    0 -0.00000000000E+00 -0.00000000000E+00 -0.45593999997E+02  0.45594000000E+02  0.51100000000E-03 0. -1.
    9900012    2    1    2    0    0  0.19172308237E+02 -0.22184102316E+02 -0.12530310704E+02  0.59301945289E+02  0.50000002300E+02 0.  0.
        -12    1    1    2    0    0 -0.19172308237E+02  0.22184102316E+02  0.12530310704E+02  0.31886054711E+02  0.00000000000E+00 0.  1.
         11    1    3    3    0    0 -0.10709202047E+02  0.54415535194E+00 -0.27687361026E+01  0.11074701504E+02  0.51100000000E-03 0. -1.
        -11    1    3    3    0    0  0.11776526246E+02  0.55971984033E+01  0.58989960447E+00  0.13052324782E+02  0.51100000000E-03 0.  1.
         12    1    3    3    0    0  0.18104984037E+02 -0.28325456072E+02 -0.10351474206E+02  0.35174919003E+02  0.00000000000E+00 0. -1.
</event>
<event>
 7    1  0.6953847E-012  0.5930206E+02  0.7816164E-02  0.1266604E+00
        -11   -1    0    0    0    0  0.00000000000E+00  0.00000000000E+00  0.45593999997E+02  0.45594000000E+02  0.51100000000E-03 0.  1.
         11   -1    0    0    0    0 -0.00000000000E+00 -0.00000000000E+00 -0.45593999997E+02  0.45594000000E+02  0.51100000000E-03 0. -1.
    9900012    2    1    2    0    0  0.73314497508E+01 -0.15455961452E+02 -0.26908665346E+02  0.59302059987E+02  0.50000211481E+02 0.  0.
        -12    1    1    2    0    0 -0.73314497508E+01  0.15455961452E+02  0.26908665346E+02  0.31885940013E+02  0.00000000000E+00 0.  1.
         11    1    3    3    0    0 -0.56974549002E+01 -0.17601668170E+02 -0.22927292524E+02  0.29460829205E+02  0.51100000000E-03 0. -1.
        -11    1    3    3    0    0  0.45587402470E+01  0.26782459446E+01 -0.15016414459E+02  0.15920044517E+02  0.51100000000E-03 0.  1.
        -12    1    3    3    0    0  0.84701644040E+01 -0.53253922613E+00  0.11035041637E+02  0.13921186264E+02  0.00000000000E+00 0.  1.
</event>
<event>
 7    1  0.6953847E-012  0.5930192E+02  0.7816164E-02  0.1266605E+00
        -11   -1    0    0    0    0  0.00000000000E+00  0.00000000000E+00  0.45593999997E+02  0.45594000000E+02  0.51100000000E-03 0. -1.
         11   -1    0    0    0    0 -0.00000000000E+00 -0.00000000000E+00 -0.45593999997E+02  0.45594000000E+02  0.51100000000E-03 0.  1.
    9900012    2    1    2    0    0  0.35533487248E+01  0.31348155907E+02 -0.46248106053E+01  0.59301920920E+02  0.49999957857E+02 0.  0.
        -12    1    1    2    0    0 -0.35533487248E+01 -0.31348155907E+02  0.46248106053E+01  0.31886079080E+02  0.00000000000E+00 0.  1.
         11    1    3    3    0    0  0.30547410731E+01  0.29507376861E+02  0.79943510788E+01  0.30723384932E+02  0.51100000000E-03 0. -1.
        -11    1    3    3    0    0  0.65955492420E+01  0.90564919722E+01  0.17931144952E+01  0.11346214192E+02  0.51100000000E-03 0.  1.
        -12    1    3    3    0    0 -0.60969415902E+01 -0.72157129261E+01 -0.14412276179E+02  0.17232321795E+02  0.00000000000E+00 0.  1.
</event>
<event>
 7    1  0.6953847E-012  0.5930192E+02  0.7816164E-02  0.1266605E+00
        -11   -1    0    0    0    0  0.00000000000E+00  0.00000000000E+00  0.45593999997E+02  0.45594000000E+02  0.51100000000E-03 0. -1.
         11   -1    0    0    0    0 -0.00000000000E+00 -0.00000000000E+00 -0.45593999997E+02  0.45594000000E+02  0.51100000000E-03 0.  1.
    9900012    2    1    2    0    0 -0.14078506327E+02  0.20261289842E+02  0.20198956324E+02  0.59301920858E+02  0.49999957744E+02 0.  0.
        -12    1    1    2    0    0  0.14078506327E+02 -0.20261289842E+02 -0.20198956324E+02  0.31886079142E+02  0.00000000000E+00 0.  1.
         11    1    3    3    0    0 -0.19563614939E+02  0.49270848341E+01  0.14680097078E+02  0.24950279455E+02  0.51100000000E-03 0. -1.
        -11    1    3    3    0    0  0.47649619323E+00  0.19564925448E+02 -0.65325953595E+01  0.20632211680E+02  0.51100000000E-03 0.  1.
         12    1    3    3    0    0  0.50086124181E+01 -0.42307204399E+01  0.12051454606E+02  0.13719429723E+02  0.00000000000E+00 0. -1.
</event>
<event>
 7    1  0.6953847E-012  0.5930195E+02  0.7816164E-02  0.1266605E+00
        -11   -1    0    0    0    0  0.00000000000E+00  0.00000000000E+00  0.45593999997E+02  0.45594000000E+02  0.51100000000E-03 0.  1.
         11   -1    0    0    0    0 -0.00000000000E+00 -0.00000000000E+00 -0.45593999997E+02  0.45594000000E+02  0.51100000000E-03 0. -1.
    9900012    2    1    2    0    0 -0.12704461358E+02  0.85221018094E+01 -0.27976606855E+02  0.59301951503E+02  0.50000013633E+02 0.  0.
        -12    1    1    2    0    0  0.12704461358E+02 -0.85221018094E+01  0.27976606855E+02  0.31886048497E+02  0.00000000000E+00 0.  1.
         11    1    3    3    0    0  0.95546245234E+00  0.60035412194E+01 -0.80834968762E+01  0.10114264070E+02  0.51100000000E-03 0. -1.
        -11    1    3    3    0    0 -0.20572908332E+02  0.69011153669E+01 -0.29465152102E+02  0.36593238982E+02  0.51100000000E-03 0.  1.
        -12    1    3    3    0    0  0.69129845221E+01 -0.43825547769E+01  0.95720421231E+01  0.12594448451E+02  0.00000000000E+00 0.  1.
</event>
<event>
 7    1  0.6953847E-012  0.5930190E+02  0.7816164E-02  0.1266605E+00
        -11   -1    0    0    0    0  0.00000000000E+00  0.00000000000E+00  0.45593999997E+02  0.45594000000E+02  0.51100000000E-03 0.  1.
         11   -1    0    0    0    0 -0.00000000000E+00 -0.00000000000E+00 -0.45593999997E+02  0.45594000000E+02  0.51100000000E-03 0. -1.
    9900012    2    1    2    0    0  0.62742730883E+01 -0.37490182558E+01 -0.31037097896E+02  0.59301904497E+02  0.49999927905E+02 0.  0.
        -12    1    1    2    0    0 -0.62742730883E+01  0.37490182558E+01  0.31037097896E+02  0.31886095503E+02  0.00000000000E+00 0.  1.
         11    1    3    3    0    0 -0.46639628943E+01 -0.20441717968E-01 -0.13837794441E+02  0.14602654656E+02  0.51100000000E-03 0. -1.
        -11    1    3    3    0    0  0.10122326443E+02 -0.62269188092E+01 -0.29666328740E+02  0.31958208205E+02  0.51100000000E-03 0.  1.
        -12    1    3    3    0    0  0.81590953988E+00  0.24983422713E+01  0.12467025286E+02  0.12741041636E+02  0.00000000000E+00 0.  1.
</event>
<event>
 7    1  0.6953847E-012  0.5930195E+02  0.7816164E-02  0.1266605E+00
        -11   -1    0    0    0    0  0.00000000000E+00  0.00000000000E+00  0.45593999997E+02  0.45594000000E+02  0.51100000000E-03 0.  1.
         11   -1    0    0    0    0 -0.00000000000E+00 -0.00000000000E+00 -0.45593999997E+02  0.45594000000E+02  0.51100000000E-03 0. -1.
    9900012    2    1    2    0    0 -0.22985220903E+02 -0.20811037652E+02 -0.74364443058E+01  0.59301947061E+02  0.50000005532E+02 0.  0.
        -12    1    1    2    0    0  0.22985220903E+02  0.20811037652E+02  0.74364443058E+01  0.31886052939E+02  0.00000000000E+00 0.  1.
         11    1    3    3    0    0  0.27455708811E+01  0.85510299616E+00 -0.39465811997E+00  0.29026050179E+01  0.51100000000E-03 0. -1.
        -11    1    3    3    0    0  0.95761417707E+01 -0.12959410724E+02 -0.11451519308E+02  0.19768310809E+02  0.51100000000E-03 0.  1.
        -12    1    3    3    0    0 -0.35306933555E+02 -0.87067299239E+01  0.44097331226E+01  0.36631031234E+02  0.00000000000E+00 0.  1.
</event>
<event>
 7    1  0.6953847E-012  0.5930189E+02  0.7816164E-02  0.1266605E+00
        -11   -1    0    0    0    0  0.00000000000E+00  0.00000000000E+00  0.45593999997E+02  0.45594000000E+02  0.51100000000E-03 0.  1.
         11   -1    0    0    0    0 -0.00000000000E+00 -0.00000000000E+00 -0.45593999997E+02  0.45594000000E+02  0.51100000000E-03 0. -1.
    9900012    2    1    2    0    0  0.17388461004E+02 -0.24259229992E+02 -0.11218509564E+02  0.59301893735E+02  0.49999908278E+02 0.  0.
        -12    1    1    2    0    0 -0.17388461004E+02  0.24259229992E+02  0.11218509564E+02  0.31886106265E+02  0.00000000000E+00 0.  1.
         11    1    3    3    0    0  0.14623259821E+01  0.82512992766E+01 -0.63430882373E+01  0.10509857548E+02  0.51100000000E-03 0. -1.
        -11    1    3    3    0    0 -0.43492663927E+00 -0.32132737347E+02 -0.42410254323E+01  0.32414321951E+02  0.51100000000E-03 0.  1.
         12    1    3    3    0    0  0.16361061662E+02 -0.37779192144E+00 -0.63439589458E+00  0.16377714236E+02  0.00000000000E+00 0. -1.
</event>
<event>
 7    1  0.6953847E-012  0.5930196E+02  0.7816164E-02  0.1266605E+00
        -11   -1    0    0    0    0  0.00000000000E+00  0.00000000000E+00  0.45593999997E+02  0.45594000000E+02  0.51100000000E-03 0. -1.
         11   -1    0    0    0    0 -0.00000000000E+00 -0.00000000000E+00 -0.45593999997E+02  0.45594000000E+02  0.51100000000E-03 0.  1.
    9900012    2    1    2    0    0  0.11401172231E+01 -0.87225187326E-01  0.31865535208E+02  0.59301955880E+02  0.50000021616E+02 0.  0.
        -12    1    1    2    0    0 -0.11401172231E+01  0.87225187326E-01 -0.31865535208E+02  0.31886044120E+02  0.00000000000E+00 0.  1.
         11    1    3    3    0    0  0.50114903738E+01 -0.64127414552E+01  0.43443984635E+00  0.81502777241E+01  0.51100000000E-03 0. -1.
        -11    1    3    3    0    0  0.10313354280E+02 -0.96003151416E+01  0.11811321994E+01  0.14139533262E+02  0.51100000000E-03 0.  1.
         12    1    3    3    0    0 -0.14184727431E+02  0.15925831410E+02  0.30249963162E+02  0.37012144894E+02  0.00000000000E+00 0. -1.
</event>
<event>
 7    1  0.6953847E-012  0.5930197E+02  0.7816164E-02  0.1266605E+00
        -11   -1    0    0    0    0  0.00000000000E+00  0.00000000000E+00  0.45593999997E+02  0.45594000000E+02  0.51100000000E-03 0.  1.
         11   -1    0    0    0    0 -0.00000000000E+00 -0.00000000000E+00 -0.45593999997E+02  0.45594000000E+02  0.51100000000E-03 0. -1.
    9900012    2    1    2    0    0  0.11742831152E+02 -0.97161842282E+01 -0.28007514292E+02  0.59301965812E+02  0.50000039730E+02 0.  0.
        -12    1    1    2    0    0 -0.11742831152E+02  0.97161842282E+01  0.28007514292E+02  0.31886034188E+02  0.00000000000E+00 0.  1.
         11    1    3    3    0    0  0.23253860186E+02 -0.85499384033E+01 -0.28684014174E+01  0.24941354959E+02  0.51100000000E-03 0. -1.
        -11    1    3    3    0    0  0.21311639459E+01 -0.10040986518E+01  0.25629272976E+01  0.34811880818E+01  0.51100000000E-03 0.  1.
         12    1    3    3    0    0 -0.13642192980E+02 -0.16214717317E+00 -0.27702040172E+02  0.30879422771E+02  0.00000000000E+00 0. -1.
</event>
<event>
 7    1  0.6953847E-012  0.5930194E+02  0.7816164E-02  0.1266605E+00
        -11   -1    0    0    0    0  0.00000000000E+00  0.00000000000E+00  0.45593999997E+02  0.45594000000E+02  0.51100000000E-03 0.  1.
         11   -1    0    0    0    0 -0.00000000000E+00 -0.00000000000E+00 -0.45593999997E+02  0.45594000000E+02  0.51100000000E-03 0. -1.
    9900012    2    1    2    0    0  0.11860817558E+02 -0.14259012896E+02 -0.25936889845E+02  0.59301941969E+02  0.49999996245E+02 0.  0.
        -12    1    1    2    0    0 -0.11860817558E+02  0.14259012896E+02  0.25936889845E+02  0.31886058031E+02  0.00000000000E+00 0.  1.
         11    1    3    3    0    0 -0.67585899701E+01 -0.23723971189E+02 -0.14593946495E+02  0.28661622807E+02  0.51100000000E-03 0. -1.
        -11    1    3    3    0    0  0.14821673666E+02  0.31506214618E+01 -0.15910038985E+02  0.21971294150E+02  0.51100000000E-03 0.  1.
        -12    1    3    3    0    0  0.37977338621E+01  0.63143368311E+01  0.45670956354E+01  0.86690250113E+01  0.00000000000E+00 0.  1.
</event>
<event>
 7    1  0.6953847E-012  0.5930193E+02  0.7816164E-02  0.1266605E+00
        -11   -1    0    0    0    0  0.00000000000E+00  0.00000000000E+00  0.45593999997E+02  0.45594000000E+02  0.51100000000E-03 0.  1.
         11   -1    0    0    0    0 -0.00000000000E+00 -0.00000000000E+00 -0.45593999997E+02  0.45594000000E+02  0.51100000000E-03 0. -1.
    9900012    2    1    2    0    0  0.13069146278E+02 -0.27326351415E+02 -0.99593748229E+01  0.59301933874E+02  0.49999981482E+02 0.  0.
        -12    1    1    2    0    0 -0.13069146278E+02  0.27326351415E+02  0.99593748229E+01  0.31886066126E+02  0.00000000000E+00 0.  1.
         11    1    3    3    0    0 -0.59651557152E+01 -0.14750582364E+02  0.10622385993E+02  0.19131070206E+02  0.51100000000E-03 0. -1.
        -11    1    3    3    0    0  0.90287396648E+01 -0.10152697238E+01  0.49984234920E+01  0.10369819199E+02  0.51100000000E-03 0.  1.
         12    1    3    3    0    0  0.10005562329E+02 -0.11560499328E+02 -0.25580184308E+02  0.29801044470E+02  0.00000000000E+00 0. -1.
</event>
<event>
 7    1  0.6953847E-012  0.5930195E+02  0.7816164E-02  0.1266605E+00
        -11   -1    0    0    0    0  0.00000000000E+00  0.00000000000E+00  0.45593999997E+02  0.45594000000E+02  0.51100000000E-03 0. -1.
         11   -1    0    0    0    0 -0.00000000000E+00 -0.00000000000E+00 -0.45593999997E+02  0.45594000000E+02  0.51100000000E-03 0.  1.
    9900012    2    1    2    0    0  0.14208050883E+02  0.45448926065E+01  0.28181468099E+02  0.59301954417E+02  0.50000018947E+02 0.  0.
        -12    1    1    2    0    0 -0.14208050883E+02 -0.45448926065E+01 -0.28181468099E+02  0.31886045583E+02  0.00000000000E+00 0.  1.
         11    1    3    3    0    0 -0.71905627415E+01 -0.76286044339E+01  0.12995929335E+01  0.10563557176E+02  0.51100000000E-03 0. -1.
        -11    1    3    3    0    0  0.13216174089E+02 -0.39500824681E+01 -0.27122112849E+01  0.14057969248E+02  0.51100000000E-03 0.  1.
        -12    1    3    3    0    0  0.81824395354E+01  0.16123579509E+02  0.29594086451E+02  0.34680427993E+02  0.00000000000E+00 0.  1.
</event>
<event>
 7    1  0.6953847E-012  0.5930191E+02  0.7816164E-02  0.1266605E+00
        -11   -1    0    0    0    0  0.00000000000E+00  0.00000000000E+00  0.45593999997E+02  0.45594000000E+02  0.51100000000E-03 0. -1.
         11   -1    0    0    0    0 -0.00000000000E+00 -0.00000000000E+00 -0.45593999997E+02  0.45594000000E+02  0.51100000000E-03 0.  1.
    9900012    2    1    2    0    0 -0.25197528186E+02  0.19268076929E+02  0.32478745120E+01  0.59301907356E+02  0.49999933120E+02 0.  0.
        -12    1    1    2    0    0  0.25197528186E+02 -0.19268076929E+02 -0.32478745120E+01  0.31886092644E+02  0.00000000000E+00 0.  1.
         11    1    3    3    0    0  0.57531259497E+01  0.22108131563E+01  0.66581433695E+01  0.90728731059E+01  0.51100000000E-03 0. -1.
        -11    1    3    3    0    0 -0.80323791201E+00  0.11236332371E+02 -0.13800489866E+02  0.17814428901E+02  0.51100000000E-03 0.  1.
         12    1    3    3    0    0 -0.30147416224E+02  0.58209314026E+01  0.10390221008E+02  0.32414605349E+02  0.00000000000E+00 0. -1.
</event>
<event>
 7    1  0.6953847E-012  0.5930194E+02  0.7816164E-02  0.1266605E+00
        -11   -1    0    0    0    0  0.00000000000E+00  0.00000000000E+00  0.45593999997E+02  0.45594000000E+02  0.51100000000E-03 0.  1.
         11   -1    0    0    0    0 -0.00000000000E+00 -0.00000000000E+00 -0.45593999997E+02  0.45594000000E+02  0.51100000000E-03 0. -1.
    9900012    2    1    2    0    0 -0.19956473179E+02  0.13381416037E+02 -0.20961813251E+02  0.59301941422E+02  0.49999995247E+02 0.  0.
        -12    1    1    2    0    0  0.19956473179E+02 -0.13381416037E+02  0.20961813251E+02  0.31886058578E+02  0.00000000000E+00 0.  1.
         11    1    3    3    0    0 -0.13588982860E+02 -0.47615046741E+01 -0.33510678015E+00  0.14402939934E+02  0.51100000000E-03 0.  1.
        -11    1    3    3    0    0  0.93025301325E+01  0.15552022761E+02 -0.22517611287E+02  0.28904070599E+02  0.51100000000E-03 0. -1.
         12    1    3    3    0    0 -0.15670020451E+02  0.25908979498E+01  0.18909048160E+01  0.15994930889E+02  0.00000000000E+00 0. -1.
</event>
<event>
 7    1  0.6953847E-012  0.5930190E+02  0.7816164E-02  0.1266605E+00
        -11   -1    0    0    0    0  0.00000000000E+00  0.00000000000E+00  0.45593999997E+02  0.45594000000E+02  0.51100000000E-03 0.  1.
         11   -1    0    0    0    0 -0.00000000000E+00 -0.00000000000E+00 -0.45593999997E+02  0.45594000000E+02  0.51100000000E-03 0. -1.
    9900012    2    1    2    0    0 -0.84819087712E+01 -0.26824565830E+02 -0.15007432026E+02  0.59301903901E+02  0.49999926819E+02 0.  0.
        -12    1    1    2    0    0  0.84819087712E+01  0.26824565830E+02  0.15007432026E+02  0.31886096099E+02  0.00000000000E+00 0.  1.
         11    1    3    3    0    0  0.13867045258E+02 -0.10219192938E+02 -0.22342475636E+02  0.28211931276E+02  0.51100000000E-03 0. -1.
        -11    1    3    3    0    0 -0.16058556182E+00 -0.37689994705E+01 -0.13772981797E+01  0.40159799886E+01  0.51100000000E-03 0.  1.
        -12    1    3    3    0    0 -0.22188368467E+02 -0.12836373422E+02  0.87123417898E+01  0.27073992637E+02  0.00000000000E+00 0.  1.
</event>
<event>
 7    1  0.6953847E-012  0.5930195E+02  0.7816164E-02  0.1266605E+00
        -11   -1    0    0    0    0  0.00000000000E+00  0.00000000000E+00  0.45593999997E+02  0.45594000000E+02  0.51100000000E-03 0. -1.
         11   -1    0    0    0    0 -0.00000000000E+00 -0.00000000000E+00 -0.45593999997E+02  0.45594000000E+02  0.51100000000E-03 0.  1.
    9900012    2    1    2    0    0 -0.44942237264E+01 -0.22272945007E+02  0.22370476262E+02  0.59301947651E+02  0.50000006608E+02 0.  0.
        -12    1    1    2    0    0  0.44942237264E+01  0.22272945007E+02 -0.22370476262E+02  0.31886052349E+02  0.00000000000E+00 0.  1.
         11    1    3    3    0    0 -0.52943462609E+01 -0.15539110666E+02  0.10362722141E+02  0.19413399317E+02  0.51100000000E-03 0. -1.
        -11    1    3    3    0    0 -0.85164110877E+00  0.27420588488E+01 -0.12885521429E+02  0.13201546957E+02  0.51100000000E-03 0.  1.
         12    1    3    3    0    0  0.16517636433E+01 -0.94758931897E+01  0.24893275550E+02  0.26687001377E+02  0.00000000000E+00 0. -1.
</event>
<event>
 7    1  0.6953847E-012  0.5930194E+02  0.7816164E-02  0.1266605E+00
        -11   -1    0    0    0    0  0.00000000000E+00  0.00000000000E+00  0.45593999997E+02  0.45594000000E+02  0.51100000000E-03 0.  1.
         11   -1    0    0    0    0 -0.00000000000E+00 -0.00000000000E+00 -0.45593999997E+02  0.45594000000E+02  0.51100000000E-03 0. -1.
    9900012    2    1    2    0    0  0.18721477878E+02 -0.45812208145E+01 -0.25401564661E+02  0.59301940267E+02  0.49999993141E+02 0.  0.
        -12    1    1    2    0    0 -0.18721477878E+02  0.45812208145E+01  0.25401564661E+02  0.31886059733E+02  0.00000000000E+00 0.  1.
         11    1    3    3    0    0  0.21498854871E+01 -0.11969573705E+02  0.79548361770E+00  0.12187103706E+02  0.51100000000E-03 0. -1.
        -11    1    3    3    0    0 -0.57615008848E+01  0.11425934720E+01  0.53610787315E+01  0.79524573381E+01  0.51100000000E-03 0.  1.
         12    1    3    3    0    0  0.22333093276E+02  0.62457594188E+01 -0.31558127010E+02  0.39162379223E+02  0.00000000000E+00 0. -1.
</event>
<event>
 7    1  0.6953847E-012  0.5930193E+02  0.7816164E-02  0.1266605E+00
        -11   -1    0    0    0    0  0.00000000000E+00  0.00000000000E+00  0.45593999997E+02  0.45594000000E+02  0.51100000000E-03 0. -1.
         11   -1    0    0    0    0 -0.00000000000E+00 -0.00000000000E+00 -0.45593999997E+02  0.45594000000E+02  0.51100000000E-03 0.  1.
    9900012    2    1    2    0    0  0.27425720320E+02 -0.11691721058E+02 -0.11307283735E+02  0.59301934990E+02  0.49999983517E+02 0.  0.
        -12    1    1    2    0    0 -0.27425720320E+02  0.11691721058E+02  0.11307283735E+02  0.31886065010E+02  0.00000000000E+00 0.  1.
         11    1    3    3    0    0  0.30099130221E+02 -0.10459256623E+02 -0.21869514242E+01  0.31939574918E+02  0.51100000000E-03 0. -1.
        -11    1    3    3    0    0  0.43810539378E+01 -0.73574204529E+01  0.53801166963E+01  0.10112908842E+02  0.51100000000E-03 0.  1.
        -12    1    3    3    0    0 -0.70544638388E+01  0.61249560184E+01 -0.14500449007E+02  0.17249451229E+02  0.00000000000E+00 0.  1.
</event>
<event>
 7    1  0.6953847E-012  0.5930189E+02  0.7816164E-02  0.1266605E+00
        -11   -1    0    0    0    0  0.00000000000E+00  0.00000000000E+00  0.45593999997E+02  0.45594000000E+02  0.51100000000E-03 0.  1.
         11   -1    0    0    0    0 -0.00000000000E+00 -0.00000000000E+00 -0.45593999997E+02  0.45594000000E+02  0.51100000000E-03 0. -1.
    9900012    2    1    2    0    0 -0.19653518254E+02  0.17751904174E+02  0.17757628231E+02  0.59301886378E+02  0.49999894860E+02 0.  0.
        -12    1    1    2    0    0  0.19653518254E+02 -0.17751904174E+02 -0.17757628231E+02  0.31886113622E+02  0.00000000000E+00 0.  1.
         11    1    3    3    0    0 -0.26662590059E+01  0.69982230903E-01 -0.29477112489E+01  0.39752781622E+01  0.51100000000E-03 0. -1.
        -11    1    3    3    0    0 -0.16596877206E+01  0.27016043514E+02 -0.10958913764E+01  0.27089151863E+02  0.51100000000E-03 0.  1.
         12    1    3    3    0    0 -0.15327571527E+02 -0.93341215712E+01  0.21801230856E+02  0.28237456353E+02  0.00000000000E+00 0. -1.
</event>
<event>
 7    1  0.6953847E-012  0.5930194E+02  0.7816164E-02  0.1266605E+00
        -11   -1    0    0    0    0  0.00000000000E+00  0.00000000000E+00  0.45593999997E+02  0.45594000000E+02  0.51100000000E-03 0. -1.
         11   -1    0    0    0    0 -0.00000000000E+00 -0.00000000000E+00 -0.45593999997E+02  0.45594000000E+02  0.51100000000E-03 0.  1.
    9900012    2    1    2    0    0 -0.12960091593E+02 -0.24871469556E+02  0.15171249417E+02  0.59301940650E+02  0.49999993840E+02 0.  0.
        -12    1    1    2    0    0  0.12960091593E+02  0.24871469556E+02 -0.15171249417E+02  0.31886059350E+02  0.00000000000E+00 0.  1.
         11    1    3    3    0    0  0.18181520271E+02 -0.56746671799E+01  0.71652162782E+01  0.20349689225E+02  0.51100000000E-03 0. -1.
        -11    1    3    3    0    0 -0.14462340451E+02 -0.34031358287E+01  0.80312984975E+00  0.14879033658E+02  0.51100000000E-03 0.  1.
        -12    1    3    3    0    0 -0.16679271413E+02 -0.15793666547E+02  0.72029032893E+01  0.24073217767E+02  0.00000000000E+00 0.  1.
</event>
<event>
 7    1  0.6953847E-012  0.5930194E+02  0.7816164E-02  0.1266605E+00
        -11   -1    0    0    0    0  0.00000000000E+00  0.00000000000E+00  0.45593999997E+02  0.45594000000E+02  0.51100000000E-03 0.  1.
         11   -1    0    0    0    0 -0.00000000000E+00 -0.00000000000E+00 -0.45593999997E+02  0.45594000000E+02  0.51100000000E-03 0. -1.
    9900012    2    1    2    0    0  0.18595162835E+02 -0.25421976486E+02 -0.49662972372E+01  0.59301935997E+02  0.49999985354E+02 0.  0.
        -12    1    1    2    0    0 -0.18595162835E+02  0.25421976486E+02  0.49662972372E+01  0.31886064003E+02  0.00000000000E+00 0.  1.
         11    1    3    3    0    0 -0.22550285889E+00 -0.30716187887E+02 -0.14261180242E+02  0.33866152896E+02  0.51100000000E-03 0. -1.
        -11    1    3    3    0    0 -0.20363804052E+01  0.12995444660E+01  0.13102270754E+01  0.27481550582E+01  0.51100000000E-03 0.  1.
        -12    1    3    3    0    0  0.20857046099E+02  0.39946669346E+01  0.79846559291E+01  0.22687628043E+02  0.00000000000E+00 0.  1.
</event>
<event>
 7    1  0.6953847E-012  0.5930210E+02  0.7816164E-02  0.1266604E+00
        -11   -1    0    0    0    0  0.00000000000E+00  0.00000000000E+00  0.45593999997E+02  0.45594000000E+02  0.51100000000E-03 0.  1.
         11   -1    0    0    0    0 -0.00000000000E+00 -0.00000000000E+00 -0.45593999997E+02  0.45594000000E+02  0.51100000000E-03 0. -1.
    9900012    2    1    2    0    0  0.48544455801E+01  0.41131935128E+01 -0.31244626479E+02  0.59302098937E+02  0.50000282517E+02 0.  0.
        -12    1    1    2    0    0 -0.48544455801E+01 -0.41131935128E+01  0.31244626479E+02  0.31885901063E+02  0.00000000000E+00 0.  1.
         11    1    3    3    0    0 -0.43763466650E+01 -0.12635794088E+02 -0.14968047042E+02  0.20071326186E+02  0.51100000000E-03 0. -1.
        -11    1    3    3    0    0  0.85197801517E+01 -0.49085635659E+01  0.29456994380E+01  0.10264394554E+02  0.51100000000E-03 0.  1.
         12    1    3    3    0    0  0.71101209340E+00  0.21657551166E+02 -0.19222278876E+02  0.28966378198E+02  0.00000000000E+00 0. -1.
</event>
<event>
 7    1  0.6953847E-012  0.5930198E+02  0.7816164E-02  0.1266605E+00
        -11   -1    0    0    0    0  0.00000000000E+00  0.00000000000E+00  0.45593999997E+02  0.45594000000E+02  0.51100000000E-03 0.  1.
         11   -1    0    0    0    0 -0.00000000000E+00 -0.00000000000E+00 -0.45593999997E+02  0.45594000000E+02  0.51100000000E-03 0. -1.
    9900012    2    1    2    0    0  0.28589583931E+02  0.13665833617E+02 -0.35495336195E+01  0.59301976310E+02  0.50000058876E+02 0.  0.
        -12    1    1    2    0    0 -0.28589583931E+02 -0.13665833617E+02  0.35495336195E+01  0.31886023690E+02  0.00000000000E+00 0.  1.
         11    1    3    3    0    0  0.33015743456E+01  0.59606791909E+01 -0.11831616974E+02  0.13653470257E+02  0.51100000000E-03 0. -1.
        -11    1    3    3    0    0  0.23900180124E+02  0.17922233068E+02  0.14913522813E+02  0.33389193027E+02  0.51100000000E-03 0.  1.
         12    1    3    3    0    0  0.13878294620E+01 -0.10217078641E+02 -0.66314394583E+01  0.12259313026E+02  0.00000000000E+00 0. -1.
</event>
<event>
 7    1  0.6953847E-012  0.5930196E+02  0.7816164E-02  0.1266605E+00
        -11   -1    0    0    0    0  0.00000000000E+00  0.00000000000E+00  0.45593999997E+02  0.45594000000E+02  0.51100000000E-03 0. -1.
         11   -1    0    0    0    0 -0.00000000000E+00 -0.00000000000E+00 -0.45593999997E+02  0.45594000000E+02  0.51100000000E-03 0.  1.
    9900012    2    1    2    0    0  0.18291639210E+02  0.23730226752E+02  0.10909240447E+02  0.59301964595E+02  0.50000037510E+02 0.  0.
        -12    1    1    2    0    0 -0.18291639210E+02 -0.23730226752E+02 -0.10909240447E+02  0.31886035405E+02  0.00000000000E+00 0.  1.
         11    1    3    3    0    0  0.61442818178E+01  0.11016868020E+01  0.10111088979E+01  0.63236266755E+01  0.51100000000E-03 0. -1.
        -11    1    3    3    0    0  0.12572443987E+02 -0.11995005601E+02  0.22978514553E+01  0.17527881468E+02  0.51100000000E-03 0.  1.
        -12    1    3    3    0    0 -0.42508659457E+00  0.34623545551E+02  0.76002800939E+01  0.35450456452E+02  0.00000000000E+00 0.  1.
</event>
<event>
 7    1  0.6953847E-012  0.5930196E+02  0.7816164E-02  0.1266605E+00
        -11   -1    0    0    0    0  0.00000000000E+00  0.00000000000E+00  0.45593999997E+02  0.45594000000E+02  0.51100000000E-03 0. -1.
         11   -1    0    0    0    0 -0.00000000000E+00 -0.00000000000E+00 -0.45593999997E+02  0.45594000000E+02  0.51100000000E-03 0.  1.
    9900012    2    1    2    0    0 -0.15694662172E+02 -0.51468427486E+01  0.27274665468E+02  0.59301956229E+02  0.50000022252E+02 0.  0.
        -12    1    1    2    0    0  0.15694662172E+02  0.51468427486E+01 -0.27274665468E+02  0.31886043771E+02  0.00000000000E+00 0.  1.
         11    1    3    3    0    0 -0.37577385903E+01 -0.90694234207E+01  0.99333326560E+00  0.98672058727E+01  0.51100000000E-03 0.  1.
        -11    1    3    3    0    0  0.12784340305E+02 -0.23786721903E+01  0.18780838895E+02  0.22843321744E+02  0.51100000000E-03 0. -1.
        -12    1    3    3    0    0 -0.24721263887E+02  0.63012528625E+01  0.75004933072E+01  0.26591428612E+02  0.00000000000E+00 0.  1.
</event>
<event>
 7    1  0.6953847E-012  0.5930195E+02  0.7816164E-02  0.1266605E+00
        -11   -1    0    0    0    0  0.00000000000E+00  0.00000000000E+00  0.45593999997E+02  0.45594000000E+02  0.51100000000E-03 0.  1.
         11   -1    0    0    0    0 -0.00000000000E+00 -0.00000000000E+00 -0.45593999997E+02  0.45594000000E+02  0.51100000000E-03 0. -1.
    9900012    2    1    2    0    0  0.26779155967E+01  0.29862201714E+02 -0.10853476092E+02  0.59301948717E+02  0.50000008552E+02 0.  0.
        -12    1    1    2    0    0 -0.26779155967E+01 -0.29862201714E+02  0.10853476092E+02  0.31886051283E+02  0.00000000000E+00 0.  1.
         11    1    3    3    0    0  0.13966165791E+01  0.16391892480E+02 -0.49083086282E+01  0.17167881954E+02  0.51100000000E-03 0. -1.
        -11    1    3    3    0    0 -0.59310279775E+01  0.25227981165E+02 -0.99667899254E+01  0.27766257008E+02  0.51100000000E-03 0.  1.
        -12    1    3    3    0    0  0.72123269951E+01 -0.11757671932E+02  0.40216224612E+01  0.14367809755E+02  0.00000000000E+00 0.  1.
</event>
<event>
 7    1  0.6953847E-012  0.5930202E+02  0.7816164E-02  0.1266605E+00
        -11   -1    0    0    0    0  0.00000000000E+00  0.00000000000E+00  0.45593999997E+02  0.45594000000E+02  0.51100000000E-03 0.  1.
         11   -1    0    0    0    0 -0.00000000000E+00 -0.00000000000E+00 -0.45593999997E+02  0.45594000000E+02  0.51100000000E-03 0. -1.
    9900012    2    1    2    0    0  0.30261641381E+00 -0.85022003597E+01 -0.30730065053E+02  0.59302017409E+02  0.50000133830E+02 0.  0.
        -12    1    1    2    0    0 -0.30261641381E+00  0.85022003597E+01  0.30730065053E+02  0.31885982591E+02  0.00000000000E+00 0.  1.
         11    1    3    3    0    0  0.71112654918E+01  0.17515555628E+01 -0.31479424620E+01  0.79716739641E+01  0.51100000000E-03 0.  1.
        -11    1    3    3    0    0  0.49288242431E+01  0.14802642733E+02 -0.10680450532E+02  0.18907235761E+02  0.51100000000E-03 0. -1.
        -12    1    3    3    0    0 -0.11737473321E+02 -0.25056398655E+02 -0.16901672058E+02  0.32423107684E+02  0.00000000000E+00 0.  1.
</event>
<event>
 7    1  0.6953847E-012  0.5930196E+02  0.7816164E-02  0.1266605E+00
        -11   -1    0    0    0    0  0.00000000000E+00  0.00000000000E+00  0.45593999997E+02  0.45594000000E+02  0.51100000000E-03 0. -1.
         11   -1    0    0    0    0 -0.00000000000E+00 -0.00000000000E+00 -0.45593999997E+02  0.45594000000E+02  0.51100000000E-03 0.  1.
    9900012    2    1    2    0    0  0.12455981924E+02  0.26274127096E+02 -0.13085815050E+02  0.59301956096E+02  0.50000022009E+02 0.  0.
        -12    1    1    2    0    0 -0.12455981924E+02 -0.26274127096E+02  0.13085815050E+02  0.31886043904E+02  0.00000000000E+00 0.  1.
         11    1    3    3    0    0 -0.99217989420E+01  0.24385649055E+02 -0.55825175686E+01  0.26912199403E+02  0.51100000000E-03 0.  1.
        -11    1    3    3    0    0 -0.16616700394E+01 -0.12843238046E+01  0.47705666970E+01  0.52123835072E+01  0.51100000000E-03 0. -1.
         12    1    3    3    0    0  0.24039450905E+02  0.31728018462E+01 -0.12273864178E+02  0.27177373185E+02  0.00000000000E+00 0. -1.
</event>
<event>
 7    1  0.6953847E-012  0.5930190E+02  0.7816164E-02  0.1266605E+00
        -11   -1    0    0    0    0  0.00000000000E+00  0.00000000000E+00  0.45593999997E+02  0.45594000000E+02  0.51100000000E-03 0.  1.
         11   -1    0    0    0    0 -0.00000000000E+00 -0.00000000000E+00 -0.45593999997E+02  0.45594000000E+02  0.51100000000E-03 0. -1.
    9900012    2    1    2    0    0  0.12940709099E+02  0.12224710199E+02 -0.26454068705E+02  0.59301902050E+02  0.49999923443E+02 0.  0.
        -12    1    1    2    0    0 -0.12940709099E+02 -0.12224710199E+02  0.26454068705E+02  0.31886097950E+02  0.00000000000E+00 0.  1.
         11    1    3    3    0    0 -0.97568807527E+01  0.42204203576E+01  0.20942652105E+01  0.10834879651E+02  0.51100000000E-03 0. -1.
        -11    1    3    3    0    0 -0.40563506695E+01 -0.43893863595E+01  0.17119559910E+01  0.62170320044E+01  0.51100000000E-03 0.  1.
         12    1    3    3    0    0  0.26753940521E+02  0.12393676201E+02 -0.30260289906E+02  0.42249990395E+02  0.00000000000E+00 0. -1.
</event>
<event>
 7    1  0.6953847E-012  0.5930196E+02  0.7816164E-02  0.1266605E+00
        -11   -1    0    0    0    0  0.00000000000E+00  0.00000000000E+00  0.45593999997E+02  0.45594000000E+02  0.51100000000E-03 0.  1.
         11   -1    0    0    0    0 -0.00000000000E+00 -0.00000000000E+00 -0.45593999997E+02  0.45594000000E+02  0.51100000000E-03 0. -1.
    9900012    2    1    2    0    0 -0.23825005029E+02 -0.16046080816E+02 -0.13842396997E+02  0.59301960283E+02  0.50000029647E+02 0.  0.
        -12    1    1    2    0    0  0.23825005029E+02  0.16046080816E+02  0.13842396997E+02  0.31886039717E+02  0.00000000000E+00 0.  1.
         11    1    3    3    0    0 -0.67935229029E+01 -0.15702071602E+02 -0.15044544012E+02  0.22782565940E+02  0.51100000000E-03 0. -1.
        -11    1    3    3    0    0 -0.15340248470E+01  0.21045962985E+01  0.15243319726E+02  0.15464195884E+02  0.51100000000E-03 0.  1.
         12    1    3    3    0    0 -0.15497457279E+02 -0.24486055124E+01 -0.14041172711E+02  0.21055198459E+02  0.00000000000E+00 0. -1.
</event>
<event>
 7    1  0.6953847E-012  0.5930190E+02  0.7816164E-02  0.1266605E+00
        -11   -1    0    0    0    0  0.00000000000E+00  0.00000000000E+00  0.45593999997E+02  0.45594000000E+02  0.51100000000E-03 0.  1.
         11   -1    0    0    0    0 -0.00000000000E+00 -0.00000000000E+00 -0.45593999997E+02  0.45594000000E+02  0.51100000000E-03 0. -1.
    9900012    2    1    2    0    0 -0.13668415398E+02  0.26960026719E+01 -0.28681514580E+02  0.59301901329E+02  0.49999922127E+02 0.  0.
        -12    1    1    2    0    0  0.13668415398E+02 -0.26960026719E+01  0.28681514580E+02  0.31886098671E+02  0.00000000000E+00 0.  1.
         11    1    3    3    0    0  0.27590948142E+00 -0.17565724998E+01  0.41237220614E+00  0.18253010947E+01  0.51100000000E-03 0. -1.
        -11    1    3    3    0    0 -0.14179231177E+02 -0.20311696053E+02 -0.15589908943E+02  0.29268769267E+02  0.51100000000E-03 0.  1.
         12    1    3    3    0    0  0.23490629752E+00  0.24764271225E+02 -0.13503977843E+02  0.28207830967E+02  0.00000000000E+00 0. -1.
</event>
<event>
 7    1  0.6953847E-012  0.5930194E+02  0.7816164E-02  0.1266605E+00
        -11   -1    0    0    0    0  0.00000000000E+00  0.00000000000E+00  0.45593999997E+02  0.45594000000E+02  0.51100000000E-03 0. -1.
         11   -1    0    0    0    0 -0.00000000000E+00 -0.00000000000E+00 -0.45593999997E+02  0.45594000000E+02  0.51100000000E-03 0.  1.
    9900012    2    1    2    0    0 -0.13273140271E+02  0.38208260923E+01  0.28739278001E+02  0.59301936199E+02  0.49999985722E+02 0.  0.
        -12    1    1    2    0    0  0.13273140271E+02 -0.38208260923E+01 -0.28739278001E+02  0.31886063801E+02  0.00000000000E+00 0.  1.
         11    1    3    3    0    0 -0.48899491058E+01 -0.13292868885E+00  0.52343220108E+01  0.71643143055E+01  0.51100000000E-03 0. -1.
        -11    1    3    3    0    0 -0.16771531844E+02  0.84541999676E+01  0.33455451542E+02  0.38366978193E+02  0.51100000000E-03 0.  1.
        -12    1    3    3    0    0  0.83883406791E+01 -0.45004451864E+01 -0.99504955510E+01  0.13770643701E+02  0.00000000000E+00 0.  1.
</event>
<event>
 7    1  0.6953847E-012  0.5930184E+02  0.7816164E-02  0.1266605E+00
        -11   -1    0    0    0    0  0.00000000000E+00  0.00000000000E+00  0.45593999997E+02  0.45594000000E+02  0.51100000000E-03 0.  1.
         11   -1    0    0    0    0 -0.00000000000E+00 -0.00000000000E+00 -0.45593999997E+02  0.45594000000E+02  0.51100000000E-03 0. -1.
    9900012    2    1    2    0    0  0.29638630843E+02  0.58736818833E+01 -0.10187169618E+02  0.59301843099E+02  0.49999815929E+02 0.  0.
        -12    1    1    2    0    0 -0.29638630843E+02 -0.58736818833E+01  0.10187169618E+02  0.31886156901E+02  0.00000000000E+00 0.  1.
         11    1    3    3    0    0 -0.59569528417E+00  0.82498167031E+01 -0.13153219137E+02  0.15537744444E+02  0.51100000000E-03 0. -1.
        -11    1    3    3    0    0  0.19703237057E+02 -0.32672985163E+01 -0.13564993258E+02  0.24143360008E+02  0.51100000000E-03 0.  1.
        -12    1    3    3    0    0  0.10531089070E+02  0.89116369642E+00  0.16531042777E+02  0.19620738646E+02  0.00000000000E+00 0.  1.
</event>
<event>
 7    1  0.6953847E-012  0.5930194E+02  0.7816164E-02  0.1266605E+00
        -11   -1    0    0    0    0  0.00000000000E+00  0.00000000000E+00  0.45593999997E+02  0.45594000000E+02  0.51100000000E-03 0.  1.
         11   -1    0    0    0    0 -0.00000000000E+00 -0.00000000000E+00 -0.45593999997E+02  0.45594000000E+02  0.51100000000E-03 0. -1.
    9900012    2    1    2    0    0  0.14300790672E+02 -0.22349312489E+01 -0.28411503778E+02  0.59301935984E+02  0.49999985330E+02 0.  0.
        -12    1    1    2    0    0 -0.14300790672E+02  0.22349312489E+01  0.28411503778E+02  0.31886064016E+02  0.00000000000E+00 0.  1.
         11    1    3    3    0    0  0.91093773215E+01  0.11286897633E+02 -0.12325155266E+02  0.19033766468E+02  0.51100000000E-03 0. -1.
        -11    1    3    3    0    0  0.96079984008E+01  0.52882484437E+01 -0.17760897397E+02  0.20874115106E+02  0.51100000000E-03 0.  1.
        -12    1    3    3    0    0 -0.44165850506E+01 -0.18810077325E+02  0.16745488849E+01  0.19394054410E+02  0.00000000000E+00 0.  1.
</event>
<event>
 7    1  0.6953847E-012  0.5930192E+02  0.7816164E-02  0.1266605E+00
        -11   -1    0    0    0    0  0.00000000000E+00  0.00000000000E+00  0.45593999997E+02  0.45594000000E+02  0.51100000000E-03 0.  1.
         11   -1    0    0    0    0 -0.00000000000E+00 -0.00000000000E+00 -0.45593999997E+02  0.45594000000E+02  0.51100000000E-03 0. -1.
    9900012    2    1    2    0    0 -0.30970422430E+02 -0.11387980291E+01  0.75005484280E+01  0.59301919132E+02  0.49999954595E+02 0.  0.
        -12    1    1    2    0    0  0.30970422430E+02  0.11387980291E+01 -0.75005484280E+01  0.31886080868E+02  0.00000000000E+00 0.  1.
         11    1    3    3    0    0 -0.17689078945E+02  0.33474469723E+01 -0.52297177123E+01  0.18747236137E+02  0.51100000000E-03 0. -1.
        -11    1    3    3    0    0 -0.23112949021E+02  0.50198590474E+01  0.31579201292E+01  0.23861681774E+02  0.51100000000E-03 0.  1.
         12    1    3    3    0    0  0.98316055358E+01 -0.95061040488E+01  0.95723460111E+01  0.16693001221E+02  0.00000000000E+00 0. -1.
</event>
<event>
 7    1  0.6953847E-012  0.5930159E+02  0.7816164E-02  0.1266606E+00
        -11   -1    0    0    0    0  0.00000000000E+00  0.00000000000E+00  0.45593999997E+02  0.45594000000E+02  0.51100000000E-03 0. -1.
         11   -1    0    0    0    0 -0.00000000000E+00 -0.00000000000E+00 -0.45593999997E+02  0.45594000000E+02  0.51100000000E-03 0.  1.
    9900012    2    1    2    0    0  0.15670471804E+02  0.33084533332E+01  0.27572328826E+02  0.59301594325E+02  0.49999362221E+02 0.  0.
        -12    1    1    2    0    0 -0.15670471804E+02 -0.33084533332E+01 -0.27572328826E+02  0.31886405675E+02  0.00000000000E+00 0.  1.
         11    1    3    3    0    0  0.85346379745E+00 -0.19073219758E+02  0.23531655980E+02  0.30302721756E+02  0.51100000000E-03 0. -1.
        -11    1    3    3    0    0  0.40008843292E+01  0.14713271263E+01 -0.19782717372E+01  0.46995146830E+01  0.51100000000E-03 0.  1.
        -12    1    3    3    0    0  0.10816123677E+02  0.20910345965E+02  0.60189445829E+01  0.24299357886E+02  0.00000000000E+00 0.  1.
</event>
<event>
 7    1  0.6953847E-012  0.5930194E+02  0.7816164E-02  0.1266605E+00
        -11   -1    0    0    0    0  0.00000000000E+00  0.00000000000E+00  0.45593999997E+02  0.45594000000E+02  0.51100000000E-03 0.  1.
         11   -1    0    0    0    0 -0.00000000000E+00 -0.00000000000E+00 -0.45593999997E+02  0.45594000000E+02  0.51100000000E-03 0. -1.
    9900012    2    1    2    0    0  0.97198522519E+00 -0.70654494494E+01 -0.31078211416E+02  0.59301944176E+02  0.50000000270E+02 0.  0.
        -12    1    1    2    0    0 -0.97198522519E+00  0.70654494494E+01  0.31078211416E+02  0.31886055824E+02  0.00000000000E+00 0.  1.
         11    1    3    3    0    0  0.21153525455E+01  0.14889719881E+01 -0.53009738079E+00  0.26405979375E+01  0.51100000000E-03 0. -1.
        -11    1    3    3    0    0  0.13618456967E+02  0.96274867017E-01  0.70629876617E+01  0.15341363498E+02  0.51100000000E-03 0.  1.
         12    1    3    3    0    0 -0.14761824287E+02 -0.86506963045E+01 -0.37611101697E+02  0.41319982741E+02  0.00000000000E+00 0. -1.
</event>
<event>
 7    1  0.6953847E-012  0.5930195E+02  0.7816164E-02  0.1266605E+00
        -11   -1    0    0    0    0  0.00000000000E+00  0.00000000000E+00  0.45593999997E+02  0.45594000000E+02  0.51100000000E-03 0.  1.
         11   -1    0    0    0    0 -0.00000000000E+00 -0.00000000000E+00 -0.45593999997E+02  0.45594000000E+02  0.51100000000E-03 0. -1.
    9900012    2    1    2    0    0 -0.29789154250E+02  0.93742818633E+01  0.64381310466E+01  0.59301946579E+02  0.50000004653E+02 0.  0.
        -12    1    1    2    0    0  0.29789154250E+02 -0.93742818633E+01 -0.64381310466E+01  0.31886053421E+02  0.00000000000E+00 0.  1.
         11    1    3    3    0    0 -0.15890166885E+02  0.10652519196E+02 -0.16328544169E+02  0.25151439795E+02  0.51100000000E-03 0. -1.
        -11    1    3    3    0    0 -0.84259914372E+01  0.98540588543E+01  0.13021662029E+02  0.18375622162E+02  0.51100000000E-03 0.  1.
         12    1    3    3    0    0 -0.54729959278E+01 -0.11132296187E+02  0.97450131864E+01  0.15774884622E+02  0.00000000000E+00 0. -1.
</event>
<event>
 7    1  0.6953847E-012  0.5930197E+02  0.7816164E-02  0.1266605E+00
        -11   -1    0    0    0    0  0.00000000000E+00  0.00000000000E+00  0.45593999997E+02  0.45594000000E+02  0.51100000000E-03 0. -1.
         11   -1    0    0    0    0 -0.00000000000E+00 -0.00000000000E+00 -0.45593999997E+02  0.45594000000E+02  0.51100000000E-03 0.  1.
    9900012    2    1    2    0    0 -0.30093368430E+01 -0.25407101793E+02  0.19030036372E+02  0.59301965219E+02  0.50000038647E+02 0.  0.
        -12    1    1    2    0    0  0.30093368430E+01  0.25407101793E+02 -0.19030036372E+02  0.31886034781E+02  0.00000000000E+00 0.  1.
         11    1    3    3    0    0 -0.63928571894E+01 -0.10283135205E+02  0.32599698895E+01  0.12539493476E+02  0.51100000000E-03 0. -1.
        -11    1    3    3    0    0 -0.13377253582E+02 -0.17690366022E+02  0.19349077243E+02  0.29432749681E+02  0.51100000000E-03 0.  1.
        -12    1    3    3    0    0  0.16760773928E+02  0.25663994333E+01 -0.35790107602E+01  0.17329722062E+02  0.00000000000E+00 0.  1.
</event>
<event>
 7    1  0.6953847E-012  0.5930195E+02  0.7816164E-02  0.1266605E+00
        -11   -1    0    0    0    0  0.00000000000E+00  0.00000000000E+00  0.45593999997E+02  0.45594000000E+02  0.51100000000E-03 0. -1.
         11   -1    0    0    0    0 -0.00000000000E+00 -0.00000000000E+00 -0.45593999997E+02  0.45594000000E+02  0.51100000000E-03 0.  1.
    9900012    2    1    2    0    0  0.26415611033E+02  0.79380991493E+01 -0.15997572051E+02  0.59301949196E+02  0.50000009425E+02 0.  0.
        -12    1    1    2    0    0 -0.26415611033E+02 -0.79380991493E+01  0.15997572051E+02  0.31886050804E+02  0.00000000000E+00 0.  1.
         11    1    3    3    0    0  0.49982925763E+01  0.78364378337E+01  0.12468751042E+02  0.15551927193E+02  0.51100000000E-03 0. -1.
        -11    1    3    3    0    0  0.85068395664E+01  0.90728815636E+01 -0.24592192040E+02  0.27558291110E+02  0.51100000000E-03 0.  1.
        -12    1    3    3    0    0  0.12910478890E+02 -0.89712202480E+01 -0.38741310529E+01  0.16191730894E+02  0.00000000000E+00 0.  1.
</event>
<event>
 7    1  0.6953847E-012  0.5930194E+02  0.7816164E-02  0.1266605E+00
        -11   -1    0    0    0    0  0.00000000000E+00  0.00000000000E+00  0.45593999997E+02  0.45594000000E+02  0.51100000000E-03 0. -1.
         11   -1    0    0    0    0 -0.00000000000E+00 -0.00000000000E+00 -0.45593999997E+02  0.45594000000E+02  0.51100000000E-03 0.  1.
    9900012    2    1    2    0    0  0.31116775759E+02 -0.29563441119E+01  0.63029381503E+01  0.59301941393E+02  0.49999995196E+02 0.  0.
        -12    1    1    2    0    0 -0.31116775759E+02  0.29563441119E+01 -0.63029381503E+01  0.31886058607E+02  0.00000000000E+00 0.  1.
         11    1    3    3    0    0 -0.29320377463E+01 -0.14956627547E+01 -0.45060811283E+00  0.33221830705E+01  0.51100000000E-03 0. -1.
        -11    1    3    3    0    0  0.46594716406E+01 -0.19372178984E+02 -0.31355076745E+01  0.20169863737E+02  0.51100000000E-03 0.  1.
         12    1    3    3    0    0  0.29389341865E+02  0.17911497626E+02  0.98890539376E+01  0.35809894586E+02  0.00000000000E+00 0. -1.
</event>
<event>
 7    1  0.6953847E-012  0.5930192E+02  0.7816164E-02  0.1266605E+00
        -11   -1    0    0    0    0  0.00000000000E+00  0.00000000000E+00  0.45593999997E+02  0.45594000000E+02  0.51100000000E-03 0. -1.
         11   -1    0    0    0    0 -0.00000000000E+00 -0.00000000000E+00 -0.45593999997E+02  0.45594000000E+02  0.51100000000E-03 0.  1.
    9900012    2    1    2    0    0  0.23198233265E+02  0.10904039890E+02  0.18964856884E+02  0.59301922957E+02  0.49999961573E+02 0.  0.
        -12    1    1    2    0    0 -0.23198233265E+02 -0.10904039890E+02 -0.18964856884E+02  0.31886077043E+02  0.00000000000E+00 0.  1.
         11    1    3    3    0    0 -0.51992318439E+01  0.45844133795E+01  0.50009407843E+01  0.85474128712E+01  0.51100000000E-03 0. -1.
        -11    1    3    3    0    0 -0.98507225741E+01 -0.67953353255E+00  0.36432442540E+01  0.10524814963E+02  0.51100000000E-03 0.  1.
        -12    1    3    3    0    0  0.38248187683E+02  0.69991600429E+01  0.10320671845E+02  0.40229695123E+02  0.00000000000E+00 0.  1.
</event>
<event>
 7    1  0.6953847E-012  0.5930194E+02  0.7816164E-02  0.1266605E+00
        -11   -1    0    0    0    0  0.00000000000E+00  0.00000000000E+00  0.45593999997E+02  0.45594000000E+02  0.51100000000E-03 0.  1.
         11   -1    0    0    0    0 -0.00000000000E+00 -0.00000000000E+00 -0.45593999997E+02  0.45594000000E+02  0.51100000000E-03 0. -1.
    9900012    2    1    2    0    0  0.57863866010E+00 -0.22465454525E+02 -0.22620555419E+02  0.59301937258E+02  0.49999987654E+02 0.  0.
        -12    1    1    2    0    0 -0.57863866010E+00  0.22465454525E+02  0.22620555419E+02  0.31886062742E+02  0.00000000000E+00 0.  1.
         11    1    3    3    0    0  0.57230956501E+01 -0.14531720740E+02 -0.25951343621E+02  0.30288561661E+02  0.51100000000E-03 0. -1.
        -11    1    3    3    0    0  0.73665346933E+01 -0.71614364670E+01 -0.72790525238E+01  0.12591132259E+02  0.51100000000E-03 0.  1.
        -12    1    3    3    0    0 -0.12510991683E+02 -0.77229731754E+00  0.10609840725E+02  0.16422243338E+02  0.00000000000E+00 0.  1.
</event>
<event>
 7    1  0.6953847E-012  0.5930195E+02  0.7816164E-02  0.1266605E+00
        -11   -1    0    0    0    0  0.00000000000E+00  0.00000000000E+00  0.45593999997E+02  0.45594000000E+02  0.51100000000E-03 0. -1.
         11   -1    0    0    0    0 -0.00000000000E+00 -0.00000000000E+00 -0.45593999997E+02  0.45594000000E+02  0.51100000000E-03 0.  1.
    9900012    2    1    2    0    0 -0.83492459595E+01  0.29953419361E+02  0.70571114651E+01  0.59301951927E+02  0.50000014406E+02 0.  0.
        -12    1    1    2    0    0  0.83492459595E+01 -0.29953419361E+02 -0.70571114651E+01  0.31886048073E+02  0.00000000000E+00 0.  1.
         11    1    3    3    0    0 -0.45237049656E+01 -0.40961915981E+01 -0.11129727744E+01  0.62033378823E+01  0.51100000000E-03 0. -1.
        -11    1    3    3    0    0 -0.12026892501E+02 -0.45990112568E+01  0.32840776806E+01  0.13288424069E+02  0.51100000000E-03 0.  1.
         12    1    3    3    0    0  0.82013515074E+01  0.38648622216E+02  0.48860065589E+01  0.39810189975E+02  0.00000000000E+00 0. -1.
</event>
<event>
 7    1  0.6953847E-012  0.5930193E+02  0.7816164E-02  0.1266605E+00
        -11   -1    0    0    0    0  0.00000000000E+00  0.00000000000E+00  0.45593999997E+02  0.45594000000E+02  0.51100000000E-03 0. -1.
         11   -1    0    0    0    0 -0.00000000000E+00 -0.00000000000E+00 -0.45593999997E+02  0.45594000000E+02  0.51100000000E-03 0.  1.
    9900012    2    1    2    0    0  0.25075722877E+02  0.19695182334E+02 -0.17061719588E+00  0.59301934153E+02  0.49999981991E+02 0.  0.
        -12    1    1    2    0    0 -0.25075722877E+02 -0.19695182334E+02  0.17061719588E+00  0.31886065847E+02  0.00000000000E+00 0.  1.
         11    1    3    3    0    0  0.60423934712E+01 -0.84289611518E+01  0.11291034029E+02  0.15331188951E+02  0.51100000000E-03 0. -1.
        -11    1    3    3    0    0  0.10176593062E+02  0.10567825756E+01  0.46623886871E+01  0.11243562794E+02  0.51100000000E-03 0.  1.
        -12    1    3    3    0    0  0.88567363433E+01  0.27067360911E+02 -0.16124039912E+02  0.32727182408E+02  0.00000000000E+00 0.  1.
</event>
<event>
 7    1  0.6953847E-012  0.5930193E+02  0.7816164E-02  0.1266605E+00
        -11   -1    0    0    0    0  0.00000000000E+00  0.00000000000E+00  0.45593999997E+02  0.45594000000E+02  0.51100000000E-03 0. -1.
         11   -1    0    0    0    0 -0.00000000000E+00 -0.00000000000E+00 -0.45593999997E+02  0.45594000000E+02  0.51100000000E-03 0.  1.
    9900012    2    1    2    0    0 -0.19719108022E+02  0.22572784578E+02  0.10878762822E+02  0.59301932426E+02  0.49999978841E+02 0.  0.
        -12    1    1    2    0    0  0.19719108022E+02 -0.22572784578E+02 -0.10878762822E+02  0.31886067574E+02  0.00000000000E+00 0.  1.
         11    1    3    3    0    0 -0.57683640508E+01 -0.68400207908E+01  0.43116488611E+01  0.99322819334E+01  0.51100000000E-03 0.  1.
        -11    1    3    3    0    0  0.91474648010E+01  0.16291560317E+02  0.12066259137E+02  0.22241530066E+02  0.51100000000E-03 0. -1.
        -12    1    3    3    0    0 -0.23098208772E+02  0.13121245052E+02 -0.54991451762E+01  0.27128120426E+02  0.00000000000E+00 0.  1.
</event>
<event>
 7    1  0.6953847E-012  0.5930197E+02  0.7816164E-02  0.1266605E+00
        -11   -1    0    0    0    0  0.00000000000E+00  0.00000000000E+00  0.45593999997E+02  0.45594000000E+02  0.51100000000E-03 0.  1.
         11   -1    0    0    0    0 -0.00000000000E+00 -0.00000000000E+00 -0.45593999997E+02  0.45594000000E+02  0.51100000000E-03 0. -1.
    9900012    2    1    2    0    0  0.18867723065E+02 -0.12778883941E+02 -0.22303097013E+02  0.59301968814E+02  0.50000045204E+02 0.  0.
        -12    1    1    2    0    0 -0.18867723065E+02  0.12778883941E+02  0.22303097013E+02  0.31886031186E+02  0.00000000000E+00 0.  1.
         11    1    3    3    0    0 -0.90038727132E+01 -0.65251730204E+01 -0.10077236592E+02  0.15006608690E+02  0.51100000000E-03 0. -1.
        -11    1    3    3    0    0  0.39421703758E+00 -0.10008237233E+01  0.90721276863E+01  0.91356749184E+01  0.51100000000E-03 0.  1.
         12    1    3    3    0    0  0.27477378741E+02 -0.52528871969E+01 -0.21297988107E+02  0.35159685206E+02  0.00000000000E+00 0. -1.
</event>
<event>
 7    1  0.6953847E-012  0.5930192E+02  0.7816164E-02  0.1266605E+00
        -11   -1    0    0    0    0  0.00000000000E+00  0.00000000000E+00  0.45593999997E+02  0.45594000000E+02  0.51100000000E-03 0. -1.
         11   -1    0    0    0    0 -0.00000000000E+00 -0.00000000000E+00 -0.45593999997E+02  0.45594000000E+02  0.51100000000E-03 0.  1.
    9900012    2    1    2    0    0 -0.23992190895E+01 -0.29220669335E+02  0.12534677473E+02  0.59301922977E+02  0.49999961608E+02 0.  0.
        -12    1    1    2    0    0  0.23992190895E+01  0.29220669335E+02 -0.12534677473E+02  0.31886077023E+02  0.00000000000E+00 0.  1.
         11    1    3    3    0    0  0.84788003468E+01 -0.21034026441E+02  0.38348499742E+01  0.23000573868E+02  0.51100000000E-03 0. -1.
        -11    1    3    3    0    0  0.17879239037E+01 -0.96925321321E+01 -0.97551795394E+01  0.13867421502E+02  0.51100000000E-03 0.  1.
         12    1    3    3    0    0 -0.12665943340E+02  0.15058892390E+01  0.18455007038E+02  0.22433927607E+02  0.00000000000E+00 0. -1.
</event>
<event>
 7    1  0.6953847E-012  0.5930193E+02  0.7816164E-02  0.1266605E+00
        -11   -1    0    0    0    0  0.00000000000E+00  0.00000000000E+00  0.45593999997E+02  0.45594000000E+02  0.51100000000E-03 0.  1.
         11   -1    0    0    0    0 -0.00000000000E+00 -0.00000000000E+00 -0.45593999997E+02  0.45594000000E+02  0.51100000000E-03 0. -1.
    9900012    2    1    2    0    0  0.20400082880E+02  0.99723217102E+00 -0.24485983838E+02  0.59301933167E+02  0.49999980193E+02 0.  0.
        -12    1    1    2    0    0 -0.20400082880E+02 -0.99723217102E+00  0.24485983838E+02  0.31886066833E+02  0.00000000000E+00 0.  1.
         11    1    3    3    0    0  0.59548493861E+01 -0.13537469778E+02 -0.19639602004E+02  0.24585306310E+02  0.51100000000E-03 0. -1.
        -11    1    3    3    0    0  0.12972756454E+02 -0.47160485334E+01  0.25581923657E+01  0.14038442657E+02  0.51100000000E-03 0.  1.
        -12    1    3    3    0    0  0.14724770397E+01  0.19250750482E+02 -0.74045741997E+01  0.20678184201E+02  0.00000000000E+00 0.  1.
</event>
<event>
 7    1  0.6953847E-012  0.5930193E+02  0.7816164E-02  0.1266605E+00
        -11   -1    0    0    0    0  0.00000000000E+00  0.00000000000E+00  0.45593999997E+02  0.45594000000E+02  0.51100000000E-03 0. -1.
         11   -1    0    0    0    0 -0.00000000000E+00 -0.00000000000E+00 -0.45593999997E+02  0.45594000000E+02  0.51100000000E-03 0.  1.
    9900012    2    1    2    0    0  0.17506448612E+02  0.15605697667E+02  0.21603421653E+02  0.59301931415E+02  0.49999976998E+02 0.  0.
        -12    1    1    2    0    0 -0.17506448612E+02 -0.15605697667E+02 -0.21603421653E+02  0.31886068585E+02  0.00000000000E+00 0.  1.
         11    1    3    3    0    0  0.67105094742E+01 -0.16829316807E+02  0.82224191544E+01  0.19896356918E+02  0.51100000000E-03 0. -1.
        -11    1    3    3    0    0  0.28209836426E+01 -0.60551893563E+00  0.22417039883E-01  0.28853257490E+01  0.51100000000E-03 0.  1.
        -12    1    3    3    0    0  0.79749554948E+01  0.33040533410E+02  0.13358585459E+02  0.36520248748E+02  0.00000000000E+00 0.  1.
</event>
<event>
 7    1  0.6953847E-012  0.5930194E+02  0.7816164E-02  0.1266605E+00
        -11   -1    0    0    0    0  0.00000000000E+00  0.00000000000E+00  0.45593999997E+02  0.45594000000E+02  0.51100000000E-03 0.  1.
         11   -1    0    0    0    0 -0.00000000000E+00 -0.00000000000E+00 -0.45593999997E+02  0.45594000000E+02  0.51100000000E-03 0. -1.
    9900012    2    1    2    0    0  0.59948286492E+01  0.25979249152E+02 -0.17488900644E+02  0.59301937171E+02  0.49999987494E+02 0.  0.
        -12    1    1    2    0    0 -0.59948286492E+01 -0.25979249152E+02  0.17488900644E+02  0.31886062829E+02  0.00000000000E+00 0.  1.
         11    1    3    3    0    0 -0.25295926780E+00 -0.23261612799E+00  0.68787446794E+00  0.76894095932E+00  0.51100000000E-03 0. -1.
        -11    1    3    3    0    0 -0.34440849254E+01  0.28589554202E+01  0.15663318536E+02  0.16290331331E+02  0.51100000000E-03 0.  1.
         12    1    3    3    0    0  0.96918728424E+01  0.23352909860E+02 -0.33840093648E+02  0.42242664880E+02  0.00000000000E+00 0. -1.
</event>
<event>
 7    1  0.6953847E-012  0.5930197E+02  0.7816164E-02  0.1266605E+00
        -11   -1    0    0    0    0  0.00000000000E+00  0.00000000000E+00  0.45593999997E+02  0.45594000000E+02  0.51100000000E-03 0.  1.
         11   -1    0    0    0    0 -0.00000000000E+00 -0.00000000000E+00 -0.45593999997E+02  0.45594000000E+02  0.51100000000E-03 0. -1.
    9900012    2    1    2    0    0 -0.48909675393E+01  0.83691803525E+01 -0.30376872973E+02  0.59301966147E+02  0.50000040340E+02 0.  0.
        -12    1    1    2    0    0  0.48909675393E+01 -0.83691803525E+01  0.30376872973E+02  0.31886033853E+02  0.00000000000E+00 0.  1.
         11    1    3    3    0    0  0.14724863375E+02  0.96583235066E+01 -0.31458743906E+02  0.36052148102E+02  0.51100000000E-03 0. -1.
        -11    1    3    3    0    0 -0.40335450857E+01  0.34180977577E+01 -0.34986792066E+01  0.63398450053E+01  0.51100000000E-03 0.  1.
        -12    1    3    3    0    0 -0.15582285828E+02 -0.47072409118E+01  0.45805501389E+01  0.16909973040E+02  0.00000000000E+00 0.  1.
</event>
<event>
 7    1  0.6953847E-012  0.5930194E+02  0.7816164E-02  0.1266605E+00
        -11   -1    0    0    0    0  0.00000000000E+00  0.00000000000E+00  0.45593999997E+02  0.45594000000E+02  0.51100000000E-03 0. -1.
         11   -1    0    0    0    0 -0.00000000000E+00 -0.00000000000E+00 -0.45593999997E+02  0.45594000000E+02  0.51100000000E-03 0.  1.
    9900012    2    1    2    0    0 -0.36262367633E+01 -0.31399586741E+02  0.41996362667E+01  0.59301943717E+02  0.49999999432E+02 0.  0.
        -12    1    1    2    0    0  0.36262367633E+01  0.31399586741E+02 -0.41996362667E+01  0.31886056283E+02  0.00000000000E+00 0.  1.
         11    1    3    3    0    0 -0.99989315540E+01  0.25365182428E+01  0.31336079427E+01  0.10781097162E+02  0.51100000000E-03 0. -1.
        -11    1    3    3    0    0 -0.86698897808E+01  0.24918805562E+01 -0.86264112918E+00  0.90620421262E+01  0.51100000000E-03 0.  1.
         12    1    3    3    0    0  0.15042584571E+02 -0.36427985540E+02  0.19286694532E+01  0.39458804428E+02  0.00000000000E+00 0. -1.
</event>
<event>
 7    1  0.6953847E-012  0.5930194E+02  0.7816164E-02  0.1266605E+00
        -11   -1    0    0    0    0  0.00000000000E+00  0.00000000000E+00  0.45593999997E+02  0.45594000000E+02  0.51100000000E-03 0. -1.
         11   -1    0    0    0    0 -0.00000000000E+00 -0.00000000000E+00 -0.45593999997E+02  0.45594000000E+02  0.51100000000E-03 0.  1.
    9900012    2    1    2    0    0  0.12452527908E+02 -0.15562272041E+02  0.24889176449E+02  0.59301939304E+02  0.49999991385E+02 0.  0.
        -12    1    1    2    0    0 -0.12452527908E+02  0.15562272041E+02 -0.24889176449E+02  0.31886060696E+02  0.00000000000E+00 0.  1.
         11    1    3    3    0    0  0.46748333246E+00 -0.53393672244E+01 -0.59630616068E+01  0.80178230842E+01  0.51100000000E-03 0. -1.
        -11    1    3    3    0    0  0.71438323246E+01 -0.15307343047E+01 -0.82010398764E+01  0.10983375761E+02  0.51100000000E-03 0.  1.
         12    1    3    3    0    0  0.48412122512E+01 -0.86921705122E+01  0.39053277932E+02  0.40300740459E+02  0.00000000000E+00 0. -1.
</event>
<event>
 7    1  0.6953847E-012  0.5930195E+02  0.7816164E-02  0.1266605E+00
        -11   -1    0    0    0    0  0.00000000000E+00  0.00000000000E+00  0.45593999997E+02  0.45594000000E+02  0.51100000000E-03 0.  1.
         11   -1    0    0    0    0 -0.00000000000E+00 -0.00000000000E+00 -0.45593999997E+02  0.45594000000E+02  0.51100000000E-03 0. -1.
    9900012    2    1    2    0    0  0.21799570099E+02  0.19798341446E+02 -0.12228019908E+02  0.59301952089E+02  0.50000014702E+02 0.  0.
        -12    1    1    2    0    0 -0.21799570099E+02 -0.19798341446E+02  0.12228019908E+02  0.31886047911E+02  0.00000000000E+00 0.  1.
         11    1    3    3    0    0  0.20133817015E+02  0.10291387512E+02 -0.13848417888E+02  0.26515314873E+02  0.51100000000E-03 0. -1.
        -11    1    3    3    0    0  0.81122254397E+01  0.11277047599E+02 -0.11517776227E+02  0.18045475156E+02  0.51100000000E-03 0.  1.
        -12    1    3    3    0    0 -0.64464723562E+01 -0.17700936653E+01  0.13138174206E+02  0.14741162060E+02  0.00000000000E+00 0.  1.
</event>
<event>
 7    1  0.6953847E-012  0.5930196E+02  0.7816164E-02  0.1266605E+00
        -11   -1    0    0    0    0  0.00000000000E+00  0.00000000000E+00  0.45593999997E+02  0.45594000000E+02  0.51100000000E-03 0. -1.
         11   -1    0    0    0    0 -0.00000000000E+00 -0.00000000000E+00 -0.45593999997E+02  0.45594000000E+02  0.51100000000E-03 0.  1.
    9900012    2    1    2    0    0  0.19067410897E+02  0.21397039259E+02 -0.13975702580E+02  0.59301957443E+02  0.50000024465E+02 0.  0.
        -12    1    1    2    0    0 -0.19067410897E+02 -0.21397039259E+02  0.13975702580E+02  0.31886042557E+02  0.00000000000E+00 0.  1.
         11    1    3    3    0    0 -0.36668492974E+00  0.19244785334E+01 -0.29621989860E+01  0.35514361260E+01  0.51100000000E-03 0. -1.
        -11    1    3    3    0    0  0.72086585941E+01  0.25364274746E+02 -0.24947380544E+02  0.36299903421E+02  0.51100000000E-03 0.  1.
         12    1    3    3    0    0  0.12225437233E+02 -0.58917140204E+01  0.13933876950E+02  0.19450617895E+02  0.00000000000E+00 0. -1.
</event>
<event>
 7    1  0.6953847E-012  0.5930193E+02  0.7816164E-02  0.1266605E+00
        -11   -1    0    0    0    0  0.00000000000E+00  0.00000000000E+00  0.45593999997E+02  0.45594000000E+02  0.51100000000E-03 0.  1.
         11   -1    0    0    0    0 -0.00000000000E+00 -0.00000000000E+00 -0.45593999997E+02  0.45594000000E+02  0.51100000000E-03 0. -1.
    9900012    2    1    2    0    0  0.23022377129E+02 -0.18662528266E+02 -0.11764429759E+02  0.59301927531E+02  0.49999969913E+02 0.  0.
        -12    1    1    2    0    0 -0.23022377129E+02  0.18662528266E+02  0.11764429759E+02  0.31886072469E+02  0.00000000000E+00 0.  1.
         11    1    3    3    0    0  0.20972782763E+02 -0.16774041145E+02  0.68147401816E+01  0.27706799836E+02  0.51100000000E-03 0. -1.
        -11    1    3    3    0    0  0.62245421346E+01  0.10341713092E+02 -0.56947347420E+01  0.13346383724E+02  0.51100000000E-03 0.  1.
        -12    1    3    3    0    0 -0.41749477679E+01 -0.12230200214E+02 -0.12884435198E+02  0.18248743971E+02  0.00000000000E+00 0.  1.
</event>
<event>
 7    1  0.6953847E-012  0.5930190E+02  0.7816164E-02  0.1266605E+00
        -11   -1    0    0    0    0  0.00000000000E+00  0.00000000000E+00  0.45593999997E+02  0.45594000000E+02  0.51100000000E-03 0. -1.
         11   -1    0    0    0    0 -0.00000000000E+00 -0.00000000000E+00 -0.45593999997E+02  0.45594000000E+02  0.51100000000E-03 0.  1.
    9900012    2    1    2    0    0 -0.99979247677E+01  0.17681582763E+01  0.30226451041E+02  0.59301902310E+02  0.49999923916E+02 0.  0.
        -12    1    1    2    0    0  0.99979247677E+01 -0.17681582763E+01 -0.30226451041E+02  0.31886097690E+02  0.00000000000E+00 0.  1.
         11    1    3    3    0    0  0.10283365492E+01  0.41145540365E+01  0.23007904444E+02  0.23395527310E+02  0.51100000000E-03 0. -1.
        -11    1    3    3    0    0 -0.14843813633E+02 -0.15502797927E+02  0.39705985772E+01  0.21827533073E+02  0.51100000000E-03 0.  1.
         12    1    3    3    0    0  0.38175523157E+01  0.13156402167E+02  0.32479480205E+01  0.14078841927E+02  0.00000000000E+00 0. -1.
</event>
<event>
 7    1  0.6953847E-012  0.5930193E+02  0.7816164E-02  0.1266605E+00
        -11   -1    0    0    0    0  0.00000000000E+00  0.00000000000E+00  0.45593999997E+02  0.45594000000E+02  0.51100000000E-03 0. -1.
         11   -1    0    0    0    0 -0.00000000000E+00 -0.00000000000E+00 -0.45593999997E+02  0.45594000000E+02  0.51100000000E-03 0.  1.
    9900012    2    1    2    0    0  0.16627988298E+02  0.15797138663E+02  0.22151342266E+02  0.59301928606E+02  0.49999971874E+02 0.  0.
        -12    1    1    2    0    0 -0.16627988298E+02 -0.15797138663E+02 -0.22151342266E+02  0.31886071394E+02  0.00000000000E+00 0.  1.
         11    1    3    3    0    0  0.99033580546E+01  0.43691318342E+01  0.21018070084E+02  0.23641596479E+02  0.51100000000E-03 0. -1.
        -11    1    3    3    0    0 -0.81191537938E+01  0.15243334381E+02  0.77955670515E+01  0.18948634972E+02  0.51100000000E-03 0.  1.
         12    1    3    3    0    0  0.14843784037E+02 -0.38153275519E+01 -0.66622948699E+01  0.16711697155E+02  0.00000000000E+00 0. -1.
</event>
<event>
 7    1  0.6953847E-012  0.5930193E+02  0.7816164E-02  0.1266605E+00
        -11   -1    0    0    0    0  0.00000000000E+00  0.00000000000E+00  0.45593999997E+02  0.45594000000E+02  0.51100000000E-03 0. -1.
         11   -1    0    0    0    0 -0.00000000000E+00 -0.00000000000E+00 -0.45593999997E+02  0.45594000000E+02  0.51100000000E-03 0.  1.
    9900012    2    1    2    0    0 -0.42535484628E+01  0.20651005345E+02  0.23919966030E+02  0.59301929826E+02  0.49999974099E+02 0.  0.
        -12    1    1    2    0    0  0.42535484628E+01 -0.20651005345E+02 -0.23919966030E+02  0.31886070174E+02  0.00000000000E+00 0.  1.
         11    1    3    3    0    0 -0.46349447757E+01  0.82203511602E+01  0.20991047608E+01  0.96676329744E+01  0.51100000000E-03 0. -1.
        -11    1    3    3    0    0 -0.47027919623E+01  0.21479237956E+02 -0.35036168059E+01  0.22265427155E+02  0.51100000000E-03 0.  1.
         12    1    3    3    0    0  0.50841882753E+01 -0.90485837708E+01  0.25324478075E+02  0.27368869696E+02  0.00000000000E+00 0. -1.
</event>
<event>
 7    1  0.6953847E-012  0.5930194E+02  0.7816164E-02  0.1266605E+00
        -11   -1    0    0    0    0  0.00000000000E+00  0.00000000000E+00  0.45593999997E+02  0.45594000000E+02  0.51100000000E-03 0.  1.
         11   -1    0    0    0    0 -0.00000000000E+00 -0.00000000000E+00 -0.45593999997E+02  0.45594000000E+02  0.51100000000E-03 0. -1.
    9900012    2    1    2    0    0  0.97177011774E+01 -0.37507797031E+01 -0.30136672005E+02  0.59301936209E+02  0.49999985741E+02 0.  0.
        -12    1    1    2    0    0 -0.97177011774E+01  0.37507797031E+01  0.30136672005E+02  0.31886063791E+02  0.00000000000E+00 0.  1.
         11    1    3    3    0    0 -0.88445493722E+01  0.43376175191E+01 -0.13238841049E+02  0.16501754207E+02  0.51100000000E-03 0. -1.
        -11    1    3    3    0    0  0.20351190551E+02  0.88169927127E+01 -0.11374137317E+02  0.24925515387E+02  0.51100000000E-03 0.  1.
         12    1    3    3    0    0 -0.17889400012E+01 -0.16905389935E+02 -0.55236936381E+01  0.17874666615E+02  0.00000000000E+00 0. -1.
</event>
<event>
 7    1  0.6953847E-012  0.5930194E+02  0.7816164E-02  0.1266605E+00
        -11   -1    0    0    0    0  0.00000000000E+00  0.00000000000E+00  0.45593999997E+02  0.45594000000E+02  0.51100000000E-03 0.  1.
         11   -1    0    0    0    0 -0.00000000000E+00 -0.00000000000E+00 -0.45593999997E+02  0.45594000000E+02  0.51100000000E-03 0. -1.
    9900012    2    1    2    0    0 -0.67712525255E+00  0.11020340603E+02 -0.29913452321E+02  0.59301936659E+02  0.49999986561E+02 0.  0.
        -12    1    1    2    0    0  0.67712525255E+00 -0.11020340603E+02  0.29913452321E+02  0.31886063341E+02  0.00000000000E+00 0.  1.
         11    1    3    3    0    0 -0.97116007355E+01  0.13990709286E+02 -0.25844550468E+02  0.30951509242E+02  0.51100000000E-03 0. -1.
        -11    1    3    3    0    0 -0.48384946200E+01  0.47436100724E+01 -0.94160128923E+01  0.11600610577E+02  0.51100000000E-03 0.  1.
        -12    1    3    3    0    0  0.13872970103E+02 -0.77139787557E+01  0.53471110389E+01  0.16749816840E+02  0.00000000000E+00 0.  1.
</event>
<event>
 7    1  0.6953847E-012  0.5930194E+02  0.7816164E-02  0.1266605E+00
        -11   -1    0    0    0    0  0.00000000000E+00  0.00000000000E+00  0.45593999997E+02  0.45594000000E+02  0.51100000000E-03 0.  1.
         11   -1    0    0    0    0 -0.00000000000E+00 -0.00000000000E+00 -0.45593999997E+02  0.45594000000E+02  0.51100000000E-03 0. -1.
    9900012    2    1    2    0    0  0.41396373383E+00 -0.21020557107E+02 -0.23972600044E+02  0.59301941292E+02  0.49999995011E+02 0.  0.
        -12    1    1    2    0    0 -0.41396373383E+00  0.21020557107E+02  0.23972600044E+02  0.31886058708E+02  0.00000000000E+00 0.  1.
         11    1    3    3    0    0  0.84060986286E+01  0.52572591309E+01 -0.32690894866E+01  0.10439742049E+02  0.51100000000E-03 0. -1.
        -11    1    3    3    0    0 -0.13483744094E+02  0.35340390966E+01 -0.69147612619E+01  0.15560035691E+02  0.51100000000E-03 0.  1.
         12    1    3    3    0    0  0.54916091997E+01 -0.29811855334E+02 -0.13788749296E+02  0.33302163552E+02  0.00000000000E+00 0. -1.
</event>
<event>
 7    1  0.6953847E-012  0.5930195E+02  0.7816164E-02  0.1266605E+00
        -11   -1    0    0    0    0  0.00000000000E+00  0.00000000000E+00  0.45593999997E+02  0.45594000000E+02  0.51100000000E-03 0.  1.
         11   -1    0    0    0    0 -0.00000000000E+00 -0.00000000000E+00 -0.45593999997E+02  0.45594000000E+02  0.51100000000E-03 0. -1.
    9900012    2    1    2    0    0  0.59293623743E+01  0.30702540211E+02  0.62383317635E+01  0.59301951377E+02  0.50000013404E+02 0.  0.
        -12    1    1    2    0    0 -0.59293623743E+01 -0.30702540211E+02 -0.62383317635E+01  0.31886048623E+02  0.00000000000E+00 0.  1.
         11    1    3    3    0    0 -0.76728393789E+01 -0.26884318307E+01  0.45205249985E+01  0.93024338948E+01  0.51100000000E-03 0. -1.
        -11    1    3    3    0    0 -0.98840388477E+01  0.17573827025E+02  0.67040861617E+01  0.21248020890E+02  0.51100000000E-03 0.  1.
         12    1    3    3    0    0  0.23486240601E+02  0.15817145017E+02 -0.49862793967E+01  0.28751496592E+02  0.00000000000E+00 0. -1.
</event>
<event>
 7    1  0.6953847E-012  0.5930195E+02  0.7816164E-02  0.1266605E+00
        -11   -1    0    0    0    0  0.00000000000E+00  0.00000000000E+00  0.45593999997E+02  0.45594000000E+02  0.51100000000E-03 0. -1.
         11   -1    0    0    0    0 -0.00000000000E+00 -0.00000000000E+00 -0.45593999997E+02  0.45594000000E+02  0.51100000000E-03 0.  1.
    9900012    2    1    2    0    0  0.10682174936E+02  0.71782650885E+01  0.29173343244E+02  0.59301948079E+02  0.50000007389E+02 0.  0.
        -12    1    1    2    0    0 -0.10682174936E+02 -0.71782650885E+01 -0.29173343244E+02  0.31886051921E+02  0.00000000000E+00 0.  1.
         11    1    3    3    0    0  0.25104182260E+02  0.72682359296E+01  0.94222240816E+01  0.27781748098E+02  0.51100000000E-03 0. -1.
        -11    1    3    3    0    0  0.49191167422E+01  0.15375729046E+01  0.40160840571E+01  0.65338175193E+01  0.51100000000E-03 0.  1.
         12    1    3    3    0    0 -0.19341124066E+02 -0.16275437457E+01  0.15735035106E+02  0.24986382462E+02  0.00000000000E+00 0. -1.
</event>
<event>
 7    1  0.6953847E-012  0.5930194E+02  0.7816164E-02  0.1266605E+00
        -11   -1    0    0    0    0  0.00000000000E+00  0.00000000000E+00  0.45593999997E+02  0.45594000000E+02  0.51100000000E-03 0.  1.
         11   -1    0    0    0    0 -0.00000000000E+00 -0.00000000000E+00 -0.45593999997E+02  0.45594000000E+02  0.51100000000E-03 0. -1.
    9900012    2    1    2    0    0 -0.28912785999E+02  0.10274589116E+02 -0.86720485839E+01  0.59301940313E+02  0.49999993225E+02 0.  0.
        -12    1    1    2    0    0  0.28912785999E+02 -0.10274589116E+02  0.86720485839E+01  0.31886059687E+02  0.00000000000E+00 0.  1.
         11    1    3    3    0    0  0.65920854861E+01 -0.73129595696E+01 -0.51169097971E+01  0.11095843134E+02  0.51100000000E-03 0. -1.
        -11    1    3    3    0    0 -0.33559728796E+01  0.15552837943E+01 -0.10924170641E+02  0.11533384850E+02  0.51100000000E-03 0.  1.
        -12    1    3    3    0    0 -0.32148898606E+02  0.16032264891E+02  0.73690318543E+01  0.36672712329E+02  0.00000000000E+00 0.  1.
</event>
<event>
 7    1  0.6953847E-012  0.5930194E+02  0.7816164E-02  0.1266605E+00
        -11   -1    0    0    0    0  0.00000000000E+00  0.00000000000E+00  0.45593999997E+02  0.45594000000E+02  0.51100000000E-03 0. -1.
         11   -1    0    0    0    0 -0.00000000000E+00 -0.00000000000E+00 -0.45593999997E+02  0.45594000000E+02  0.51100000000E-03 0.  1.
    9900012    2    1    2    0    0 -0.17348306472E+02 -0.87199478267E-01  0.26753490393E+02  0.59301943652E+02  0.49999999316E+02 0.  0.
        -12    1    1    2    0    0  0.17348306472E+02  0.87199478267E-01 -0.26753490393E+02  0.31886056348E+02  0.00000000000E+00 0.  1.
         11    1    3    3    0    0 -0.98442752208E+01 -0.16651941772E+01  0.70662990117E+01  0.12231729569E+02  0.51100000000E-03 0. -1.
        -11    1    3    3    0    0  0.52822586810E+01  0.11964956977E+02 -0.76507855398E+01  0.15152457619E+02  0.51100000000E-03 0.  1.
         12    1    3    3    0    0 -0.12786289932E+02 -0.10386962278E+02  0.27337976921E+02  0.31917756465E+02  0.00000000000E+00 0. -1.
</event>
<event>
 7    1  0.6953847E-012  0.5930179E+02  0.7816164E-02  0.1266605E+00
        -11   -1    0    0    0    0  0.00000000000E+00  0.00000000000E+00  0.45593999997E+02  0.45594000000E+02  0.51100000000E-03 0. -1.
         11   -1    0    0    0    0 -0.00000000000E+00 -0.00000000000E+00 -0.45593999997E+02  0.45594000000E+02  0.51100000000E-03 0.  1.
    9900012    2    1    2    0    0 -0.19847810968E+02  0.19821866767E+02  0.15162063097E+02  0.59301793582E+02  0.49999725622E+02 0.  0.
        -12    1    1    2    0    0  0.19847810968E+02 -0.19821866767E+02 -0.15162063097E+02  0.31886206418E+02  0.00000000000E+00 0.  1.
         11    1    3    3    0    0  0.47456563489E+01 -0.36942908145E+00  0.95904314745E+01  0.10706731908E+02  0.51100000000E-03 0. -1.
        -11    1    3    3    0    0 -0.31786308522E+02  0.70024429597E+01  0.76330952898E+01  0.33431538416E+02  0.51100000000E-03 0.  1.
        -12    1    3    3    0    0  0.71928412054E+01  0.13188852889E+02 -0.20614636672E+01  0.15163523258E+02  0.00000000000E+00 0.  1.
</event>
<event>
 7    1  0.6953847E-012  0.5930195E+02  0.7816164E-02  0.1266605E+00
        -11   -1    0    0    0    0  0.00000000000E+00  0.00000000000E+00  0.45593999997E+02  0.45594000000E+02  0.51100000000E-03 0.  1.
         11   -1    0    0    0    0 -0.00000000000E+00 -0.00000000000E+00 -0.45593999997E+02  0.45594000000E+02  0.51100000000E-03 0. -1.
    9900012    2    1    2    0    0 -0.61136595720E+01  0.28220093136E+02 -0.13526638488E+02  0.59301946015E+02  0.50000003624E+02 0.  0.
        -12    1    1    2    0    0  0.61136595720E+01 -0.28220093136E+02  0.13526638488E+02  0.31886053985E+02  0.00000000000E+00 0.  1.
         11    1    3    3    0    0  0.11740980953E+01 -0.18507784385E-01  0.75015806288E+01  0.75929283591E+01  0.51100000000E-03 0. -1.
        -11    1    3    3    0    0  0.38414576701E+00 -0.72649815529E+01  0.33029639688E+01  0.79898120238E+01  0.51100000000E-03 0.  1.
         12    1    3    3    0    0 -0.76719034343E+01  0.35503582473E+02 -0.24331183085E+02  0.43719205632E+02  0.00000000000E+00 0. -1.
</event>
<event>
 7    1  0.6953847E-012  0.5930198E+02  0.7816164E-02  0.1266605E+00
        -11   -1    0    0    0    0  0.00000000000E+00  0.00000000000E+00  0.45593999997E+02  0.45594000000E+02  0.51100000000E-03 0. -1.
         11   -1    0    0    0    0 -0.00000000000E+00 -0.00000000000E+00 -0.45593999997E+02  0.45594000000E+02  0.51100000000E-03 0.  1.
    9900012    2    1    2    0    0  0.15102339327E+02 -0.27461041870E+02  0.58761195734E+01  0.59301980258E+02  0.50000066075E+02 0.  0.
        -12    1    1    2    0    0 -0.15102339327E+02  0.27461041870E+02 -0.58761195734E+01  0.31886019742E+02  0.00000000000E+00 0.  1.
         11    1    3    3    0    0  0.92858351576E+01 -0.14598614052E+02  0.72250769220E+01  0.18749613426E+02  0.51100000000E-03 0. -1.
        -11    1    3    3    0    0  0.12860580488E+02 -0.19026621378E+02 -0.12376344620E+02  0.26087942770E+02  0.51100000000E-03 0.  1.
         12    1    3    3    0    0 -0.70440763183E+01  0.61641935605E+01  0.11027387271E+02  0.14464424062E+02  0.00000000000E+00 0. -1.
</event>
<event>
 7    1  0.6953847E-012  0.5930194E+02  0.7816164E-02  0.1266605E+00
        -11   -1    0    0    0    0  0.00000000000E+00  0.00000000000E+00  0.45593999997E+02  0.45594000000E+02  0.51100000000E-03 0.  1.
         11   -1    0    0    0    0 -0.00000000000E+00 -0.00000000000E+00 -0.45593999997E+02  0.45594000000E+02  0.51100000000E-03 0. -1.
    9900012    2    1    2    0    0  0.14744041400E+02 -0.75842996999E+00 -0.28262316688E+02  0.59301944782E+02  0.50000001376E+02 0.  0.
        -12    1    1    2    0    0 -0.14744041400E+02  0.75842996999E+00  0.28262316688E+02  0.31886055218E+02  0.00000000000E+00 0.  1.
         11    1    3    3    0    0  0.62148137836E+01  0.33295180036E+01  0.22458411663E+01  0.73995542640E+01  0.51100000000E-03 0. -1.
        -11    1    3    3    0    0 -0.59266092550E+01 -0.84231339841E+01  0.63325557545E+01  0.12090291395E+02  0.51100000000E-03 0.  1.
         12    1    3    3    0    0  0.14455836871E+02  0.43351860106E+01 -0.36840713608E+02  0.39812099123E+02  0.00000000000E+00 0. -1.
</event>
<event>
 7    1  0.6953847E-012  0.5930197E+02  0.7816164E-02  0.1266605E+00
        -11   -1    0    0    0    0  0.00000000000E+00  0.00000000000E+00  0.45593999997E+02  0.45594000000E+02  0.51100000000E-03 0.  1.
         11   -1    0    0    0    0 -0.00000000000E+00 -0.00000000000E+00 -0.45593999997E+02  0.45594000000E+02  0.51100000000E-03 0. -1.
    9900012    2    1    2    0    0 -0.27647533467E+01 -0.24727995978E+02 -0.19939947232E+02  0.59301966352E+02  0.50000040715E+02 0.  0.
        -12    1    1    2    0    0  0.27647533467E+01  0.24727995978E+02  0.19939947232E+02  0.31886033648E+02  0.00000000000E+00 0.  1.
         11    1    3    3    0    0 -0.14128211650E+01 -0.29832331312E+02 -0.14888937374E+02  0.33371312703E+02  0.51100000000E-03 0.  1.
        -11    1    3    3    0    0  0.44397256868E+01 -0.88362077625E+01  0.35730053133E+00  0.98953219113E+01  0.51100000000E-03 0. -1.
         12    1    3    3    0    0 -0.57916578685E+01  0.13940543096E+02 -0.54083103887E+01  0.16035331738E+02  0.00000000000E+00 0. -1.
</event>
<event>
 7    1  0.6953847E-012  0.5930191E+02  0.7816164E-02  0.1266605E+00
        -11   -1    0    0    0    0  0.00000000000E+00  0.00000000000E+00  0.45593999997E+02  0.45594000000E+02  0.51100000000E-03 0. -1.
         11   -1    0    0    0    0 -0.00000000000E+00 -0.00000000000E+00 -0.45593999997E+02  0.45594000000E+02  0.51100000000E-03 0.  1.
    9900012    2    1    2    0    0 -0.17545281816E+02  0.36053712823E+01  0.26379670823E+02  0.59301911359E+02  0.49999940419E+02 0.  0.
        -12    1    1    2    0    0  0.17545281816E+02 -0.36053712823E+01 -0.26379670823E+02  0.31886088641E+02  0.00000000000E+00 0.  1.
         11    1    3    3    0    0 -0.14204427078E+02 -0.11091874374E+02  0.47330896635E+01  0.18633238144E+02  0.51100000000E-03 0.  1.
        -11    1    3    3    0    0 -0.15021336075E+02  0.83175851115E+01  0.21294737447E+02  0.27354864334E+02  0.51100000000E-03 0. -1.
        -12    1    3    3    0    0  0.11680481336E+02  0.63796605443E+01  0.35184371319E+00  0.13313808880E+02  0.00000000000E+00 0.  1.
</event>
<event>
 7    1  0.6953847E-012  0.5930189E+02  0.7816164E-02  0.1266605E+00
        -11   -1    0    0    0    0  0.00000000000E+00  0.00000000000E+00  0.45593999997E+02  0.45594000000E+02  0.51100000000E-03 0.  1.
         11   -1    0    0    0    0 -0.00000000000E+00 -0.00000000000E+00 -0.45593999997E+02  0.45594000000E+02  0.51100000000E-03 0. -1.
    9900012    2    1    2    0    0  0.36984275439E+00 -0.57864307785E+00 -0.31878717178E+02  0.59301886716E+02  0.49999895477E+02 0.  0.
        -12    1    1    2    0    0 -0.36984275439E+00  0.57864307785E+00  0.31878717178E+02  0.31886113284E+02  0.00000000000E+00 0.  1.
         11    1    3    3    0    0 -0.58617958658E+00 -0.11540304975E+01  0.17523380652E+01  0.21785504017E+01  0.51100000000E-03 0.  1.
        -11    1    3    3    0    0  0.23234900469E+02  0.38369418457E+01 -0.15239495050E+02  0.28050399857E+02  0.51100000000E-03 0. -1.
         12    1    3    3    0    0 -0.22278878128E+02 -0.32615544260E+01 -0.18391560193E+02  0.29072936457E+02  0.00000000000E+00 0. -1.
</event>
<event>
 7    1  0.6953847E-012  0.5930196E+02  0.7816164E-02  0.1266605E+00
        -11   -1    0    0    0    0  0.00000000000E+00  0.00000000000E+00  0.45593999997E+02  0.45594000000E+02  0.51100000000E-03 0. -1.
         11   -1    0    0    0    0 -0.00000000000E+00 -0.00000000000E+00 -0.45593999997E+02  0.45594000000E+02  0.51100000000E-03 0.  1.
    9900012    2    1    2    0    0  0.18781933588E+02  0.19411351608E+02  0.16945726544E+02  0.59301964676E+02  0.50000037658E+02 0.  0.
        -12    1    1    2    0    0 -0.18781933588E+02 -0.19411351608E+02 -0.16945726544E+02  0.31886035324E+02  0.00000000000E+00 0.  1.
         11    1    3    3    0    0 -0.18431916071E+01  0.20809217250E+02  0.52006161280E+01  0.21528290369E+02  0.51100000000E-03 0. -1.
        -11    1    3    3    0    0 -0.30373517072E+01  0.92771851108E+01  0.49247261864E+01  0.10933645195E+02  0.51100000000E-03 0.  1.
        -12    1    3    3    0    0  0.23662476902E+02 -0.10675050753E+02  0.68203842297E+01  0.26840029113E+02  0.00000000000E+00 0.  1.
</event>
<event>
 7    1  0.6953847E-012  0.5930208E+02  0.7816164E-02  0.1266604E+00
        -11   -1    0    0    0    0  0.00000000000E+00  0.00000000000E+00  0.45593999997E+02  0.45594000000E+02  0.51100000000E-03 0.  1.
         11   -1    0    0    0    0 -0.00000000000E+00 -0.00000000000E+00 -0.45593999997E+02  0.45594000000E+02  0.51100000000E-03 0. -1.
    9900012    2    1    2    0    0 -0.11096026224E+02  0.18896177923E+02 -0.23162992878E+02  0.59302084973E+02  0.50000257050E+02 0.  0.
        -12    1    1    2    0    0  0.11096026224E+02 -0.18896177923E+02  0.23162992878E+02  0.31885915027E+02  0.00000000000E+00 0.  1.
         11    1    3    3    0    0  0.56799645788E+01 -0.41172921961E+01 -0.15946143166E+01  0.71942259990E+01  0.51100000000E-03 0. -1.
        -11    1    3    3    0    0 -0.17325469202E+01 -0.10497503825E+02 -0.37448134557E+01  0.11279314405E+02  0.51100000000E-03 0.  1.
         12    1    3    3    0    0 -0.15043443883E+02  0.33510973944E+02 -0.17823565105E+02  0.40828544568E+02  0.00000000000E+00 0. -1.
</event>
<event>
 7    1  0.6953847E-012  0.5930192E+02  0.7816164E-02  0.1266605E+00
        -11   -1    0    0    0    0  0.00000000000E+00  0.00000000000E+00  0.45593999997E+02  0.45594000000E+02  0.51100000000E-03 0. -1.
         11   -1    0    0    0    0 -0.00000000000E+00 -0.00000000000E+00 -0.45593999997E+02  0.45594000000E+02  0.51100000000E-03 0.  1.
    9900012    2    1    2    0    0  0.34270925360E+01 -0.30240299592E+02  0.95132179849E+01  0.59301921548E+02  0.49999959002E+02 0.  0.
        -12    1    1    2    0    0 -0.34270925360E+01  0.30240299592E+02 -0.95132179849E+01  0.31886078452E+02  0.00000000000E+00 0.  1.
         11    1    3    3    0    0  0.79871723512E+01 -0.11496802067E+02 -0.57873651881E+01  0.15148101400E+02  0.51100000000E-03 0. -1.
        -11    1    3    3    0    0 -0.15223774496E+00 -0.27103635953E+02  0.11387162036E+01  0.27127973258E+02  0.51100000000E-03 0.  1.
         12    1    3    3    0    0 -0.44078420702E+01  0.83601384288E+01  0.14161866969E+02  0.17025846890E+02  0.00000000000E+00 0. -1.
</event>
<event>
 7    1  0.6953847E-012  0.5930221E+02  0.7816164E-02  0.1266604E+00
        -11   -1    0    0    0    0  0.00000000000E+00  0.00000000000E+00  0.45593999997E+02  0.45594000000E+02  0.51100000000E-03 0.  1.
         11   -1    0    0    0    0 -0.00000000000E+00 -0.00000000000E+00 -0.45593999997E+02  0.45594000000E+02  0.51100000000E-03 0. -1.
    9900012    2    1    2    0    0  0.10229448002E+02  0.28521093538E+02 -0.99302278617E+01  0.59302206794E+02  0.50000479220E+02 0.  0.
        -12    1    1    2    0    0 -0.10229448002E+02 -0.28521093538E+02  0.99302278617E+01  0.31885793206E+02  0.00000000000E+00 0.  1.
         11    1    3    3    0    0  0.17888935189E+02  0.19410904796E+02 -0.10407337938E+02  0.28374458768E+02  0.51100000000E-03 0. -1.
        -11    1    3    3    0    0  0.29459393715E+01  0.15061107767E+02 -0.67674998610E+01  0.16772435141E+02  0.51100000000E-03 0.  1.
        -12    1    3    3    0    0 -0.10605426558E+02 -0.59509190250E+01  0.72446099369E+01  0.14155312885E+02  0.00000000000E+00 0.  1.
</event>
<event>
 7    1  0.6953847E-012  0.5930194E+02  0.7816164E-02  0.1266605E+00
        -11   -1    0    0    0    0  0.00000000000E+00  0.00000000000E+00  0.45593999997E+02  0.45594000000E+02  0.51100000000E-03 0.  1.
         11   -1    0    0    0    0 -0.00000000000E+00 -0.00000000000E+00 -0.45593999997E+02  0.45594000000E+02  0.51100000000E-03 0. -1.
    9900012    2    1    2    0    0 -0.16512038854E+02  0.23415848990E+02 -0.13991826887E+02  0.59301943005E+02  0.49999998135E+02 0.  0.
        -12    1    1    2    0    0  0.16512038854E+02 -0.23415848990E+02  0.13991826887E+02  0.31886056995E+02  0.00000000000E+00 0.  1.
         11    1    3    3    0    0 -0.11930174702E+01  0.31079599434E+01 -0.13562466213E+02  0.13965070560E+02  0.51100000000E-03 0. -1.
        -11    1    3    3    0    0 -0.20809385656E+02  0.12708006588E+02 -0.14544777219E+02  0.28391451309E+02  0.51100000000E-03 0.  1.
        -12    1    3    3    0    0  0.54903642721E+01  0.75998824580E+01  0.14115416546E+02  0.16945421136E+02  0.00000000000E+00 0.  1.
</event>
<event>
 7    1  0.6953847E-012  0.5930198E+02  0.7816164E-02  0.1266605E+00
        -11   -1    0    0    0    0  0.00000000000E+00  0.00000000000E+00  0.45593999997E+02  0.45594000000E+02  0.51100000000E-03 0. -1.
         11   -1    0    0    0    0 -0.00000000000E+00 -0.00000000000E+00 -0.45593999997E+02  0.45594000000E+02  0.51100000000E-03 0.  1.
    9900012    2    1    2    0    0 -0.24836331511E+02  0.19913588707E+02 -0.18231556545E+01  0.59301979950E+02  0.50000065513E+02 0.  0.
        -12    1    1    2    0    0  0.24836331511E+02 -0.19913588707E+02  0.18231556545E+01  0.31886020050E+02  0.00000000000E+00 0.  1.
         11    1    3    3    0    0 -0.15315561814E-01 -0.24793202609E+01 -0.36568469845E+01  0.44181210545E+01  0.51100000000E-03 0. -1.
        -11    1    3    3    0    0  0.12229964483E+02  0.21750744777E+01 -0.16551916217E+01  0.12531665484E+02  0.51100000000E-03 0.  1.
         12    1    3    3    0    0 -0.37050980433E+02  0.20217834490E+02  0.34888829517E+01  0.42352193411E+02  0.00000000000E+00 0. -1.
</event>
<event>
 7    1  0.6953847E-012  0.5930191E+02  0.7816164E-02  0.1266605E+00
        -11   -1    0    0    0    0  0.00000000000E+00  0.00000000000E+00  0.45593999997E+02  0.45594000000E+02  0.51100000000E-03 0.  1.
         11   -1    0    0    0    0 -0.00000000000E+00 -0.00000000000E+00 -0.45593999997E+02  0.45594000000E+02  0.51100000000E-03 0. -1.
    9900012    2    1    2    0    0 -0.22805757731E+02  0.18678190993E+02 -0.12155049807E+02  0.59301911493E+02  0.49999940665E+02 0.  0.
        -12    1    1    2    0    0  0.22805757731E+02 -0.18678190993E+02  0.12155049807E+02  0.31886088507E+02  0.00000000000E+00 0.  1.
         11    1    3    3    0    0 -0.17577432803E+02  0.19912743369E+02 -0.86081426784E+01  0.27921024571E+02  0.51100000000E-03 0. -1.
        -11    1    3    3    0    0 -0.14222905772E+02 -0.19000459628E+01  0.82340423357E+01  0.16543901496E+02  0.51100000000E-03 0.  1.
        -12    1    3    3    0    0  0.89945808442E+01  0.66549358617E+00 -0.11780949464E+02  0.14836985427E+02  0.00000000000E+00 0.  1.
</event>
<event>
 7    1  0.6953847E-012  0.5930194E+02  0.7816164E-02  0.1266605E+00
        -11   -1    0    0    0    0  0.00000000000E+00  0.00000000000E+00  0.45593999997E+02  0.45594000000E+02  0.51100000000E-03 0. -1.
         11   -1    0    0    0    0 -0.00000000000E+00 -0.00000000000E+00 -0.45593999997E+02  0.45594000000E+02  0.51100000000E-03 0.  1.
    9900012    2    1    2    0    0 -0.19715210264E+02 -0.10846824352E+02  0.22591535951E+02  0.59301943315E+02  0.49999998701E+02 0.  0.
        -12    1    1    2    0    0  0.19715210264E+02  0.10846824352E+02 -0.22591535951E+02  0.31886056685E+02  0.00000000000E+00 0.  1.
         11    1    3    3    0    0 -0.43484025363E+01 -0.66555413098E+01 -0.32095306707E+01  0.85735594785E+01  0.51100000000E-03 0. -1.
        -11    1    3    3    0    0 -0.12293056567E+02  0.79926466277E+01 -0.65225675319E+01  0.16048225053E+02  0.51100000000E-03 0.  1.
         12    1    3    3    0    0 -0.30737511606E+01 -0.12183929670E+02  0.32323634154E+02  0.34680158784E+02  0.00000000000E+00 0. -1.
</event>
<event>
 7    1  0.6953847E-012  0.5930195E+02  0.7816164E-02  0.1266605E+00
        -11   -1    0    0    0    0  0.00000000000E+00  0.00000000000E+00  0.45593999997E+02  0.45594000000E+02  0.51100000000E-03 0. -1.
         11   -1    0    0    0    0 -0.00000000000E+00 -0.00000000000E+00 -0.45593999997E+02  0.45594000000E+02  0.51100000000E-03 0.  1.
    9900012    2    1    2    0    0  0.29567706202E+02  0.79118786307E+01  0.89371903903E+01  0.59301945907E+02  0.50000003428E+02 0.  0.
        -12    1    1    2    0    0 -0.29567706202E+02 -0.79118786307E+01 -0.89371903903E+01  0.31886054093E+02  0.00000000000E+00 0.  1.
         11    1    3    3    0    0  0.16519370505E+02 -0.13539329318E+02  0.80073170538E+00  0.21373914283E+02  0.51100000000E-03 0. -1.
        -11    1    3    3    0    0  0.15292226145E+02  0.45212947356E+01 -0.46306833923E+01  0.16605345992E+02  0.51100000000E-03 0.  1.
         12    1    3    3    0    0 -0.22438904485E+01  0.16929913213E+02  0.12767142077E+02  0.21322685632E+02  0.00000000000E+00 0. -1.
</event>
<event>
 7    1  0.6953847E-012  0.5930196E+02  0.7816164E-02  0.1266605E+00
        -11   -1    0    0    0    0  0.00000000000E+00  0.00000000000E+00  0.45593999997E+02  0.45594000000E+02  0.51100000000E-03 0. -1.
         11   -1    0    0    0    0 -0.00000000000E+00 -0.00000000000E+00 -0.45593999997E+02  0.45594000000E+02  0.51100000000E-03 0.  1.
    9900012    2    1    2    0    0 -0.28549277871E+02 -0.99176752563E+01 -0.10163567952E+02  0.59301958180E+02  0.50000025810E+02 0.  0.
        -12    1    1    2    0    0  0.28549277871E+02  0.99176752563E+01  0.10163567952E+02  0.31886041820E+02  0.00000000000E+00 0.  1.
         11    1    3    3    0    0 -0.18598958538E+02 -0.11591155833E+02  0.71645111681E+01  0.23056590658E+02  0.51100000000E-03 0. -1.
        -11    1    3    3    0    0  0.41967661254E-01 -0.24187749941E+01  0.81883995323E+01  0.85382738841E+01  0.51100000000E-03 0.  1.
        -12    1    3    3    0    0 -0.99922869940E+01  0.40922555708E+01 -0.25516478652E+02  0.27707093638E+02  0.00000000000E+00 0.  1.
</event>
<event>
 7    1  0.6953847E-012  0.5930194E+02  0.7816164E-02  0.1266605E+00
        -11   -1    0    0    0    0  0.00000000000E+00  0.00000000000E+00  0.45593999997E+02  0.45594000000E+02  0.51100000000E-03 0.  1.
         11   -1    0    0    0    0 -0.00000000000E+00 -0.00000000000E+00 -0.45593999997E+02  0.45594000000E+02  0.51100000000E-03 0. -1.
    9900012    2    1    2    0    0  0.29321349872E+02  0.64422409284E+01  0.10746011505E+02  0.59301940511E+02  0.49999993586E+02 0.  0.
        -12    1    1    2    0    0 -0.29321349872E+02 -0.64422409284E+01 -0.10746011505E+02  0.31886059489E+02  0.00000000000E+00 0.  1.
         11    1    3    3    0    0  0.86695572582E+01  0.12926671605E+02  0.81706820666E+01  0.17578967761E+02  0.51100000000E-03 0. -1.
        -11    1    3    3    0    0  0.27177885050E+02  0.20202720132E+01  0.96137097800E+01  0.28898829575E+02  0.51100000000E-03 0.  1.
        -12    1    3    3    0    0 -0.65260924363E+01 -0.85047026899E+01 -0.70383803418E+01  0.12824143175E+02  0.00000000000E+00 0.  1.
</event>
<event>
 7    1  0.6953847E-012  0.5930198E+02  0.7816164E-02  0.1266605E+00
        -11   -1    0    0    0    0  0.00000000000E+00  0.00000000000E+00  0.45593999997E+02  0.45594000000E+02  0.51100000000E-03 0.  1.
         11   -1    0    0    0    0 -0.00000000000E+00 -0.00000000000E+00 -0.45593999997E+02  0.45594000000E+02  0.51100000000E-03 0. -1.
    9900012    2    1    2    0    0  0.48940028412E+01 -0.17260676479E+02 -0.26359743431E+02  0.59301979708E+02  0.50000065072E+02 0.  0.
        -12    1    1    2    0    0 -0.48940028412E+01  0.17260676479E+02  0.26359743431E+02  0.31886020292E+02  0.00000000000E+00 0.  1.
         11    1    3    3    0    0  0.14235117103E+02 -0.43329886806E+01 -0.81718836489E+01  0.16976249070E+02  0.51100000000E-03 0. -1.
        -11    1    3    3    0    0  0.10979580075E+02 -0.18316605201E+01  0.23497795160E+01  0.11376626166E+02  0.51100000000E-03 0.  1.
         12    1    3    3    0    0 -0.20320694337E+02 -0.11096027278E+02 -0.20537639298E+02  0.30949104472E+02  0.00000000000E+00 0. -1.
</event>
<event>
 7    1  0.6953847E-012  0.5930197E+02  0.7816164E-02  0.1266605E+00
        -11   -1    0    0    0    0  0.00000000000E+00  0.00000000000E+00  0.45593999997E+02  0.45594000000E+02  0.51100000000E-03 0. -1.
         11   -1    0    0    0    0 -0.00000000000E+00 -0.00000000000E+00 -0.45593999997E+02  0.45594000000E+02  0.51100000000E-03 0.  1.
    9900012    2    1    2    0    0  0.26074659017E+02 -0.15063628036E+02  0.10484200710E+02  0.59301965487E+02  0.50000039136E+02 0.  0.
        -12    1    1    2    0    0 -0.26074659017E+02  0.15063628036E+02 -0.10484200710E+02  0.31886034513E+02  0.00000000000E+00 0.  1.
         11    1    3    3    0    0  0.19014735845E+02 -0.28785700079E+02 -0.53601961677E+01  0.34912868853E+02  0.51100000000E-03 0. -1.
        -11    1    3    3    0    0 -0.15394472805E+01  0.60471285810E+01  0.24136569617E+01  0.66905457322E+01  0.51100000000E-03 0.  1.
        -12    1    3    3    0    0  0.85993704521E+01  0.76749434628E+01  0.13430739916E+02  0.17698550902E+02  0.00000000000E+00 0.  1.
</event>
<event>
 7    1  0.6953847E-012  0.5930196E+02  0.7816164E-02  0.1266605E+00
        -11   -1    0    0    0    0  0.00000000000E+00  0.00000000000E+00  0.45593999997E+02  0.45594000000E+02  0.51100000000E-03 0.  1.
         11   -1    0    0    0    0 -0.00000000000E+00 -0.00000000000E+00 -0.45593999997E+02  0.45594000000E+02  0.51100000000E-03 0. -1.
    9900012    2    1    2    0    0  0.29604260232E+02  0.11309708026E+02  0.35210937249E+01  0.59301955709E+02  0.50000021304E+02 0.  0.
        -12    1    1    2    0    0 -0.29604260232E+02 -0.11309708026E+02 -0.35210937249E+01  0.31886044291E+02  0.00000000000E+00 0.  1.
         11    1    3    3    0    0  0.21356150147E+01 -0.68379445080E+01 -0.10852649733E+01  0.72454217896E+01  0.51100000000E-03 0. -1.
        -11    1    3    3    0    0  0.10218467696E+02 -0.17558316459E+01 -0.15689167027E+02  0.18805583986E+02  0.51100000000E-03 0.  1.
         12    1    3    3    0    0  0.17250177521E+02  0.19903484180E+02  0.20295525725E+02  0.33250949933E+02  0.00000000000E+00 0. -1.
</event>
<event>
 7    1  0.6953847E-012  0.5930193E+02  0.7816164E-02  0.1266605E+00
        -11   -1    0    0    0    0  0.00000000000E+00  0.00000000000E+00  0.45593999997E+02  0.45594000000E+02  0.51100000000E-03 0. -1.
         11   -1    0    0    0    0 -0.00000000000E+00 -0.00000000000E+00 -0.45593999997E+02  0.45594000000E+02  0.51100000000E-03 0.  1.
    9900012    2    1    2    0    0  0.33293687336E+01 -0.30060652345E+02  0.10099195118E+02  0.59301933174E+02  0.49999980205E+02 0.  0.
        -12    1    1    2    0    0 -0.33293687336E+01  0.30060652345E+02 -0.10099195118E+02  0.31886066826E+02  0.00000000000E+00 0.  1.
         11    1    3    3    0    0 -0.67020905530E+01 -0.77396371526E+01  0.91498004656E+01  0.13730944973E+02  0.51100000000E-03 0. -1.
        -11    1    3    3    0    0  0.11814898130E+02 -0.57872171927E+01  0.17642764444E+02  0.22007972150E+02  0.51100000000E-03 0.  1.
        -12    1    3    3    0    0 -0.17834388432E+01 -0.16533798000E+02 -0.16693369791E+02  0.23563016051E+02  0.00000000000E+00 0.  1.
</event>
<event>
 7    1  0.6953847E-012  0.5930192E+02  0.7816164E-02  0.1266605E+00
        -11   -1    0    0    0    0  0.00000000000E+00  0.00000000000E+00  0.45593999997E+02  0.45594000000E+02  0.51100000000E-03 0. -1.
         11   -1    0    0    0    0 -0.00000000000E+00 -0.00000000000E+00 -0.45593999997E+02  0.45594000000E+02  0.51100000000E-03 0.  1.
    9900012    2    1    2    0    0 -0.14839401843E+02 -0.28042270355E+02 -0.31851470569E+01  0.59301922545E+02  0.49999960820E+02 0.  0.
        -12    1    1    2    0    0  0.14839401843E+02  0.28042270355E+02  0.31851470569E+01  0.31886077455E+02  0.00000000000E+00 0.  1.
         11    1    3    3    0    0 -0.14198463186E+02 -0.97916458622E+01 -0.21846152728E+01  0.17385201456E+02  0.51100000000E-03 0. -1.
        -11    1    3    3    0    0 -0.51164662071E+01 -0.21513228927E+01 -0.17545064516E+02  0.18402057107E+02  0.51100000000E-03 0.  1.
         12    1    3    3    0    0  0.44755275500E+01 -0.16099301600E+02  0.16544532731E+02  0.23514663982E+02  0.00000000000E+00 0. -1.
</event>
<event>
 7    1  0.6953847E-012  0.5930194E+02  0.7816164E-02  0.1266605E+00
        -11   -1    0    0    0    0  0.00000000000E+00  0.00000000000E+00  0.45593999997E+02  0.45594000000E+02  0.51100000000E-03 0. -1.
         11   -1    0    0    0    0 -0.00000000000E+00 -0.00000000000E+00 -0.45593999997E+02  0.45594000000E+02  0.51100000000E-03 0.  1.
    9900012    2    1    2    0    0 -0.24139837248E+02 -0.14407111949E+02  0.15047398609E+02  0.59301940006E+02  0.49999992666E+02 0.  0.
        -12    1    1    2    0    0  0.24139837248E+02  0.14407111949E+02 -0.15047398609E+02  0.31886059994E+02  0.00000000000E+00 0.  1.
         11    1    3    3    0    0 -0.44256086007E+01  0.75843564232E+01  0.72085054736E+01  0.11360942974E+02  0.51100000000E-03 0. -1.
        -11    1    3    3    0    0 -0.90211711932E+00  0.47662975107E+01 -0.96862100288E+01  0.10833008458E+02  0.51100000000E-03 0.  1.
         12    1    3    3    0    0 -0.18812111527E+02 -0.26757765882E+02  0.17525103164E+02  0.37107988574E+02  0.00000000000E+00 0. -1.
</event>
<event>
 7    1  0.6953847E-012  0.5930194E+02  0.7816164E-02  0.1266605E+00
        -11   -1    0    0    0    0  0.00000000000E+00  0.00000000000E+00  0.45593999997E+02  0.45594000000E+02  0.51100000000E-03 0.  1.
         11   -1    0    0    0    0 -0.00000000000E+00 -0.00000000000E+00 -0.45593999997E+02  0.45594000000E+02  0.51100000000E-03 0. -1.
    9900012    2    1    2    0    0 -0.10598011121E+02  0.29278484512E+02 -0.68682798088E+01  0.59301940937E+02  0.49999994364E+02 0.  0.
        -12    1    1    2    0    0  0.10598011121E+02 -0.29278484512E+02  0.68682798088E+01  0.31886059063E+02  0.00000000000E+00 0.  1.
         11    1    3    3    0    0 -0.77361120416E+01  0.39598149022E+02 -0.11574785907E+02  0.41974236199E+02  0.51100000000E-03 0. -1.
        -11    1    3    3    0    0  0.14346799656E+01  0.25572766821E+01  0.18144487075E+01  0.34482162063E+01  0.51100000000E-03 0.  1.
         12    1    3    3    0    0 -0.42965790446E+01 -0.12876941192E+02  0.28920573904E+01  0.13879488532E+02  0.00000000000E+00 0. -1.
</event>
<event>
 7    1  0.6953847E-012  0.5930195E+02  0.7816164E-02  0.1266605E+00
        -11   -1    0    0    0    0  0.00000000000E+00  0.00000000000E+00  0.45593999997E+02  0.45594000000E+02  0.51100000000E-03 0. -1.
         11   -1    0    0    0    0 -0.00000000000E+00 -0.00000000000E+00 -0.45593999997E+02  0.45594000000E+02  0.51100000000E-03 0.  1.
    9900012    2    1    2    0    0  0.21340259162E+02 -0.22107221913E+02 -0.85196506715E+01  0.59301947103E+02  0.50000005608E+02 0.  0.
        -12    1    1    2    0    0 -0.21340259162E+02  0.22107221913E+02  0.85196506715E+01  0.31886052897E+02  0.00000000000E+00 0.  1.
         11    1    3    3    0    0  0.18563745117E+01 -0.78967424004E+00  0.33149386128E+01  0.38805321801E+01  0.51100000000E-03 0. -1.
        -11    1    3    3    0    0  0.15634610200E+02 -0.34441432096E+02 -0.16081156632E+02  0.41100570310E+02  0.51100000000E-03 0.  1.
         12    1    3    3    0    0  0.38492744505E+01  0.13123884424E+02  0.42465673479E+01  0.14320844612E+02  0.00000000000E+00 0. -1.
</event>
<event>
 7    1  0.6953847E-012  0.5930194E+02  0.7816164E-02  0.1266605E+00
        -11   -1    0    0    0    0  0.00000000000E+00  0.00000000000E+00  0.45593999997E+02  0.45594000000E+02  0.51100000000E-03 0.  1.
         11   -1    0    0    0    0 -0.00000000000E+00 -0.00000000000E+00 -0.45593999997E+02  0.45594000000E+02  0.51100000000E-03 0. -1.
    9900012    2    1    2    0    0  0.28259724299E+02 -0.33190804317E+01  0.14390711799E+02  0.59301938806E+02  0.49999990477E+02 0.  0.
        -12    1    1    2    0    0 -0.28259724299E+02  0.33190804317E+01 -0.14390711799E+02  0.31886061194E+02  0.00000000000E+00 0.  1.
         11    1    3    3    0    0  0.11408701366E+02 -0.15346604198E+02  0.82485901188E+01  0.20825848517E+02  0.51100000000E-03 0.  1.
        -11    1    3    3    0    0  0.25295879388E+02  0.39838570795E+01  0.76269857457E+01  0.26719347730E+02  0.51100000000E-03 0. -1.
        -12    1    3    3    0    0 -0.84448564546E+01  0.80436666868E+01 -0.14848640656E+01  0.11756742559E+02  0.00000000000E+00 0.  1.
</event>
<event>
 7    1  0.6953847E-012  0.5930194E+02  0.7816164E-02  0.1266605E+00
        -11   -1    0    0    0    0  0.00000000000E+00  0.00000000000E+00  0.45593999997E+02  0.45594000000E+02  0.51100000000E-03 0.  1.
         11   -1    0    0    0    0 -0.00000000000E+00 -0.00000000000E+00 -0.45593999997E+02  0.45594000000E+02  0.51100000000E-03 0. -1.
    9900012    2    1    2    0    0  0.23701667626E+02 -0.21324537293E+02 -0.46474427434E+00  0.59301938371E+02  0.49999989683E+02 0.  0.
        -12    1    1    2    0    0 -0.23701667626E+02  0.21324537293E+02  0.46474427434E+00  0.31886061629E+02  0.00000000000E+00 0.  1.
         11    1    3    3    0    0  0.29663472829E+01 -0.18336465106E+02 -0.17427725589E+02  0.25470586728E+02  0.51100000000E-03 0. -1.
        -11    1    3    3    0    0  0.56702622698E+00 -0.23940216415E+01 -0.40251764919E+01  0.47175104042E+01  0.51100000000E-03 0.  1.
        -12    1    3    3    0    0  0.20168294116E+02 -0.59405054520E+00  0.20988157806E+02  0.29113841239E+02  0.00000000000E+00 0.  1.
</event>
<event>
 7    1  0.6953847E-012  0.5930194E+02  0.7816164E-02  0.1266605E+00
        -11   -1    0    0    0    0  0.00000000000E+00  0.00000000000E+00  0.45593999997E+02  0.45594000000E+02  0.51100000000E-03 0.  1.
         11   -1    0    0    0    0 -0.00000000000E+00 -0.00000000000E+00 -0.45593999997E+02  0.45594000000E+02  0.51100000000E-03 0. -1.
    9900012    2    1    2    0    0 -0.63583773293E+01 -0.14143770477E+02 -0.27861185675E+02  0.59301939209E+02  0.49999991212E+02 0.  0.
        -12    1    1    2    0    0  0.63583773293E+01  0.14143770477E+02  0.27861185675E+02  0.31886060791E+02  0.00000000000E+00 0.  1.
         11    1    3    3    0    0  0.60640632167E+01 -0.10979900764E+02 -0.80816318185E+01  0.14921255195E+02  0.51100000000E-03 0. -1.
        -11    1    3    3    0    0  0.57047145528E+01 -0.10628053506E+02 -0.21550977493E+02  0.24697042751E+02  0.51100000000E-03 0.  1.
        -12    1    3    3    0    0 -0.18127155099E+02  0.74641837929E+01  0.17714236371E+01  0.19683641263E+02  0.00000000000E+00 0.  1.
</event>
<event>
 7    1  0.6953847E-012  0.5930194E+02  0.7816164E-02  0.1266605E+00
        -11   -1    0    0    0    0  0.00000000000E+00  0.00000000000E+00  0.45593999997E+02  0.45594000000E+02  0.51100000000E-03 0.  1.
         11   -1    0    0    0    0 -0.00000000000E+00 -0.00000000000E+00 -0.45593999997E+02  0.45594000000E+02  0.51100000000E-03 0. -1.
    9900012    2    1    2    0    0  0.36793760867E+01  0.11480248428E+02 -0.29519260166E+02  0.59301942968E+02  0.49999998067E+02 0.  0.
        -12    1    1    2    0    0 -0.36793760867E+01 -0.11480248428E+02  0.29519260166E+02  0.31886057032E+02  0.00000000000E+00 0.  1.
         11    1    3    3    0    0 -0.55098554662E+01 -0.13911643275E+02 -0.24603848382E+02  0.28796556762E+02  0.51100000000E-03 0. -1.
        -11    1    3    3    0    0  0.38494270646E+01 -0.14810193074E+00 -0.17178868245E+01  0.42179566511E+01  0.51100000000E-03 0.  1.
        -12    1    3    3    0    0  0.53398044883E+01  0.25539993633E+02 -0.31975249589E+01  0.26287429555E+02  0.00000000000E+00 0.  1.
</event>
<event>
 7    1  0.6953847E-012  0.5930194E+02  0.7816164E-02  0.1266605E+00
        -11   -1    0    0    0    0  0.00000000000E+00  0.00000000000E+00  0.45593999997E+02  0.45594000000E+02  0.51100000000E-03 0.  1.
         11   -1    0    0    0    0 -0.00000000000E+00 -0.00000000000E+00 -0.45593999997E+02  0.45594000000E+02  0.51100000000E-03 0. -1.
    9900012    2    1    2    0    0 -0.19814724792E+02  0.23777047801E+02  0.76648196176E+01  0.59301940657E+02  0.49999993852E+02 0.  0.
        -12    1    1    2    0    0  0.19814724792E+02 -0.23777047801E+02 -0.76648196176E+01  0.31886059343E+02  0.00000000000E+00 0.  1.
         11    1    3    3    0    0 -0.34169770341E+02  0.10495212259E+02  0.26445535003E+01  0.35842940016E+02  0.51100000000E-03 0. -1.
        -11    1    3    3    0    0  0.55673870488E+01  0.12978717611E+02  0.30436829604E+01  0.14446692202E+02  0.51100000000E-03 0.  1.
        -12    1    3    3    0    0  0.87876585006E+01  0.30311793078E+00  0.19765831569E+01  0.90123084379E+01  0.00000000000E+00 0.  1.
</event>
<event>
 7    1  0.6953847E-012  0.5930203E+02  0.7816164E-02  0.1266604E+00
        -11   -1    0    0    0    0  0.00000000000E+00  0.00000000000E+00  0.45593999997E+02  0.45594000000E+02  0.51100000000E-03 0.  1.
         11   -1    0    0    0    0 -0.00000000000E+00 -0.00000000000E+00 -0.45593999997E+02  0.45594000000E+02  0.51100000000E-03 0. -1.
    9900012    2    1    2    0    0  0.71608996801E+00 -0.12850877874E+02 -0.29172881861E+02  0.59302033133E+02  0.50000162507E+02 0.  0.
        -12    1    1    2    0    0 -0.71608996801E+00  0.12850877874E+02  0.29172881861E+02  0.31885966867E+02  0.00000000000E+00 0.  1.
         11    1    3    3    0    0 -0.65753142291E+01 -0.26326517607E+01 -0.21084510268E+02  0.22242351180E+02  0.51100000000E-03 0. -1.
        -11    1    3    3    0    0 -0.25267873606E+01 -0.16428872033E+02 -0.15946200692E+02  0.23034187795E+02  0.51100000000E-03 0.  1.
        -12    1    3    3    0    0  0.98181915578E+01  0.62106459194E+01  0.78578290996E+01  0.14025494157E+02  0.00000000000E+00 0.  1.
</event>
<event>
 7    1  0.6953847E-012  0.5930176E+02  0.7816164E-02  0.1266605E+00
        -11   -1    0    0    0    0  0.00000000000E+00  0.00000000000E+00  0.45593999997E+02  0.45594000000E+02  0.51100000000E-03 0. -1.
         11   -1    0    0    0    0 -0.00000000000E+00 -0.00000000000E+00 -0.45593999997E+02  0.45594000000E+02  0.51100000000E-03 0.  1.
    9900012    2    1    2    0    0 -0.12040699686E+02  0.11550332483E+02  0.27172480173E+02  0.59301759893E+02  0.49999664181E+02 0.  0.
        -12    1    1    2    0    0  0.12040699686E+02 -0.11550332483E+02 -0.27172480173E+02  0.31886240107E+02  0.00000000000E+00 0.  1.
         11    1    3    3    0    0 -0.28064685045E+01  0.55933986832E+01 -0.11953542265E+02  0.13492573781E+02  0.51100000000E-03 0.  1.
        -11    1    3    3    0    0 -0.34922732320E+01  0.43259055815E+01 -0.64119500455E+00  0.55964777067E+01  0.51100000000E-03 0. -1.
        -12    1    3    3    0    0 -0.57419579493E+01  0.16310282187E+01  0.39767217443E+02  0.40212708405E+02  0.00000000000E+00 0.  1.
</event>
<event>
 7    1  0.6953847E-012  0.5930195E+02  0.7816164E-02  0.1266605E+00
        -11   -1    0    0    0    0  0.00000000000E+00  0.00000000000E+00  0.45593999997E+02  0.45594000000E+02  0.51100000000E-03 0. -1.
         11   -1    0    0    0    0 -0.00000000000E+00 -0.00000000000E+00 -0.45593999997E+02  0.45594000000E+02  0.51100000000E-03 0.  1.
    9900012    2    1    2    0    0 -0.53964802767E+01  0.19001689583E+02  0.25030665903E+02  0.59301945964E+02  0.50000003532E+02 0.  0.
        -12    1    1    2    0    0  0.53964802767E+01 -0.19001689583E+02 -0.25030665903E+02  0.31886054036E+02  0.00000000000E+00 0.  1.
         11    1    3    3    0    0 -0.11796116095E+02  0.85036526050E+01  0.84282339509E+01  0.16807605134E+02  0.51100000000E-03 0.  1.
        -11    1    3    3    0    0 -0.86540723383E+01  0.13661215553E+02  0.20991106961E+02  0.26498082008E+02  0.51100000000E-03 0. -1.
        -12    1    3    3    0    0  0.15053708157E+02 -0.31631785745E+01 -0.43886750086E+01  0.15996258822E+02  0.00000000000E+00 0.  1.
</event>
<event>
 7    1  0.6953847E-012  0.5930190E+02  0.7816164E-02  0.1266605E+00
        -11   -1    0    0    0    0  0.00000000000E+00  0.00000000000E+00  0.45593999997E+02  0.45594000000E+02  0.51100000000E-03 0.  1.
         11   -1    0    0    0    0 -0.00000000000E+00 -0.00000000000E+00 -0.45593999997E+02  0.45594000000E+02  0.51100000000E-03 0. -1.
    9900012    2    1    2    0    0  0.78080948661E+01 -0.30080577704E+02 -0.71355354254E+01  0.59301900109E+02  0.49999919902E+02 0.  0.
        -12    1    1    2    0    0 -0.78080948661E+01  0.30080577704E+02  0.71355354254E+01  0.31886099891E+02  0.00000000000E+00 0.  1.
         11    1    3    3    0    0 -0.89828529042E+01 -0.84782413406E+01 -0.13603666160E+02  0.18374764101E+02  0.51100000000E-03 0. -1.
        -11    1    3    3    0    0  0.47934558131E+01  0.74599548757E+01  0.21400689874E+00  0.88698334028E+01  0.51100000000E-03 0.  1.
        -12    1    3    3    0    0  0.11997491957E+02 -0.29062291239E+02  0.62541238355E+01  0.32057302605E+02  0.00000000000E+00 0.  1.
</event>
<event>
 7    1  0.6953847E-012  0.5930194E+02  0.7816164E-02  0.1266605E+00
        -11   -1    0    0    0    0  0.00000000000E+00  0.00000000000E+00  0.45593999997E+02  0.45594000000E+02  0.51100000000E-03 0.  1.
         11   -1    0    0    0    0 -0.00000000000E+00 -0.00000000000E+00 -0.45593999997E+02  0.45594000000E+02  0.51100000000E-03 0. -1.
    9900012    2    1    2    0    0  0.53078967751E+01 -0.24937572755E+02 -0.19148483569E+02  0.59301941510E+02  0.49999995408E+02 0.  0.
        -12    1    1    2    0    0 -0.53078967751E+01  0.24937572755E+02  0.19148483569E+02  0.31886058490E+02  0.00000000000E+00 0.  1.
         11    1    3    3    0    0  0.58715785053E+01 -0.15494606397E+02 -0.12989262968E+01  0.16620633903E+02  0.51100000000E-03 0. -1.
        -11    1    3    3    0    0  0.15671016791E+01 -0.29196272537E+01  0.11795612992E+02  0.12252204581E+02  0.51100000000E-03 0.  1.
         12    1    3    3    0    0 -0.21307834093E+01 -0.65233391037E+01 -0.29645170264E+02  0.30429103026E+02  0.00000000000E+00 0. -1.
</event>
<event>
 7    1  0.6953847E-012  0.5930195E+02  0.7816164E-02  0.1266605E+00
        -11   -1    0    0    0    0  0.00000000000E+00  0.00000000000E+00  0.45593999997E+02  0.45594000000E+02  0.51100000000E-03 0.  1.
         11   -1    0    0    0    0 -0.00000000000E+00 -0.00000000000E+00 -0.45593999997E+02  0.45594000000E+02  0.51100000000E-03 0. -1.
    9900012    2    1    2    0    0 -0.25199653429E+01  0.10857622137E+02 -0.29874436121E+02  0.59301951055E+02  0.50000012815E+02 0.  0.
        -12    1    1    2    0    0  0.25199653429E+01 -0.10857622137E+02  0.29874436121E+02  0.31886048945E+02  0.00000000000E+00 0.  1.
         11    1    3    3    0    0 -0.37870570611E+01  0.23704076749E+00 -0.10415444088E+02  0.11085101051E+02  0.51100000000E-03 0. -1.
        -11    1    3    3    0    0 -0.19171373363E+02 -0.18201827938E+01 -0.13621145781E+02  0.23587925612E+02  0.51100000000E-03 0.  1.
         12    1    3    3    0    0  0.20438465081E+02  0.12440764163E+02 -0.58378462526E+01  0.24628924392E+02  0.00000000000E+00 0. -1.
</event>
<event>
 7    1  0.7893583E-012  0.5930194E+02  0.7816164E-02  0.1266605E+00
        -11   -1    0    0    0    0  0.00000000000E+00  0.00000000000E+00  0.45593999997E+02  0.45594000000E+02  0.51100000000E-03 0. -1.
         11   -1    0    0    0    0 -0.00000000000E+00 -0.00000000000E+00 -0.45593999997E+02  0.45594000000E+02  0.51100000000E-03 0.  1.
    9900012    2    1    2    0    0 -0.16528274227E+01  0.13437081432E+02  0.28869255112E+02  0.59301938992E+02  0.49999990816E+02 0.  0.
        -12    1    1    2    0    0  0.16528274227E+01 -0.13437081432E+02 -0.28869255112E+02  0.31886061008E+02  0.00000000000E+00 0.  1.
         11    1    3    3    0    0  0.14491539007E+01  0.54202446381E+01  0.32468039166E+02  0.32949243793E+02  0.51100000000E-03 0. -1.
        -11    1    3    3    0    0 -0.68885183057E+01  0.15567588593E+02  0.35254606458E+00  0.17027207289E+02  0.51100000000E-03 0.  1.
        -12    1    3    3    0    0  0.37865369823E+01 -0.75507517992E+01 -0.39513301192E+01  0.93254879102E+01  0.00000000000E+00 0.  1.
</event>
<event>
 7    1  0.6953847E-012  0.5930196E+02  0.7816164E-02  0.1266605E+00
        -11   -1    0    0    0    0  0.00000000000E+00  0.00000000000E+00  0.45593999997E+02  0.45594000000E+02  0.51100000000E-03 0.  1.
         11   -1    0    0    0    0 -0.00000000000E+00 -0.00000000000E+00 -0.45593999997E+02  0.45594000000E+02  0.51100000000E-03 0. -1.
    9900012    2    1    2    0    0 -0.34507934286E+01 -0.24436892405E+02 -0.20190343797E+02  0.59301958096E+02  0.50000025656E+02 0.  0.
        -12    1    1    2    0    0  0.34507934286E+01  0.24436892405E+02  0.20190343797E+02  0.31886041904E+02  0.00000000000E+00 0.  1.
         11    1    3    3    0    0 -0.31279795254E+01 -0.47624545597E+01 -0.78329241894E+00  0.57514151840E+01  0.51100000000E-03 0. -1.
        -11    1    3    3    0    0 -0.65283132701E+00 -0.17062657094E+02  0.12734795885E+02  0.21301067634E+02  0.51100000000E-03 0.  1.
         12    1    3    3    0    0  0.33001742383E+00 -0.26117807513E+01 -0.32141847263E+02  0.32249475278E+02  0.00000000000E+00 0. -1.
</event>
<event>
 7    1  0.6953847E-012  0.5930194E+02  0.7816164E-02  0.1266605E+00
        -11   -1    0    0    0    0  0.00000000000E+00  0.00000000000E+00  0.45593999997E+02  0.45594000000E+02  0.51100000000E-03 0.  1.
         11   -1    0    0    0    0 -0.00000000000E+00 -0.00000000000E+00 -0.45593999997E+02  0.45594000000E+02  0.51100000000E-03 0. -1.
    9900012    2    1    2    0    0  0.29620660586E+02 -0.11782009998E+02 -0.72228936373E+00  0.59301937291E+02  0.49999987715E+02 0.  0.
        -12    1    1    2    0    0 -0.29620660586E+02  0.11782009998E+02  0.72228936373E+00  0.31886062709E+02  0.00000000000E+00 0.  1.
         11    1    3    3    0    0  0.81567973388E+01 -0.41630656611E+01 -0.11117118619E+02  0.14403290776E+02  0.51100000000E-03 0. -1.
        -11    1    3    3    0    0 -0.91308320663E+01 -0.92851770707E+01  0.25423398812E+01  0.13268387234E+02  0.51100000000E-03 0.  1.
        -12    1    3    3    0    0  0.30594695313E+02  0.16662327339E+01  0.78524893742E+01  0.31630259281E+02  0.00000000000E+00 0.  1.
</event>
<event>
 7    1  0.6953847E-012  0.5930193E+02  0.7816164E-02  0.1266605E+00
        -11   -1    0    0    0    0  0.00000000000E+00  0.00000000000E+00  0.45593999997E+02  0.45594000000E+02  0.51100000000E-03 0. -1.
         11   -1    0    0    0    0 -0.00000000000E+00 -0.00000000000E+00 -0.45593999997E+02  0.45594000000E+02  0.51100000000E-03 0.  1.
    9900012    2    1    2    0    0  0.27757378255E+02  0.10634758760E+02 -0.11539115056E+02  0.59301932231E+02  0.49999978485E+02 0.  0.
        -12    1    1    2    0    0 -0.27757378255E+02 -0.10634758760E+02  0.11539115056E+02  0.31886067769E+02  0.00000000000E+00 0.  1.
         11    1    3    3    0    0  0.10095401632E+01  0.13444610541E+02 -0.10629228229E+02  0.17168494895E+02  0.51100000000E-03 0. -1.
        -11    1    3    3    0    0 -0.72064894823E+01  0.23599920017E+00  0.30194851590E+01  0.78170632060E+01  0.51100000000E-03 0.  1.
         12    1    3    3    0    0  0.33954327574E+02 -0.30458509815E+01 -0.39293719865E+01  0.34316374130E+02  0.00000000000E+00 0. -1.
</event>
<event>
 7    1  0.6953847E-012  0.5930197E+02  0.7816164E-02  0.1266605E+00
        -11   -1    0    0    0    0  0.00000000000E+00  0.00000000000E+00  0.45593999997E+02  0.45594000000E+02  0.51100000000E-03 0.  1.
         11   -1    0    0    0    0 -0.00000000000E+00 -0.00000000000E+00 -0.45593999997E+02  0.45594000000E+02  0.51100000000E-03 0. -1.
    9900012    2    1    2    0    0  0.24035389548E+02  0.19898265483E+02 -0.65633734979E+01  0.59301971842E+02  0.50000050727E+02 0.  0.
        -12    1    1    2    0    0 -0.24035389548E+02 -0.19898265483E+02  0.65633734979E+01  0.31886028158E+02  0.00000000000E+00 0.  1.
         11    1    3    3    0    0  0.10620203288E+02  0.50756456124E+01  0.18007939668E+02  0.21513641895E+02  0.51100000000E-03 0. -1.
        -11    1    3    3    0    0  0.31960864023E+01  0.24843384442E+00  0.33749655572E+01  0.46547911274E+01  0.51100000000E-03 0.  1.
         12    1    3    3    0    0  0.10219099858E+02  0.14574186027E+02 -0.27946278723E+02  0.33133538820E+02  0.00000000000E+00 0. -1.
</event>
<event>
 7    1  0.6953847E-012  0.5930194E+02  0.7816164E-02  0.1266605E+00
        -11   -1    0    0    0    0  0.00000000000E+00  0.00000000000E+00  0.45593999997E+02  0.45594000000E+02  0.51100000000E-03 0. -1.
         11   -1    0    0    0    0 -0.00000000000E+00 -0.00000000000E+00 -0.45593999997E+02  0.45594000000E+02  0.51100000000E-03 0.  1.
    9900012    2    1    2    0    0 -0.24441253865E+02  0.56035635344E+01  0.19696348936E+02  0.59301937588E+02  0.49999988255E+02 0.  0.
        -12    1    1    2    0    0  0.24441253865E+02 -0.56035635344E+01 -0.19696348936E+02  0.31886062412E+02  0.00000000000E+00 0.  1.
         11    1    3    3    0    0 -0.15602706490E+01  0.49519354508E+01  0.33484575311E+01  0.61780480174E+01  0.51100000000E-03 0. -1.
        -11    1    3    3    0    0 -0.16590299913E+02  0.19008029417E+02 -0.33764965930E+01  0.25454743429E+02  0.51100000000E-03 0.  1.
         12    1    3    3    0    0 -0.62906833028E+01 -0.18356401333E+02  0.19724387998E+02  0.27669146141E+02  0.00000000000E+00 0. -1.
</event>
<event>
 7    1  0.6953847E-012  0.5930175E+02  0.7816164E-02  0.1266605E+00
        -11   -1    0    0    0    0  0.00000000000E+00  0.00000000000E+00  0.45593999997E+02  0.45594000000E+02  0.51100000000E-03 0.  1.
         11   -1    0    0    0    0 -0.00000000000E+00 -0.00000000000E+00 -0.45593999997E+02  0.45594000000E+02  0.51100000000E-03 0. -1.
    9900012    2    1    2    0    0  0.25731037510E+02  0.18546836669E+02  0.32652070878E+01  0.59301748745E+02  0.49999643850E+02 0.  0.
        -12    1    1    2    0    0 -0.25731037510E+02 -0.18546836669E+02 -0.32652070878E+01  0.31886251255E+02  0.00000000000E+00 0.  1.
         11    1    3    3    0    0  0.31678716870E+01  0.87105532680E+00 -0.42883581668E+01  0.54022369844E+01  0.51100000000E-03 0. -1.
        -11    1    3    3    0    0  0.29838035300E+02  0.16761555525E+02 -0.93469236294E+01  0.35477078174E+02  0.51100000000E-03 0.  1.
        -12    1    3    3    0    0 -0.72748694762E+01  0.91422581767E+00  0.16900488884E+02  0.18422433587E+02  0.00000000000E+00 0.  1.
</event>
<event>
 7    1  0.6953847E-012  0.5930194E+02  0.7816164E-02  0.1266605E+00
        -11   -1    0    0    0    0  0.00000000000E+00  0.00000000000E+00  0.45593999997E+02  0.45594000000E+02  0.51100000000E-03 0.  1.
         11   -1    0    0    0    0 -0.00000000000E+00 -0.00000000000E+00 -0.45593999997E+02  0.45594000000E+02  0.51100000000E-03 0. -1.
    9900012    2    1    2    0    0 -0.14717598664E+02 -0.28006250233E+02 -0.39702718704E+01  0.59301940017E+02  0.49999992685E+02 0.  0.
        -12    1    1    2    0    0  0.14717598664E+02  0.28006250233E+02  0.39702718704E+01  0.31886059983E+02  0.00000000000E+00 0.  1.
         11    1    3    3    0    0 -0.81348299920E+01 -0.26895907956E+02 -0.80350490725E+01  0.29225457013E+02  0.51100000000E-03 0. -1.
        -11    1    3    3    0    0 -0.36070470568E+01  0.39246846985E+01 -0.11918788345E+02  0.13056471741E+02  0.51100000000E-03 0.  1.
        -12    1    3    3    0    0 -0.29757216151E+01 -0.50350269758E+01  0.15983565547E+02  0.17020011263E+02  0.00000000000E+00 0.  1.
</event>
<event>
 7    1  0.6953847E-012  0.5930195E+02  0.7816164E-02  0.1266605E+00
        -11   -1    0    0    0    0  0.00000000000E+00  0.00000000000E+00  0.45593999997E+02  0.45594000000E+02  0.51100000000E-03 0.  1.
         11   -1    0    0    0    0 -0.00000000000E+00 -0.00000000000E+00 -0.45593999997E+02  0.45594000000E+02  0.51100000000E-03 0. -1.
    9900012    2    1    2    0    0  0.88725667160E+01 -0.10287029889E+02 -0.28847443735E+02  0.59301946088E+02  0.50000003757E+02 0.  0.
        -12    1    1    2    0    0 -0.88725667160E+01  0.10287029889E+02  0.28847443735E+02  0.31886053912E+02  0.00000000000E+00 0.  1.
         11    1    3    3    0    0 -0.55854164040E+01 -0.16261864726E+01 -0.80508817154E+01  0.99326761503E+01  0.51100000000E-03 0. -1.
        -11    1    3    3    0    0  0.13052888967E+02 -0.14536507255E+02 -0.31506916187E+02  0.37072546735E+02  0.51100000000E-03 0.  1.
        -12    1    3    3    0    0  0.14050941528E+01  0.58756638384E+01  0.10710354167E+02  0.12296723202E+02  0.00000000000E+00 0.  1.
</event>
<event>
 7    1  0.6953847E-012  0.5930195E+02  0.7816164E-02  0.1266605E+00
        -11   -1    0    0    0    0  0.00000000000E+00  0.00000000000E+00  0.45593999997E+02  0.45594000000E+02  0.51100000000E-03 0. -1.
         11   -1    0    0    0    0 -0.00000000000E+00 -0.00000000000E+00 -0.45593999997E+02  0.45594000000E+02  0.51100000000E-03 0.  1.
    9900012    2    1    2    0    0  0.24051360808E+02 -0.43549165326E+01  0.20476497745E+02  0.59301949529E+02  0.50000010033E+02 0.  0.
        -12    1    1    2    0    0 -0.24051360808E+02  0.43549165326E+01 -0.20476497745E+02  0.31886050471E+02  0.00000000000E+00 0.  1.
         11    1    3    3    0    0  0.78812942124E+01 -0.18567597282E+01 -0.47448334772E+01  0.93848708109E+01  0.51100000000E-03 0. -1.
        -11    1    3    3    0    0 -0.84086866308E+01 -0.13691694992E+02  0.96057625299E+01  0.18720021278E+02  0.51100000000E-03 0.  1.
         12    1    3    3    0    0  0.24578753226E+02  0.11193538188E+02  0.15615568693E+02  0.31197057440E+02  0.00000000000E+00 0. -1.
</event>
<event>
 7    1  0.6953847E-012  0.5930200E+02  0.7816164E-02  0.1266605E+00
        -11   -1    0    0    0    0  0.00000000000E+00  0.00000000000E+00  0.45593999997E+02  0.45594000000E+02  0.51100000000E-03 0.  1.
         11   -1    0    0    0    0 -0.00000000000E+00 -0.00000000000E+00 -0.45593999997E+02  0.45594000000E+02  0.51100000000E-03 0. -1.
    9900012    2    1    2    0    0  0.25383051982E+02 -0.12277696934E+02 -0.14888784666E+02  0.59301998703E+02  0.50000099714E+02 0.  0.
        -12    1    1    2    0    0 -0.25383051982E+02  0.12277696934E+02  0.14888784666E+02  0.31886001297E+02  0.00000000000E+00 0.  1.
         11    1    3    3    0    0  0.89873699179E+01 -0.55518223567E+00  0.19812557100E+01  0.92198926136E+01  0.51100000000E-03 0. -1.
        -11    1    3    3    0    0 -0.14209464637E+02 -0.62567537724E+01 -0.92497052432E+01  0.18072434822E+02  0.51100000000E-03 0.  1.
         12    1    3    3    0    0  0.30605146701E+02 -0.54657609257E+01 -0.76203351324E+01  0.32009671267E+02  0.00000000000E+00 0. -1.
</event>
<event>
 7    1  0.6953847E-012  0.5930191E+02  0.7816164E-02  0.1266605E+00
        -11   -1    0    0    0    0  0.00000000000E+00  0.00000000000E+00  0.45593999997E+02  0.45594000000E+02  0.51100000000E-03 0. -1.
         11   -1    0    0    0    0 -0.00000000000E+00 -0.00000000000E+00 -0.45593999997E+02  0.45594000000E+02  0.51100000000E-03 0.  1.
    9900012    2    1    2    0    0  0.93956762668E+01 -0.95064598093E+01  0.28949460418E+02  0.59301909472E+02  0.49999936979E+02 0.  0.
        -12    1    1    2    0    0 -0.93956762668E+01  0.95064598093E+01 -0.28949460418E+02  0.31886090528E+02  0.00000000000E+00 0.  1.
         11    1    3    3    0    0 -0.80680901077E+00  0.18914923732E+01  0.56101856212E+01  0.59751876241E+01  0.51100000000E-03 0. -1.
        -11    1    3    3    0    0 -0.44905042885E+00 -0.62347539072E+01 -0.13368448158E+02  0.14757683049E+02  0.51100000000E-03 0.  1.
         12    1    3    3    0    0  0.10651535706E+02 -0.51631982753E+01  0.36707722955E+02  0.38569038799E+02  0.00000000000E+00 0. -1.
</event>
<event>
 7    1  0.6953847E-012  0.5930194E+02  0.7816164E-02  0.1266605E+00
        -11   -1    0    0    0    0  0.00000000000E+00  0.00000000000E+00  0.45593999997E+02  0.45594000000E+02  0.51100000000E-03 0.  1.
         11   -1    0    0    0    0 -0.00000000000E+00 -0.00000000000E+00 -0.45593999997E+02  0.45594000000E+02  0.51100000000E-03 0. -1.
    9900012    2    1    2    0    0  0.12757831966E+02 -0.18283923518E+02 -0.22795980966E+02  0.59301939034E+02  0.49999990893E+02 0.  0.
        -12    1    1    2    0    0 -0.12757831966E+02  0.18283923518E+02  0.22795980966E+02  0.31886060966E+02  0.00000000000E+00 0.  1.
         11    1    3    3    0    0  0.15622690593E+02  0.10718372304E+02 -0.17022151055E+02  0.25469699508E+02  0.51100000000E-03 0. -1.
        -11    1    3    3    0    0  0.29874849999E+01 -0.21148703065E+01  0.32279274549E+01  0.48802929167E+01  0.51100000000E-03 0.  1.
        -12    1    3    3    0    0 -0.58523436274E+01 -0.26887425516E+02 -0.90017573659E+01  0.28951946610E+02  0.00000000000E+00 0.  1.
</event>
<event>
 7    1  0.6953847E-012  0.5930195E+02  0.7816164E-02  0.1266605E+00
        -11   -1    0    0    0    0  0.00000000000E+00  0.00000000000E+00  0.45593999997E+02  0.45594000000E+02  0.51100000000E-03 0. -1.
         11   -1    0    0    0    0 -0.00000000000E+00 -0.00000000000E+00 -0.45593999997E+02  0.45594000000E+02  0.51100000000E-03 0.  1.
    9900012    2    1    2    0    0  0.26964313612E+02 -0.13427950366E+02  0.10456382579E+02  0.59301952954E+02  0.50000016279E+02 0.  0.
        -12    1    1    2    0    0 -0.26964313612E+02  0.13427950366E+02 -0.10456382579E+02  0.31886047046E+02  0.00000000000E+00 0.  1.
         11    1    3    3    0    0  0.27491729519E+02 -0.86690267032E+01  0.14640299790E+02  0.32330876792E+02  0.51100000000E-03 0. -1.
        -11    1    3    3    0    0  0.90177288664E+00 -0.14243967354E+02 -0.83252742969E+01  0.16523135075E+02  0.51100000000E-03 0.  1.
        -12    1    3    3    0    0 -0.14291887931E+01  0.94850436917E+01  0.41413570861E+01  0.10447941087E+02  0.00000000000E+00 0.  1.
</event>
<event>
 7    1  0.6953847E-012  0.5930192E+02  0.7816164E-02  0.1266605E+00
        -11   -1    0    0    0    0  0.00000000000E+00  0.00000000000E+00  0.45593999997E+02  0.45594000000E+02  0.51100000000E-03 0. -1.
         11   -1    0    0    0    0 -0.00000000000E+00 -0.00000000000E+00 -0.45593999997E+02  0.45594000000E+02  0.51100000000E-03 0.  1.
    9900012    2    1    2    0    0 -0.30955626956E+02  0.71231901474E+01  0.27805605353E+01  0.59301918475E+02  0.49999953399E+02 0.  0.
        -12    1    1    2    0    0  0.30955626956E+02 -0.71231901474E+01 -0.27805605353E+01  0.31886081525E+02  0.00000000000E+00 0.  1.
         11    1    3    3    0    0 -0.16949382762E+01  0.93725029487E+01 -0.14907825461E+02  0.17690672331E+02  0.51100000000E-03 0. -1.
        -11    1    3    3    0    0 -0.14384256749E+02  0.91968891360E+01  0.20800985643E+01  0.17199314588E+02  0.51100000000E-03 0.  1.
        -12    1    3    3    0    0 -0.14876431930E+02 -0.11446201937E+02  0.15608287432E+02  0.24411931556E+02  0.00000000000E+00 0.  1.
</event>
<event>
 7    1  0.6953847E-012  0.5930195E+02  0.7816164E-02  0.1266605E+00
        -11   -1    0    0    0    0  0.00000000000E+00  0.00000000000E+00  0.45593999997E+02  0.45594000000E+02  0.51100000000E-03 0.  1.
         11   -1    0    0    0    0 -0.00000000000E+00 -0.00000000000E+00 -0.45593999997E+02  0.45594000000E+02  0.51100000000E-03 0. -1.
    9900012    2    1    2    0    0  0.23580859079E+02 -0.77707278718E+01 -0.20006973640E+02  0.59301951001E+02  0.50000012717E+02 0.  0.
        -12    1    1    2    0    0 -0.23580859079E+02  0.77707278718E+01  0.20006973640E+02  0.31886048999E+02  0.00000000000E+00 0.  1.
         11    1    3    3    0    0  0.21536242208E+01  0.73177220425E+01 -0.24907817295E+01  0.80244094525E+01  0.51100000000E-03 0. -1.
        -11    1    3    3    0    0  0.58839990042E+01  0.12960778039E+02  0.96280041919E+00  0.14266400967E+02  0.51100000000E-03 0.  1.
         12    1    3    3    0    0  0.15543235854E+02 -0.28049227953E+02 -0.18478992329E+02  0.37011140581E+02  0.00000000000E+00 0. -1.
</event>
<event>
 7    1  0.6953847E-012  0.5930194E+02  0.7816164E-02  0.1266605E+00
        -11   -1    0    0    0    0  0.00000000000E+00  0.00000000000E+00  0.45593999997E+02  0.45594000000E+02  0.51100000000E-03 0.  1.
         11   -1    0    0    0    0 -0.00000000000E+00 -0.00000000000E+00 -0.45593999997E+02  0.45594000000E+02  0.51100000000E-03 0. -1.
    9900012    2    1    2    0    0  0.98796931622E+00  0.28565541647E+02 -0.14133454513E+02  0.59301940516E+02  0.49999993595E+02 0.  0.
        -12    1    1    2    0    0 -0.98796931622E+00 -0.28565541647E+02  0.14133454513E+02  0.31886059484E+02  0.00000000000E+00 0.  1.
         11    1    3    3    0    0 -0.69235107062E+01  0.17391975195E+02 -0.13075946384E+02  0.22834101160E+02  0.51100000000E-03 0. -1.
        -11    1    3    3    0    0  0.25629107658E+01  0.22359799488E+02  0.43806062069E+01  0.22928559827E+02  0.51100000000E-03 0.  1.
        -12    1    3    3    0    0  0.53485692565E+01 -0.11186233036E+02 -0.54381143363E+01  0.13539279529E+02  0.00000000000E+00 0.  1.
</event>
<event>
 7    1  0.6953847E-012  0.5930195E+02  0.7816164E-02  0.1266605E+00
        -11   -1    0    0    0    0  0.00000000000E+00  0.00000000000E+00  0.45593999997E+02  0.45594000000E+02  0.51100000000E-03 0.  1.
         11   -1    0    0    0    0 -0.00000000000E+00 -0.00000000000E+00 -0.45593999997E+02  0.45594000000E+02  0.51100000000E-03 0. -1.
    9900012    2    1    2    0    0 -0.14653583407E+02  0.21348266703E+02 -0.18607641453E+02  0.59301947902E+02  0.50000007067E+02 0.  0.
        -12    1    1    2    0    0  0.14653583407E+02 -0.21348266703E+02  0.18607641453E+02  0.31886052098E+02  0.00000000000E+00 0.  1.
         11    1    3    3    0    0 -0.39675950594E+01  0.97886925468E+01  0.55036438539E-01  0.10562354927E+02  0.51100000000E-03 0. -1.
        -11    1    3    3    0    0 -0.23256366160E+02 -0.51165700387E+01 -0.69984312293E+01  0.24819667521E+02  0.51100000000E-03 0.  1.
         12    1    3    3    0    0  0.12570377812E+02  0.16676144195E+02 -0.11664246663E+02  0.23919925455E+02  0.00000000000E+00 0. -1.
</event>
<event>
 7    1  0.6953847E-012  0.5930193E+02  0.7816164E-02  0.1266605E+00
        -11   -1    0    0    0    0  0.00000000000E+00  0.00000000000E+00  0.45593999997E+02  0.45594000000E+02  0.51100000000E-03 0.  1.
         11   -1    0    0    0    0 -0.00000000000E+00 -0.00000000000E+00 -0.45593999997E+02  0.45594000000E+02  0.51100000000E-03 0. -1.
    9900012    2    1    2    0    0  0.10487433614E+02 -0.28990568055E+02  0.81413663776E+01  0.59301934917E+02  0.49999983385E+02 0.  0.
        -12    1    1    2    0    0 -0.10487433614E+02  0.28990568055E+02 -0.81413663776E+01  0.31886065083E+02  0.00000000000E+00 0.  1.
         11    1    3    3    0    0  0.13083610866E+02  0.53603014262E+01  0.13699750429E+02  0.19687479949E+02  0.51100000000E-03 0. -1.
        -11    1    3    3    0    0 -0.11642241508E+01 -0.76461716437E+01  0.66654252865E+01  0.10210154416E+02  0.51100000000E-03 0.  1.
        -12    1    3    3    0    0 -0.14319531018E+01 -0.26704697838E+02 -0.12223809337E+02  0.29404300553E+02  0.00000000000E+00 0.  1.
</event>
<event>
 7    1  0.6953847E-012  0.5930192E+02  0.7816164E-02  0.1266605E+00
        -11   -1    0    0    0    0  0.00000000000E+00  0.00000000000E+00  0.45593999997E+02  0.45594000000E+02  0.51100000000E-03 0. -1.
         11   -1    0    0    0    0 -0.00000000000E+00 -0.00000000000E+00 -0.45593999997E+02  0.45594000000E+02  0.51100000000E-03 0.  1.
    9900012    2    1    2    0    0 -0.13856529196E+02  0.91628692490E+01  0.27216921418E+02  0.59301915484E+02  0.49999947944E+02 0.  0.
        -12    1    1    2    0    0  0.13856529196E+02 -0.91628692490E+01 -0.27216921418E+02  0.31886084516E+02  0.00000000000E+00 0.  1.
         11    1    3    3    0    0 -0.10025151035E+02  0.11851371774E+02  0.30404623797E+02  0.34137952702E+02  0.51100000000E-03 0. -1.
        -11    1    3    3    0    0  0.46823368470E+01 -0.49834080060E+01 -0.11283315715E+02  0.13193629049E+02  0.51100000000E-03 0.  1.
         12    1    3    3    0    0 -0.85137150082E+01  0.22949054814E+01  0.80956133361E+01  0.11970333734E+02  0.00000000000E+00 0. -1.
</event>
<event>
 7    1  0.6953847E-012  0.5930194E+02  0.7816164E-02  0.1266605E+00
        -11   -1    0    0    0    0  0.00000000000E+00  0.00000000000E+00  0.45593999997E+02  0.45594000000E+02  0.51100000000E-03 0. -1.
         11   -1    0    0    0    0 -0.00000000000E+00 -0.00000000000E+00 -0.45593999997E+02  0.45594000000E+02  0.51100000000E-03 0.  1.
    9900012    2    1    2    0    0  0.99988554881E+01 -0.39649858359E+01  0.30017035171E+02  0.59301943107E+02  0.49999998320E+02 0.  0.
        -12    1    1    2    0    0 -0.99988554881E+01  0.39649858359E+01 -0.30017035171E+02  0.31886056893E+02  0.00000000000E+00 0.  1.
         11    1    3    3    0    0 -0.73631951310E+01 -0.17640675895E+02  0.17242088223E+02  0.25742954281E+02  0.51100000000E-03 0. -1.
        -11    1    3    3    0    0 -0.43118664594E+01  0.40990547514E+01  0.69683098409E+01  0.91625206422E+01  0.51100000000E-03 0.  1.
        -12    1    3    3    0    0  0.21673917079E+02  0.95766353075E+01  0.58066371067E+01  0.24396468183E+02  0.00000000000E+00 0.  1.
</event>
<event>
 7    1  0.6953847E-012  0.5930196E+02  0.7816164E-02  0.1266605E+00
        -11   -1    0    0    0    0  0.00000000000E+00  0.00000000000E+00  0.45593999997E+02  0.45594000000E+02  0.51100000000E-03 0.  1.
         11   -1    0    0    0    0 -0.00000000000E+00 -0.00000000000E+00 -0.45593999997E+02  0.45594000000E+02  0.51100000000E-03 0. -1.
    9900012    2    1    2    0    0  0.64325292459E+01 -0.25180314526E+02 -0.18474145876E+02  0.59301957003E+02  0.50000023664E+02 0.  0.
        -12    1    1    2    0    0 -0.64325292459E+01  0.25180314526E+02  0.18474145876E+02  0.31886042997E+02  0.00000000000E+00 0.  1.
         11    1    3    3    0    0  0.58094224899E+01 -0.22650315798E+01 -0.52233548585E+01  0.81340760977E+01  0.51100000000E-03 0. -1.
        -11    1    3    3    0    0  0.64208811018E+01  0.63431111216E+01  0.99101012759E+01  0.13404211293E+02  0.51100000000E-03 0.  1.
         12    1    3    3    0    0 -0.57977743458E+01 -0.29258394068E+02 -0.23160892294E+02  0.37763669613E+02  0.00000000000E+00 0. -1.
</event>
<event>
 7    1  0.6953847E-012  0.5930194E+02  0.7816164E-02  0.1266605E+00
        -11   -1    0    0    0    0  0.00000000000E+00  0.00000000000E+00  0.45593999997E+02  0.45594000000E+02  0.51100000000E-03 0.  1.
         11   -1    0    0    0    0 -0.00000000000E+00 -0.00000000000E+00 -0.45593999997E+02  0.45594000000E+02  0.51100000000E-03 0. -1.
    9900012    2    1    2    0    0 -0.20337665400E+02 -0.20204943915E+02 -0.13959245005E+02  0.59301938568E+02  0.49999990043E+02 0.  0.
        -12    1    1    2    0    0  0.20337665400E+02  0.20204943915E+02  0.13959245005E+02  0.31886061432E+02  0.00000000000E+00 0.  1.
         11    1    3    3    0    0 -0.22101368404E+02 -0.66269949722E+01 -0.23437751850E+02  0.32889447544E+02  0.51100000000E-03 0. -1.
        -11    1    3    3    0    0 -0.75949977464E+01 -0.44043449289E+01  0.99872515266E+01  0.13297647850E+02  0.51100000000E-03 0.  1.
        -12    1    3    3    0    0  0.93587007505E+01 -0.91736040135E+01 -0.50874468088E+00  0.13114843174E+02  0.00000000000E+00 0.  1.
</event>
<event>
 7    1  0.6953847E-012  0.5930198E+02  0.7816164E-02  0.1266605E+00
        -11   -1    0    0    0    0  0.00000000000E+00  0.00000000000E+00  0.45593999997E+02  0.45594000000E+02  0.51100000000E-03 0.  1.
         11   -1    0    0    0    0 -0.00000000000E+00 -0.00000000000E+00 -0.45593999997E+02  0.45594000000E+02  0.51100000000E-03 0. -1.
    9900012    2    1    2    0    0 -0.30541040493E+02 -0.90081909939E+01  0.16780235981E+01  0.59301977630E+02  0.50000061282E+02 0.  0.
        -12    1    1    2    0    0  0.30541040493E+02  0.90081909939E+01 -0.16780235981E+01  0.31886022370E+02  0.00000000000E+00 0.  1.
         11    1    3    3    0    0 -0.22341544261E+02 -0.28841154277E+00 -0.13431432724E+02  0.26069736602E+02  0.51100000000E-03 0. -1.
        -11    1    3    3    0    0 -0.43123248528E+01 -0.44899365525E+01 -0.75903638144E+01  0.98167865912E+01  0.51100000000E-03 0.  1.
        -12    1    3    3    0    0 -0.38871713789E+01 -0.42298428986E+01  0.22699820136E+02  0.23415454437E+02  0.00000000000E+00 0.  1.
</event>
<event>
 7    1  0.6953847E-012  0.5930194E+02  0.7816164E-02  0.1266605E+00
        -11   -1    0    0    0    0  0.00000000000E+00  0.00000000000E+00  0.45593999997E+02  0.45594000000E+02  0.51100000000E-03 0.  1.
         11   -1    0    0    0    0 -0.00000000000E+00 -0.00000000000E+00 -0.45593999997E+02  0.45594000000E+02  0.51100000000E-03 0. -1.
    9900012    2    1    2    0    0 -0.18269884512E+02 -0.63971759621E+01 -0.25337885931E+02  0.59301937154E+02  0.49999987463E+02 0.  0.
        -12    1    1    2    0    0  0.18269884512E+02  0.63971759621E+01  0.25337885931E+02  0.31886062846E+02  0.00000000000E+00 0.  1.
         11    1    3    3    0    0  0.39502665736E+00  0.32266770911E+00 -0.16184403979E+02  0.16192439375E+02  0.51100000000E-03 0. -1.
        -11    1    3    3    0    0 -0.62603277323E+01  0.15327952476E+02 -0.12427853260E+01  0.16603684713E+02  0.51100000000E-03 0.  1.
        -12    1    3    3    0    0 -0.12404583437E+02 -0.22047796147E+02 -0.79106966267E+01  0.26505813066E+02  0.00000000000E+00 0.  1.
</event>
<event>
 7    1  0.6953847E-012  0.5930196E+02  0.7816164E-02  0.1266605E+00
        -11   -1    0    0    0    0  0.00000000000E+00  0.00000000000E+00  0.45593999997E+02  0.45594000000E+02  0.51100000000E-03 0. -1.
         11   -1    0    0    0    0 -0.00000000000E+00 -0.00000000000E+00 -0.45593999997E+02  0.45594000000E+02  0.51100000000E-03 0.  1.
    9900012    2    1    2    0    0  0.25292185154E+02  0.14778731757E+02 -0.12594206433E+02  0.59301959514E+02  0.50000028243E+02 0.  0.
        -12    1    1    2    0    0 -0.25292185154E+02 -0.14778731757E+02  0.12594206433E+02  0.31886040486E+02  0.00000000000E+00 0.  1.
         11    1    3    3    0    0 -0.76440568420E+01  0.27835631751E+01  0.25049395015E+01  0.85120239145E+01  0.51100000000E-03 0. -1.
        -11    1    3    3    0    0  0.22957215935E+02  0.27881691134E+01  0.75976510994E+01  0.24341979233E+02  0.51100000000E-03 0.  1.
        -12    1    3    3    0    0  0.99790260611E+01  0.92069994686E+01 -0.22696797034E+02  0.26447956366E+02  0.00000000000E+00 0.  1.
</event>
<event>
 7    1  0.6953847E-012  0.5930195E+02  0.7816164E-02  0.1266605E+00
        -11   -1    0    0    0    0  0.00000000000E+00  0.00000000000E+00  0.45593999997E+02  0.45594000000E+02  0.51100000000E-03 0. -1.
         11   -1    0    0    0    0 -0.00000000000E+00 -0.00000000000E+00 -0.45593999997E+02  0.45594000000E+02  0.51100000000E-03 0.  1.
    9900012    2    1    2    0    0  0.13915870448E+02 -0.28144649194E+02  0.55630525122E+01  0.59301948475E+02  0.50000008111E+02 0.  0.
        -12    1    1    2    0    0 -0.13915870448E+02  0.28144649194E+02 -0.55630525122E+01  0.31886051525E+02  0.00000000000E+00 0.  1.
         11    1    3    3    0    0 -0.82202406896E+01 -0.18385379749E+02 -0.13972252969E+01  0.20187787999E+02  0.51100000000E-03 0. -1.
        -11    1    3    3    0    0  0.41690145329E+01 -0.17881245144E+02  0.50844827774E+00  0.18367855890E+02  0.51100000000E-03 0.  1.
         12    1    3    3    0    0  0.17967096605E+02  0.81219756988E+01  0.64518295313E+01  0.20746304586E+02  0.00000000000E+00 0. -1.
</event>
<event>
 7    1  0.6953847E-012  0.5930194E+02  0.7816164E-02  0.1266605E+00
        -11   -1    0    0    0    0  0.00000000000E+00  0.00000000000E+00  0.45593999997E+02  0.45594000000E+02  0.51100000000E-03 0. -1.
         11   -1    0    0    0    0 -0.00000000000E+00 -0.00000000000E+00 -0.45593999997E+02  0.45594000000E+02  0.51100000000E-03 0.  1.
    9900012    2    1    2    0    0  0.26615942005E+02 -0.74483337291E+01  0.15900786767E+02  0.59301936211E+02  0.49999985744E+02 0.  0.
        -12    1    1    2    0    0 -0.26615942005E+02  0.74483337291E+01 -0.15900786767E+02  0.31886063789E+02  0.00000000000E+00 0.  1.
         11    1    3    3    0    0 -0.23303910170E+01 -0.45465715104E+01  0.16888220214E+02  0.17644092979E+02  0.51100000000E-03 0. -1.
        -11    1    3    3    0    0  0.12289150820E+02  0.18854719736E+00  0.14287822421E+02  0.18846767567E+02  0.51100000000E-03 0.  1.
        -12    1    3    3    0    0  0.16657182201E+02 -0.30903094160E+01 -0.15275255867E+02  0.22811075665E+02  0.00000000000E+00 0.  1.
</event>
<event>
 7    1  0.6953847E-012  0.5930192E+02  0.7816164E-02  0.1266605E+00
        -11   -1    0    0    0    0  0.00000000000E+00  0.00000000000E+00  0.45593999997E+02  0.45594000000E+02  0.51100000000E-03 0. -1.
         11   -1    0    0    0    0 -0.00000000000E+00 -0.00000000000E+00 -0.45593999997E+02  0.45594000000E+02  0.51100000000E-03 0.  1.
    9900012    2    1    2    0    0 -0.18000091926E+02 -0.25798938189E+02  0.52090128724E+01  0.59301916262E+02  0.49999949362E+02 0.  0.
        -12    1    1    2    0    0  0.18000091926E+02  0.25798938189E+02 -0.52090128724E+01  0.31886083738E+02  0.00000000000E+00 0.  1.
         11    1    3    3    0    0 -0.13770067208E+02  0.48783267922E+01 -0.28034473048E+00  0.14611345476E+02  0.51100000000E-03 0. -1.
        -11    1    3    3    0    0 -0.12014914068E+02 -0.33698131104E+02  0.26638490422E+01  0.35875037170E+02  0.51100000000E-03 0.  1.
         12    1    3    3    0    0  0.77848893493E+01  0.30208661222E+01  0.28255085606E+01  0.88155336160E+01  0.00000000000E+00 0. -1.
</event>
<event>
 7    1  0.6953847E-012  0.5930193E+02  0.7816164E-02  0.1266605E+00
        -11   -1    0    0    0    0  0.00000000000E+00  0.00000000000E+00  0.45593999997E+02  0.45594000000E+02  0.51100000000E-03 0.  1.
         11   -1    0    0    0    0 -0.00000000000E+00 -0.00000000000E+00 -0.45593999997E+02  0.45594000000E+02  0.51100000000E-03 0. -1.
    9900012    2    1    2    0    0 -0.23056043869E+02  0.21203993834E+02 -0.59607643786E+01  0.59301933680E+02  0.49999981129E+02 0.  0.
        -12    1    1    2    0    0  0.23056043869E+02 -0.21203993834E+02  0.59607643786E+01  0.31886066320E+02  0.00000000000E+00 0.  1.
         11    1    3    3    0    0 -0.70168200357E+01 -0.69563312185E+00  0.24513822556E+01  0.74651821195E+01  0.51100000000E-03 0. -1.
        -11    1    3    3    0    0  0.56156932195E+00  0.21115488828E+02  0.12945877737E+02  0.24774482420E+02  0.51100000000E-03 0.  1.
         12    1    3    3    0    0 -0.16600793155E+02  0.78413812777E+00 -0.21358024372E+02  0.27062269141E+02  0.00000000000E+00 0. -1.
</event>
<event>
 7    1  0.6953847E-012  0.5930188E+02  0.7816164E-02  0.1266605E+00
        -11   -1    0    0    0    0  0.00000000000E+00  0.00000000000E+00  0.45593999997E+02  0.45594000000E+02  0.51100000000E-03 0. -1.
         11   -1    0    0    0    0 -0.00000000000E+00 -0.00000000000E+00 -0.45593999997E+02  0.45594000000E+02  0.51100000000E-03 0.  1.
    9900012    2    1    2    0    0  0.10228202478E+02  0.12100539128E+02  0.27671018585E+02  0.59301883231E+02  0.49999889121E+02 0.  0.
        -12    1    1    2    0    0 -0.10228202478E+02 -0.12100539128E+02 -0.27671018585E+02  0.31886116769E+02  0.00000000000E+00 0.  1.
         11    1    3    3    0    0 -0.47452307900E+01 -0.38482589968E+01  0.51133020444E+01  0.79669423630E+01  0.51100000000E-03 0.  1.
        -11    1    3    3    0    0  0.27507058881E+02  0.17108864649E+02  0.21109408530E+02  0.38664695351E+02  0.51100000000E-03 0. -1.
         12    1    3    3    0    0 -0.12533625613E+02 -0.11600665245E+01  0.14483080105E+01  0.12670245517E+02  0.00000000000E+00 0. -1.
</event>
<event>
 7    1  0.6953847E-012  0.5930193E+02  0.7816164E-02  0.1266605E+00
        -11   -1    0    0    0    0  0.00000000000E+00  0.00000000000E+00  0.45593999997E+02  0.45594000000E+02  0.51100000000E-03 0. -1.
         11   -1    0    0    0    0 -0.00000000000E+00 -0.00000000000E+00 -0.45593999997E+02  0.45594000000E+02  0.51100000000E-03 0.  1.
    9900012    2    1    2    0    0  0.30708048850E+02 -0.56296335364E+01  0.64841445552E+01  0.59301934571E+02  0.49999982753E+02 0.  0.
        -12    1    1    2    0    0 -0.30708048850E+02  0.56296335364E+01 -0.64841445552E+01  0.31886065429E+02  0.00000000000E+00 0.  1.
         11    1    3    3    0    0  0.32021504266E+02 -0.30585837643E+01  0.77359722828E+01  0.33084391146E+02  0.51100000000E-03 0. -1.
        -11    1    3    3    0    0  0.67975134070E+01  0.94497266690E+01  0.21240200298E+00  0.11642535699E+02  0.51100000000E-03 0.  1.
         12    1    3    3    0    0 -0.81109688231E+01 -0.12020776441E+02 -0.14642297306E+01  0.14575007726E+02  0.00000000000E+00 0. -1.
</event>
<event>
 7    1  0.6953847E-012  0.5930195E+02  0.7816164E-02  0.1266605E+00
        -11   -1    0    0    0    0  0.00000000000E+00  0.00000000000E+00  0.45593999997E+02  0.45594000000E+02  0.51100000000E-03 0. -1.
         11   -1    0    0    0    0 -0.00000000000E+00 -0.00000000000E+00 -0.45593999997E+02  0.45594000000E+02  0.51100000000E-03 0.  1.
    9900012    2    1    2    0    0 -0.18801068546E+02 -0.25530240938E+02  0.33833390957E+01  0.59301947183E+02  0.50000005754E+02 0.  0.
        -12    1    1    2    0    0  0.18801068546E+02  0.25530240938E+02 -0.33833390957E+01  0.31886052817E+02  0.00000000000E+00 0.  1.
         11    1    3    3    0    0 -0.31695001839E+02 -0.25913784554E+02  0.74868668133E+01  0.41619112754E+02  0.51100000000E-03 0. -1.
        -11    1    3    3    0    0 -0.33159166588E+00  0.61146843654E+00 -0.43974062994E+01  0.44520814351E+01  0.51100000000E-03 0.  1.
        -12    1    3    3    0    0  0.13225524959E+02 -0.22792482020E+00  0.29387858180E+00  0.13230752994E+02  0.00000000000E+00 0.  1.
</event>
<event>
 7    1  0.6953847E-012  0.5930194E+02  0.7816164E-02  0.1266605E+00
        -11   -1    0    0    0    0  0.00000000000E+00  0.00000000000E+00  0.45593999997E+02  0.45594000000E+02  0.51100000000E-03 0.  1.
         11   -1    0    0    0    0 -0.00000000000E+00 -0.00000000000E+00 -0.45593999997E+02  0.45594000000E+02  0.51100000000E-03 0. -1.
    9900012    2    1    2    0    0 -0.12823465581E+02  0.34097224314E+00 -0.29191840097E+02  0.59301936276E+02  0.49999985862E+02 0.  0.
        -12    1    1    2    0    0  0.12823465581E+02 -0.34097224314E+00  0.29191840097E+02  0.31886063724E+02  0.00000000000E+00 0.  1.
         11    1    3    3    0    0  0.55627421399E+01  0.79362178989E+01 -0.17480947263E+02  0.19987775568E+02  0.51100000000E-03 0. -1.
        -11    1    3    3    0    0 -0.55977813074E+01  0.73834569074E+01  0.74098303030E+01  0.11864070838E+02  0.51100000000E-03 0.  1.
         12    1    3    3    0    0 -0.12788426413E+02 -0.14978702563E+02 -0.19120723137E+02  0.27450089870E+02  0.00000000000E+00 0. -1.
</event>
<event>
 7    1  0.6953847E-012  0.5930194E+02  0.7816164E-02  0.1266605E+00
        -11   -1    0    0    0    0  0.00000000000E+00  0.00000000000E+00  0.45593999997E+02  0.45594000000E+02  0.51100000000E-03 0.  1.
         11   -1    0    0    0    0 -0.00000000000E+00 -0.00000000000E+00 -0.45593999997E+02  0.45594000000E+02  0.51100000000E-03 0. -1.
    9900012    2    1    2    0    0  0.11691381063E+02 -0.68273818895E+01 -0.28868997386E+02  0.59301944353E+02  0.50000000594E+02 0.  0.
        -12    1    1    2    0    0 -0.11691381063E+02  0.68273818895E+01  0.28868997386E+02  0.31886055647E+02  0.00000000000E+00 0.  1.
         11    1    3    3    0    0 -0.85270102838E+01 -0.13536743630E+02 -0.19354102987E+02  0.25110448726E+02  0.51100000000E-03 0. -1.
        -11    1    3    3    0    0 -0.47231230970E+01 -0.64993337829E+00  0.26802574293E+01  0.54693770518E+01  0.51100000000E-03 0.  1.
         12    1    3    3    0    0  0.24941514443E+02  0.73592951192E+01 -0.12195151828E+02  0.28722118576E+02  0.00000000000E+00 0. -1.
</event>
<event>
 7    1  0.6953847E-012  0.5930198E+02  0.7816164E-02  0.1266605E+00
        -11   -1    0    0    0    0  0.00000000000E+00  0.00000000000E+00  0.45593999997E+02  0.45594000000E+02  0.51100000000E-03 0.  1.
         11   -1    0    0    0    0 -0.00000000000E+00 -0.00000000000E+00 -0.45593999997E+02  0.45594000000E+02  0.51100000000E-03 0. -1.
    9900012    2    1    2    0    0  0.11104736801E+02  0.24334250895E+02 -0.17356469190E+02  0.59301984746E+02  0.50000074261E+02 0.  0.
        -12    1    1    2    0    0 -0.11104736801E+02 -0.24334250895E+02  0.17356469190E+02  0.31886015254E+02  0.00000000000E+00 0.  1.
         11    1    3    3    0    0  0.46334073088E+01  0.33787159286E+02 -0.55904485083E+01  0.34558554812E+02  0.51100000000E-03 0. -1.
        -11    1    3    3    0    0 -0.26508225946E+01 -0.62241041885E+01  0.27458910989E+01  0.73011130361E+01  0.51100000000E-03 0.  1.
        -12    1    3    3    0    0  0.91221520864E+01 -0.32288042025E+01 -0.14511911780E+02  0.17442316898E+02  0.00000000000E+00 0.  1.
</event>
<event>
 7    1  0.6953847E-012  0.5930194E+02  0.7816164E-02  0.1266605E+00
        -11   -1    0    0    0    0  0.00000000000E+00  0.00000000000E+00  0.45593999997E+02  0.45594000000E+02  0.51100000000E-03 0.  1.
         11   -1    0    0    0    0 -0.00000000000E+00 -0.00000000000E+00 -0.45593999997E+02  0.45594000000E+02  0.51100000000E-03 0. -1.
    9900012    2    1    2    0    0 -0.26489635299E+02 -0.87248530860E+01 -0.15456283983E+02  0.59301944204E+02  0.50000000322E+02 0.  0.
        -12    1    1    2    0    0  0.26489635299E+02  0.87248530860E+01  0.15456283983E+02  0.31886055796E+02  0.00000000000E+00 0.  1.
         11    1    3    3    0    0 -0.20016930969E+02 -0.12656681070E+02 -0.13157731916E+02  0.27092342286E+02  0.51100000000E-03 0. -1.
        -11    1    3    3    0    0 -0.66738580439E+01 -0.12490590174E+02  0.38451079687E+01  0.14674470336E+02  0.51100000000E-03 0.  1.
        -12    1    3    3    0    0  0.20115371317E+00  0.16422418158E+02 -0.61436600351E+01  0.17535131582E+02  0.00000000000E+00 0.  1.
</event>
<event>
 7    1  0.6953847E-012  0.5930194E+02  0.7816164E-02  0.1266605E+00
        -11   -1    0    0    0    0  0.00000000000E+00  0.00000000000E+00  0.45593999997E+02  0.45594000000E+02  0.51100000000E-03 0. -1.
         11   -1    0    0    0    0 -0.00000000000E+00 -0.00000000000E+00 -0.45593999997E+02  0.45594000000E+02  0.51100000000E-03 0.  1.
    9900012    2    1    2    0    0  0.18857141300E+02 -0.16329657498E+02  0.19861298879E+02  0.59301942151E+02  0.49999996576E+02 0.  0.
        -12    1    1    2    0    0 -0.18857141300E+02  0.16329657498E+02 -0.19861298879E+02  0.31886057849E+02  0.00000000000E+00 0.  1.
         11    1    3    3    0    0  0.17100633424E+02 -0.20251856539E+02 -0.13666458149E+01  0.26541233540E+02  0.51100000000E-03 0. -1.
        -11    1    3    3    0    0  0.11689687072E+02 -0.30167200822E+01  0.14616169247E+02  0.18957367634E+02  0.51100000000E-03 0.  1.
        -12    1    3    3    0    0 -0.99331791959E+01  0.69389191238E+01  0.66117754478E+01  0.13803340977E+02  0.00000000000E+00 0.  1.
</event>
<event>
 7    1  0.6953847E-012  0.5930196E+02  0.7816164E-02  0.1266605E+00
        -11   -1    0    0    0    0  0.00000000000E+00  0.00000000000E+00  0.45593999997E+02  0.45594000000E+02  0.51100000000E-03 0.  1.
         11   -1    0    0    0    0 -0.00000000000E+00 -0.00000000000E+00 -0.45593999997E+02  0.45594000000E+02  0.51100000000E-03 0. -1.
    9900012    2    1    2    0    0  0.14777707801E+02  0.48638217484E+01 -0.27833115730E+02  0.59301956955E+02  0.50000023576E+02 0.  0.
        -12    1    1    2    0    0 -0.14777707801E+02 -0.48638217484E+01  0.27833115730E+02  0.31886043045E+02  0.00000000000E+00 0.  1.
         11    1    3    3    0    0  0.10365518184E+02  0.79508915756E+00 -0.29864000958E+02  0.31621743903E+02  0.51100000000E-03 0. -1.
        -11    1    3    3    0    0  0.10459880907E+02  0.65391258554E+01 -0.87155071823E+01  0.15103951180E+02  0.51100000000E-03 0.  1.
        -12    1    3    3    0    0 -0.60476912907E+01 -0.24703932645E+01  0.10746392411E+02  0.12576261872E+02  0.00000000000E+00 0.  1.
</event>
<event>
 7    1  0.6953847E-012  0.5930195E+02  0.7816164E-02  0.1266605E+00
        -11   -1    0    0    0    0  0.00000000000E+00  0.00000000000E+00  0.45593999997E+02  0.45594000000E+02  0.51100000000E-03 0. -1.
         11   -1    0    0    0    0 -0.00000000000E+00 -0.00000000000E+00 -0.45593999997E+02  0.45594000000E+02  0.51100000000E-03 0.  1.
    9900012    2    1    2    0    0 -0.28419262919E+02 -0.63575033989E+01  0.12986440532E+02  0.59301953019E+02  0.50000016399E+02 0.  0.
        -12    1    1    2    0    0  0.28419262919E+02  0.63575033989E+01 -0.12986440532E+02  0.31886046981E+02  0.00000000000E+00 0.  1.
         11    1    3    3    0    0 -0.24962814119E+01 -0.10496614444E+02  0.10008701167E+02  0.14716807907E+02  0.51100000000E-03 0. -1.
        -11    1    3    3    0    0 -0.26080437117E+02 -0.53052571209E+01 -0.10088309023E+02  0.28462412627E+02  0.51100000000E-03 0.  1.
         12    1    3    3    0    0  0.15745560983E+00  0.94443681654E+01  0.13066048388E+02  0.16122732485E+02  0.00000000000E+00 0. -1.
</event>
<event>
 7    1  0.6953847E-012  0.5930195E+02  0.7816164E-02  0.1266605E+00
        -11   -1    0    0    0    0  0.00000000000E+00  0.00000000000E+00  0.45593999997E+02  0.45594000000E+02  0.51100000000E-03 0.  1.
         11   -1    0    0    0    0 -0.00000000000E+00 -0.00000000000E+00 -0.45593999997E+02  0.45594000000E+02  0.51100000000E-03 0. -1.
    9900012    2    1    2    0    0  0.12320070770E+02 -0.21081988176E+02 -0.20505751983E+02  0.59301949231E+02  0.50000009490E+02 0.  0.
        -12    1    1    2    0    0 -0.12320070770E+02  0.21081988176E+02  0.20505751983E+02  0.31886050769E+02  0.00000000000E+00 0.  1.
         11    1    3    3    0    0 -0.46258882956E+00  0.60648632344E+01  0.29943231339E+01  0.67795667833E+01  0.51100000000E-03 0. -1.
        -11    1    3    3    0    0 -0.92899834743E+01 -0.20847238090E+01 -0.15484812657E+02  0.18177714092E+02  0.51100000000E-03 0.  1.
         12    1    3    3    0    0  0.22072643074E+02 -0.25062127601E+02 -0.80152624596E+01  0.34344668356E+02  0.00000000000E+00 0. -1.
</event>
<event>
 7    1  0.6953847E-012  0.5930192E+02  0.7816164E-02  0.1266605E+00
        -11   -1    0    0    0    0  0.00000000000E+00  0.00000000000E+00  0.45593999997E+02  0.45594000000E+02  0.51100000000E-03 0. -1.
         11   -1    0    0    0    0 -0.00000000000E+00 -0.00000000000E+00 -0.45593999997E+02  0.45594000000E+02  0.51100000000E-03 0.  1.
    9900012    2    1    2    0    0 -0.93470027191E+01  0.29479529258E+02 -0.77661309853E+01  0.59301923170E+02  0.49999961961E+02 0.  0.
        -12    1    1    2    0    0  0.93470027191E+01 -0.29479529258E+02  0.77661309853E+01  0.31886076830E+02  0.00000000000E+00 0.  1.
         11    1    3    3    0    0 -0.49155555243E+01 -0.84124892496E+00 -0.85576493739E+01  0.99047336630E+01  0.51100000000E-03 0. -1.
        -11    1    3    3    0    0  0.14653982762E+02  0.14177834393E+01  0.10582055337E+01  0.14760390235E+02  0.51100000000E-03 0.  1.
         12    1    3    3    0    0 -0.19085429957E+02  0.28902994744E+02 -0.26668714511E+00  0.34636799272E+02  0.00000000000E+00 0. -1.
</event>
<event>
 7    1  0.6953847E-012  0.5930168E+02  0.7816164E-02  0.1266606E+00
        -11   -1    0    0    0    0  0.00000000000E+00  0.00000000000E+00  0.45593999997E+02  0.45594000000E+02  0.51100000000E-03 0. -1.
         11   -1    0    0    0    0 -0.00000000000E+00 -0.00000000000E+00 -0.45593999997E+02  0.45594000000E+02  0.51100000000E-03 0.  1.
    9900012    2    1    2    0    0 -0.25373931449E+01  0.17241702235E+02  0.26702487600E+02  0.59301678419E+02  0.49999515591E+02 0.  0.
        -12    1    1    2    0    0  0.25373931449E+01 -0.17241702235E+02 -0.26702487600E+02  0.31886321581E+02  0.00000000000E+00 0.  1.
         11    1    3    3    0    0  0.92108392599E+01  0.46334219877E+00  0.90341626554E+01  0.12910086793E+02  0.51100000000E-03 0.  1.
        -11    1    3    3    0    0  0.10987454347E+02  0.10592742455E+02  0.16963904139E+02  0.22818948040E+02  0.51100000000E-03 0. -1.
        -12    1    3    3    0    0 -0.22735686752E+02  0.61856175818E+01  0.70442080505E+00  0.23572643586E+02  0.00000000000E+00 0.  1.
</event>
<event>
 7    1  0.6953847E-012  0.5930211E+02  0.7816164E-02  0.1266604E+00
        -11   -1    0    0    0    0  0.00000000000E+00  0.00000000000E+00  0.45593999997E+02  0.45594000000E+02  0.51100000000E-03 0. -1.
         11   -1    0    0    0    0 -0.00000000000E+00 -0.00000000000E+00 -0.45593999997E+02  0.45594000000E+02  0.51100000000E-03 0.  1.
    9900012    2    1    2    0    0 -0.29517028787E+02 -0.11167767465E+02 -0.45536679401E+01  0.59302111110E+02  0.50000304718E+02 0.  0.
        -12    1    1    2    0    0  0.29517028787E+02  0.11167767465E+02  0.45536679401E+01  0.31885888890E+02  0.00000000000E+00 0.  1.
         11    1    3    3    0    0 -0.12818849770E+02 -0.14648917712E+02  0.70640802841E+01  0.20707847065E+02  0.51100000000E-03 0. -1.
        -11    1    3    3    0    0 -0.16448493372E+01 -0.12449762487E+02  0.21074059444E+01  0.12733549207E+02  0.51100000000E-03 0.  1.
         12    1    3    3    0    0 -0.15053329680E+02  0.15930912734E+02 -0.13725154169E+02  0.25860714838E+02  0.00000000000E+00 0. -1.
</event>
<event>
 7    1  0.7551140E-012  0.5930192E+02  0.7816164E-02  0.1266605E+00
        -11   -1    0    0    0    0  0.00000000000E+00  0.00000000000E+00  0.45593999997E+02  0.45594000000E+02  0.51100000000E-03 0. -1.
         11   -1    0    0    0    0 -0.00000000000E+00 -0.00000000000E+00 -0.45593999997E+02  0.45594000000E+02  0.51100000000E-03 0.  1.
    9900012    2    1    2    0    0 -0.65730502376E+01  0.15296741704E+02  0.27194243606E+02  0.59301918687E+02  0.49999953784E+02 0.  0.
        -12    1    1    2    0    0  0.65730502376E+01 -0.15296741704E+02 -0.27194243606E+02  0.31886081313E+02  0.00000000000E+00 0.  1.
         11    1    3    3    0    0  0.89019115508E+01  0.16501051916E+02  0.19058407812E+02  0.26734839671E+02  0.51100000000E-03 0. -1.
        -11    1    3    3    0    0 -0.13756482917E+02  0.10604402318E+02  0.10646693615E+02  0.20372684064E+02  0.51100000000E-03 0.  1.
        -12    1    3    3    0    0 -0.17184788718E+01 -0.11808712531E+02 -0.25108578214E+01  0.12194394953E+02  0.00000000000E+00 0.  1.
</event>
<event>
 7    1  0.6953847E-012  0.5930186E+02  0.7816164E-02  0.1266605E+00
        -11   -1    0    0    0    0  0.00000000000E+00  0.00000000000E+00  0.45593999997E+02  0.45594000000E+02  0.51100000000E-03 0.  1.
         11   -1    0    0    0    0 -0.00000000000E+00 -0.00000000000E+00 -0.45593999997E+02  0.45594000000E+02  0.51100000000E-03 0. -1.
    9900012    2    1    2    0    0  0.14658277880E+02 -0.99014698023E+01 -0.26529640680E+02  0.59301858037E+02  0.49999843174E+02 0.  0.
        -12    1    1    2    0    0 -0.14658277880E+02  0.99014698023E+01  0.26529640680E+02  0.31886141963E+02  0.00000000000E+00 0.  1.
         11    1    3    3    0    0  0.77087593563E+01 -0.50262935463E+01 -0.25435020311E+02  0.27048638711E+02  0.51100000000E-03 0. -1.
        -11    1    3    3    0    0  0.75034015299E+01 -0.13956480447E+02 -0.10624347766E+02  0.19077765768E+02  0.51100000000E-03 0.  1.
        -12    1    3    3    0    0 -0.55388300668E+00  0.90813041914E+01  0.95297273966E+01  0.13175453558E+02  0.00000000000E+00 0.  1.
</event>
<event>
 7    1  0.6953847E-012  0.5930193E+02  0.7816164E-02  0.1266605E+00
        -11   -1    0    0    0    0  0.00000000000E+00  0.00000000000E+00  0.45593999997E+02  0.45594000000E+02  0.51100000000E-03 0.  1.
         11   -1    0    0    0    0 -0.00000000000E+00 -0.00000000000E+00 -0.45593999997E+02  0.45594000000E+02  0.51100000000E-03 0. -1.
    9900012    2    1    2    0    0 -0.18225140143E+02 -0.83739876991E+01 -0.24787943592E+02  0.59301928578E+02  0.49999971824E+02 0.  0.
        -12    1    1    2    0    0  0.18225140143E+02  0.83739876991E+01  0.24787943592E+02  0.31886071422E+02  0.00000000000E+00 0.  1.
         11    1    3    3    0    0 -0.37667330258E+01 -0.24143256876E+02 -0.25260829416E+02  0.35145335868E+02  0.51100000000E-03 0. -1.
        -11    1    3    3    0    0 -0.19711397326E+01  0.72480482050E+01  0.41731160718E+01  0.85926999620E+01  0.51100000000E-03 0.  1.
        -12    1    3    3    0    0 -0.12487267384E+02  0.85212209719E+01 -0.37002302478E+01  0.15563892748E+02  0.00000000000E+00 0.  1.
</event>
<event>
 7    1  0.6953847E-012  0.5930203E+02  0.7816164E-02  0.1266604E+00
        -11   -1    0    0    0    0  0.00000000000E+00  0.00000000000E+00  0.45593999997E+02  0.45594000000E+02  0.51100000000E-03 0.  1.
         11   -1    0    0    0    0 -0.00000000000E+00 -0.00000000000E+00 -0.45593999997E+02  0.45594000000E+02  0.51100000000E-03 0. -1.
    9900012    2    1    2    0    0  0.17144140820E+02 -0.26667721952E+02 -0.34097102971E+01  0.59302030000E+02  0.50000156792E+02 0.  0.
        -12    1    1    2    0    0 -0.17144140820E+02  0.26667721952E+02  0.34097102971E+01  0.31885970000E+02  0.00000000000E+00 0.  1.
         11    1    3    3    0    0  0.63398064112E+01 -0.18949490364E+02 -0.32431956540E+01  0.20243385308E+02  0.51100000000E-03 0. -1.
        -11    1    3    3    0    0 -0.45375100732E+00  0.13582708842E+02  0.48852899733E+01  0.14441673305E+02  0.51100000000E-03 0.  1.
         12    1    3    3    0    0  0.11258085416E+02 -0.21300940429E+02 -0.50518046164E+01  0.24616971387E+02  0.00000000000E+00 0. -1.
</event>
<event>
 7    1  0.6953847E-012  0.5930212E+02  0.7816164E-02  0.1266604E+00
        -11   -1    0    0    0    0  0.00000000000E+00  0.00000000000E+00  0.45593999997E+02  0.45594000000E+02  0.51100000000E-03 0.  1.
         11   -1    0    0    0    0 -0.00000000000E+00 -0.00000000000E+00 -0.45593999997E+02  0.45594000000E+02  0.51100000000E-03 0. -1.
    9900012    2    1    2    0    0  0.31604817769E+02 -0.29658789714E+01 -0.30080264195E+01  0.59302122762E+02  0.50000325967E+02 0.  0.
        -12    1    1    2    0    0 -0.31604817769E+02  0.29658789714E+01  0.30080264195E+01  0.31885877238E+02  0.00000000000E+00 0.  1.
         11    1    3    3    0    0 -0.85476270167E+01 -0.41673211902E+01  0.12713117961E+01  0.95939943434E+01  0.51100000000E-03 0. -1.
        -11    1    3    3    0    0  0.15908340522E+02  0.14149313505E+02  0.23942895046E+01  0.21424541846E+02  0.51100000000E-03 0.  1.
         12    1    3    3    0    0  0.24244104264E+02 -0.12947871287E+02 -0.66736277201E+01  0.28283586572E+02  0.00000000000E+00 0. -1.
</event>
<event>
 7    1  0.6953847E-012  0.5930192E+02  0.7816164E-02  0.1266605E+00
        -11   -1    0    0    0    0  0.00000000000E+00  0.00000000000E+00  0.45593999997E+02  0.45594000000E+02  0.51100000000E-03 0.  1.
         11   -1    0    0    0    0 -0.00000000000E+00 -0.00000000000E+00 -0.45593999997E+02  0.45594000000E+02  0.51100000000E-03 0. -1.
    9900012    2    1    2    0    0  0.18700486528E+01  0.44598893018E+01 -0.31517210810E+02  0.59301917271E+02  0.49999951202E+02 0.  0.
        -12    1    1    2    0    0 -0.18700486528E+01 -0.44598893018E+01  0.31517210810E+02  0.31886082729E+02  0.00000000000E+00 0.  1.
         11    1    3    3    0    0 -0.67656273521E+01 -0.14495409447E+02 -0.11197143998E+02  0.19526050355E+02  0.51100000000E-03 0. -1.
        -11    1    3    3    0    0 -0.14180108598E+01  0.13035324001E+00  0.58421628607E+01  0.60132032992E+01  0.51100000000E-03 0.  1.
         12    1    3    3    0    0  0.10053686865E+02  0.18824945509E+02 -0.26162229673E+02  0.33762663616E+02  0.00000000000E+00 0. -1.
</event>
<event>
 7    1  0.6953847E-012  0.5930194E+02  0.7816164E-02  0.1266605E+00
        -11   -1    0    0    0    0  0.00000000000E+00  0.00000000000E+00  0.45593999997E+02  0.45594000000E+02  0.51100000000E-03 0. -1.
         11   -1    0    0    0    0 -0.00000000000E+00 -0.00000000000E+00 -0.45593999997E+02  0.45594000000E+02  0.51100000000E-03 0.  1.
    9900012    2    1    2    0    0 -0.13551265694E+02  0.67531806539E+01  0.28062050213E+02  0.59301938578E+02  0.49999990062E+02 0.  0.
        -12    1    1    2    0    0  0.13551265694E+02 -0.67531806539E+01 -0.28062050213E+02  0.31886061422E+02  0.00000000000E+00 0.  1.
         11    1    3    3    0    0 -0.54413190865E+01 -0.66280221805E+01 -0.17364210947E+01  0.87495022662E+01  0.51100000000E-03 0.  1.
        -11    1    3    3    0    0  0.39751732790E+01 -0.71768411677E+01  0.24887545568E+02  0.26204941832E+02  0.51100000000E-03 0. -1.
        -12    1    3    3    0    0 -0.12085119886E+02  0.20558044002E+02  0.49109257390E+01  0.24347494480E+02  0.00000000000E+00 0.  1.
</event>
<event>
 7    1  0.6953847E-012  0.5930193E+02  0.7816164E-02  0.1266605E+00
        -11   -1    0    0    0    0  0.00000000000E+00  0.00000000000E+00  0.45593999997E+02  0.45594000000E+02  0.51100000000E-03 0. -1.
         11   -1    0    0    0    0 -0.00000000000E+00 -0.00000000000E+00 -0.45593999997E+02  0.45594000000E+02  0.51100000000E-03 0.  1.
    9900012    2    1    2    0    0  0.19047015301E+02  0.43925874544E+00  0.25568332438E+02  0.59301931510E+02  0.49999977170E+02 0.  0.
        -12    1    1    2    0    0 -0.19047015301E+02 -0.43925874544E+00 -0.25568332438E+02  0.31886068490E+02  0.00000000000E+00 0.  1.
         11    1    3    3    0    0  0.14326443122E+02 -0.84063891475E+01 -0.10143362256E+02  0.19462840213E+02  0.51100000000E-03 0. -1.
        -11    1    3    3    0    0 -0.35107026132E+01  0.46873521272E+01  0.47722774129E+01  0.75545307445E+01  0.51100000000E-03 0.  1.
        -12    1    3    3    0    0  0.82312747920E+01  0.41582957657E+01  0.30939417281E+02  0.32284560552E+02  0.00000000000E+00 0.  1.
</event>
<event>
 7    1  0.6953847E-012  0.5930195E+02  0.7816164E-02  0.1266605E+00
        -11   -1    0    0    0    0  0.00000000000E+00  0.00000000000E+00  0.45593999997E+02  0.45594000000E+02  0.51100000000E-03 0. -1.
         11   -1    0    0    0    0 -0.00000000000E+00 -0.00000000000E+00 -0.45593999997E+02  0.45594000000E+02  0.51100000000E-03 0.  1.
    9900012    2    1    2    0    0  0.11020042203E+02  0.26725065069E+02  0.13455466842E+02  0.59301952565E+02  0.50000015570E+02 0.  0.
        -12    1    1    2    0    0 -0.11020042203E+02 -0.26725065069E+02 -0.13455466842E+02  0.31886047435E+02  0.00000000000E+00 0.  1.
         11    1    3    3    0    0  0.91347115827E+01 -0.49770350663E+01  0.18608254814E+00  0.10404252050E+02  0.51100000000E-03 0.  1.
        -11    1    3    3    0    0  0.26652738309E+01  0.39211395475E+02  0.93829434758E+01  0.40406396130E+02  0.51100000000E-03 0. -1.
         12    1    3    3    0    0 -0.77994321047E+00 -0.75092953400E+01  0.38864408181E+01  0.84913043843E+01  0.00000000000E+00 0. -1.
</event>
<event>
 7    1  0.6953847E-012  0.5930193E+02  0.7816164E-02  0.1266605E+00
        -11   -1    0    0    0    0  0.00000000000E+00  0.00000000000E+00  0.45593999997E+02  0.45594000000E+02  0.51100000000E-03 0.  1.
         11   -1    0    0    0    0 -0.00000000000E+00 -0.00000000000E+00 -0.45593999997E+02  0.45594000000E+02  0.51100000000E-03 0. -1.
    9900012    2    1    2    0    0  0.29965982940E+02 -0.10865884891E+02 -0.83303808586E+00  0.59301928739E+02  0.49999972117E+02 0.  0.
        -12    1    1    2    0    0 -0.29965982940E+02  0.10865884891E+02  0.83303808586E+00  0.31886071261E+02  0.00000000000E+00 0.  1.
         11    1    3    3    0    0 -0.23527196294E+01  0.36382473289E+01  0.19942902068E+01  0.47696254539E+01  0.51100000000E-03 0.  1.
        -11    1    3    3    0    0  0.11578192726E+02 -0.23361595350E+00 -0.20657546910E+02  0.23682131826E+02  0.51100000000E-03 0. -1.
        -12    1    3    3    0    0  0.20740509843E+02 -0.14270516266E+02  0.17830218618E+02  0.30850171458E+02  0.00000000000E+00 0.  1.
</event>
<event>
 7    1  0.6953847E-012  0.5930194E+02  0.7816164E-02  0.1266605E+00
        -11   -1    0    0    0    0  0.00000000000E+00  0.00000000000E+00  0.45593999997E+02  0.45594000000E+02  0.51100000000E-03 0.  1.
         11   -1    0    0    0    0 -0.00000000000E+00 -0.00000000000E+00 -0.45593999997E+02  0.45594000000E+02  0.51100000000E-03 0. -1.
    9900012    2    1    2    0    0  0.13917025848E+02  0.25505610704E+02 -0.13133964842E+02  0.59301940063E+02  0.49999992770E+02 0.  0.
        -12    1    1    2    0    0 -0.13917025848E+02 -0.25505610704E+02  0.13133964842E+02  0.31886059937E+02  0.00000000000E+00 0.  1.
         11    1    3    3    0    0  0.14812955638E+02  0.21428779357E+02 -0.22967893971E+02  0.34729532004E+02  0.51100000000E-03 0. -1.
        -11    1    3    3    0    0 -0.10267468324E+02 -0.30452428642E+01  0.54035107628E+01  0.11995513274E+02  0.51100000000E-03 0.  1.
         12    1    3    3    0    0  0.93715385332E+01  0.71220742109E+01  0.44304183660E+01  0.12576894785E+02  0.00000000000E+00 0. -1.
</event>
<event>
 7    1  0.6953847E-012  0.5930198E+02  0.7816164E-02  0.1266605E+00
        -11   -1    0    0    0    0  0.00000000000E+00  0.00000000000E+00  0.45593999997E+02  0.45594000000E+02  0.51100000000E-03 0.  1.
         11   -1    0    0    0    0 -0.00000000000E+00 -0.00000000000E+00 -0.45593999997E+02  0.45594000000E+02  0.51100000000E-03 0. -1.
    9900012    2    1    2    0    0 -0.13987656757E+02 -0.17739863525E+02 -0.22502467276E+02  0.59301979035E+02  0.50000063846E+02 0.  0.
        -12    1    1    2    0    0  0.13987656757E+02  0.17739863525E+02  0.22502467276E+02  0.31886020965E+02  0.00000000000E+00 0.  1.
         11    1    3    3    0    0 -0.13135101839E+02 -0.36543614738E+00 -0.14691574617E+02  0.19710576067E+02  0.51100000000E-03 0. -1.
        -11    1    3    3    0    0 -0.14794613157E+02 -0.16978452172E+01  0.41273460418E+01  0.15453098151E+02  0.51100000000E-03 0.  1.
         12    1    3    3    0    0  0.13942058239E+02 -0.15676582160E+02 -0.11938238701E+02  0.24138304818E+02  0.00000000000E+00 0. -1.
</event>
<event>
 7    1  0.6953847E-012  0.5930198E+02  0.7816164E-02  0.1266605E+00
        -11   -1    0    0    0    0  0.00000000000E+00  0.00000000000E+00  0.45593999997E+02  0.45594000000E+02  0.51100000000E-03 0. -1.
         11   -1    0    0    0    0 -0.00000000000E+00 -0.00000000000E+00 -0.45593999997E+02  0.45594000000E+02  0.51100000000E-03 0.  1.
    9900012    2    1    2    0    0 -0.23623176889E+02 -0.21416157734E+02  0.11033146327E+00  0.59301976864E+02  0.50000059885E+02 0.  0.
        -12    1    1    2    0    0  0.23623176889E+02  0.21416157734E+02 -0.11033146327E+00  0.31886023136E+02  0.00000000000E+00 0.  1.
         11    1    3    3    0    0 -0.88880027010E+01 -0.39700211162E+01  0.11563254547E+02  0.15115108854E+02  0.51100000000E-03 0. -1.
        -11    1    3    3    0    0  0.18604775593E-02 -0.20098050308E+02  0.62057199350E+01  0.21034319333E+02  0.51100000000E-03 0.  1.
         12    1    3    3    0    0 -0.14737034666E+02  0.26519136900E+01 -0.17658643019E+02  0.23152548677E+02  0.00000000000E+00 0. -1.
</event>
<event>
 7    1  0.6953847E-012  0.5930193E+02  0.7816164E-02  0.1266605E+00
        -11   -1    0    0    0    0  0.00000000000E+00  0.00000000000E+00  0.45593999997E+02  0.45594000000E+02  0.51100000000E-03 0.  1.
         11   -1    0    0    0    0 -0.00000000000E+00 -0.00000000000E+00 -0.45593999997E+02  0.45594000000E+02  0.51100000000E-03 0. -1.
    9900012    2    1    2    0    0 -0.71671150250E+01 -0.28933132790E+02  0.11323783142E+02  0.59301925054E+02  0.49999965396E+02 0.  0.
        -12    1    1    2    0    0  0.71671150250E+01  0.28933132790E+02 -0.11323783142E+02  0.31886074946E+02  0.00000000000E+00 0.  1.
         11    1    3    3    0    0  0.45674547472E+01 -0.35176624339E+01  0.62901460220E+01  0.85323812096E+01  0.51100000000E-03 0. -1.
        -11    1    3    3    0    0  0.65782865728E+01 -0.22997411379E+02 -0.10983074158E+02  0.26320765616E+02  0.51100000000E-03 0.  1.
        -12    1    3    3    0    0 -0.18312856345E+02 -0.24180589771E+01  0.16016711277E+02  0.24448778229E+02  0.00000000000E+00 0.  1.
</event>
<event>
 7    1  0.6953847E-012  0.5930192E+02  0.7816164E-02  0.1266605E+00
        -11   -1    0    0    0    0  0.00000000000E+00  0.00000000000E+00  0.45593999997E+02  0.45594000000E+02  0.51100000000E-03 0.  1.
         11   -1    0    0    0    0 -0.00000000000E+00 -0.00000000000E+00 -0.45593999997E+02  0.45594000000E+02  0.51100000000E-03 0. -1.
    9900012    2    1    2    0    0 -0.58834010639E+00  0.22750668775E+02 -0.22333452691E+02  0.59301918665E+02  0.49999953744E+02 0.  0.
        -12    1    1    2    0    0  0.58834010639E+00 -0.22750668775E+02  0.22333452691E+02  0.31886081335E+02  0.00000000000E+00 0.  1.
         11    1    3    3    0    0  0.17539897316E+02 -0.35825480508E+01 -0.19879501022E+02  0.26752144018E+02  0.51100000000E-03 0. -1.
        -11    1    3    3    0    0 -0.28873795891E+01  0.84249900175E+01 -0.13538962277E+01  0.90083546190E+01  0.51100000000E-03 0.  1.
        -12    1    3    3    0    0 -0.15240857834E+02  0.17908226809E+02 -0.11000554414E+01  0.23541420028E+02  0.00000000000E+00 0.  1.
</event>
<event>
 7    1  0.6953847E-012  0.5930191E+02  0.7816164E-02  0.1266605E+00
        -11   -1    0    0    0    0  0.00000000000E+00  0.00000000000E+00  0.45593999997E+02  0.45594000000E+02  0.51100000000E-03 0.  1.
         11   -1    0    0    0    0 -0.00000000000E+00 -0.00000000000E+00 -0.45593999997E+02  0.45594000000E+02  0.51100000000E-03 0. -1.
    9900012    2    1    2    0    0  0.12319200616E+02  0.98272257945E+01 -0.27719768252E+02  0.59301911770E+02  0.49999941170E+02 0.  0.
        -12    1    1    2    0    0 -0.12319200616E+02 -0.98272257945E+01  0.27719768252E+02  0.31886088230E+02  0.00000000000E+00 0.  1.
         11    1    3    3    0    0  0.13852251721E+02 -0.30962660472E+01 -0.32729209881E+02  0.35674541636E+02  0.51100000000E-03 0. -1.
        -11    1    3    3    0    0  0.81451330585E+01  0.65066625672E+01  0.59041391968E+01  0.11980764175E+02  0.51100000000E-03 0.  1.
        -12    1    3    3    0    0 -0.96781841636E+01  0.64168292745E+01 -0.89469756753E+00  0.11646605960E+02  0.00000000000E+00 0.  1.
</event>
<event>
 7    1  0.6953847E-012  0.5930183E+02  0.7816164E-02  0.1266605E+00
        -11   -1    0    0    0    0  0.00000000000E+00  0.00000000000E+00  0.45593999997E+02  0.45594000000E+02  0.51100000000E-03 0. -1.
         11   -1    0    0    0    0 -0.00000000000E+00 -0.00000000000E+00 -0.45593999997E+02  0.45594000000E+02  0.51100000000E-03 0.  1.
    9900012    2    1    2    0    0  0.21320997315E+02 -0.22957085263E+02  0.59257797716E+01  0.59301834407E+02  0.49999800078E+02 0.  0.
        -12    1    1    2    0    0 -0.21320997315E+02  0.22957085263E+02 -0.59257797716E+01  0.31886165593E+02  0.00000000000E+00 0.  1.
         11    1    3    3    0    0  0.54244699723E+01 -0.17715735029E+02  0.13178010267E+02  0.22736140767E+02  0.51100000000E-03 0. -1.
        -11    1    3    3    0    0 -0.11888518407E+01  0.11406612596E+02 -0.52911512875E+01  0.12630141006E+02  0.51100000000E-03 0.  1.
         12    1    3    3    0    0  0.17085379184E+02 -0.16647962831E+02 -0.19610792081E+01  0.23935552635E+02  0.00000000000E+00 0. -1.
</event>
<event>
 7    1  0.6953847E-012  0.5930201E+02  0.7816164E-02  0.1266605E+00
        -11   -1    0    0    0    0  0.00000000000E+00  0.00000000000E+00  0.45593999997E+02  0.45594000000E+02  0.51100000000E-03 0.  1.
         11   -1    0    0    0    0 -0.00000000000E+00 -0.00000000000E+00 -0.45593999997E+02  0.45594000000E+02  0.51100000000E-03 0. -1.
    9900012    2    1    2    0    0 -0.16484561908E+02  0.18082310449E+02 -0.20445187554E+02  0.59302008929E+02  0.50000118364E+02 0.  0.
        -12    1    1    2    0    0  0.16484561908E+02 -0.18082310449E+02  0.20445187554E+02  0.31885991071E+02  0.00000000000E+00 0.  1.
         11    1    3    3    0    0  0.10674895824E+02  0.12738675460E+02 -0.91154694502E+01  0.18955712513E+02  0.51100000000E-03 0. -1.
        -11    1    3    3    0    0 -0.42623615179E+01  0.12953929585E+02 -0.84585048541E+01  0.16047377419E+02  0.51100000000E-03 0.  1.
        -12    1    3    3    0    0 -0.22897096214E+02 -0.76102945957E+01 -0.28712132498E+01  0.24298918997E+02  0.00000000000E+00 0.  1.
</event>
<event>
 7    1  0.6953847E-012  0.5930194E+02  0.7816164E-02  0.1266605E+00
        -11   -1    0    0    0    0  0.00000000000E+00  0.00000000000E+00  0.45593999997E+02  0.45594000000E+02  0.51100000000E-03 0.  1.
         11   -1    0    0    0    0 -0.00000000000E+00 -0.00000000000E+00 -0.45593999997E+02  0.45594000000E+02  0.51100000000E-03 0. -1.
    9900012    2    1    2    0    0  0.23194679591E+02  0.21266986226E+02 -0.51422830598E+01  0.59301938162E+02  0.49999989303E+02 0.  0.
        -12    1    1    2    0    0 -0.23194679591E+02 -0.21266986226E+02  0.51422830598E+01  0.31886061838E+02  0.00000000000E+00 0.  1.
         11    1    3    3    0    0  0.11703505284E+02  0.28106629167E+02 -0.80152289548E+01  0.31483305648E+02  0.51100000000E-03 0. -1.
        -11    1    3    3    0    0 -0.67581546026E-01  0.79367463654E+01  0.42585099679E+01  0.90072980155E+01  0.51100000000E-03 0.  1.
         12    1    3    3    0    0  0.11558755853E+02 -0.14776389307E+02 -0.13855640729E+01  0.18811334499E+02  0.00000000000E+00 0. -1.
</event>
<event>
 7    1  0.6953847E-012  0.5930195E+02  0.7816164E-02  0.1266605E+00
        -11   -1    0    0    0    0  0.00000000000E+00  0.00000000000E+00  0.45593999997E+02  0.45594000000E+02  0.51100000000E-03 0.  1.
         11   -1    0    0    0    0 -0.00000000000E+00 -0.00000000000E+00 -0.45593999997E+02  0.45594000000E+02  0.51100000000E-03 0. -1.
    9900012    2    1    2    0    0  0.88085313504E+00  0.28108070859E+02 -0.15029328238E+02  0.59301948865E+02  0.50000008822E+02 0.  0.
        -12    1    1    2    0    0 -0.88085313504E+00 -0.28108070859E+02  0.15029328238E+02  0.31886051135E+02  0.00000000000E+00 0.  1.
         11    1    3    3    0    0 -0.55234203773E+01  0.96722757268E+01 -0.13877494231E+02  0.17794547951E+02  0.51100000000E-03 0. -1.
        -11    1    3    3    0    0 -0.92130688860E+01  0.20015107336E+02 -0.91882719631E+01  0.23872777423E+02  0.51100000000E-03 0.  1.
         12    1    3    3    0    0  0.15617342398E+02 -0.15793122035E+01  0.80364379561E+01  0.17634623490E+02  0.00000000000E+00 0. -1.
</event>
<event>
 7    1  0.6953847E-012  0.5930194E+02  0.7816164E-02  0.1266605E+00
        -11   -1    0    0    0    0  0.00000000000E+00  0.00000000000E+00  0.45593999997E+02  0.45594000000E+02  0.51100000000E-03 0.  1.
         11   -1    0    0    0    0 -0.00000000000E+00 -0.00000000000E+00 -0.45593999997E+02  0.45594000000E+02  0.51100000000E-03 0. -1.
    9900012    2    1    2    0    0  0.67087308148E+00  0.30482294220E+02 -0.93327535049E+01  0.59301943179E+02  0.49999998452E+02 0.  0.
        -12    1    1    2    0    0 -0.67087308148E+00 -0.30482294220E+02  0.93327535049E+01  0.31886056821E+02  0.00000000000E+00 0.  1.
         11    1    3    3    0    0 -0.90884261726E+01  0.17679258535E+02 -0.22184288535E+02  0.29787553285E+02  0.51100000000E-03 0. -1.
        -11    1    3    3    0    0 -0.54130769974E+01 -0.15815533193E+01  0.32359497616E+01  0.65018523977E+01  0.51100000000E-03 0.  1.
        -12    1    3    3    0    0  0.15172376251E+02  0.14384589005E+02  0.96155852686E+01  0.23012537496E+02  0.00000000000E+00 0.  1.
</event>
<event>
 7    1  0.6953847E-012  0.5930213E+02  0.7816164E-02  0.1266604E+00
        -11   -1    0    0    0    0  0.00000000000E+00  0.00000000000E+00  0.45593999997E+02  0.45594000000E+02  0.51100000000E-03 0.  1.
         11   -1    0    0    0    0 -0.00000000000E+00 -0.00000000000E+00 -0.45593999997E+02  0.45594000000E+02  0.51100000000E-03 0. -1.
    9900012    2    1    2    0    0 -0.23944066353E+01 -0.15194427811E+02 -0.27930359896E+02  0.59302128151E+02  0.50000335796E+02 0.  0.
        -12    1    1    2    0    0  0.23944066353E+01  0.15194427811E+02  0.27930359896E+02  0.31885871849E+02  0.00000000000E+00 0.  1.
         11    1    3    3    0    0  0.24266307562E+01 -0.15800411754E+02 -0.81662045682E+01  0.17950722708E+02  0.51100000000E-03 0. -1.
        -11    1    3    3    0    0  0.81511546536E+01  0.11006090354E+02  0.21292011231E+01  0.13860333501E+02  0.51100000000E-03 0.  1.
         12    1    3    3    0    0 -0.12972192045E+02 -0.10400106411E+02 -0.21893356451E+02  0.27491071942E+02  0.00000000000E+00 0. -1.
</event>
<event>
 7    1  0.6953847E-012  0.5930193E+02  0.7816164E-02  0.1266605E+00
        -11   -1    0    0    0    0  0.00000000000E+00  0.00000000000E+00  0.45593999997E+02  0.45594000000E+02  0.51100000000E-03 0.  1.
         11   -1    0    0    0    0 -0.00000000000E+00 -0.00000000000E+00 -0.45593999997E+02  0.45594000000E+02  0.51100000000E-03 0. -1.
    9900012    2    1    2    0    0  0.96985750504E+01 -0.65214604534E+01 -0.29666977265E+02  0.59301931812E+02  0.49999977722E+02 0.  0.
        -12    1    1    2    0    0 -0.96985750504E+01  0.65214604534E+01  0.29666977265E+02  0.31886068188E+02  0.00000000000E+00 0.  1.
         11    1    3    3    0    0 -0.14841104610E+01 -0.86977338499E+01 -0.86790393315E+01  0.12376545639E+02  0.51100000000E-03 0. -1.
        -11    1    3    3    0    0 -0.31202578031E+01 -0.16495797948E+02 -0.15328478714E+02  0.22733447135E+02  0.51100000000E-03 0.  1.
        -12    1    3    3    0    0  0.14302943315E+02  0.18672071344E+02 -0.56594592189E+01  0.24191939038E+02  0.00000000000E+00 0.  1.
</event>
<event>
 7    1  0.6953847E-012  0.5930200E+02  0.7816164E-02  0.1266605E+00
        -11   -1    0    0    0    0  0.00000000000E+00  0.00000000000E+00  0.45593999997E+02  0.45594000000E+02  0.51100000000E-03 0.  1.
         11   -1    0    0    0    0 -0.00000000000E+00 -0.00000000000E+00 -0.45593999997E+02  0.45594000000E+02  0.51100000000E-03 0. -1.
    9900012    2    1    2    0    0 -0.22664686228E+02 -0.10588173766E+02  0.19771689141E+02  0.59301998102E+02  0.50000098619E+02 0.  0.
        -12    1    1    2    0    0  0.22664686228E+02  0.10588173766E+02 -0.19771689141E+02  0.31886001898E+02  0.00000000000E+00 0.  1.
         11    1    3    3    0    0 -0.26500288036E+01 -0.59850492610E-01  0.62636991506E+00  0.27237059814E+01  0.51100000000E-03 0. -1.
        -11    1    3    3    0    0 -0.80035927023E+01  0.72774465924E+01  0.30444570272E+02  0.32309295634E+02  0.51100000000E-03 0.  1.
         12    1    3    3    0    0 -0.12011064722E+02 -0.17805769866E+02 -0.11299251046E+02  0.24268996487E+02  0.00000000000E+00 0. -1.
</event>
<event>
 7    1  0.6953847E-012  0.5930194E+02  0.7816164E-02  0.1266605E+00
        -11   -1    0    0    0    0  0.00000000000E+00  0.00000000000E+00  0.45593999997E+02  0.45594000000E+02  0.51100000000E-03 0.  1.
         11   -1    0    0    0    0 -0.00000000000E+00 -0.00000000000E+00 -0.45593999997E+02  0.45594000000E+02  0.51100000000E-03 0. -1.
    9900012    2    1    2    0    0  0.31035746278E+02  0.20164598559E+01 -0.70311415188E+01  0.59301943354E+02  0.49999998771E+02 0.  0.
        -12    1    1    2    0    0 -0.31035746278E+02 -0.20164598559E+01  0.70311415188E+01  0.31886056646E+02  0.00000000000E+00 0.  1.
         11    1    3    3    0    0  0.21904780432E+01  0.44988467244E+01 -0.81198254179E+01  0.95377870067E+01  0.51100000000E-03 0. -1.
        -11    1    3    3    0    0  0.18723003267E+02  0.27141742349E+01 -0.18913975828E+02  0.26751749008E+02  0.51100000000E-03 0.  1.
        -12    1    3    3    0    0  0.10122264968E+02 -0.51965611035E+01  0.20002659727E+02  0.23012407339E+02  0.00000000000E+00 0.  1.
</event>
<event>
 7    1  0.6953847E-012  0.5930195E+02  0.7816164E-02  0.1266605E+00
        -11   -1    0    0    0    0  0.00000000000E+00  0.00000000000E+00  0.45593999997E+02  0.45594000000E+02  0.51100000000E-03 0.  1.
         11   -1    0    0    0    0 -0.00000000000E+00 -0.00000000000E+00 -0.45593999997E+02  0.45594000000E+02  0.51100000000E-03 0. -1.
    9900012    2    1    2    0    0  0.28169439366E+02  0.14626943814E+02 -0.30423000558E+01  0.59301946793E+02  0.50000005043E+02 0.  0.
        -12    1    1    2    0    0 -0.28169439366E+02 -0.14626943814E+02  0.30423000558E+01  0.31886053207E+02  0.00000000000E+00 0.  1.
         11    1    3    3    0    0  0.37092387229E+01  0.16918167048E+01 -0.70382512012E+01  0.81337368963E+01  0.51100000000E-03 0. -1.
        -11    1    3    3    0    0  0.19461549286E+01  0.22837735051E+02 -0.73660495600E+01  0.24075056545E+02  0.51100000000E-03 0.  1.
        -12    1    3    3    0    0  0.22514045714E+02 -0.99026079424E+01  0.11362000705E+02  0.27093153351E+02  0.00000000000E+00 0.  1.
</event>
<event>
 7    1  0.6953847E-012  0.5930193E+02  0.7816164E-02  0.1266605E+00
        -11   -1    0    0    0    0  0.00000000000E+00  0.00000000000E+00  0.45593999997E+02  0.45594000000E+02  0.51100000000E-03 0. -1.
         11   -1    0    0    0    0 -0.00000000000E+00 -0.00000000000E+00 -0.45593999997E+02  0.45594000000E+02  0.51100000000E-03 0.  1.
    9900012    2    1    2    0    0 -0.59004672291E+01 -0.47351591073E+01  0.30975546633E+02  0.59301925696E+02  0.49999966568E+02 0.  0.
        -12    1    1    2    0    0  0.59004672291E+01  0.47351591073E+01 -0.30975546633E+02  0.31886074304E+02  0.00000000000E+00 0.  1.
         11    1    3    3    0    0  0.83106214416E+01 -0.14821888383E+02 -0.32694185094E+01  0.17304447453E+02  0.51100000000E-03 0. -1.
        -11    1    3    3    0    0 -0.12524922661E+01  0.61689761965E+01  0.13672224460E+01  0.64416070718E+01  0.51100000000E-03 0.  1.
        -12    1    3    3    0    0 -0.12958596405E+02  0.39177530793E+01  0.32877742697E+02  0.35555871172E+02  0.00000000000E+00 0.  1.
</event>
<event>
 7    1  0.6953847E-012  0.5930199E+02  0.7816164E-02  0.1266605E+00
        -11   -1    0    0    0    0  0.00000000000E+00  0.00000000000E+00  0.45593999997E+02  0.45594000000E+02  0.51100000000E-03 0.  1.
         11   -1    0    0    0    0 -0.00000000000E+00 -0.00000000000E+00 -0.45593999997E+02  0.45594000000E+02  0.51100000000E-03 0. -1.
    9900012    2    1    2    0    0 -0.23796212426E+02 -0.19676401379E+02 -0.79559596423E+01  0.59301987536E+02  0.50000079349E+02 0.  0.
        -12    1    1    2    0    0  0.23796212426E+02  0.19676401379E+02  0.79559596423E+01  0.31886012464E+02  0.00000000000E+00 0.  1.
         11    1    3    3    0    0 -0.23593402201E+01 -0.12084407451E+02 -0.92612438605E+01  0.15406817576E+02  0.51100000000E-03 0. -1.
        -11    1    3    3    0    0  0.74230619949E+01  0.71866577135E+01 -0.39246266112E+01  0.11052266409E+02  0.51100000000E-03 0.  1.
        -12    1    3    3    0    0 -0.28859934201E+02 -0.14778651641E+02  0.52299108294E+01  0.32842903551E+02  0.00000000000E+00 0.  1.
</event>
<event>
 7    1  0.6953847E-012  0.5930193E+02  0.7816164E-02  0.1266605E+00
        -11   -1    0    0    0    0  0.00000000000E+00  0.00000000000E+00  0.45593999997E+02  0.45594000000E+02  0.51100000000E-03 0.  1.
         11   -1    0    0    0    0 -0.00000000000E+00 -0.00000000000E+00 -0.45593999997E+02  0.45594000000E+02  0.51100000000E-03 0. -1.
    9900012    2    1    2    0    0 -0.19921581560E+02  0.96878815544E+01 -0.22934630746E+02  0.59301925480E+02  0.49999966173E+02 0.  0.
        -12    1    1    2    0    0  0.19921581560E+02 -0.96878815544E+01  0.22934630746E+02  0.31886074520E+02  0.00000000000E+00 0.  1.
         11    1    3    3    0    0  0.73848208423E+01 -0.41484584181E+01 -0.56529357316E+01  0.10183367261E+02  0.51100000000E-03 0. -1.
        -11    1    3    3    0    0 -0.13002937661E+02 -0.10109224496E+02 -0.12820104970E+02  0.20871700924E+02  0.51100000000E-03 0.  1.
        -12    1    3    3    0    0 -0.14303464741E+02  0.23945564469E+02 -0.44615900440E+01  0.28246857295E+02  0.00000000000E+00 0.  1.
</event>
<event>
 7    1  0.6953847E-012  0.5930194E+02  0.7816164E-02  0.1266605E+00
        -11   -1    0    0    0    0  0.00000000000E+00  0.00000000000E+00  0.45593999997E+02  0.45594000000E+02  0.51100000000E-03 0.  1.
         11   -1    0    0    0    0 -0.00000000000E+00 -0.00000000000E+00 -0.45593999997E+02  0.45594000000E+02  0.51100000000E-03 0. -1.
    9900012    2    1    2    0    0  0.82344131961E+01  0.17445954211E+02 -0.25388072471E+02  0.59301935602E+02  0.49999984634E+02 0.  0.
        -12    1    1    2    0    0 -0.82344131961E+01 -0.17445954211E+02  0.25388072471E+02  0.31886064398E+02  0.00000000000E+00 0.  1.
         11    1    3    3    0    0 -0.37725927367E+01  0.21522010051E+01 -0.69702311741E+01  0.82127064970E+01  0.51100000000E-03 0. -1.
        -11    1    3    3    0    0 -0.12015457264E+02 -0.74829495194E+00 -0.18654488094E+02  0.22201826161E+02  0.51100000000E-03 0.  1.
         12    1    3    3    0    0  0.24022463196E+02  0.16042048158E+02  0.23664679755E+00  0.28887402944E+02  0.00000000000E+00 0. -1.
</event>
<event>
 7    1  0.6953847E-012  0.5930197E+02  0.7816164E-02  0.1266605E+00
        -11   -1    0    0    0    0  0.00000000000E+00  0.00000000000E+00  0.45593999997E+02  0.45594000000E+02  0.51100000000E-03 0.  1.
         11   -1    0    0    0    0 -0.00000000000E+00 -0.00000000000E+00 -0.45593999997E+02  0.45594000000E+02  0.51100000000E-03 0. -1.
    9900012    2    1    2    0    0 -0.29459408883E+02  0.12122894430E+02 -0.13776150866E+01  0.59301965997E+02  0.50000040067E+02 0.  0.
        -12    1    1    2    0    0  0.29459408883E+02 -0.12122894430E+02  0.13776150866E+01  0.31886034003E+02  0.00000000000E+00 0.  1.
         11    1    3    3    0    0 -0.99578407996E+01 -0.55718687980E+00 -0.76206254768E+00  0.10002489200E+02  0.51100000000E-03 0. -1.
        -11    1    3    3    0    0 -0.30429761132E+02 -0.93992186931E+00  0.52188175736E+01  0.30888345259E+02  0.51100000000E-03 0.  1.
        -12    1    3    3    0    0  0.10928193049E+02  0.13620003179E+02 -0.58343701125E+01  0.18411131539E+02  0.00000000000E+00 0.  1.
</event>
<event>
 7    1  0.6953847E-012  0.5930157E+02  0.7816164E-02  0.1266606E+00
        -11   -1    0    0    0    0  0.00000000000E+00  0.00000000000E+00  0.45593999997E+02  0.45594000000E+02  0.51100000000E-03 0. -1.
         11   -1    0    0    0    0 -0.00000000000E+00 -0.00000000000E+00 -0.45593999997E+02  0.45594000000E+02  0.51100000000E-03 0.  1.
    9900012    2    1    2    0    0  0.12859326614E+01 -0.14288902265E+02  0.28476622887E+02  0.59301570257E+02  0.49999318327E+02 0.  0.
        -12    1    1    2    0    0 -0.12859326614E+01  0.14288902265E+02 -0.28476622887E+02  0.31886429743E+02  0.00000000000E+00 0.  1.
         11    1    3    3    0    0  0.87497648726E+00 -0.18943238432E+02  0.54264917369E+01  0.19724570438E+02  0.51100000000E-03 0. -1.
        -11    1    3    3    0    0  0.43353818330E+01 -0.98008624420E+01 -0.14968872255E+01  0.10820957068E+02  0.51100000000E-03 0.  1.
        -12    1    3    3    0    0 -0.39244256589E+01  0.14455198608E+02  0.24547018375E+02  0.28756042751E+02  0.00000000000E+00 0.  1.
</event>
<event>
 7    1  0.6953847E-012  0.5930193E+02  0.7816164E-02  0.1266605E+00
        -11   -1    0    0    0    0  0.00000000000E+00  0.00000000000E+00  0.45593999997E+02  0.45594000000E+02  0.51100000000E-03 0.  1.
         11   -1    0    0    0    0 -0.00000000000E+00 -0.00000000000E+00 -0.45593999997E+02  0.45594000000E+02  0.51100000000E-03 0. -1.
    9900012    2    1    2    0    0 -0.11847988726E+02 -0.11602769078E+02 -0.27234578910E+02  0.59301931325E+02  0.49999976834E+02 0.  0.
        -12    1    1    2    0    0  0.11847988726E+02  0.11602769078E+02  0.27234578910E+02  0.31886068675E+02  0.00000000000E+00 0.  1.
         11    1    3    3    0    0 -0.31226711091E+01 -0.26617674107E+01  0.62457036722E+01  0.74729442140E+01  0.51100000000E-03 0. -1.
        -11    1    3    3    0    0  0.12864511318E+02 -0.70152877525E+01 -0.39108204205E+01  0.15165896951E+02  0.51100000000E-03 0.  1.
         12    1    3    3    0    0 -0.21589828935E+02 -0.19257139149E+01 -0.29569462162E+02  0.36663090160E+02  0.00000000000E+00 0. -1.
</event>
<event>
 7    1  0.6953847E-012  0.5930195E+02  0.7816164E-02  0.1266605E+00
        -11   -1    0    0    0    0  0.00000000000E+00  0.00000000000E+00  0.45593999997E+02  0.45594000000E+02  0.51100000000E-03 0.  1.
         11   -1    0    0    0    0 -0.00000000000E+00 -0.00000000000E+00 -0.45593999997E+02  0.45594000000E+02  0.51100000000E-03 0. -1.
    9900012    2    1    2    0    0 -0.29543049993E+01 -0.30781170937E+02  0.77789205975E+01  0.59301952770E+02  0.50000015944E+02 0.  0.
        -12    1    1    2    0    0  0.29543049993E+01  0.30781170937E+02 -0.77789205975E+01  0.31886047230E+02  0.00000000000E+00 0.  1.
         11    1    3    3    0    0 -0.83392849089E+01 -0.47757639737E+01 -0.34385883756E+01  0.10206639241E+02  0.51100000000E-03 0.  1.
        -11    1    3    3    0    0 -0.10264111907E+02  0.43570451477E+01 -0.38020496788E+01  0.11780976941E+02  0.51100000000E-03 0. -1.
        -12    1    3    3    0    0  0.15649091817E+02 -0.30362452111E+02  0.15019558652E+02  0.37314336588E+02  0.00000000000E+00 0.  1.
</event>
<event>
 7    1  0.6953847E-012  0.5930196E+02  0.7816164E-02  0.1266605E+00
        -11   -1    0    0    0    0  0.00000000000E+00  0.00000000000E+00  0.45593999997E+02  0.45594000000E+02  0.51100000000E-03 0. -1.
         11   -1    0    0    0    0 -0.00000000000E+00 -0.00000000000E+00 -0.45593999997E+02  0.45594000000E+02  0.51100000000E-03 0.  1.
    9900012    2    1    2    0    0 -0.57120214592E+01 -0.59417147043E+00  0.31364620932E+02  0.59301957989E+02  0.50000025462E+02 0.  0.
        -12    1    1    2    0    0  0.57120214592E+01  0.59417147043E+00 -0.31364620932E+02  0.31886042011E+02  0.00000000000E+00 0.  1.
         11    1    3    3    0    0  0.64247116915E+01 -0.10094441839E+02  0.88238235871E+01  0.14867230385E+02  0.51100000000E-03 0. -1.
        -11    1    3    3    0    0  0.53355827798E+01 -0.89320965699E+01  0.14397938589E+02  0.17763767298E+02  0.51100000000E-03 0.  1.
        -12    1    3    3    0    0 -0.17472315931E+02  0.18432366939E+02  0.81428587558E+01  0.26670960306E+02  0.00000000000E+00 0.  1.
</event>
<event>
 7    1  0.6953847E-012  0.5930195E+02  0.7816164E-02  0.1266605E+00
        -11   -1    0    0    0    0  0.00000000000E+00  0.00000000000E+00  0.45593999997E+02  0.45594000000E+02  0.51100000000E-03 0.  1.
         11   -1    0    0    0    0 -0.00000000000E+00 -0.00000000000E+00 -0.45593999997E+02  0.45594000000E+02  0.51100000000E-03 0. -1.
    9900012    2    1    2    0    0 -0.14465783481E+02  0.26827898309E+01 -0.28288935406E+02  0.59301951023E+02  0.50000012757E+02 0.  0.
        -12    1    1    2    0    0  0.14465783481E+02 -0.26827898309E+01  0.28288935406E+02  0.31886048977E+02  0.00000000000E+00 0.  1.
         11    1    3    3    0    0  0.19249204660E+01 -0.10300342846E+02 -0.67116857914E+00  0.10500135669E+02  0.51100000000E-03 0. -1.
        -11    1    3    3    0    0  0.44615673984E+01 -0.88657663387E+01 -0.53274854460E+01  0.11264523863E+02  0.51100000000E-03 0.  1.
         12    1    3    3    0    0 -0.20852271345E+02  0.21848899015E+02 -0.22290281381E+02  0.37537291491E+02  0.00000000000E+00 0. -1.
</event>
<event>
 7    1  0.6953847E-012  0.5930196E+02  0.7816164E-02  0.1266605E+00
        -11   -1    0    0    0    0  0.00000000000E+00  0.00000000000E+00  0.45593999997E+02  0.45594000000E+02  0.51100000000E-03 0.  1.
         11   -1    0    0    0    0 -0.00000000000E+00 -0.00000000000E+00 -0.45593999997E+02  0.45594000000E+02  0.51100000000E-03 0. -1.
    9900012    2    1    2    0    0 -0.27739024715E+02 -0.77058702409E+01 -0.13707128789E+02  0.59301963747E+02  0.50000035963E+02 0.  0.
        -12    1    1    2    0    0  0.27739024715E+02  0.77058702409E+01  0.13707128789E+02  0.31886036253E+02  0.00000000000E+00 0.  1.
         11    1    3    3    0    0 -0.10363299583E+02 -0.20113705901E+01  0.10223831733E+02  0.14695928874E+02  0.51100000000E-03 0.  1.
        -11    1    3    3    0    0 -0.51991103949E+01 -0.16740531350E+02 -0.21883622842E+02  0.28038706956E+02  0.51100000000E-03 0. -1.
         12    1    3    3    0    0 -0.12176614737E+02  0.11046031699E+02 -0.20473376797E+01  0.16567327917E+02  0.00000000000E+00 0. -1.
</event>
<event>
 7    1  0.6953847E-012  0.5930191E+02  0.7816164E-02  0.1266605E+00
        -11   -1    0    0    0    0  0.00000000000E+00  0.00000000000E+00  0.45593999997E+02  0.45594000000E+02  0.51100000000E-03 0.  1.
         11   -1    0    0    0    0 -0.00000000000E+00 -0.00000000000E+00 -0.45593999997E+02  0.45594000000E+02  0.51100000000E-03 0. -1.
    9900012    2    1    2    0    0  0.14507371532E+02 -0.18376151088E+02 -0.21646619582E+02  0.59301907469E+02  0.49999933325E+02 0.  0.
        -12    1    1    2    0    0 -0.14507371532E+02  0.18376151088E+02  0.21646619582E+02  0.31886092531E+02  0.00000000000E+00 0.  1.
         11    1    3    3    0    0 -0.68843731554E+01 -0.73615959744E+01 -0.14514299869E+02  0.17670670332E+02  0.51100000000E-03 0. -1.
        -11    1    3    3    0    0  0.35453229264E+01 -0.85625154549E+01  0.12125394762E+02  0.15261427979E+02  0.51100000000E-03 0.  1.
         12    1    3    3    0    0  0.17846421761E+02 -0.24520396585E+01 -0.19257714475E+02  0.26369809157E+02  0.00000000000E+00 0. -1.
</event>
<event>
 7    1  0.6953847E-012  0.5930195E+02  0.7816164E-02  0.1266605E+00
        -11   -1    0    0    0    0  0.00000000000E+00  0.00000000000E+00  0.45593999997E+02  0.45594000000E+02  0.51100000000E-03 0.  1.
         11   -1    0    0    0    0 -0.00000000000E+00 -0.00000000000E+00 -0.45593999997E+02  0.45594000000E+02  0.51100000000E-03 0. -1.
    9900012    2    1    2    0    0 -0.14520980007E+02  0.15625837807E+02 -0.23700090163E+02  0.59301953816E+02  0.50000017852E+02 0.  0.
        -12    1    1    2    0    0  0.14520980007E+02 -0.15625837807E+02  0.23700090163E+02  0.31886046184E+02  0.00000000000E+00 0.  1.
         11    1    3    3    0    0  0.10956210413E+02  0.10109814958E+02  0.76596258787E+01  0.16760572005E+02  0.51100000000E-03 0. -1.
        -11    1    3    3    0    0  0.92372098946E+00 -0.15829479429E+00  0.24767188009E+00  0.96936026820E+00  0.51100000000E-03 0.  1.
        -12    1    3    3    0    0 -0.26400911409E+02  0.56743176436E+01 -0.31607387921E+02  0.41572021543E+02  0.00000000000E+00 0.  1.
</event>
<event>
 7    1  0.6953847E-012  0.5930192E+02  0.7816164E-02  0.1266605E+00
        -11   -1    0    0    0    0  0.00000000000E+00  0.00000000000E+00  0.45593999997E+02  0.45594000000E+02  0.51100000000E-03 0.  1.
         11   -1    0    0    0    0 -0.00000000000E+00 -0.00000000000E+00 -0.45593999997E+02  0.45594000000E+02  0.51100000000E-03 0. -1.
    9900012    2    1    2    0    0 -0.15973347816E+02 -0.11646465212E+02 -0.25018678054E+02  0.59301917708E+02  0.49999951999E+02 0.  0.
        -12    1    1    2    0    0  0.15973347816E+02  0.11646465212E+02  0.25018678054E+02  0.31886082292E+02  0.00000000000E+00 0.  1.
         11    1    3    3    0    0 -0.13598945865E+02 -0.29168330052E+01 -0.96675740513E+01  0.16938159042E+02  0.51100000000E-03 0. -1.
        -11    1    3    3    0    0  0.14191750812E+01 -0.16361926510E+02  0.74408384753E+01  0.18030329296E+02  0.51100000000E-03 0.  1.
         12    1    3    3    0    0 -0.37935770316E+01  0.76322943031E+01 -0.22791942478E+02  0.24333429370E+02  0.00000000000E+00 0. -1.
</event>
<event>
 7    1  0.6953847E-012  0.5930193E+02  0.7816164E-02  0.1266605E+00
        -11   -1    0    0    0    0  0.00000000000E+00  0.00000000000E+00  0.45593999997E+02  0.45594000000E+02  0.51100000000E-03 0.  1.
         11   -1    0    0    0    0 -0.00000000000E+00 -0.00000000000E+00 -0.45593999997E+02  0.45594000000E+02  0.51100000000E-03 0. -1.
    9900012    2    1    2    0    0  0.34911230999E+01 -0.16504380086E+02 -0.27058066814E+02  0.59301929653E+02  0.49999973783E+02 0.  0.
        -12    1    1    2    0    0 -0.34911230999E+01  0.16504380086E+02  0.27058066814E+02  0.31886070347E+02  0.00000000000E+00 0.  1.
         11    1    3    3    0    0 -0.57477043973E+01  0.11835345443E+02 -0.10983684558E+02  0.17139219187E+02  0.51100000000E-03 0. -1.
        -11    1    3    3    0    0  0.95996774526E+01  0.95493113993E+00 -0.47534576897E+01  0.10754583253E+02  0.51100000000E-03 0.  1.
        -12    1    3    3    0    0 -0.36084995529E+00 -0.29294656668E+02 -0.11320924566E+02  0.31408127213E+02  0.00000000000E+00 0.  1.
</event>
<event>
 7    1  0.6953847E-012  0.5930191E+02  0.7816164E-02  0.1266605E+00
        -11   -1    0    0    0    0  0.00000000000E+00  0.00000000000E+00  0.45593999997E+02  0.45594000000E+02  0.51100000000E-03 0.  1.
         11   -1    0    0    0    0 -0.00000000000E+00 -0.00000000000E+00 -0.45593999997E+02  0.45594000000E+02  0.51100000000E-03 0. -1.
    9900012    2    1    2    0    0  0.23158870202E+02  0.12156013286E+02 -0.18237888343E+02  0.59301913705E+02  0.49999944698E+02 0.  0.
        -12    1    1    2    0    0 -0.23158870202E+02 -0.12156013286E+02  0.18237888343E+02  0.31886086295E+02  0.00000000000E+00 0.  1.
         11    1    3    3    0    0  0.11457720354E+02  0.14024283106E+02 -0.15880729548E+02  0.24086457680E+02  0.51100000000E-03 0. -1.
        -11    1    3    3    0    0  0.16191514633E+02  0.17660751646E+01 -0.14475604833E+02  0.21790532420E+02  0.51100000000E-03 0.  1.
        -12    1    3    3    0    0 -0.44903647851E+01 -0.36343449846E+01  0.12118446039E+02  0.13424923604E+02  0.00000000000E+00 0.  1.
</event>
<event>
 7    1  0.6953847E-012  0.5930199E+02  0.7816164E-02  0.1266605E+00
        -11   -1    0    0    0    0  0.00000000000E+00  0.00000000000E+00  0.45593999997E+02  0.45594000000E+02  0.51100000000E-03 0.  1.
         11   -1    0    0    0    0 -0.00000000000E+00 -0.00000000000E+00 -0.45593999997E+02  0.45594000000E+02  0.51100000000E-03 0. -1.
    9900012    2    1    2    0    0 -0.67599621263E+01  0.18921807144E+02 -0.24758553077E+02  0.59301987016E+02  0.50000078401E+02 0.  0.
        -12    1    1    2    0    0  0.67599621263E+01 -0.18921807144E+02  0.24758553077E+02  0.31886012984E+02  0.00000000000E+00 0.  1.
         11    1    3    3    0    0  0.21952555885E+01  0.68080480868E+01  0.32172431547E+01  0.78434252485E+01  0.51100000000E-03 0. -1.
        -11    1    3    3    0    0  0.13372454892E+02  0.11278122698E+02 -0.26624403932E+01  0.17694835137E+02  0.51100000000E-03 0.  1.
         12    1    3    3    0    0 -0.22327672607E+02  0.83563635920E+00 -0.25313355838E+02  0.33763726630E+02  0.00000000000E+00 0. -1.
</event>
<event>
 7    1  0.6953847E-012  0.5930195E+02  0.7816164E-02  0.1266605E+00
        -11   -1    0    0    0    0  0.00000000000E+00  0.00000000000E+00  0.45593999997E+02  0.45594000000E+02  0.51100000000E-03 0.  1.
         11   -1    0    0    0    0 -0.00000000000E+00 -0.00000000000E+00 -0.45593999997E+02  0.45594000000E+02  0.51100000000E-03 0. -1.
    9900012    2    1    2    0    0  0.65231621685E+01 -0.18530537252E+02 -0.25115487086E+02  0.59301950589E+02  0.50000011966E+02 0.  0.
        -12    1    1    2    0    0 -0.65231621685E+01  0.18530537252E+02  0.25115487086E+02  0.31886049411E+02  0.00000000000E+00 0.  1.
         11    1    3    3    0    0  0.95240195819E+01 -0.57818216173E+01  0.65484505203E+01  0.12923568187E+02  0.51100000000E-03 0. -1.
        -11    1    3    3    0    0 -0.82968931520E+01 -0.13725652666E+02 -0.19224582045E+01  0.16153260442E+02  0.51100000000E-03 0.  1.
         12    1    3    3    0    0  0.52960357386E+01  0.97693703169E+00 -0.29741479401E+02  0.30225121960E+02  0.00000000000E+00 0. -1.
</event>
<event>
 7    1  0.6953847E-012  0.5930194E+02  0.7816164E-02  0.1266605E+00
        -11   -1    0    0    0    0  0.00000000000E+00  0.00000000000E+00  0.45593999997E+02  0.45594000000E+02  0.51100000000E-03 0.  1.
         11   -1    0    0    0    0 -0.00000000000E+00 -0.00000000000E+00 -0.45593999997E+02  0.45594000000E+02  0.51100000000E-03 0. -1.
    9900012    2    1    2    0    0  0.82773634559E+01 -0.13100568408E+02 -0.27867202529E+02  0.59301943248E+02  0.49999998579E+02 0.  0.
        -12    1    1    2    0    0 -0.82773634559E+01  0.13100568408E+02  0.27867202529E+02  0.31886056752E+02  0.00000000000E+00 0.  1.
         11    1    3    3    0    0  0.97650139166E+01 -0.30181986541E+01  0.15200253002E+01  0.10333222977E+02  0.51100000000E-03 0. -1.
        -11    1    3    3    0    0 -0.10841339487E+01  0.10789166152E+02  0.22407921089E+01  0.11072605935E+02  0.51100000000E-03 0.  1.
        -12    1    3    3    0    0 -0.40351651205E+00 -0.20871535905E+02 -0.31628019938E+02  0.37896114336E+02  0.00000000000E+00 0.  1.
</event>
<event>
 7    1  0.6953847E-012  0.5930187E+02  0.7816164E-02  0.1266605E+00
        -11   -1    0    0    0    0  0.00000000000E+00  0.00000000000E+00  0.45593999997E+02  0.45594000000E+02  0.51100000000E-03 0.  1.
         11   -1    0    0    0    0 -0.00000000000E+00 -0.00000000000E+00 -0.45593999997E+02  0.45594000000E+02  0.51100000000E-03 0. -1.
    9900012    2    1    2    0    0 -0.13124323069E+02  0.60672775775E+01 -0.28419463253E+02  0.59301865006E+02  0.49999855884E+02 0.  0.
        -12    1    1    2    0    0  0.13124323069E+02 -0.60672775775E+01  0.28419463253E+02  0.31886134994E+02  0.00000000000E+00 0.  1.
         11    1    3    3    0    0  0.28304492902E+01 -0.40784485187E+01 -0.27489572307E+01  0.56746763451E+01  0.51100000000E-03 0. -1.
        -11    1    3    3    0    0  0.12740859666E+02 -0.46851491637E+01 -0.13396764172E+02  0.19072320736E+02  0.51100000000E-03 0.  1.
         12    1    3    3    0    0 -0.28695632025E+02  0.14830875260E+02 -0.12273741850E+02  0.34554867925E+02  0.00000000000E+00 0. -1.
</event>
<event>
 7    1  0.6953847E-012  0.5930197E+02  0.7816164E-02  0.1266605E+00
        -11   -1    0    0    0    0  0.00000000000E+00  0.00000000000E+00  0.45593999997E+02  0.45594000000E+02  0.51100000000E-03 0.  1.
         11   -1    0    0    0    0 -0.00000000000E+00 -0.00000000000E+00 -0.45593999997E+02  0.45594000000E+02  0.51100000000E-03 0. -1.
    9900012    2    1    2    0    0 -0.28780264753E+02  0.99602309664E+01 -0.94450473337E+01  0.59301972350E+02  0.50000051653E+02 0.  0.
        -12    1    1    2    0    0  0.28780264753E+02 -0.99602309664E+01  0.94450473337E+01  0.31886027650E+02  0.00000000000E+00 0.  1.
         11    1    3    3    0    0 -0.50244670121E+01 -0.73245336127E+01  0.28301139015E+01  0.93222103793E+01  0.51100000000E-03 0. -1.
        -11    1    3    3    0    0  0.71593471130E+01 -0.63059006806E+01 -0.18419334749E+01  0.97166534190E+01  0.51100000000E-03 0.  1.
         12    1    3    3    0    0 -0.30915144854E+02  0.23590665260E+02 -0.10433227760E+02  0.40263108552E+02  0.00000000000E+00 0. -1.
</event>
<event>
 7    1  0.6953847E-012  0.5930193E+02  0.7816164E-02  0.1266605E+00
        -11   -1    0    0    0    0  0.00000000000E+00  0.00000000000E+00  0.45593999997E+02  0.45594000000E+02  0.51100000000E-03 0. -1.
         11   -1    0    0    0    0 -0.00000000000E+00 -0.00000000000E+00 -0.45593999997E+02  0.45594000000E+02  0.51100000000E-03 0.  1.
    9900012    2    1    2    0    0 -0.12797170911E+02 -0.29188262112E+02  0.99950542360E+00  0.59301933458E+02  0.49999980723E+02 0.  0.
        -12    1    1    2    0    0  0.12797170911E+02  0.29188262112E+02 -0.99950542360E+00  0.31886066542E+02  0.00000000000E+00 0.  1.
         11    1    3    3    0    0 -0.18297594064E+02 -0.21472192488E+02  0.12658943960E+02  0.30920961519E+02  0.51100000000E-03 0. -1.
        -11    1    3    3    0    0  0.18472381372E+01 -0.13570734936E+02  0.12396969948E+01  0.13751872030E+02  0.51100000000E-03 0.  1.
         12    1    3    3    0    0  0.36531850166E+01  0.58546653117E+01 -0.12899135532E+02  0.14629099909E+02  0.00000000000E+00 0. -1.
</event>
<event>
 7    1  0.6953847E-012  0.5930194E+02  0.7816164E-02  0.1266605E+00
        -11   -1    0    0    0    0  0.00000000000E+00  0.00000000000E+00  0.45593999997E+02  0.45594000000E+02  0.51100000000E-03 0.  1.
         11   -1    0    0    0    0 -0.00000000000E+00 -0.00000000000E+00 -0.45593999997E+02  0.45594000000E+02  0.51100000000E-03 0. -1.
    9900012    2    1    2    0    0  0.13513550656E+02  0.47925327582E-03 -0.28880868875E+02  0.59301942882E+02  0.49999997910E+02 0.  0.
        -12    1    1    2    0    0 -0.13513550656E+02 -0.47925327582E-03  0.28880868875E+02  0.31886057118E+02  0.00000000000E+00 0.  1.
         11    1    3    3    0    0  0.67442212910E+01  0.77943744624E+01 -0.72160126061E+01  0.12582036094E+02  0.51100000000E-03 0. -1.
        -11    1    3    3    0    0 -0.61785958597E+01  0.48828694532E+01 -0.26761690141E+02  0.27896335250E+02  0.51100000000E-03 0.  1.
        -12    1    3    3    0    0  0.12947925225E+02 -0.12676764662E+02  0.50968338722E+01  0.18823571538E+02  0.00000000000E+00 0.  1.
</event>
<event>
 7    1  0.6953847E-012  0.5930193E+02  0.7816164E-02  0.1266605E+00
        -11   -1    0    0    0    0  0.00000000000E+00  0.00000000000E+00  0.45593999997E+02  0.45594000000E+02  0.51100000000E-03 0. -1.
         11   -1    0    0    0    0 -0.00000000000E+00 -0.00000000000E+00 -0.45593999997E+02  0.45594000000E+02  0.51100000000E-03 0.  1.
    9900012    2    1    2    0    0  0.26563199488E+02  0.16879275603E+02  0.51193668533E+01  0.59301930488E+02  0.49999975306E+02 0.  0.
        -12    1    1    2    0    0 -0.26563199488E+02 -0.16879275603E+02 -0.51193668533E+01  0.31886069512E+02  0.00000000000E+00 0.  1.
         11    1    3    3    0    0  0.20409202593E+02  0.68574878381E+01  0.15901628030E+02  0.26766069270E+02  0.51100000000E-03 0. -1.
        -11    1    3    3    0    0  0.10788030697E+01 -0.82296544432E+01  0.32990873448E+01  0.89316855009E+01  0.51100000000E-03 0.  1.
         12    1    3    3    0    0  0.50751938261E+01  0.18251442208E+02 -0.14081348522E+02  0.23604175716E+02  0.00000000000E+00 0. -1.
</event>
<event>
 7    1  0.6953847E-012  0.5930197E+02  0.7816164E-02  0.1266605E+00
        -11   -1    0    0    0    0  0.00000000000E+00  0.00000000000E+00  0.45593999997E+02  0.45594000000E+02  0.51100000000E-03 0.  1.
         11   -1    0    0    0    0 -0.00000000000E+00 -0.00000000000E+00 -0.45593999997E+02  0.45594000000E+02  0.51100000000E-03 0. -1.
    9900012    2    1    2    0    0 -0.65014534160E+01 -0.28497742496E+02  0.12740818903E+02  0.59301973433E+02  0.50000053628E+02 0.  0.
        -12    1    1    2    0    0  0.65014534160E+01  0.28497742496E+02 -0.12740818903E+02  0.31886026567E+02  0.00000000000E+00 0.  1.
         11    1    3    3    0    0 -0.15809408858E+02 -0.35244964000E+02  0.62982914792E+01  0.39138387443E+02  0.51100000000E-03 0. -1.
        -11    1    3    3    0    0  0.14763318696E+01  0.59421216031E+01 -0.38293390271E+01  0.72216481900E+01  0.51100000000E-03 0.  1.
        -12    1    3    3    0    0  0.78316235728E+01  0.80509990069E+00  0.10271866451E+02  0.12941937800E+02  0.00000000000E+00 0.  1.
</event>
<event>
 7    1  0.6953847E-012  0.5930182E+02  0.7816164E-02  0.1266605E+00
        -11   -1    0    0    0    0  0.00000000000E+00  0.00000000000E+00  0.45593999997E+02  0.45594000000E+02  0.51100000000E-03 0.  1.
         11   -1    0    0    0    0 -0.00000000000E+00 -0.00000000000E+00 -0.45593999997E+02  0.45594000000E+02  0.51100000000E-03 0. -1.
    9900012    2    1    2    0    0 -0.88754910109E+01 -0.28442765591E+02 -0.11356187017E+02  0.59301823705E+02  0.49999780560E+02 0.  0.
        -12    1    1    2    0    0  0.88754910109E+01  0.28442765591E+02  0.11356187017E+02  0.31886176295E+02  0.00000000000E+00 0.  1.
         11    1    3    3    0    0 -0.71752612013E+00  0.60423981219E+01 -0.95318482513E+01  0.11308472494E+02  0.51100000000E-03 0. -1.
        -11    1    3    3    0    0 -0.43984857732E+01 -0.16911110001E+00  0.10462389009E+02  0.11350632568E+02  0.51100000000E-03 0.  1.
         12    1    3    3    0    0 -0.37594791177E+01 -0.34316052613E+02 -0.12286727774E+02  0.36642718643E+02  0.00000000000E+00 0. -1.
</event>
<event>
 7    1  0.6953847E-012  0.5930190E+02  0.7816164E-02  0.1266605E+00
        -11   -1    0    0    0    0  0.00000000000E+00  0.00000000000E+00  0.45593999997E+02  0.45594000000E+02  0.51100000000E-03 0.  1.
         11   -1    0    0    0    0 -0.00000000000E+00 -0.00000000000E+00 -0.45593999997E+02  0.45594000000E+02  0.51100000000E-03 0. -1.
    9900012    2    1    2    0    0 -0.14052140404E+02 -0.10697292442E+02 -0.26548614179E+02  0.59301895968E+02  0.49999912350E+02 0.  0.
        -12    1    1    2    0    0  0.14052140404E+02  0.10697292442E+02  0.26548614179E+02  0.31886104032E+02  0.00000000000E+00 0.  1.
         11    1    3    3    0    0 -0.88209859953E+01  0.12266216476E+02 -0.13718016852E+02  0.20407200866E+02  0.51100000000E-03 0. -1.
        -11    1    3    3    0    0  0.17938451026E+01 -0.15499674635E+01  0.79156626960E+01  0.82630500160E+01  0.51100000000E-03 0.  1.
        -12    1    3    3    0    0 -0.70249995110E+01 -0.21413541454E+02 -0.20746260023E+02  0.30631645086E+02  0.00000000000E+00 0.  1.
</event>
<event>
 7    1  0.6953847E-012  0.5930199E+02  0.7816164E-02  0.1266605E+00
        -11   -1    0    0    0    0  0.00000000000E+00  0.00000000000E+00  0.45593999997E+02  0.45594000000E+02  0.51100000000E-03 0. -1.
         11   -1    0    0    0    0 -0.00000000000E+00 -0.00000000000E+00 -0.45593999997E+02  0.45594000000E+02  0.51100000000E-03 0.  1.
    9900012    2    1    2    0    0  0.22107481322E+02 -0.22658823541E+02  0.38150148849E+01  0.59301994398E+02  0.50000091864E+02 0.  0.
        -12    1    1    2    0    0 -0.22107481322E+02  0.22658823541E+02 -0.38150148849E+01  0.31886005602E+02  0.00000000000E+00 0.  1.
         11    1    3    3    0    0  0.15005538521E+02 -0.27338279751E+01  0.12390933291E+02  0.19651341679E+02  0.51100000000E-03 0. -1.
        -11    1    3    3    0    0  0.73341965869E+01  0.54877446674E+01  0.54143162724E+01  0.10640517002E+02  0.51100000000E-03 0.  1.
         12    1    3    3    0    0 -0.23225378568E+00 -0.25412740233E+02 -0.13990234679E+02  0.29010135717E+02  0.00000000000E+00 0. -1.
</event>
<event>
 7    1  0.6953847E-012  0.5930195E+02  0.7816164E-02  0.1266605E+00
        -11   -1    0    0    0    0  0.00000000000E+00  0.00000000000E+00  0.45593999997E+02  0.45594000000E+02  0.51100000000E-03 0.  1.
         11   -1    0    0    0    0 -0.00000000000E+00 -0.00000000000E+00 -0.45593999997E+02  0.45594000000E+02  0.51100000000E-03 0. -1.
    9900012    2    1    2    0    0 -0.15086572147E+02 -0.52624447511E+01 -0.27593875714E+02  0.59301953510E+02  0.50000017293E+02 0.  0.
        -12    1    1    2    0    0  0.15086572147E+02  0.52624447511E+01  0.27593875714E+02  0.31886046490E+02  0.00000000000E+00 0.  1.
         11    1    3    3    0    0 -0.10787753348E+02  0.56210704460E+01  0.42648240486E+01  0.12890336679E+02  0.51100000000E-03 0. -1.
        -11    1    3    3    0    0  0.66155269460E+01  0.22778437042E+01  0.29788376681E+01  0.76044225834E+01  0.51100000000E-03 0.  1.
         12    1    3    3    0    0 -0.10914345744E+02 -0.13161358901E+02 -0.34837537430E+02  0.38807194247E+02  0.00000000000E+00 0. -1.
</event>
<event>
 7    1  0.6953847E-012  0.5930200E+02  0.7816164E-02  0.1266605E+00
        -11   -1    0    0    0    0  0.00000000000E+00  0.00000000000E+00  0.45593999997E+02  0.45594000000E+02  0.51100000000E-03 0. -1.
         11   -1    0    0    0    0 -0.00000000000E+00 -0.00000000000E+00 -0.45593999997E+02  0.45594000000E+02  0.51100000000E-03 0.  1.
    9900012    2    1    2    0    0 -0.19765977788E+02 -0.29251154955E+01  0.24848884176E+02  0.59301996434E+02  0.50000095577E+02 0.  0.
        -12    1    1    2    0    0  0.19765977788E+02  0.29251154955E+01 -0.24848884176E+02  0.31886003566E+02  0.00000000000E+00 0.  1.
         11    1    3    3    0    0 -0.10040484458E+02 -0.12520208201E+02  0.31055766254E+02  0.34957510772E+02  0.51100000000E-03 0. -1.
        -11    1    3    3    0    0  0.53926982210E+00 -0.48510785703E+01 -0.43281004298E+01  0.65235135340E+01  0.51100000000E-03 0.  1.
        -12    1    3    3    0    0 -0.10264763153E+02  0.14446171275E+02 -0.18787816476E+01  0.17820972128E+02  0.00000000000E+00 0.  1.
</event>
<event>
 7    1  0.6953847E-012  0.5930195E+02  0.7816164E-02  0.1266605E+00
        -11   -1    0    0    0    0  0.00000000000E+00  0.00000000000E+00  0.45593999997E+02  0.45594000000E+02  0.51100000000E-03 0.  1.
         11   -1    0    0    0    0 -0.00000000000E+00 -0.00000000000E+00 -0.45593999997E+02  0.45594000000E+02  0.51100000000E-03 0. -1.
    9900012    2    1    2    0    0 -0.70047798470E+01  0.12235310972E+02 -0.28599831766E+02  0.59301950506E+02  0.50000011814E+02 0.  0.
        -12    1    1    2    0    0  0.70047798470E+01 -0.12235310972E+02  0.28599831766E+02  0.31886049494E+02  0.00000000000E+00 0.  1.
         11    1    3    3    0    0 -0.14123822311E+01  0.28435827545E+01 -0.27276075346E+02  0.27460245319E+02  0.51100000000E-03 0. -1.
        -11    1    3    3    0    0 -0.22161725123E+01 -0.26528213542E+01 -0.13769118821E+02  0.14196390918E+02  0.51100000000E-03 0.  1.
        -12    1    3    3    0    0 -0.33762251036E+01  0.12044549572E+02  0.12445362401E+02  0.17645314268E+02  0.00000000000E+00 0.  1.
</event>
<event>
 7    1  0.6953847E-012  0.5930197E+02  0.7816164E-02  0.1266605E+00
        -11   -1    0    0    0    0  0.00000000000E+00  0.00000000000E+00  0.45593999997E+02  0.45594000000E+02  0.51100000000E-03 0. -1.
         11   -1    0    0    0    0 -0.00000000000E+00 -0.00000000000E+00 -0.45593999997E+02  0.45594000000E+02  0.51100000000E-03 0.  1.
    9900012    2    1    2    0    0 -0.13404846440E+02  0.28750019729E+02  0.32350429014E+01  0.59301967868E+02  0.50000043479E+02 0.  0.
        -12    1    1    2    0    0  0.13404846440E+02 -0.28750019729E+02 -0.32350429014E+01  0.31886032132E+02  0.00000000000E+00 0.  1.
         11    1    3    3    0    0 -0.11501818974E+02 -0.11850597583E+00  0.78694865901E+01  0.13936811071E+02  0.51100000000E-03 0. -1.
        -11    1    3    3    0    0 -0.16672179787E+02  0.95738533383E+01  0.38895151276E+01  0.19615008916E+02  0.51100000000E-03 0.  1.
        -12    1    3    3    0    0  0.14769152320E+02  0.19294672367E+02 -0.85239588164E+01  0.25750147881E+02  0.00000000000E+00 0.  1.
</event>
<event>
 7    1  0.6953847E-012  0.5930182E+02  0.7816164E-02  0.1266605E+00
        -11   -1    0    0    0    0  0.00000000000E+00  0.00000000000E+00  0.45593999997E+02  0.45594000000E+02  0.51100000000E-03 0.  1.
         11   -1    0    0    0    0 -0.00000000000E+00 -0.00000000000E+00 -0.45593999997E+02  0.45594000000E+02  0.51100000000E-03 0. -1.
    9900012    2    1    2    0    0 -0.13541878643E+02 -0.21217196853E+02 -0.19574891427E+02  0.59301822840E+02  0.49999778983E+02 0.  0.
        -12    1    1    2    0    0  0.13541878643E+02  0.21217196853E+02  0.19574891427E+02  0.31886177160E+02  0.00000000000E+00 0.  1.
         11    1    3    3    0    0 -0.34714904269E+01 -0.20736023555E-01 -0.12408761297E+02  0.12885225375E+02  0.51100000000E-03 0. -1.
        -11    1    3    3    0    0  0.16647714960E+01 -0.20278003421E+02 -0.20326575221E+02  0.28760016470E+02  0.51100000000E-03 0.  1.
        -12    1    3    3    0    0 -0.11735159712E+02 -0.91845740797E+00  0.13160445090E+02  0.17656580996E+02  0.00000000000E+00 0.  1.
</event>
<event>
 7    1  0.6953847E-012  0.5930194E+02  0.7816164E-02  0.1266605E+00
        -11   -1    0    0    0    0  0.00000000000E+00  0.00000000000E+00  0.45593999997E+02  0.45594000000E+02  0.51100000000E-03 0.  1.
         11   -1    0    0    0    0 -0.00000000000E+00 -0.00000000000E+00 -0.45593999997E+02  0.45594000000E+02  0.51100000000E-03 0. -1.
    9900012    2    1    2    0    0 -0.12345138509E+02  0.66079349747E+01 -0.28647051113E+02  0.59301940555E+02  0.49999993667E+02 0.  0.
        -12    1    1    2    0    0  0.12345138509E+02 -0.66079349747E+01  0.28647051113E+02  0.31886059445E+02  0.00000000000E+00 0.  1.
         11    1    3    3    0    0  0.78906443108E+01  0.66085513392E+01 -0.51520156387E+01  0.11509929793E+02  0.51100000000E-03 0. -1.
        -11    1    3    3    0    0  0.10124191145E+02 -0.47106855156E+00 -0.11001812838E+02  0.14958644254E+02  0.51100000000E-03 0.  1.
        -12    1    3    3    0    0 -0.30359973965E+02  0.47045218712E+00 -0.12493222637E+02  0.32833366508E+02  0.00000000000E+00 0.  1.
</event>
<event>
 7    1  0.6953847E-012  0.5930194E+02  0.7816164E-02  0.1266605E+00
        -11   -1    0    0    0    0  0.00000000000E+00  0.00000000000E+00  0.45593999997E+02  0.45594000000E+02  0.51100000000E-03 0.  1.
         11   -1    0    0    0    0 -0.00000000000E+00 -0.00000000000E+00 -0.45593999997E+02  0.45594000000E+02  0.51100000000E-03 0. -1.
    9900012    2    1    2    0    0  0.24927194115E+02  0.18112685789E+02  0.82028150348E+01  0.59301943997E+02  0.49999999944E+02 0.  0.
        -12    1    1    2    0    0 -0.24927194115E+02 -0.18112685789E+02 -0.82028150348E+01  0.31886056003E+02  0.00000000000E+00 0.  1.
         11    1    3    3    0    0  0.26256651401E+02  0.80539287973E+00 -0.11478075097E+02  0.28667169527E+02  0.51100000000E-03 0. -1.
        -11    1    3    3    0    0 -0.34056148307E+01  0.13574952920E+01  0.12488569179E+02  0.13015581672E+02  0.51100000000E-03 0.  1.
        -12    1    3    3    0    0  0.20761575445E+01  0.15949797617E+02  0.71923209520E+01  0.17619192798E+02  0.00000000000E+00 0.  1.
</event>
<event>
 7    1  0.6953847E-012  0.5930198E+02  0.7816164E-02  0.1266605E+00
        -11   -1    0    0    0    0  0.00000000000E+00  0.00000000000E+00  0.45593999997E+02  0.45594000000E+02  0.51100000000E-03 0.  1.
         11   -1    0    0    0    0 -0.00000000000E+00 -0.00000000000E+00 -0.45593999997E+02  0.45594000000E+02  0.51100000000E-03 0. -1.
    9900012    2    1    2    0    0 -0.11946261958E+02 -0.24960460381E+02 -0.15842368106E+02  0.59301978228E+02  0.50000062374E+02 0.  0.
        -12    1    1    2    0    0  0.11946261958E+02  0.24960460381E+02  0.15842368106E+02  0.31886021772E+02  0.00000000000E+00 0.  1.
         11    1    3    3    0    0 -0.49377904218E+01 -0.58073492257E+01 -0.12858888299E+02  0.14948514569E+02  0.51100000000E-03 0. -1.
        -11    1    3    3    0    0 -0.76595776521E+00 -0.33421394007E+01 -0.20005481592E+02  0.20297188994E+02  0.51100000000E-03 0.  1.
        -12    1    3    3    0    0 -0.62425137705E+01 -0.15810971755E+02  0.17022001785E+02  0.24056274665E+02  0.00000000000E+00 0.  1.
</event>
<event>
 7    1  0.6953847E-012  0.5930196E+02  0.7816164E-02  0.1266605E+00
        -11   -1    0    0    0    0  0.00000000000E+00  0.00000000000E+00  0.45593999997E+02  0.45594000000E+02  0.51100000000E-03 0.  1.
         11   -1    0    0    0    0 -0.00000000000E+00 -0.00000000000E+00 -0.45593999997E+02  0.45594000000E+02  0.51100000000E-03 0. -1.
    9900012    2    1    2    0    0 -0.42377547276E+01  0.20090367523E+02 -0.24395453426E+02  0.59301959477E+02  0.50000028176E+02 0.  0.
        -12    1    1    2    0    0  0.42377547276E+01 -0.20090367523E+02  0.24395453426E+02  0.31886040523E+02  0.00000000000E+00 0.  1.
         11    1    3    3    0    0 -0.22681857158E+02  0.46738685040E+01 -0.93070258131E+01  0.24958614158E+02  0.51100000000E-03 0. -1.
        -11    1    3    3    0    0  0.16265105754E+01 -0.12309650999E+01  0.36350237680E+01  0.41682382111E+01  0.51100000000E-03 0.  1.
        -12    1    3    3    0    0  0.16817591855E+02  0.16647464119E+02 -0.18723451381E+02  0.30175107109E+02  0.00000000000E+00 0.  1.
</event>
<event>
 7    1  0.6953847E-012  0.5930188E+02  0.7816164E-02  0.1266605E+00
        -11   -1    0    0    0    0  0.00000000000E+00  0.00000000000E+00  0.45593999997E+02  0.45594000000E+02  0.51100000000E-03 0. -1.
         11   -1    0    0    0    0 -0.00000000000E+00 -0.00000000000E+00 -0.45593999997E+02  0.45594000000E+02  0.51100000000E-03 0.  1.
    9900012    2    1    2    0    0  0.27093069235E+02  0.21474011715E+01 -0.16675696460E+02  0.59301881002E+02  0.49999885055E+02 0.  0.
        -12    1    1    2    0    0 -0.27093069235E+02 -0.21474011715E+01  0.16675696460E+02  0.31886118998E+02  0.00000000000E+00 0.  1.
         11    1    3    3    0    0  0.28803187121E+02  0.35863886212E+01 -0.71649245564E+00  0.29034447358E+02  0.51100000000E-03 0. -1.
        -11    1    3    3    0    0 -0.34675928681E+01 -0.11934352990E+02 -0.18036927684E+01  0.12558116478E+02  0.51100000000E-03 0.  1.
        -12    1    3    3    0    0  0.17574749819E+01  0.10495365541E+02 -0.14155511236E+02  0.17709317166E+02  0.00000000000E+00 0.  1.
</event>
<event>
 7    1  0.6953847E-012  0.5930193E+02  0.7816164E-02  0.1266605E+00
        -11   -1    0    0    0    0  0.00000000000E+00  0.00000000000E+00  0.45593999997E+02  0.45594000000E+02  0.51100000000E-03 0. -1.
         11   -1    0    0    0    0 -0.00000000000E+00 -0.00000000000E+00 -0.45593999997E+02  0.45594000000E+02  0.51100000000E-03 0.  1.
    9900012    2    1    2    0    0  0.71341923652E+01  0.30953000565E+02  0.27814293851E+01  0.59301932602E+02  0.49999979162E+02 0.  0.
        -12    1    1    2    0    0 -0.71341923652E+01 -0.30953000565E+02 -0.27814293851E+01  0.31886067398E+02  0.00000000000E+00 0.  1.
         11    1    3    3    0    0  0.62637700327E+01 -0.29413115976E+01 -0.22505202801E+01  0.72767417660E+01  0.51100000000E-03 0. -1.
        -11    1    3    3    0    0  0.14693123764E+02  0.81973854173E+01 -0.96127695814E+01  0.19377573452E+02  0.51100000000E-03 0.  1.
         12    1    3    3    0    0 -0.13822701431E+02  0.25696926745E+02  0.14644719247E+02  0.32647617384E+02  0.00000000000E+00 0. -1.
</event>
<event>
 7    1  0.6953847E-012  0.5930194E+02  0.7816164E-02  0.1266605E+00
        -11   -1    0    0    0    0  0.00000000000E+00  0.00000000000E+00  0.45593999997E+02  0.45594000000E+02  0.51100000000E-03 0. -1.
         11   -1    0    0    0    0 -0.00000000000E+00 -0.00000000000E+00 -0.45593999997E+02  0.45594000000E+02  0.51100000000E-03 0.  1.
    9900012    2    1    2    0    0 -0.11346770020E+02  0.28833949514E+02  0.75216384760E+01  0.59301939098E+02  0.49999991010E+02 0.  0.
        -12    1    1    2    0    0  0.11346770020E+02 -0.28833949514E+02 -0.75216384760E+01  0.31886060902E+02  0.00000000000E+00 0.  1.
         11    1    3    3    0    0  0.87692996778E+01  0.26007551926E+02 -0.27197848257E+01  0.27580620076E+02  0.51100000000E-03 0. -1.
        -11    1    3    3    0    0  0.19531779529E+01  0.69264614375E+01  0.38811244049E+00  0.72070384825E+01  0.51100000000E-03 0.  1.
        -12    1    3    3    0    0 -0.22069247651E+02 -0.41000638495E+01  0.98533108613E+01  0.24514280539E+02  0.00000000000E+00 0.  1.
</event>
<event>
 7    1  0.6953847E-012  0.5930193E+02  0.7816164E-02  0.1266605E+00
        -11   -1    0    0    0    0  0.00000000000E+00  0.00000000000E+00  0.45593999997E+02  0.45594000000E+02  0.51100000000E-03 0.  1.
         11   -1    0    0    0    0 -0.00000000000E+00 -0.00000000000E+00 -0.45593999997E+02  0.45594000000E+02  0.51100000000E-03 0. -1.
    9900012    2    1    2    0    0 -0.11194996564E+02  0.17390177769E+02 -0.24268807125E+02  0.59301933604E+02  0.49999980990E+02 0.  0.
        -12    1    1    2    0    0  0.11194996564E+02 -0.17390177769E+02  0.24268807125E+02  0.31886066396E+02  0.00000000000E+00 0.  1.
         11    1    3    3    0    0  0.29484738711E+01 -0.56636381700E+01 -0.31128774470E+01  0.71035414935E+01  0.51100000000E-03 0. -1.
        -11    1    3    3    0    0  0.54191066548E+01 -0.34125882133E+01 -0.18036176176E+02  0.19139386786E+02  0.51100000000E-03 0.  1.
        -12    1    3    3    0    0 -0.19562577090E+02  0.26466404152E+02 -0.31197535024E+01  0.33059005325E+02  0.00000000000E+00 0.  1.
</event>
<event>
 7    1  0.6953847E-012  0.5930196E+02  0.7816164E-02  0.1266605E+00
        -11   -1    0    0    0    0  0.00000000000E+00  0.00000000000E+00  0.45593999997E+02  0.45594000000E+02  0.51100000000E-03 0.  1.
         11   -1    0    0    0    0 -0.00000000000E+00 -0.00000000000E+00 -0.45593999997E+02  0.45594000000E+02  0.51100000000E-03 0. -1.
    9900012    2    1    2    0    0  0.12032764075E+02 -0.24884012057E+02 -0.15897102649E+02  0.59301963244E+02  0.50000035046E+02 0.  0.
        -12    1    1    2    0    0 -0.12032764075E+02  0.24884012057E+02  0.15897102649E+02  0.31886036756E+02  0.00000000000E+00 0.  1.
         11    1    3    3    0    0  0.97207996824E+01 -0.33759663945E+02 -0.29190450816E+01  0.35252371276E+02  0.51100000000E-03 0. -1.
        -11    1    3    3    0    0 -0.32031025263E+01  0.68062662623E+01  0.21430693093E+01  0.78216285103E+01  0.51100000000E-03 0.  1.
        -12    1    3    3    0    0  0.55150669190E+01  0.20693856249E+01 -0.15121126877E+02  0.16227963458E+02  0.00000000000E+00 0.  1.
</event>
<event>
 7    1  0.6953847E-012  0.5930195E+02  0.7816164E-02  0.1266605E+00
        -11   -1    0    0    0    0  0.00000000000E+00  0.00000000000E+00  0.45593999997E+02  0.45594000000E+02  0.51100000000E-03 0.  1.
         11   -1    0    0    0    0 -0.00000000000E+00 -0.00000000000E+00 -0.45593999997E+02  0.45594000000E+02  0.51100000000E-03 0. -1.
    9900012    2    1    2    0    0  0.18104070472E+02 -0.14290149248E+02 -0.22017135209E+02  0.59301953271E+02  0.50000016858E+02 0.  0.
        -12    1    1    2    0    0 -0.18104070472E+02  0.14290149248E+02  0.22017135209E+02  0.31886046729E+02  0.00000000000E+00 0.  1.
         11    1    3    3    0    0  0.15329514262E+00  0.19751648382E+01 -0.25942405270E+01  0.32641782598E+01  0.51100000000E-03 0. -1.
        -11    1    3    3    0    0  0.19438191415E+01 -0.23942742661E+02 -0.27516822095E+02  0.36526823807E+02  0.51100000000E-03 0.  1.
        -12    1    3    3    0    0  0.16006956188E+02  0.76774285753E+01  0.80939274128E+01  0.19510951204E+02  0.00000000000E+00 0.  1.
</event>
<event>
 7    1  0.6953847E-012  0.5930194E+02  0.7816164E-02  0.1266605E+00
        -11   -1    0    0    0    0  0.00000000000E+00  0.00000000000E+00  0.45593999997E+02  0.45594000000E+02  0.51100000000E-03 0. -1.
         11   -1    0    0    0    0 -0.00000000000E+00 -0.00000000000E+00 -0.45593999997E+02  0.45594000000E+02  0.51100000000E-03 0.  1.
    9900012    2    1    2    0    0 -0.22889718699E+02 -0.10105370128E+02  0.19765201294E+02  0.59301938629E+02  0.49999990154E+02 0.  0.
        -12    1    1    2    0    0  0.22889718699E+02  0.10105370128E+02 -0.19765201294E+02  0.31886061371E+02  0.00000000000E+00 0.  1.
         11    1    3    3    0    0 -0.33615040258E+01  0.89683814318E+01  0.21467922228E+02  0.23507514966E+02  0.51100000000E-03 0. -1.
        -11    1    3    3    0    0  0.10695791581E+01  0.64321750863E-01  0.64353192561E+01  0.65239153161E+01  0.51100000000E-03 0.  1.
        -12    1    3    3    0    0 -0.20597793832E+02 -0.19138073310E+02 -0.81380401900E+01  0.29270508347E+02  0.00000000000E+00 0.  1.
</event>
<event>
 7    1  0.6953847E-012  0.5930195E+02  0.7816164E-02  0.1266605E+00
        -11   -1    0    0    0    0  0.00000000000E+00  0.00000000000E+00  0.45593999997E+02  0.45594000000E+02  0.51100000000E-03 0. -1.
         11   -1    0    0    0    0 -0.00000000000E+00 -0.00000000000E+00 -0.45593999997E+02  0.45594000000E+02  0.51100000000E-03 0.  1.
    9900012    2    1    2    0    0 -0.11774297560E+02 -0.62803324100E+01  0.28959342061E+02  0.59301950530E+02  0.50000011858E+02 0.  0.
        -12    1    1    2    0    0  0.11774297560E+02  0.62803324100E+01 -0.28959342061E+02  0.31886049470E+02  0.00000000000E+00 0.  1.
         11    1    3    3    0    0 -0.13821928918E+02  0.16441300236E+02  0.11497817682E+02  0.24363125500E+02  0.51100000000E-03 0. -1.
        -11    1    3    3    0    0  0.42578860928E+01  0.24334834380E+01  0.39633910528E+01  0.63055455371E+01  0.51100000000E-03 0.  1.
        -12    1    3    3    0    0 -0.22102547344E+01 -0.25155116084E+02  0.13498133327E+02  0.28633279492E+02  0.00000000000E+00 0.  1.
</event>
<event>
 7    1  0.6953847E-012  0.5930193E+02  0.7816164E-02  0.1266605E+00
        -11   -1    0    0    0    0  0.00000000000E+00  0.00000000000E+00  0.45593999997E+02  0.45594000000E+02  0.51100000000E-03 0.  1.
         11   -1    0    0    0    0 -0.00000000000E+00 -0.00000000000E+00 -0.45593999997E+02  0.45594000000E+02  0.51100000000E-03 0. -1.
    9900012    2    1    2    0    0 -0.35926236000E+00  0.31183744374E+02 -0.66457847874E+01  0.59301930344E+02  0.49999975045E+02 0.  0.
        -12    1    1    2    0    0  0.35926236000E+00 -0.31183744374E+02  0.66457847874E+01  0.31886069656E+02  0.00000000000E+00 0.  1.
         11    1    3    3    0    0 -0.90098476317E+01  0.28171543845E+02 -0.31023322339E+01  0.29739497348E+02  0.51100000000E-03 0. -1.
        -11    1    3    3    0    0 -0.69499981255E+01  0.98897594617E+01 -0.32238891086E+01  0.12510126994E+02  0.51100000000E-03 0.  1.
        -12    1    3    3    0    0  0.15600583397E+02 -0.68775589325E+01 -0.31956344490E+00  0.17052306002E+02  0.00000000000E+00 0.  1.
</event>
<event>
 7    1  0.6953847E-012  0.5930201E+02  0.7816164E-02  0.1266605E+00
        -11   -1    0    0    0    0  0.00000000000E+00  0.00000000000E+00  0.45593999997E+02  0.45594000000E+02  0.51100000000E-03 0. -1.
         11   -1    0    0    0    0 -0.00000000000E+00 -0.00000000000E+00 -0.45593999997E+02  0.45594000000E+02  0.51100000000E-03 0.  1.
    9900012    2    1    2    0    0  0.97845721370E+01  0.13817715645E+02  0.27019420443E+02  0.59302012503E+02  0.50000124883E+02 0.  0.
        -12    1    1    2    0    0 -0.97845721370E+01 -0.13817715645E+02 -0.27019420443E+02  0.31885987497E+02  0.00000000000E+00 0.  1.
         11    1    3    3    0    0  0.14405953507E+02  0.56252697569E+01  0.16049099732E+01  0.15548340508E+02  0.51100000000E-03 0.  1.
        -11    1    3    3    0    0  0.11085932464E+02  0.12906478234E+02  0.53404019982E+01  0.17832413543E+02  0.51100000000E-03 0. -1.
        -12    1    3    3    0    0 -0.15707313833E+02 -0.47140323465E+01  0.20074108472E+02  0.25921258452E+02  0.00000000000E+00 0.  1.
</event>
<event>
 7    1  0.6953847E-012  0.5930193E+02  0.7816164E-02  0.1266605E+00
        -11   -1    0    0    0    0  0.00000000000E+00  0.00000000000E+00  0.45593999997E+02  0.45594000000E+02  0.51100000000E-03 0.  1.
         11   -1    0    0    0    0 -0.00000000000E+00 -0.00000000000E+00 -0.45593999997E+02  0.45594000000E+02  0.51100000000E-03 0. -1.
    9900012    2    1    2    0    0  0.18474226944E+02  0.23958789421E+02  0.10069810417E+02  0.59301925711E+02  0.49999966596E+02 0.  0.
        -12    1    1    2    0    0 -0.18474226944E+02 -0.23958789421E+02 -0.10069810417E+02  0.31886074289E+02  0.00000000000E+00 0.  1.
         11    1    3    3    0    0  0.59147030176E+01 -0.55234734121E+01  0.56475572109E+00  0.81124237812E+01  0.51100000000E-03 0. -1.
        -11    1    3    3    0    0  0.22899484718E+02  0.15847690540E+02  0.16870340522E+02  0.32559853890E+02  0.51100000000E-03 0.  1.
         12    1    3    3    0    0 -0.10339960792E+02  0.13634572293E+02 -0.73652858253E+01  0.18629648040E+02  0.00000000000E+00 0. -1.
</event>
<event>
 7    1  0.6953847E-012  0.5930190E+02  0.7816164E-02  0.1266605E+00
        -11   -1    0    0    0    0  0.00000000000E+00  0.00000000000E+00  0.45593999997E+02  0.45594000000E+02  0.51100000000E-03 0.  1.
         11   -1    0    0    0    0 -0.00000000000E+00 -0.00000000000E+00 -0.45593999997E+02  0.45594000000E+02  0.51100000000E-03 0. -1.
    9900012    2    1    2    0    0 -0.50342409255E+00  0.21317562744E+02 -0.23707200536E+02  0.59301901549E+02  0.49999922529E+02 0.  0.
        -12    1    1    2    0    0  0.50342409255E+00 -0.21317562744E+02  0.23707200536E+02  0.31886098451E+02  0.00000000000E+00 0.  1.
         11    1    3    3    0    0  0.23481915547E+00  0.17185532537E+01 -0.12427946434E+02  0.12548403012E+02  0.51100000000E-03 0. -1.
        -11    1    3    3    0    0  0.11144185405E+02  0.16386495398E+01 -0.20449946518E+02  0.23346913147E+02  0.51100000000E-03 0.  1.
        -12    1    3    3    0    0 -0.11882428653E+02  0.17960359951E+02  0.91706924157E+01  0.23406585390E+02  0.00000000000E+00 0.  1.
</event>
<event>
 7    1  0.6953847E-012  0.5930194E+02  0.7816164E-02  0.1266605E+00
        -11   -1    0    0    0    0  0.00000000000E+00  0.00000000000E+00  0.45593999997E+02  0.45594000000E+02  0.51100000000E-03 0.  1.
         11   -1    0    0    0    0 -0.00000000000E+00 -0.00000000000E+00 -0.45593999997E+02  0.45594000000E+02  0.51100000000E-03 0. -1.
    9900012    2    1    2    0    0  0.29604247905E+02  0.50937841709E+01  0.10694044684E+02  0.59301941559E+02  0.49999995498E+02 0.  0.
        -12    1    1    2    0    0 -0.29604247905E+02 -0.50937841709E+01 -0.10694044684E+02  0.31886058441E+02  0.00000000000E+00 0.  1.
         11    1    3    3    0    0  0.14271046095E+02  0.87163269906E+01  0.11071726486E+02  0.20055429202E+02  0.51100000000E-03 0. -1.
        -11    1    3    3    0    0  0.63634360098E+01 -0.59536556053E+01  0.17252726347E+02  0.19328629015E+02  0.51100000000E-03 0.  1.
         12    1    3    3    0    0  0.89697658001E+01  0.23311127855E+01 -0.17630408149E+02  0.19917883342E+02  0.00000000000E+00 0. -1.
</event>
<event>
 7    1  0.6953847E-012  0.5930198E+02  0.7816164E-02  0.1266605E+00
        -11   -1    0    0    0    0  0.00000000000E+00  0.00000000000E+00  0.45593999997E+02  0.45594000000E+02  0.51100000000E-03 0.  1.
         11   -1    0    0    0    0 -0.00000000000E+00 -0.00000000000E+00 -0.45593999997E+02  0.45594000000E+02  0.51100000000E-03 0. -1.
    9900012    2    1    2    0    0 -0.23189160496E+02 -0.21748671737E+02 -0.24447033988E+01  0.59301977019E+02  0.50000060168E+02 0.  0.
        -12    1    1    2    0    0  0.23189160496E+02  0.21748671737E+02  0.24447033988E+01  0.31886022981E+02  0.00000000000E+00 0.  1.
         11    1    3    3    0    0 -0.31533686132E+01 -0.13758800426E+02 -0.18948288061E+02  0.23628075323E+02  0.51100000000E-03 0. -1.
        -11    1    3    3    0    0  0.41761994556E+01  0.24221296046E+01  0.53358547711E+00  0.48571666058E+01  0.51100000000E-03 0.  1.
         12    1    3    3    0    0 -0.24211991338E+02 -0.10412000915E+02  0.15969999185E+02  0.30816735090E+02  0.00000000000E+00 0. -1.
</event>
<event>
 7    1  0.6953847E-012  0.5930196E+02  0.7816164E-02  0.1266605E+00
        -11   -1    0    0    0    0  0.00000000000E+00  0.00000000000E+00  0.45593999997E+02  0.45594000000E+02  0.51100000000E-03 0.  1.
         11   -1    0    0    0    0 -0.00000000000E+00 -0.00000000000E+00 -0.45593999997E+02  0.45594000000E+02  0.51100000000E-03 0. -1.
    9900012    2    1    2    0    0 -0.67624285077E+01 -0.12338898616E+02 -0.28613642038E+02  0.59301962788E+02  0.50000034215E+02 0.  0.
        -12    1    1    2    0    0  0.67624285077E+01  0.12338898616E+02  0.28613642038E+02  0.31886037212E+02  0.00000000000E+00 0.  1.
         11    1    3    3    0    0 -0.47232635288E+01 -0.19973851533E+02 -0.28960152799E+02  0.35495836570E+02  0.51100000000E-03 0. -1.
        -11    1    3    3    0    0 -0.10232620059E+01 -0.85272952487E+00 -0.10168181474E+02  0.10255053755E+02  0.51100000000E-03 0.  1.
        -12    1    3    3    0    0 -0.10159029730E+01  0.84876824424E+01  0.10514692235E+02  0.13551072462E+02  0.00000000000E+00 0.  1.
</event>
<event>
 7    1  0.6953847E-012  0.5930194E+02  0.7816164E-02  0.1266605E+00
        -11   -1    0    0    0    0  0.00000000000E+00  0.00000000000E+00  0.45593999997E+02  0.45594000000E+02  0.51100000000E-03 0. -1.
         11   -1    0    0    0    0 -0.00000000000E+00 -0.00000000000E+00 -0.45593999997E+02  0.45594000000E+02  0.51100000000E-03 0.  1.
    9900012    2    1    2    0    0  0.13279763036E+02  0.28841099532E+02  0.29256636586E+01  0.59301942916E+02  0.49999997972E+02 0.  0.
        -12    1    1    2    0    0 -0.13279763036E+02 -0.28841099532E+02 -0.29256636586E+01  0.31886057084E+02  0.00000000000E+00 0.  1.
         11    1    3    3    0    0  0.19815343001E+02  0.89379633227E+01 -0.15443618608E+02  0.26665340099E+02  0.51100000000E-03 0. -1.
        -11    1    3    3    0    0  0.61880539930E+00 -0.21130645113E+01 -0.10324701385E+01  0.24318627838E+01  0.51100000000E-03 0.  1.
        -12    1    3    3    0    0 -0.71543853640E+01  0.22016200721E+02  0.19401752405E+02  0.30204740034E+02  0.00000000000E+00 0.  1.
</event>
<event>
 7    1  0.6953847E-012  0.5930195E+02  0.7816164E-02  0.1266605E+00
        -11   -1    0    0    0    0  0.00000000000E+00  0.00000000000E+00  0.45593999997E+02  0.45594000000E+02  0.51100000000E-03 0. -1.
         11   -1    0    0    0    0 -0.00000000000E+00 -0.00000000000E+00 -0.45593999997E+02  0.45594000000E+02  0.51100000000E-03 0.  1.
    9900012    2    1    2    0    0  0.25585175234E+02 -0.38797002299E+01  0.18629728052E+02  0.59301952379E+02  0.50000015231E+02 0.  0.
        -12    1    1    2    0    0 -0.25585175234E+02  0.38797002299E+01 -0.18629728052E+02  0.31886047621E+02  0.00000000000E+00 0.  1.
         11    1    3    3    0    0 -0.51245110492E+00 -0.61490047019E+01 -0.11751332270E+01  0.62812262594E+01  0.51100000000E-03 0. -1.
        -11    1    3    3    0    0  0.52341053648E+01 -0.18417574495E+02  0.36507984140E+01  0.19491824917E+02  0.51100000000E-03 0.  1.
        -12    1    3    3    0    0  0.20863520974E+02  0.20686878967E+02  0.16154062865E+02  0.33528901203E+02  0.00000000000E+00 0.  1.
</event>
<event>
 7    1  0.6953847E-012  0.5930196E+02  0.7816164E-02  0.1266605E+00
        -11   -1    0    0    0    0  0.00000000000E+00  0.00000000000E+00  0.45593999997E+02  0.45594000000E+02  0.51100000000E-03 0.  1.
         11   -1    0    0    0    0 -0.00000000000E+00 -0.00000000000E+00 -0.45593999997E+02  0.45594000000E+02  0.51100000000E-03 0. -1.
    9900012    2    1    2    0    0 -0.24305502298E+02 -0.14873524885E+02  0.14308751557E+02  0.59301959864E+02  0.50000028881E+02 0.  0.
        -12    1    1    2    0    0  0.24305502298E+02  0.14873524885E+02 -0.14308751557E+02  0.31886040136E+02  0.00000000000E+00 0.  1.
         11    1    3    3    0    0  0.12619667296E+02 -0.51881979798E+01  0.53693588224E+01  0.14662994762E+02  0.51100000000E-03 0.  1.
        -11    1    3    3    0    0 -0.62069958893E+01  0.21411769331E+01  0.97008633980E+01  0.11714016713E+02  0.51100000000E-03 0. -1.
         12    1    3    3    0    0 -0.30718173705E+02 -0.11826503838E+02 -0.76147066381E+00  0.32924948389E+02  0.00000000000E+00 0. -1.
</event>
<event>
 7    1  0.6953847E-012  0.5930194E+02  0.7816164E-02  0.1266605E+00
        -11   -1    0    0    0    0  0.00000000000E+00  0.00000000000E+00  0.45593999997E+02  0.45594000000E+02  0.51100000000E-03 0.  1.
         11   -1    0    0    0    0 -0.00000000000E+00 -0.00000000000E+00 -0.45593999997E+02  0.45594000000E+02  0.51100000000E-03 0. -1.
    9900012    2    1    2    0    0 -0.21231882605E+02  0.11785783444E+02 -0.20664545308E+02  0.59301937792E+02  0.49999988627E+02 0.  0.
        -12    1    1    2    0    0  0.21231882605E+02 -0.11785783444E+02  0.20664545308E+02  0.31886062208E+02  0.00000000000E+00 0.  1.
         11    1    3    3    0    0 -0.57671207260E+01  0.21105429872E+01 -0.12435007319E+02  0.13868795205E+02  0.51100000000E-03 0. -1.
        -11    1    3    3    0    0 -0.71813636234E+01  0.21393009537E+02 -0.17319527462E+02  0.28446421081E+02  0.51100000000E-03 0.  1.
         12    1    3    3    0    0 -0.82833982556E+01 -0.11717769081E+02  0.90899894726E+01  0.16986721505E+02  0.00000000000E+00 0. -1.
</event>
<event>
 7    1  0.6953847E-012  0.5930197E+02  0.7816164E-02  0.1266605E+00
        -11   -1    0    0    0    0  0.00000000000E+00  0.00000000000E+00  0.45593999997E+02  0.45594000000E+02  0.51100000000E-03 0.  1.
         11   -1    0    0    0    0 -0.00000000000E+00 -0.00000000000E+00 -0.45593999997E+02  0.45594000000E+02  0.51100000000E-03 0. -1.
    9900012    2    1    2    0    0 -0.89696316184E+01 -0.23900764594E+02 -0.19105451800E+02  0.59301966568E+02  0.50000041108E+02 0.  0.
        -12    1    1    2    0    0  0.89696316184E+01  0.23900764594E+02  0.19105451800E+02  0.31886033432E+02  0.00000000000E+00 0.  1.
         11    1    3    3    0    0 -0.65328051346E+01 -0.10848205548E+02 -0.27092321860E+02  0.29905768851E+02  0.51100000000E-03 0. -1.
        -11    1    3    3    0    0  0.14429846756E+01 -0.20092777342E+02  0.45395859165E+01  0.20649691200E+02  0.51100000000E-03 0.  1.
        -12    1    3    3    0    0 -0.38798111594E+01  0.70402182962E+01  0.34472841439E+01  0.87465065174E+01  0.00000000000E+00 0.  1.
</event>
<event>
 7    1  0.6953847E-012  0.5930192E+02  0.7816164E-02  0.1266605E+00
        -11   -1    0    0    0    0  0.00000000000E+00  0.00000000000E+00  0.45593999997E+02  0.45594000000E+02  0.51100000000E-03 0. -1.
         11   -1    0    0    0    0 -0.00000000000E+00 -0.00000000000E+00 -0.45593999997E+02  0.45594000000E+02  0.51100000000E-03 0.  1.
    9900012    2    1    2    0    0 -0.11866133253E+02  0.29566047531E+02  0.13287580672E+01  0.59301923368E+02  0.49999962321E+02 0.  0.
        -12    1    1    2    0    0  0.11866133253E+02 -0.29566047531E+02 -0.13287580672E+01  0.31886076632E+02  0.00000000000E+00 0.  1.
         11    1    3    3    0    0 -0.77245371740E+01  0.16187062428E+02 -0.75362861081E+01  0.19454692831E+02  0.51100000000E-03 0. -1.
        -11    1    3    3    0    0 -0.16653169491E+02  0.12925846341E+01 -0.51812093145E+01  0.17488389273E+02  0.51100000000E-03 0.  1.
         12    1    3    3    0    0  0.12511573412E+02  0.12086400469E+02  0.14046253490E+02  0.22358841263E+02  0.00000000000E+00 0. -1.
</event>
<event>
 7    1  0.6953847E-012  0.5930194E+02  0.7816164E-02  0.1266605E+00
        -11   -1    0    0    0    0  0.00000000000E+00  0.00000000000E+00  0.45593999997E+02  0.45594000000E+02  0.51100000000E-03 0. -1.
         11   -1    0    0    0    0 -0.00000000000E+00 -0.00000000000E+00 -0.45593999997E+02  0.45594000000E+02  0.51100000000E-03 0.  1.
    9900012    2    1    2    0    0 -0.24948032503E+02  0.50505722409E+01  0.19204380838E+02  0.59301939581E+02  0.49999991889E+02 0.  0.
        -12    1    1    2    0    0  0.24948032503E+02 -0.50505722409E+01 -0.19204380838E+02  0.31886060419E+02  0.00000000000E+00 0.  1.
         11    1    3    3    0    0 -0.18416985187E+00 -0.16307949474E+01  0.28351861335E+02  0.28399321332E+02  0.51100000000E-03 0. -1.
        -11    1    3    3    0    0 -0.42144679699E+01 -0.42950390124E+01 -0.33817529915E+01  0.69025614046E+01  0.51100000000E-03 0.  1.
        -12    1    3    3    0    0 -0.20549394681E+02  0.10976406201E+02 -0.57657275060E+01  0.24000056844E+02  0.00000000000E+00 0.  1.
</event>
<event>
 7    1  0.6953847E-012  0.5930195E+02  0.7816164E-02  0.1266605E+00
        -11   -1    0    0    0    0  0.00000000000E+00  0.00000000000E+00  0.45593999997E+02  0.45594000000E+02  0.51100000000E-03 0. -1.
         11   -1    0    0    0    0 -0.00000000000E+00 -0.00000000000E+00 -0.45593999997E+02  0.45594000000E+02  0.51100000000E-03 0.  1.
    9900012    2    1    2    0    0 -0.24513869323E+01  0.15243714745E+02  0.27898744900E+02  0.59301951262E+02  0.50000013194E+02 0.  0.
        -12    1    1    2    0    0  0.24513869323E+01 -0.15243714745E+02 -0.27898744900E+02  0.31886048738E+02  0.00000000000E+00 0.  1.
         11    1    3    3    0    0  0.32042316416E+01 -0.94477318648E+00  0.13523313202E+02  0.13929813244E+02  0.51100000000E-03 0. -1.
        -11    1    3    3    0    0 -0.14977886273E+02 -0.70083785981E+01  0.54250697339E-02  0.16536459037E+02  0.51100000000E-03 0.  1.
         12    1    3    3    0    0  0.93222676993E+01  0.23196866529E+02  0.14370006628E+02  0.28835678981E+02  0.00000000000E+00 0. -1.
</event>
<event>
 7    1  0.6953847E-012  0.5930174E+02  0.7816164E-02  0.1266605E+00
        -11   -1    0    0    0    0  0.00000000000E+00  0.00000000000E+00  0.45593999997E+02  0.45594000000E+02  0.51100000000E-03 0.  1.
         11   -1    0    0    0    0 -0.00000000000E+00 -0.00000000000E+00 -0.45593999997E+02  0.45594000000E+02  0.51100000000E-03 0. -1.
    9900012    2    1    2    0    0 -0.62280282292E+00 -0.32463382287E+01 -0.31714459256E+02  0.59301740872E+02  0.49999629492E+02 0.  0.
        -12    1    1    2    0    0  0.62280282292E+00  0.32463382287E+01  0.31714459256E+02  0.31886259128E+02  0.00000000000E+00 0.  1.
         11    1    3    3    0    0 -0.38648008385E+01  0.14073783535E+01 -0.18479387695E+02  0.18931591829E+02  0.51100000000E-03 0. -1.
        -11    1    3    3    0    0 -0.63029959079E+01 -0.16675002440E+01 -0.24472870138E+02  0.25326462199E+02  0.51100000000E-03 0.  1.
        -12    1    3    3    0    0  0.95449939235E+01 -0.29862163381E+01  0.11237798576E+02  0.15043686844E+02  0.00000000000E+00 0.  1.
</event>
<event>
 7    1  0.6953847E-012  0.5930196E+02  0.7816164E-02  0.1266605E+00
        -11   -1    0    0    0    0  0.00000000000E+00  0.00000000000E+00  0.45593999997E+02  0.45594000000E+02  0.51100000000E-03 0. -1.
         11   -1    0    0    0    0 -0.00000000000E+00 -0.00000000000E+00 -0.45593999997E+02  0.45594000000E+02  0.51100000000E-03 0.  1.
    9900012    2    1    2    0    0  0.25701719098E+02  0.18863149395E+02 -0.56802743325E+00  0.59301961913E+02  0.50000032619E+02 0.  0.
        -12    1    1    2    0    0 -0.25701719098E+02 -0.18863149395E+02  0.56802743325E+00  0.31886038087E+02  0.00000000000E+00 0.  1.
         11    1    3    3    0    0  0.38881030783E+01 -0.20409795314E+01 -0.58029036824E+01  0.72771309183E+01  0.51100000000E-03 0. -1.
        -11    1    3    3    0    0  0.44514765198E+01 -0.41883240205E+01 -0.14465872153E+02  0.15704112796E+02  0.51100000000E-03 0.  1.
         12    1    3    3    0    0  0.17362139500E+02  0.25092452947E+02  0.19700748402E+02  0.36320718199E+02  0.00000000000E+00 0. -1.
</event>
<event>
 7    1  0.6953847E-012  0.5930193E+02  0.7816164E-02  0.1266605E+00
        -11   -1    0    0    0    0  0.00000000000E+00  0.00000000000E+00  0.45593999997E+02  0.45594000000E+02  0.51100000000E-03 0.  1.
         11   -1    0    0    0    0 -0.00000000000E+00 -0.00000000000E+00 -0.45593999997E+02  0.45594000000E+02  0.51100000000E-03 0. -1.
    9900012    2    1    2    0    0 -0.30362468167E+02 -0.67454161091E+01 -0.70243308793E+01  0.59301931945E+02  0.49999977964E+02 0.  0.
        -12    1    1    2    0    0  0.30362468167E+02  0.67454161091E+01  0.70243308793E+01  0.31886068055E+02  0.00000000000E+00 0.  1.
         11    1    3    3    0    0 -0.22933316420E+01 -0.23441326904E+02 -0.10253129814E+01  0.23575547587E+02  0.51100000000E-03 0. -1.
        -11    1    3    3    0    0 -0.31589446277E+00 -0.28387196820E+00  0.21454130159E+01  0.21870459245E+01  0.51100000000E-03 0.  1.
         12    1    3    3    0    0 -0.27753242063E+02  0.16979782763E+02 -0.81444309137E+01  0.33539338434E+02  0.00000000000E+00 0. -1.
</event>
<event>
 7    1  0.6953847E-012  0.5930195E+02  0.7816164E-02  0.1266605E+00
        -11   -1    0    0    0    0  0.00000000000E+00  0.00000000000E+00  0.45593999997E+02  0.45594000000E+02  0.51100000000E-03 0.  1.
         11   -1    0    0    0    0 -0.00000000000E+00 -0.00000000000E+00 -0.45593999997E+02  0.45594000000E+02  0.51100000000E-03 0. -1.
    9900012    2    1    2    0    0 -0.41849713673E+00 -0.10399708622E+02 -0.30139525116E+02  0.59301952056E+02  0.50000014641E+02 0.  0.
        -12    1    1    2    0    0  0.41849713673E+00  0.10399708622E+02  0.30139525116E+02  0.31886047944E+02  0.00000000000E+00 0.  1.
         11    1    3    3    0    0  0.60371593577E+01  0.99282787062E+01  0.46987418744E+00  0.11629221521E+02  0.51100000000E-03 0. -1.
        -11    1    3    3    0    0  0.11478223978E+02 -0.73980520988E+01 -0.16615769754E+02  0.21507315158E+02  0.51100000000E-03 0.  1.
        -12    1    3    3    0    0 -0.17933880472E+02 -0.12929935230E+02 -0.13993629549E+02  0.26165415376E+02  0.00000000000E+00 0.  1.
</event>
<event>
 7    1  0.6953847E-012  0.5930194E+02  0.7816164E-02  0.1266605E+00
        -11   -1    0    0    0    0  0.00000000000E+00  0.00000000000E+00  0.45593999997E+02  0.45594000000E+02  0.51100000000E-03 0.  1.
         11   -1    0    0    0    0 -0.00000000000E+00 -0.00000000000E+00 -0.45593999997E+02  0.45594000000E+02  0.51100000000E-03 0. -1.
    9900012    2    1    2    0    0 -0.55567093760E+01 -0.29591292522E+01 -0.31258392641E+02  0.59301943870E+02  0.49999999713E+02 0.  0.
        -12    1    1    2    0    0  0.55567093760E+01  0.29591292522E+01  0.31258392641E+02  0.31886056130E+02  0.00000000000E+00 0.  1.
         11    1    3    3    0    0  0.46786522725E+01 -0.68810373210E+00 -0.58058036822E+01  0.74880324846E+01  0.51100000000E-03 0. -1.
        -11    1    3    3    0    0  0.12226567586E+02 -0.14277386638E+02 -0.58888104531E+01  0.19697990074E+02  0.51100000000E-03 0.  1.
        -12    1    3    3    0    0 -0.22461929235E+02  0.12006361118E+02 -0.19563778506E+02  0.32115921311E+02  0.00000000000E+00 0.  1.
</event>
<event>
 7    1  0.6953847E-012  0.5930193E+02  0.7816164E-02  0.1266605E+00
        -11   -1    0    0    0    0  0.00000000000E+00  0.00000000000E+00  0.45593999997E+02  0.45594000000E+02  0.51100000000E-03 0.  1.
         11   -1    0    0    0    0 -0.00000000000E+00 -0.00000000000E+00 -0.45593999997E+02  0.45594000000E+02  0.51100000000E-03 0. -1.
    9900012    2    1    2    0    0  0.12108813409E+02 -0.29466816020E+02  0.13433658776E+01  0.59301933444E+02  0.49999980698E+02 0.  0.
        -12    1    1    2    0    0 -0.12108813409E+02  0.29466816020E+02 -0.13433658776E+01  0.31886066556E+02  0.00000000000E+00 0.  1.
         11    1    3    3    0    0  0.97342862510E+01  0.55306504611E+00 -0.46481470494E+01  0.10801272194E+02  0.51100000000E-03 0. -1.
        -11    1    3    3    0    0  0.11704885946E+02 -0.75890261187E+01 -0.11894711191E+02  0.18332534659E+02  0.51100000000E-03 0.  1.
         12    1    3    3    0    0 -0.93303587878E+01 -0.22430854947E+02  0.17886224118E+02  0.30168126591E+02  0.00000000000E+00 0. -1.
</event>
<event>
 7    1  0.6953847E-012  0.5930199E+02  0.7816164E-02  0.1266605E+00
        -11   -1    0    0    0    0  0.00000000000E+00  0.00000000000E+00  0.45593999997E+02  0.45594000000E+02  0.51100000000E-03 0.  1.
         11   -1    0    0    0    0 -0.00000000000E+00 -0.00000000000E+00 -0.45593999997E+02  0.45594000000E+02  0.51100000000E-03 0. -1.
    9900012    2    1    2    0    0  0.24100291784E+02  0.15520768340E+01 -0.20820286944E+02  0.59301994371E+02  0.50000091813E+02 0.  0.
        -12    1    1    2    0    0 -0.24100291784E+02 -0.15520768340E+01  0.20820286944E+02  0.31886005629E+02  0.00000000000E+00 0.  1.
         11    1    3    3    0    0  0.92178063238E+00 -0.18586787511E+02 -0.10118378564E+02  0.21182538434E+02  0.51100000000E-03 0. -1.
        -11    1    3    3    0    0  0.12718171338E+02 -0.11511379226E+01 -0.50650400606E+01  0.13737963160E+02  0.51100000000E-03 0.  1.
         12    1    3    3    0    0  0.10460339813E+02  0.21290002267E+02 -0.56368683198E+01  0.24381492776E+02  0.00000000000E+00 0. -1.
</event>
<event>
 7    1  0.6953847E-012  0.5930195E+02  0.7816164E-02  0.1266605E+00
        -11   -1    0    0    0    0  0.00000000000E+00  0.00000000000E+00  0.45593999997E+02  0.45594000000E+02  0.51100000000E-03 0. -1.
         11   -1    0    0    0    0 -0.00000000000E+00 -0.00000000000E+00 -0.45593999997E+02  0.45594000000E+02  0.51100000000E-03 0.  1.
    9900012    2    1    2    0    0  0.33439628424E+01  0.45519379392E+01  0.31381805054E+02  0.59301954229E+02  0.50000018604E+02 0.  0.
        -12    1    1    2    0    0 -0.33439628424E+01 -0.45519379392E+01 -0.31381805054E+02  0.31886045771E+02  0.00000000000E+00 0.  1.
         11    1    3    3    0    0  0.75261053954E+01 -0.92933245210E+01  0.28612642373E+02  0.31011150364E+02  0.51100000000E-03 0. -1.
        -11    1    3    3    0    0 -0.14214784380E+02  0.66703969616E+01  0.28377271803E+01  0.15956408945E+02  0.51100000000E-03 0.  1.
        -12    1    3    3    0    0  0.10032641827E+02  0.71748654986E+01 -0.68564499933E-01  0.12334394920E+02  0.00000000000E+00 0.  1.
</event>
<event>
 7    1  0.6953847E-012  0.5930204E+02  0.7816164E-02  0.1266604E+00
        -11   -1    0    0    0    0  0.00000000000E+00  0.00000000000E+00  0.45593999997E+02  0.45594000000E+02  0.51100000000E-03 0.  1.
         11   -1    0    0    0    0 -0.00000000000E+00 -0.00000000000E+00 -0.45593999997E+02  0.45594000000E+02  0.51100000000E-03 0. -1.
    9900012    2    1    2    0    0  0.18561196765E+02  0.10288617524E+02 -0.23797914935E+02  0.59302040219E+02  0.50000175429E+02 0.  0.
        -12    1    1    2    0    0 -0.18561196765E+02 -0.10288617524E+02  0.23797914935E+02  0.31885959781E+02  0.00000000000E+00 0.  1.
         11    1    3    3    0    0  0.95468278470E+01  0.22934980918E+02 -0.20919884889E+02  0.32477636239E+02  0.51100000000E-03 0. -1.
        -11    1    3    3    0    0  0.69355120683E+00  0.46004368938E+01  0.43377309833E+01  0.63608917013E+01  0.51100000000E-03 0.  1.
        -12    1    3    3    0    0  0.83208177110E+01 -0.17246800288E+02 -0.72157610301E+01  0.20463512279E+02  0.00000000000E+00 0.  1.
</event>
<event>
 7    1  0.6953847E-012  0.5930207E+02  0.7816164E-02  0.1266604E+00
        -11   -1    0    0    0    0  0.00000000000E+00  0.00000000000E+00  0.45593999997E+02  0.45594000000E+02  0.51100000000E-03 0. -1.
         11   -1    0    0    0    0 -0.00000000000E+00 -0.00000000000E+00 -0.45593999997E+02  0.45594000000E+02  0.51100000000E-03 0.  1.
    9900012    2    1    2    0    0 -0.18811185631E+02  0.25742083347E+02 -0.44406595618E+00  0.59302066511E+02  0.50000223379E+02 0.  0.
        -12    1    1    2    0    0  0.18811185631E+02 -0.25742083347E+02  0.44406595618E+00  0.31885933489E+02  0.00000000000E+00 0.  1.
         11    1    3    3    0    0  0.12882964954E+01 -0.42003847330E+01  0.46682599845E+01  0.64105843189E+01  0.51100000000E-03 0. -1.
        -11    1    3    3    0    0  0.72772224139E+01  0.13234335614E+02 -0.12927778957E+02  0.19880469668E+02  0.51100000000E-03 0.  1.
        -12    1    3    3    0    0 -0.27376704540E+02  0.16708132466E+02  0.78154530160E+01  0.33011012524E+02  0.00000000000E+00 0.  1.
</event>
<event>
 7    1  0.6953847E-012  0.5930194E+02  0.7816164E-02  0.1266605E+00
        -11   -1    0    0    0    0  0.00000000000E+00  0.00000000000E+00  0.45593999997E+02  0.45594000000E+02  0.51100000000E-03 0.  1.
         11   -1    0    0    0    0 -0.00000000000E+00 -0.00000000000E+00 -0.45593999997E+02  0.45594000000E+02  0.51100000000E-03 0. -1.
    9900012    2    1    2    0    0  0.93899658027E+00 -0.36969457085E+01 -0.31657097362E+02  0.59301938225E+02  0.49999989417E+02 0.  0.
        -12    1    1    2    0    0 -0.93899658027E+00  0.36969457085E+01  0.31657097362E+02  0.31886061775E+02  0.00000000000E+00 0.  1.
         11    1    3    3    0    0 -0.47611990009E+00 -0.93802310695E+00  0.27396000460E+01  0.29346185751E+01  0.51100000000E-03 0. -1.
        -11    1    3    3    0    0 -0.28172542727E+01 -0.90190088425E+01  0.85608543060E+01  0.12750202698E+02  0.51100000000E-03 0.  1.
         12    1    3    3    0    0  0.42323707530E+01  0.62600862410E+01 -0.42957551714E+02  0.43617116952E+02  0.00000000000E+00 0. -1.
</event>
<event>
 7    1  0.6953847E-012  0.5930194E+02  0.7816164E-02  0.1266605E+00
        -11   -1    0    0    0    0  0.00000000000E+00  0.00000000000E+00  0.45593999997E+02  0.45594000000E+02  0.51100000000E-03 0.  1.
         11   -1    0    0    0    0 -0.00000000000E+00 -0.00000000000E+00 -0.45593999997E+02  0.45594000000E+02  0.51100000000E-03 0. -1.
    9900012    2    1    2    0    0 -0.22755893252E+02  0.22185701941E+02 -0.25854439943E+01  0.59301943973E+02  0.49999999900E+02 0.  0.
        -12    1    1    2    0    0  0.22755893252E+02 -0.22185701941E+02  0.25854439943E+01  0.31886056027E+02  0.00000000000E+00 0.  1.
         11    1    3    3    0    0 -0.24969606889E+02  0.12614712937E+02 -0.77624714669E+01  0.29032192721E+02  0.51100000000E-03 0. -1.
        -11    1    3    3    0    0 -0.34022490583E+01  0.17270994720E+02  0.92734735100E+01  0.19896227494E+02  0.51100000000E-03 0.  1.
         12    1    3    3    0    0  0.56159626948E+01 -0.77000057160E+01 -0.40964460375E+01  0.10373523758E+02  0.00000000000E+00 0. -1.
</event>
<event>
 7    1  0.6953847E-012  0.5930201E+02  0.7816164E-02  0.1266605E+00
        -11   -1    0    0    0    0  0.00000000000E+00  0.00000000000E+00  0.45593999997E+02  0.45594000000E+02  0.51100000000E-03 0. -1.
         11   -1    0    0    0    0 -0.00000000000E+00 -0.00000000000E+00 -0.45593999997E+02  0.45594000000E+02  0.51100000000E-03 0.  1.
    9900012    2    1    2    0    0  0.25178649062E+01 -0.29932937982E+02 -0.10695601702E+02  0.59302010668E+02  0.50000121536E+02 0.  0.
        -12    1    1    2    0    0 -0.25178649062E+01  0.29932937982E+02  0.10695601702E+02  0.31885989332E+02  0.00000000000E+00 0.  1.
         11    1    3    3    0    0 -0.23558938008E+01  0.83408952587E+01  0.17222920995E+01  0.88366882741E+01  0.51100000000E-03 0. -1.
        -11    1    3    3    0    0  0.74645470289E+01 -0.66397815561E+01 -0.15644012410E+02  0.18561823348E+02  0.51100000000E-03 0.  1.
        -12    1    3    3    0    0 -0.25907883220E+01 -0.31634051684E+02  0.32261186091E+01  0.31903499046E+02  0.00000000000E+00 0.  1.
</event>
<event>
 7    1  0.6953847E-012  0.5930191E+02  0.7816164E-02  0.1266605E+00
        -11   -1    0    0    0    0  0.00000000000E+00  0.00000000000E+00  0.45593999997E+02  0.45594000000E+02  0.51100000000E-03 0. -1.
         11   -1    0    0    0    0 -0.00000000000E+00 -0.00000000000E+00 -0.45593999997E+02  0.45594000000E+02  0.51100000000E-03 0.  1.
    9900012    2    1    2    0    0 -0.16885850331E+02 -0.17704104621E+01  0.26989937767E+02  0.59301905299E+02  0.49999929368E+02 0.  0.
        -12    1    1    2    0    0  0.16885850331E+02  0.17704104621E+01 -0.26989937767E+02  0.31886094701E+02  0.00000000000E+00 0.  1.
         11    1    3    3    0    0  0.61497758499E+01 -0.15612660206E+02  0.73265694700E+01  0.18309929606E+02  0.51100000000E-03 0. -1.
        -11    1    3    3    0    0 -0.15021046068E+02  0.33744802145E+01 -0.21089987020E+01  0.15539202601E+02  0.51100000000E-03 0.  1.
        -12    1    3    3    0    0 -0.80145801134E+01  0.10467769530E+02  0.21772366999E+02  0.25452773092E+02  0.00000000000E+00 0.  1.
</event>
<event>
 7    1  0.6953847E-012  0.5930195E+02  0.7816164E-02  0.1266605E+00
        -11   -1    0    0    0    0  0.00000000000E+00  0.00000000000E+00  0.45593999997E+02  0.45594000000E+02  0.51100000000E-03 0.  1.
         11   -1    0    0    0    0 -0.00000000000E+00 -0.00000000000E+00 -0.45593999997E+02  0.45594000000E+02  0.51100000000E-03 0. -1.
    9900012    2    1    2    0    0  0.19987544986E+02  0.14045112523E+02 -0.20492761691E+02  0.59301946276E+02  0.50000004100E+02 0.  0.
        -12    1    1    2    0    0 -0.19987544986E+02 -0.14045112523E+02  0.20492761691E+02  0.31886053724E+02  0.00000000000E+00 0.  1.
         11    1    3    3    0    0 -0.35150966152E+01  0.58881943282E+01 -0.10538431516E+01  0.69381065363E+01  0.51100000000E-03 0. -1.
        -11    1    3    3    0    0 -0.16775167157E+00  0.15360364368E+02  0.63529463578E+01  0.16623142357E+02  0.51100000000E-03 0.  1.
         12    1    3    3    0    0  0.23670393273E+02 -0.72034461727E+01 -0.25791864898E+02  0.35740697382E+02  0.00000000000E+00 0. -1.
</event>
<event>
 7    1  0.6953847E-012  0.5930209E+02  0.7816164E-02  0.1266604E+00
        -11   -1    0    0    0    0  0.00000000000E+00  0.00000000000E+00  0.45593999997E+02  0.45594000000E+02  0.51100000000E-03 0.  1.
         11   -1    0    0    0    0 -0.00000000000E+00 -0.00000000000E+00 -0.45593999997E+02  0.45594000000E+02  0.51100000000E-03 0. -1.
    9900012    2    1    2    0    0 -0.25307814262E+02 -0.82555572822E+01  0.17551971306E+02  0.59302087978E+02  0.50000262530E+02 0.  0.
        -12    1    1    2    0    0  0.25307814262E+02  0.82555572822E+01 -0.17551971306E+02  0.31885912022E+02  0.00000000000E+00 0.  1.
         11    1    3    3    0    0 -0.91729150396E+01  0.15054434342E+02 -0.66930988355E+01  0.18856721241E+02  0.51100000000E-03 0. -1.
        -11    1    3    3    0    0  0.60201262920E+00  0.19392835442E+01  0.10099296666E+01  0.22678620026E+01  0.51100000000E-03 0.  1.
         12    1    3    3    0    0 -0.16736911852E+02 -0.25249275168E+02  0.23235140475E+02  0.38177504734E+02  0.00000000000E+00 0. -1.
</event>
<event>
 7    1  0.6953847E-012  0.5930193E+02  0.7816164E-02  0.1266605E+00
        -11   -1    0    0    0    0  0.00000000000E+00  0.00000000000E+00  0.45593999997E+02  0.45594000000E+02  0.51100000000E-03 0. -1.
         11   -1    0    0    0    0 -0.00000000000E+00 -0.00000000000E+00 -0.45593999997E+02  0.45594000000E+02  0.51100000000E-03 0.  1.
    9900012    2    1    2    0    0  0.20646571329E+01 -0.16489687842E+02  0.27213023882E+02  0.59301932776E+02  0.49999979480E+02 0.  0.
        -12    1    1    2    0    0 -0.20646571329E+01  0.16489687842E+02 -0.27213023882E+02  0.31886067224E+02  0.00000000000E+00 0.  1.
         11    1    3    3    0    0 -0.15642875822E+02 -0.18965149790E+02  0.18808162919E+02  0.30953569473E+02  0.51100000000E-03 0. -1.
        -11    1    3    3    0    0  0.12388687071E+01 -0.76272407668E+01  0.18427805176E+01  0.79438931063E+01  0.51100000000E-03 0.  1.
        -12    1    3    3    0    0  0.16468664247E+02  0.10102702715E+02  0.65620804456E+01  0.20404470197E+02  0.00000000000E+00 0.  1.
</event>
<event>
 7    1  0.6953847E-012  0.5930196E+02  0.7816164E-02  0.1266605E+00
        -11   -1    0    0    0    0  0.00000000000E+00  0.00000000000E+00  0.45593999997E+02  0.45594000000E+02  0.51100000000E-03 0. -1.
         11   -1    0    0    0    0 -0.00000000000E+00 -0.00000000000E+00 -0.45593999997E+02  0.45594000000E+02  0.51100000000E-03 0.  1.
    9900012    2    1    2    0    0 -0.31693097221E+02 -0.34193262857E+01  0.75831663635E+00  0.59301964690E+02  0.50000037683E+02 0.  0.
        -12    1    1    2    0    0  0.31693097221E+02  0.34193262857E+01 -0.75831663635E+00  0.31886035310E+02  0.00000000000E+00 0.  1.
         11    1    3    3    0    0  0.59137607752E+01  0.18665636134E+01  0.29003233250E+01  0.68460573968E+01  0.51100000000E-03 0.  1.
        -11    1    3    3    0    0 -0.13462764235E+02 -0.32817757324E+01 -0.18580229776E+02  0.23178460078E+02  0.51100000000E-03 0. -1.
         12    1    3    3    0    0 -0.24144093761E+02 -0.20041141667E+01  0.16438223088E+02  0.29277447215E+02  0.00000000000E+00 0. -1.
</event>
<event>
 7    1  0.6953847E-012  0.5930207E+02  0.7816164E-02  0.1266604E+00
        -11   -1    0    0    0    0  0.00000000000E+00  0.00000000000E+00  0.45593999997E+02  0.45594000000E+02  0.51100000000E-03 0. -1.
         11   -1    0    0    0    0 -0.00000000000E+00 -0.00000000000E+00 -0.45593999997E+02  0.45594000000E+02  0.51100000000E-03 0.  1.
    9900012    2    1    2    0    0 -0.18405559294E+02 -0.25277214854E+02  0.62458384389E+01  0.59302067341E+02  0.50000224894E+02 0.  0.
        -12    1    1    2    0    0  0.18405559294E+02  0.25277214854E+02 -0.62458384389E+01  0.31885932659E+02  0.00000000000E+00 0.  1.
         11    1    3    3    0    0 -0.96439589342E+01 -0.21426313864E+02 -0.75388658656E+00  0.23508747626E+02  0.51100000000E-03 0. -1.
        -11    1    3    3    0    0 -0.15804763938E+02  0.18776583122E+01 -0.83397830717E+01  0.17968532100E+02  0.51100000000E-03 0.  1.
        -12    1    3    3    0    0  0.70431635781E+01 -0.57285593025E+01  0.15339508097E+02  0.17824787615E+02  0.00000000000E+00 0.  1.
</event>
<event>
 7    1  0.6953847E-012  0.5930189E+02  0.7816164E-02  0.1266605E+00
        -11   -1    0    0    0    0  0.00000000000E+00  0.00000000000E+00  0.45593999997E+02  0.45594000000E+02  0.51100000000E-03 0.  1.
         11   -1    0    0    0    0 -0.00000000000E+00 -0.00000000000E+00 -0.45593999997E+02  0.45594000000E+02  0.51100000000E-03 0. -1.
    9900012    2    1    2    0    0 -0.30804577283E+02  0.21324986213E+01 -0.79532570238E+01  0.59301892849E+02  0.49999906663E+02 0.  0.
        -12    1    1    2    0    0  0.30804577283E+02 -0.21324986213E+01  0.79532570238E+01  0.31886107151E+02  0.00000000000E+00 0.  1.
         11    1    3    3    0    0  0.42737300373E+00  0.69154606430E+01 -0.70483808426E+01  0.98836185860E+01  0.51100000000E-03 0. -1.
        -11    1    3    3    0    0  0.77323185140E+01  0.48470991848E+01 -0.16538952177E+01  0.92746153431E+01  0.51100000000E-03 0.  1.
         12    1    3    3    0    0 -0.38964268800E+02 -0.96300612066E+01  0.74901903649E+00  0.40143658920E+02  0.00000000000E+00 0. -1.
</event>
<event>
 7    1  0.6953847E-012  0.5930193E+02  0.7816164E-02  0.1266605E+00
        -11   -1    0    0    0    0  0.00000000000E+00  0.00000000000E+00  0.45593999997E+02  0.45594000000E+02  0.51100000000E-03 0. -1.
         11   -1    0    0    0    0 -0.00000000000E+00 -0.00000000000E+00 -0.45593999997E+02  0.45594000000E+02  0.51100000000E-03 0.  1.
    9900012    2    1    2    0    0 -0.16139941665E+02 -0.17472374939E+01  0.27443961476E+02  0.59301928161E+02  0.49999971064E+02 0.  0.
        -12    1    1    2    0    0  0.16139941665E+02  0.17472374939E+01 -0.27443961476E+02  0.31886071839E+02  0.00000000000E+00 0.  1.
         11    1    3    3    0    0 -0.98307851325E+01  0.26428730943E+01  0.22681341883E+02  0.24861061611E+02  0.51100000000E-03 0. -1.
        -11    1    3    3    0    0  0.61302920936E+01  0.12017472912E+02  0.25831826604E+01  0.13735827942E+02  0.51100000000E-03 0.  1.
         12    1    3    3    0    0 -0.12439448626E+02 -0.16407583500E+02  0.21794369318E+01  0.20705038609E+02  0.00000000000E+00 0. -1.
</event>
<event>
 7    1  0.6953847E-012  0.5930192E+02  0.7816164E-02  0.1266605E+00
        -11   -1    0    0    0    0  0.00000000000E+00  0.00000000000E+00  0.45593999997E+02  0.45594000000E+02  0.51100000000E-03 0.  1.
         11   -1    0    0    0    0 -0.00000000000E+00 -0.00000000000E+00 -0.45593999997E+02  0.45594000000E+02  0.51100000000E-03 0. -1.
    9900012    2    1    2    0    0  0.48953890881E+01  0.31393642148E+02  0.26825952732E+01  0.59301922803E+02  0.49999961291E+02 0.  0.
        -12    1    1    2    0    0 -0.48953890881E+01 -0.31393642148E+02 -0.26825952732E+01  0.31886077197E+02  0.00000000000E+00 0.  1.
         11    1    3    3    0    0  0.32215676807E+01 -0.77467243506E+01 -0.73183186964E+01  0.11133194748E+02  0.51100000000E-03 0. -1.
        -11    1    3    3    0    0  0.12099051171E+02  0.14553888687E+02 -0.17202530176E+01  0.19004262308E+02  0.51100000000E-03 0.  1.
        -12    1    3    3    0    0 -0.10425229764E+02  0.24586477811E+02  0.11721166987E+02  0.29164465747E+02  0.00000000000E+00 0.  1.
</event>
<event>
 7    1  0.6953847E-012  0.5930204E+02  0.7816164E-02  0.1266604E+00
        -11   -1    0    0    0    0  0.00000000000E+00  0.00000000000E+00  0.45593999997E+02  0.45594000000E+02  0.51100000000E-03 0.  1.
         11   -1    0    0    0    0 -0.00000000000E+00 -0.00000000000E+00 -0.45593999997E+02  0.45594000000E+02  0.51100000000E-03 0. -1.
    9900012    2    1    2    0    0 -0.11289980795E+02  0.22171031657E+01 -0.29737772263E+02  0.59302042088E+02  0.50000178838E+02 0.  0.
        -12    1    1    2    0    0  0.11289980795E+02 -0.22171031657E+01  0.29737772263E+02  0.31885957912E+02  0.00000000000E+00 0.  1.
         11    1    3    3    0    0 -0.48900698702E+01  0.13265959158E+01 -0.34572622820E+02  0.34941935965E+02  0.51100000000E-03 0. -1.
        -11    1    3    3    0    0  0.38213477409E+01  0.95951543442E+01  0.88680019430E+00  0.10366103429E+02  0.51100000000E-03 0.  1.
        -12    1    3    3    0    0 -0.10221258665E+02 -0.87046470942E+01  0.39480503626E+01  0.13994002694E+02  0.00000000000E+00 0.  1.
</event>
<event>
 7    1  0.6953847E-012  0.5930195E+02  0.7816164E-02  0.1266605E+00
        -11   -1    0    0    0    0  0.00000000000E+00  0.00000000000E+00  0.45593999997E+02  0.45594000000E+02  0.51100000000E-03 0. -1.
         11   -1    0    0    0    0 -0.00000000000E+00 -0.00000000000E+00 -0.45593999997E+02  0.45594000000E+02  0.51100000000E-03 0.  1.
    9900012    2    1    2    0    0  0.14643186326E+02 -0.22781388339E+02  0.16831683473E+02  0.59301950872E+02  0.50000012483E+02 0.  0.
        -12    1    1    2    0    0 -0.14643186326E+02  0.22781388339E+02 -0.16831683473E+02  0.31886049128E+02  0.00000000000E+00 0.  1.
         11    1    3    3    0    0  0.26291561258E+01 -0.13856814113E+01  0.11427104085E+02  0.11807255521E+02  0.51100000000E-03 0. -1.
        -11    1    3    3    0    0 -0.14983505416E+02 -0.80680841106E+01  0.79806937957E+00  0.17036323863E+02  0.51100000000E-03 0.  1.
         12    1    3    3    0    0  0.26997535616E+02 -0.13327622817E+02  0.46065100088E+01  0.30458371489E+02  0.00000000000E+00 0. -1.
</event>
<event>
 7    1  0.6953847E-012  0.5930194E+02  0.7816164E-02  0.1266605E+00
        -11   -1    0    0    0    0  0.00000000000E+00  0.00000000000E+00  0.45593999997E+02  0.45594000000E+02  0.51100000000E-03 0.  1.
         11   -1    0    0    0    0 -0.00000000000E+00 -0.00000000000E+00 -0.45593999997E+02  0.45594000000E+02  0.51100000000E-03 0. -1.
    9900012    2    1    2    0    0  0.18503012801E+02  0.12327953311E+02 -0.22855660230E+02  0.59301935331E+02  0.49999984139E+02 0.  0.
        -12    1    1    2    0    0 -0.18503012801E+02 -0.12327953311E+02  0.22855660230E+02  0.31886064669E+02  0.00000000000E+00 0.  1.
         11    1    3    3    0    0 -0.12315262518E+02  0.97528940585E+01 -0.15594590512E+02  0.22135398955E+02  0.51100000000E-03 0. -1.
        -11    1    3    3    0    0 -0.11357054032E+01 -0.25726588217E+01  0.20590108768E+01  0.34853875290E+01  0.51100000000E-03 0.  1.
        -12    1    3    3    0    0  0.31953980722E+02  0.51477180740E+01 -0.93200805949E+01  0.33681148847E+02  0.00000000000E+00 0.  1.
</event>
<event>
 7    1  0.6953847E-012  0.5930193E+02  0.7816164E-02  0.1266605E+00
        -11   -1    0    0    0    0  0.00000000000E+00  0.00000000000E+00  0.45593999997E+02  0.45594000000E+02  0.51100000000E-03 0.  1.
         11   -1    0    0    0    0 -0.00000000000E+00 -0.00000000000E+00 -0.45593999997E+02  0.45594000000E+02  0.51100000000E-03 0. -1.
    9900012    2    1    2    0    0 -0.10178420530E+02  0.20425713524E+02 -0.22269070054E+02  0.59301929397E+02  0.49999973317E+02 0.  0.
        -12    1    1    2    0    0  0.10178420530E+02 -0.20425713524E+02  0.22269070054E+02  0.31886070603E+02  0.00000000000E+00 0.  1.
         11    1    3    3    0    0 -0.73100081322E+01  0.13780791382E+02 -0.22283368289E+02  0.27201009771E+02  0.51100000000E-03 0. -1.
        -11    1    3    3    0    0 -0.10316678292E+02  0.93828257708E+01 -0.11528417753E+02  0.18093526096E+02  0.51100000000E-03 0.  1.
        -12    1    3    3    0    0  0.74482658941E+01 -0.27379036290E+01  0.11542715988E+02  0.14007393530E+02  0.00000000000E+00 0.  1.
</event>
<event>
 7    1  0.6953847E-012  0.5930196E+02  0.7816164E-02  0.1266605E+00
        -11   -1    0    0    0    0  0.00000000000E+00  0.00000000000E+00  0.45593999997E+02  0.45594000000E+02  0.51100000000E-03 0.  1.
         11   -1    0    0    0    0 -0.00000000000E+00 -0.00000000000E+00 -0.45593999997E+02  0.45594000000E+02  0.51100000000E-03 0. -1.
    9900012    2    1    2    0    0 -0.33690544328E+01 -0.31702985259E+02 -0.53827931279E+00  0.59301960002E+02  0.50000029133E+02 0.  0.
        -12    1    1    2    0    0  0.33690544328E+01  0.31702985259E+02  0.53827931279E+00  0.31886039998E+02  0.00000000000E+00 0.  1.
         11    1    3    3    0    0 -0.12939235858E+02 -0.69212857598E+01  0.99372177058E+01  0.17722198429E+02  0.51100000000E-03 0. -1.
        -11    1    3    3    0    0 -0.47274264258E+01 -0.11103311408E+02  0.80239726595E+01  0.14491936459E+02  0.51100000000E-03 0.  1.
        -12    1    3    3    0    0  0.14297607851E+02 -0.13678388092E+02 -0.18499469678E+02  0.27087825114E+02  0.00000000000E+00 0.  1.
</event>
<event>
 7    1  0.6953847E-012  0.5930200E+02  0.7816164E-02  0.1266605E+00
        -11   -1    0    0    0    0  0.00000000000E+00  0.00000000000E+00  0.45593999997E+02  0.45594000000E+02  0.51100000000E-03 0.  1.
         11   -1    0    0    0    0 -0.00000000000E+00 -0.00000000000E+00 -0.45593999997E+02  0.45594000000E+02  0.51100000000E-03 0. -1.
    9900012    2    1    2    0    0  0.13977433656E+02  0.15774714927E+01 -0.28615731806E+02  0.59301997197E+02  0.50000096968E+02 0.  0.
        -12    1    1    2    0    0 -0.13977433656E+02 -0.15774714927E+01  0.28615731806E+02  0.31886002803E+02  0.00000000000E+00 0.  1.
         11    1    3    3    0    0  0.45577891480E+01  0.70764880015E+01 -0.24418031532E+02  0.25828093010E+02  0.51100000000E-03 0. -1.
        -11    1    3    3    0    0 -0.40677182289E+01  0.69243017227E+01  0.80910706328E+01  0.11399899569E+02  0.51100000000E-03 0.  1.
         12    1    3    3    0    0  0.13487362737E+02 -0.12423318232E+02 -0.12288770907E+02  0.22074004618E+02  0.00000000000E+00 0. -1.
</event>
<event>
 7    1  0.6953847E-012  0.5930190E+02  0.7816164E-02  0.1266605E+00
        -11   -1    0    0    0    0  0.00000000000E+00  0.00000000000E+00  0.45593999997E+02  0.45594000000E+02  0.51100000000E-03 0.  1.
         11   -1    0    0    0    0 -0.00000000000E+00 -0.00000000000E+00 -0.45593999997E+02  0.45594000000E+02  0.51100000000E-03 0. -1.
    9900012    2    1    2    0    0  0.13636697066E+02 -0.19994259466E+02 -0.20760382550E+02  0.59301899547E+02  0.49999918878E+02 0.  0.
        -12    1    1    2    0    0 -0.13636697066E+02  0.19994259466E+02  0.20760382550E+02  0.31886100453E+02  0.00000000000E+00 0.  1.
         11    1    3    3    0    0  0.59796037743E+01 -0.46778036871E+01 -0.14828366901E+02  0.16658870725E+02  0.51100000000E-03 0. -1.
        -11    1    3    3    0    0  0.17459191655E+02  0.60081521007E+01 -0.51141716123E+01  0.19159227971E+02  0.51100000000E-03 0.  1.
        -12    1    3    3    0    0 -0.98020983636E+01 -0.21324607880E+02 -0.81784403723E+00  0.23483800851E+02  0.00000000000E+00 0.  1.
</event>
<event>
 7    1  0.6953847E-012  0.5930194E+02  0.7816164E-02  0.1266605E+00
        -11   -1    0    0    0    0  0.00000000000E+00  0.00000000000E+00  0.45593999997E+02  0.45594000000E+02  0.51100000000E-03 0.  1.
         11   -1    0    0    0    0 -0.00000000000E+00 -0.00000000000E+00 -0.45593999997E+02  0.45594000000E+02  0.51100000000E-03 0. -1.
    9900012    2    1    2    0    0 -0.55229419606E+01  0.18875638383E+02 -0.25098373860E+02  0.59301937485E+02  0.49999988069E+02 0.  0.
        -12    1    1    2    0    0  0.55229419606E+01 -0.18875638383E+02  0.25098373860E+02  0.31886062515E+02  0.00000000000E+00 0.  1.
         11    1    3    3    0    0  0.10219294458E+02  0.15215724396E+02 -0.70515283563E+01  0.19638643042E+02  0.51100000000E-03 0. -1.
        -11    1    3    3    0    0  0.70544730356E+01 -0.71470281878E+01 -0.60923711431E+01  0.11745747662E+02  0.51100000000E-03 0.  1.
        -12    1    3    3    0    0 -0.22796709454E+02  0.10806942175E+02 -0.11954474361E+02  0.27917546782E+02  0.00000000000E+00 0.  1.
</event>
<event>
 7    1  0.6953847E-012  0.5930195E+02  0.7816164E-02  0.1266605E+00
        -11   -1    0    0    0    0  0.00000000000E+00  0.00000000000E+00  0.45593999997E+02  0.45594000000E+02  0.51100000000E-03 0.  1.
         11   -1    0    0    0    0 -0.00000000000E+00 -0.00000000000E+00 -0.45593999997E+02  0.45594000000E+02  0.51100000000E-03 0. -1.
    9900012    2    1    2    0    0  0.20684687799E+02  0.20604061502E+02 -0.12819373155E+02  0.59301953086E+02  0.50000016520E+02 0.  0.
        -12    1    1    2    0    0 -0.20684687799E+02 -0.20604061502E+02  0.12819373155E+02  0.31886046914E+02  0.00000000000E+00 0.  1.
         11    1    3    3    0    0  0.64149557375E+01 -0.62461020135E+01  0.56523579375E+00  0.89713398799E+01  0.51100000000E-03 0.  1.
        -11    1    3    3    0    0  0.22035723019E+02  0.76205624383E+01 -0.17543545777E+02  0.29179137402E+02  0.51100000000E-03 0. -1.
         12    1    3    3    0    0 -0.77659909575E+01  0.19229601077E+02  0.41589368275E+01  0.21151475804E+02  0.00000000000E+00 0. -1.
</event>
<event>
 7    1  0.6953847E-012  0.5930189E+02  0.7816164E-02  0.1266605E+00
        -11   -1    0    0    0    0  0.00000000000E+00  0.00000000000E+00  0.45593999997E+02  0.45594000000E+02  0.51100000000E-03 0.  1.
         11   -1    0    0    0    0 -0.00000000000E+00 -0.00000000000E+00 -0.45593999997E+02  0.45594000000E+02  0.51100000000E-03 0. -1.
    9900012    2    1    2    0    0  0.28449072683E+02 -0.93810455517E+01 -0.10925667079E+02  0.59301890904E+02  0.49999903114E+02 0.  0.
        -12    1    1    2    0    0 -0.28449072683E+02  0.93810455517E+01  0.10925667079E+02  0.31886109096E+02  0.00000000000E+00 0.  1.
         11    1    3    3    0    0  0.15420595271E+02  0.16076065366E+02 -0.68967209323E+01  0.23319506771E+02  0.51100000000E-03 0. -1.
        -11    1    3    3    0    0  0.14707691077E+02 -0.65864263298E+01 -0.53788801974E+01  0.16989100655E+02  0.51100000000E-03 0.  1.
        -12    1    3    3    0    0 -0.16792136646E+01 -0.18870684588E+02  0.13499340511E+01  0.18993283478E+02  0.00000000000E+00 0.  1.
</event>
<event>
 7    1  0.6953847E-012  0.5930194E+02  0.7816164E-02  0.1266605E+00
        -11   -1    0    0    0    0  0.00000000000E+00  0.00000000000E+00  0.45593999997E+02  0.45594000000E+02  0.51100000000E-03 0.  1.
         11   -1    0    0    0    0 -0.00000000000E+00 -0.00000000000E+00 -0.45593999997E+02  0.45594000000E+02  0.51100000000E-03 0. -1.
    9900012    2    1    2    0    0 -0.24964670535E+02 -0.11356932977E+02 -0.16263637970E+02  0.59301943147E+02  0.49999998395E+02 0.  0.
        -12    1    1    2    0    0  0.24964670535E+02  0.11356932977E+02  0.16263637970E+02  0.31886056853E+02  0.00000000000E+00 0.  1.
         11    1    3    3    0    0  0.74899468635E+01 -0.42342344793E+01 -0.10840500097E+02  0.13839959836E+02  0.51100000000E-03 0. -1.
        -11    1    3    3    0    0 -0.40351139008E+01  0.45805342034E+01  0.95027621028E+01  0.11294508649E+02  0.51100000000E-03 0.  1.
         12    1    3    3    0    0 -0.28419503498E+02 -0.11703232702E+02 -0.14925899976E+02  0.34167474663E+02  0.00000000000E+00 0. -1.
</event>
<event>
 7    1  0.6953847E-012  0.5930197E+02  0.7816164E-02  0.1266605E+00
        -11   -1    0    0    0    0  0.00000000000E+00  0.00000000000E+00  0.45593999997E+02  0.45594000000E+02  0.51100000000E-03 0.  1.
         11   -1    0    0    0    0 -0.00000000000E+00 -0.00000000000E+00 -0.45593999997E+02  0.45594000000E+02  0.51100000000E-03 0. -1.
    9900012    2    1    2    0    0 -0.37684082975E-01  0.20913718183E+02 -0.24069357221E+02  0.59301968805E+02  0.50000045188E+02 0.  0.
        -12    1    1    2    0    0  0.37684082975E-01 -0.20913718183E+02  0.24069357221E+02  0.31886031195E+02  0.00000000000E+00 0.  1.
         11    1    3    3    0    0  0.19633703941E+01  0.39528965966E+01 -0.11781275070E+02  0.12580884601E+02  0.51100000000E-03 0. -1.
        -11    1    3    3    0    0  0.77341091811E+01  0.28032448180E+02 -0.28573166020E+01  0.29219836656E+02  0.51100000000E-03 0.  1.
         12    1    3    3    0    0 -0.97351636583E+01 -0.11071626594E+02 -0.94307655486E+01  0.17501247548E+02  0.00000000000E+00 0. -1.
</event>
<event>
 7    1  0.6953847E-012  0.5930187E+02  0.7816164E-02  0.1266605E+00
        -11   -1    0    0    0    0  0.00000000000E+00  0.00000000000E+00  0.45593999997E+02  0.45594000000E+02  0.51100000000E-03 0.  1.
         11   -1    0    0    0    0 -0.00000000000E+00 -0.00000000000E+00 -0.45593999997E+02  0.45594000000E+02  0.51100000000E-03 0. -1.
    9900012    2    1    2    0    0  0.20518618450E+02 -0.24370211969E+02 -0.13433141953E+01  0.59301867786E+02  0.49999860954E+02 0.  0.
        -12    1    1    2    0    0 -0.20518618450E+02  0.24370211969E+02  0.13433141953E+01  0.31886132214E+02  0.00000000000E+00 0.  1.
         11    1    3    3    0    0 -0.43137248630E+01 -0.17765113934E+01 -0.28453023869E+01  0.54644268555E+01  0.51100000000E-03 0. -1.
        -11    1    3    3    0    0 -0.11669585746E+02 -0.65660579935E+01  0.37597204963E+01  0.13907834034E+02  0.51100000000E-03 0.  1.
         12    1    3    3    0    0  0.36501929059E+02 -0.16027642582E+02 -0.22577323047E+01  0.39929606897E+02  0.00000000000E+00 0. -1.
</event>
<event>
 7    1  0.6953847E-012  0.5930192E+02  0.7816164E-02  0.1266605E+00
        -11   -1    0    0    0    0  0.00000000000E+00  0.00000000000E+00  0.45593999997E+02  0.45594000000E+02  0.51100000000E-03 0.  1.
         11   -1    0    0    0    0 -0.00000000000E+00 -0.00000000000E+00 -0.45593999997E+02  0.45594000000E+02  0.51100000000E-03 0. -1.
    9900012    2    1    2    0    0  0.24613731282E+02  0.14695426576E+02 -0.13961764263E+02  0.59301918535E+02  0.49999953507E+02 0.  0.
        -12    1    1    2    0    0 -0.24613731282E+02 -0.14695426576E+02  0.13961764263E+02  0.31886081465E+02  0.00000000000E+00 0.  1.
         11    1    3    3    0    0  0.27515314126E+01  0.17226432274E+02  0.40661819458E+00  0.17449533879E+02  0.51100000000E-03 0.  1.
        -11    1    3    3    0    0  0.26753938912E+02  0.29850979297E+01 -0.14264159814E+01  0.26957720968E+02  0.51100000000E-03 0. -1.
         12    1    3    3    0    0 -0.48917390430E+01 -0.55161036268E+01 -0.12941966476E+02  0.14894663687E+02  0.00000000000E+00 0. -1.
</event>
<event>
 7    1  0.6953847E-012  0.5930194E+02  0.7816164E-02  0.1266605E+00
        -11   -1    0    0    0    0  0.00000000000E+00  0.00000000000E+00  0.45593999997E+02  0.45594000000E+02  0.51100000000E-03 0.  1.
         11   -1    0    0    0    0 -0.00000000000E+00 -0.00000000000E+00 -0.45593999997E+02  0.45594000000E+02  0.51100000000E-03 0. -1.
    9900012    2    1    2    0    0 -0.20305060499E+02  0.17386523444E+02  0.17382009644E+02  0.59301938177E+02  0.49999989329E+02 0.  0.
        -12    1    1    2    0    0  0.20305060499E+02 -0.17386523444E+02 -0.17382009644E+02  0.31886061823E+02  0.00000000000E+00 0.  1.
         11    1    3    3    0    0 -0.12349545363E+01  0.13602714222E+02  0.10052654592E+02  0.16959210227E+02  0.51100000000E-03 0.  1.
        -11    1    3    3    0    0  0.53130482636E+01  0.14077289380E+02  0.46080450880E+01  0.15736347668E+02  0.51100000000E-03 0. -1.
        -12    1    3    3    0    0 -0.24383154226E+02 -0.10293480158E+02  0.27213099647E+01  0.26606380282E+02  0.00000000000E+00 0.  1.
</event>
<event>
 7    1  0.6953847E-012  0.5930201E+02  0.7816164E-02  0.1266605E+00
        -11   -1    0    0    0    0  0.00000000000E+00  0.00000000000E+00  0.45593999997E+02  0.45594000000E+02  0.51100000000E-03 0.  1.
         11   -1    0    0    0    0 -0.00000000000E+00 -0.00000000000E+00 -0.45593999997E+02  0.45594000000E+02  0.51100000000E-03 0. -1.
    9900012    2    1    2    0    0  0.60698114328E+01  0.27709345591E+02 -0.14562493747E+02  0.59302005143E+02  0.50000111460E+02 0.  0.
        -12    1    1    2    0    0 -0.60698114328E+01 -0.27709345591E+02  0.14562493747E+02  0.31885994857E+02  0.00000000000E+00 0.  1.
         11    1    3    3    0    0 -0.75088763256E+01 -0.59945676824E+01 -0.13296807734E+02  0.16404973683E+02  0.51100000000E-03 0. -1.
        -11    1    3    3    0    0 -0.63391853638E+01  0.63640461064E+01  0.73114838312E+00  0.90122656497E+01  0.51100000000E-03 0.  1.
        -12    1    3    3    0    0  0.19917873122E+02  0.27339867167E+02 -0.19968343956E+01  0.33884765810E+02  0.00000000000E+00 0.  1.
</event>
<event>
 7    1  0.6953847E-012  0.5930193E+02  0.7816164E-02  0.1266605E+00
        -11   -1    0    0    0    0  0.00000000000E+00  0.00000000000E+00  0.45593999997E+02  0.45594000000E+02  0.51100000000E-03 0.  1.
         11   -1    0    0    0    0 -0.00000000000E+00 -0.00000000000E+00 -0.45593999997E+02  0.45594000000E+02  0.51100000000E-03 0. -1.
    9900012    2    1    2    0    0 -0.21866231925E+02 -0.10891453190E+01 -0.23181957836E+02  0.59301929291E+02  0.49999973125E+02 0.  0.
        -12    1    1    2    0    0  0.21866231925E+02  0.10891453190E+01  0.23181957836E+02  0.31886070709E+02  0.00000000000E+00 0.  1.
         11    1    3    3    0    0  0.65353844301E+01 -0.50041650908E+01  0.66051664919E+01  0.10553726477E+02  0.51100000000E-03 0. -1.
        -11    1    3    3    0    0 -0.72663891680E+01 -0.10653847116E+02 -0.10762119438E+02  0.16796668865E+02  0.51100000000E-03 0.  1.
        -12    1    3    3    0    0 -0.21135227187E+02  0.14568866888E+02 -0.19025004890E+02  0.31951533949E+02  0.00000000000E+00 0.  1.
</event>
<event>
 7    1  0.6953847E-012  0.5930197E+02  0.7816164E-02  0.1266605E+00
        -11   -1    0    0    0    0  0.00000000000E+00  0.00000000000E+00  0.45593999997E+02  0.45594000000E+02  0.51100000000E-03 0.  1.
         11   -1    0    0    0    0 -0.00000000000E+00 -0.00000000000E+00 -0.45593999997E+02  0.45594000000E+02  0.51100000000E-03 0. -1.
    9900012    2    1    2    0    0 -0.85979574114E+01 -0.83410017901E+01 -0.29550324335E+02  0.59301970915E+02  0.50000049036E+02 0.  0.
        -12    1    1    2    0    0  0.85979574114E+01  0.83410017901E+01  0.29550324335E+02  0.31886029085E+02  0.00000000000E+00 0.  1.
         11    1    3    3    0    0  0.58132353624E+01 -0.13023410025E+02  0.80043106870E+00  0.14284383229E+02  0.51100000000E-03 0.  1.
        -11    1    3    3    0    0 -0.11831193661E+02  0.53263171993E+01  0.14952769836E+01  0.13060729378E+02  0.51100000000E-03 0. -1.
         12    1    3    3    0    0 -0.25799991126E+01 -0.64390896401E+00 -0.31846032387E+02  0.31956858309E+02  0.00000000000E+00 0. -1.
</event>
<event>
 7    1  0.6953847E-012  0.5930196E+02  0.7816164E-02  0.1266605E+00
        -11   -1    0    0    0    0  0.00000000000E+00  0.00000000000E+00  0.45593999997E+02  0.45594000000E+02  0.51100000000E-03 0. -1.
         11   -1    0    0    0    0 -0.00000000000E+00 -0.00000000000E+00 -0.45593999997E+02  0.45594000000E+02  0.51100000000E-03 0.  1.
    9900012    2    1    2    0    0  0.29583529834E+02 -0.33726017731E+01 -0.11408775984E+02  0.59301955253E+02  0.50000020472E+02 0.  0.
        -12    1    1    2    0    0 -0.29583529834E+02  0.33726017731E+01  0.11408775984E+02  0.31886044747E+02  0.00000000000E+00 0.  1.
         11    1    3    3    0    0  0.49789018785E+01 -0.11782604068E+02  0.11987634529E+02  0.17530619053E+02  0.51100000000E-03 0. -1.
        -11    1    3    3    0    0  0.12033225345E+02 -0.49371540796E+01 -0.18813524897E+02  0.22871876222E+02  0.51100000000E-03 0.  1.
        -12    1    3    3    0    0  0.12571402611E+02  0.13347156374E+02 -0.45828856153E+01  0.18899459978E+02  0.00000000000E+00 0.  1.
</event>
<event>
 7    1  0.6953847E-012  0.5930190E+02  0.7816164E-02  0.1266605E+00
        -11   -1    0    0    0    0  0.00000000000E+00  0.00000000000E+00  0.45593999997E+02  0.45594000000E+02  0.51100000000E-03 0.  1.
         11   -1    0    0    0    0 -0.00000000000E+00 -0.00000000000E+00 -0.45593999997E+02  0.45594000000E+02  0.51100000000E-03 0. -1.
    9900012    2    1    2    0    0  0.25076645431E+02  0.10257799932E+02 -0.16812584301E+02  0.59301896500E+02  0.49999913322E+02 0.  0.
        -12    1    1    2    0    0 -0.25076645431E+02 -0.10257799932E+02  0.16812584301E+02  0.31886103500E+02  0.00000000000E+00 0.  1.
         11    1    3    3    0    0 -0.30943200723E+01 -0.13131280667E+02 -0.13045237499E+01  0.13553860378E+02  0.51100000000E-03 0. -1.
        -11    1    3    3    0    0  0.96903468322E+01  0.17607011629E+00 -0.12655080428E+02  0.15940040254E+02  0.51100000000E-03 0.  1.
        -12    1    3    3    0    0  0.18480618671E+02  0.23213010482E+02 -0.28529801237E+01  0.29807995869E+02  0.00000000000E+00 0.  1.
</event>
<event>
 7    1  0.6953847E-012  0.5930195E+02  0.7816164E-02  0.1266605E+00
        -11   -1    0    0    0    0  0.00000000000E+00  0.00000000000E+00  0.45593999997E+02  0.45594000000E+02  0.51100000000E-03 0. -1.
         11   -1    0    0    0    0 -0.00000000000E+00 -0.00000000000E+00 -0.45593999997E+02  0.45594000000E+02  0.51100000000E-03 0.  1.
    9900012    2    1    2    0    0  0.13894713529E+02 -0.27407019928E+01  0.28568261736E+02  0.59301951482E+02  0.50000013595E+02 0.  0.
        -12    1    1    2    0    0 -0.13894713529E+02  0.27407019928E+01 -0.28568261736E+02  0.31886048518E+02  0.00000000000E+00 0.  1.
         11    1    3    3    0    0  0.18230006096E+02  0.49077648912E+01  0.65224568141E+01  0.19974026175E+02  0.51100000000E-03 0.  1.
        -11    1    3    3    0    0  0.12839636605E+02  0.12459316499E+01  0.11587521259E+02  0.17340105623E+02  0.51100000000E-03 0. -1.
         12    1    3    3    0    0 -0.17174929171E+02 -0.88943985339E+01  0.10458283663E+02  0.21987819685E+02  0.00000000000E+00 0. -1.
</event>
<event>
 7    1  0.6953847E-012  0.5930185E+02  0.7816164E-02  0.1266605E+00
        -11   -1    0    0    0    0  0.00000000000E+00  0.00000000000E+00  0.45593999997E+02  0.45594000000E+02  0.51100000000E-03 0. -1.
         11   -1    0    0    0    0 -0.00000000000E+00 -0.00000000000E+00 -0.45593999997E+02  0.45594000000E+02  0.51100000000E-03 0.  1.
    9900012    2    1    2    0    0  0.28776495496E+02  0.65210009096E+01  0.12087849625E+02  0.59301854819E+02  0.49999837305E+02 0.  0.
        -12    1    1    2    0    0 -0.28776495496E+02 -0.65210009096E+01 -0.12087849625E+02  0.31886145181E+02  0.00000000000E+00 0.  1.
         11    1    3    3    0    0 -0.69617224298E+01  0.12515670781E+02  0.31311602342E+00  0.14325000391E+02  0.51100000000E-03 0. -1.
        -11    1    3    3    0    0  0.17862174490E+02  0.79820742515E+01  0.34087682036E+00  0.19567498157E+02  0.51100000000E-03 0.  1.
        -12    1    3    3    0    0  0.17876043436E+02 -0.13976744123E+02  0.11433856782E+02  0.25409356271E+02  0.00000000000E+00 0.  1.
</event>
<event>
 7    1  0.6953847E-012  0.5930195E+02  0.7816164E-02  0.1266605E+00
        -11   -1    0    0    0    0  0.00000000000E+00  0.00000000000E+00  0.45593999997E+02  0.45594000000E+02  0.51100000000E-03 0.  1.
         11   -1    0    0    0    0 -0.00000000000E+00 -0.00000000000E+00 -0.45593999997E+02  0.45594000000E+02  0.51100000000E-03 0. -1.
    9900012    2    1    2    0    0  0.29143192771E+02  0.17072482073E+01  0.12824971747E+02  0.59301948478E+02  0.50000008116E+02 0.  0.
        -12    1    1    2    0    0 -0.29143192771E+02 -0.17072482073E+01 -0.12824971747E+02  0.31886051522E+02  0.00000000000E+00 0.  1.
         11    1    3    3    0    0  0.63230360101E+01  0.83094998466E+01  0.12710516605E+02  0.16449492536E+02  0.51100000000E-03 0. -1.
        -11    1    3    3    0    0  0.24505397187E+02 -0.12347322632E+02  0.11685005775E+02  0.29824658049E+02  0.51100000000E-03 0.  1.
         12    1    3    3    0    0 -0.16852404262E+01  0.57450709928E+01 -0.11570550632E+02  0.13027797893E+02  0.00000000000E+00 0. -1.
</event>
<event>
 7    1  0.6953847E-012  0.5930193E+02  0.7816164E-02  0.1266605E+00
        -11   -1    0    0    0    0  0.00000000000E+00  0.00000000000E+00  0.45593999997E+02  0.45594000000E+02  0.51100000000E-03 0. -1.
         11   -1    0    0    0    0 -0.00000000000E+00 -0.00000000000E+00 -0.45593999997E+02  0.45594000000E+02  0.51100000000E-03 0.  1.
    9900012    2    1    2    0    0  0.26837604654E+02  0.17200717993E+02  0.77453757142E+00  0.59301927312E+02  0.49999969514E+02 0.  0.
        -12    1    1    2    0    0 -0.26837604654E+02 -0.17200717993E+02 -0.77453757142E+00  0.31886072688E+02  0.00000000000E+00 0.  1.
         11    1    3    3    0    0  0.88593575136E+01 -0.48790973950E+01 -0.94662274599E+01  0.13852915561E+02  0.51100000000E-03 0. -1.
        -11    1    3    3    0    0  0.19692391895E+02  0.27582159344E+02  0.15843780053E+02  0.37411110372E+02  0.51100000000E-03 0.  1.
         12    1    3    3    0    0 -0.17141447552E+01 -0.55023439558E+01 -0.56030150217E+01  0.80379013793E+01  0.00000000000E+00 0. -1.
</event>
<event>
 7    1  0.6953847E-012  0.5930194E+02  0.7816164E-02  0.1266605E+00
        -11   -1    0    0    0    0  0.00000000000E+00  0.00000000000E+00  0.45593999997E+02  0.45594000000E+02  0.51100000000E-03 0.  1.
         11   -1    0    0    0    0 -0.00000000000E+00 -0.00000000000E+00 -0.45593999997E+02  0.45594000000E+02  0.51100000000E-03 0. -1.
    9900012    2    1    2    0    0 -0.18633802200E+02  0.14533712799E+02 -0.21407318869E+02  0.59301942023E+02  0.49999996344E+02 0.  0.
        -12    1    1    2    0    0  0.18633802200E+02 -0.14533712799E+02  0.21407318869E+02  0.31886057977E+02  0.00000000000E+00 0.  1.
         11    1    3    3    0    0 -0.52828638000E+01  0.13467211328E+02 -0.15338447974E+02  0.21084174572E+02  0.51100000000E-03 0. -1.
        -11    1    3    3    0    0 -0.43975389393E-01  0.16499231260E+02  0.12960876681E+01  0.16550118111E+02  0.51100000000E-03 0.  1.
         12    1    3    3    0    0 -0.13306963010E+02 -0.15432729789E+02 -0.73649585634E+01  0.21667649340E+02  0.00000000000E+00 0. -1.
</event>
<event>
 7    1  0.6953847E-012  0.5930194E+02  0.7816164E-02  0.1266605E+00
        -11   -1    0    0    0    0  0.00000000000E+00  0.00000000000E+00  0.45593999997E+02  0.45594000000E+02  0.51100000000E-03 0.  1.
         11   -1    0    0    0    0 -0.00000000000E+00 -0.00000000000E+00 -0.45593999997E+02  0.45594000000E+02  0.51100000000E-03 0. -1.
    9900012    2    1    2    0    0 -0.14158090367E+01 -0.86716870381E+01 -0.30651564369E+02  0.59301936122E+02  0.49999985582E+02 0.  0.
        -12    1    1    2    0    0  0.14158090367E+01  0.86716870381E+01  0.30651564369E+02  0.31886063878E+02  0.00000000000E+00 0.  1.
         11    1    3    3    0    0 -0.26531052569E+01 -0.75739475361E+01 -0.26886837514E+02  0.28058967917E+02  0.51100000000E-03 0. -1.
        -11    1    3    3    0    0 -0.69923360295E+00  0.10749950202E+02 -0.12421672611E+02  0.16442271975E+02  0.51100000000E-03 0.  1.
        -12    1    3    3    0    0  0.19365298231E+01 -0.11847689705E+02  0.86569457556E+01  0.14800696230E+02  0.00000000000E+00 0.  1.
</event>
<event>
 7    1  0.6953847E-012  0.5930195E+02  0.7816164E-02  0.1266605E+00
        -11   -1    0    0    0    0  0.00000000000E+00  0.00000000000E+00  0.45593999997E+02  0.45594000000E+02  0.51100000000E-03 0. -1.
         11   -1    0    0    0    0 -0.00000000000E+00 -0.00000000000E+00 -0.45593999997E+02  0.45594000000E+02  0.51100000000E-03 0.  1.
    9900012    2    1    2    0    0  0.86458964566E+01 -0.60926336012E+01  0.30080700951E+02  0.59301948513E+02  0.50000008180E+02 0.  0.
        -12    1    1    2    0    0 -0.86458964566E+01  0.60926336012E+01 -0.30080700951E+02  0.31886051487E+02  0.00000000000E+00 0.  1.
         11    1    3    3    0    0  0.17204277621E+02 -0.44380800548E+00  0.29007650471E+02  0.33728740269E+02  0.51100000000E-03 0. -1.
        -11    1    3    3    0    0 -0.49995691817E+01 -0.31412711079E+01  0.12238859647E+02  0.13588707146E+02  0.51100000000E-03 0.  1.
        -12    1    3    3    0    0 -0.35588119824E+01 -0.25075544878E+01 -0.11165809167E+02  0.11984501099E+02  0.00000000000E+00 0.  1.
</event>
<event>
 7    1  0.6953847E-012  0.5930195E+02  0.7816164E-02  0.1266605E+00
        -11   -1    0    0    0    0  0.00000000000E+00  0.00000000000E+00  0.45593999997E+02  0.45594000000E+02  0.51100000000E-03 0. -1.
         11   -1    0    0    0    0 -0.00000000000E+00 -0.00000000000E+00 -0.45593999997E+02  0.45594000000E+02  0.51100000000E-03 0.  1.
    9900012    2    1    2    0    0  0.27912843196E+02  0.90215778104E+01  0.12498181060E+02  0.59301949581E+02  0.50000010129E+02 0.  0.
        -12    1    1    2    0    0 -0.27912843196E+02 -0.90215778104E+01 -0.12498181060E+02  0.31886050419E+02  0.00000000000E+00 0.  1.
         11    1    3    3    0    0  0.64986536120E+01  0.42973204432E+01  0.21940364290E+02  0.23282591076E+02  0.51100000000E-03 0. -1.
        -11    1    3    3    0    0  0.23730548119E+00  0.12039656379E+02 -0.10247467086E+01  0.12085518015E+02  0.51100000000E-03 0.  1.
         12    1    3    3    0    0  0.21176884103E+02 -0.73153990118E+01 -0.84174365217E+01  0.23933840490E+02  0.00000000000E+00 0. -1.
</event>
<event>
 7    1  0.6953847E-012  0.5930194E+02  0.7816164E-02  0.1266605E+00
        -11   -1    0    0    0    0  0.00000000000E+00  0.00000000000E+00  0.45593999997E+02  0.45594000000E+02  0.51100000000E-03 0.  1.
         11   -1    0    0    0    0 -0.00000000000E+00 -0.00000000000E+00 -0.45593999997E+02  0.45594000000E+02  0.51100000000E-03 0. -1.
    9900012    2    1    2    0    0 -0.24184792843E+02 -0.19342748533E+02  0.75943839285E+01  0.59301940461E+02  0.49999993495E+02 0.  0.
        -12    1    1    2    0    0  0.24184792843E+02  0.19342748533E+02 -0.75943839285E+01  0.31886059539E+02  0.00000000000E+00 0.  1.
         11    1    3    3    0    0  0.39326517111E+01 -0.11158482523E+02  0.53970318675E+01  0.13004054557E+02  0.51100000000E-03 0. -1.
        -11    1    3    3    0    0  0.63045546015E+01 -0.38086052240E+00 -0.73921233826E+01  0.97229600342E+01  0.51100000000E-03 0.  1.
        -12    1    3    3    0    0 -0.34421999155E+02 -0.78034054880E+01  0.95894754436E+01  0.36574925869E+02  0.00000000000E+00 0.  1.
</event>
<event>
 7    1  0.6953847E-012  0.5930205E+02  0.7816164E-02  0.1266604E+00
        -11   -1    0    0    0    0  0.00000000000E+00  0.00000000000E+00  0.45593999997E+02  0.45594000000E+02  0.51100000000E-03 0. -1.
         11   -1    0    0    0    0 -0.00000000000E+00 -0.00000000000E+00 -0.45593999997E+02  0.45594000000E+02  0.51100000000E-03 0.  1.
    9900012    2    1    2    0    0  0.36343119336E+00 -0.71958356247E+00  0.31875761452E+02  0.59302046182E+02  0.50000186305E+02 0.  0.
        -12    1    1    2    0    0 -0.36343119336E+00  0.71958356247E+00 -0.31875761452E+02  0.31885953818E+02  0.00000000000E+00 0.  1.
         11    1    3    3    0    0  0.52208833746E+01 -0.10278307296E+02  0.20054370610E+02  0.23131774789E+02  0.51100000000E-03 0. -1.
        -11    1    3    3    0    0  0.12036181244E+02  0.83876282090E+00 -0.25577324903E+01  0.12333498196E+02  0.51100000000E-03 0.  1.
         12    1    3    3    0    0 -0.16893633425E+02  0.87199609128E+01  0.14379123333E+02  0.23836773197E+02  0.00000000000E+00 0. -1.
</event>
<event>
 7    1  0.6953847E-012  0.5930195E+02  0.7816164E-02  0.1266605E+00
        -11   -1    0    0    0    0  0.00000000000E+00  0.00000000000E+00  0.45593999997E+02  0.45594000000E+02  0.51100000000E-03 0.  1.
         11   -1    0    0    0    0 -0.00000000000E+00 -0.00000000000E+00 -0.45593999997E+02  0.45594000000E+02  0.51100000000E-03 0. -1.
    9900012    2    1    2    0    0 -0.16738499877E+02 -0.62652354147E+00 -0.27132093012E+02  0.59301946919E+02  0.50000005273E+02 0.  0.
        -12    1    1    2    0    0  0.16738499877E+02  0.62652354147E+00  0.27132093012E+02  0.31886053081E+02  0.00000000000E+00 0.  1.
         11    1    3    3    0    0 -0.17719536470E+02  0.15591042988E+02 -0.18908232860E+02  0.30242087632E+02  0.51100000000E-03 0. -1.
        -11    1    3    3    0    0 -0.91034759997E+01 -0.35151328501E+01 -0.83457658481E+01  0.12840609101E+02  0.51100000000E-03 0.  1.
        -12    1    3    3    0    0  0.10084512593E+02 -0.12702433679E+02  0.12190569615E+00  0.16219250187E+02  0.00000000000E+00 0.  1.
</event>
<event>
 7    1  0.6953847E-012  0.5930194E+02  0.7816164E-02  0.1266605E+00
        -11   -1    0    0    0    0  0.00000000000E+00  0.00000000000E+00  0.45593999997E+02  0.45594000000E+02  0.51100000000E-03 0. -1.
         11   -1    0    0    0    0 -0.00000000000E+00 -0.00000000000E+00 -0.45593999997E+02  0.45594000000E+02  0.51100000000E-03 0.  1.
    9900012    2    1    2    0    0 -0.21987097921E+02 -0.22960638105E+02 -0.24692420527E+01  0.59301944529E+02  0.50000000914E+02 0.  0.
        -12    1    1    2    0    0  0.21987097921E+02  0.22960638105E+02  0.24692420527E+01  0.31886055471E+02  0.00000000000E+00 0.  1.
         11    1    3    3    0    0 -0.15030452502E+02 -0.26513331547E+02 -0.10082281860E+02  0.32101770354E+02  0.51100000000E-03 0. -1.
        -11    1    3    3    0    0 -0.11704991353E+02 -0.46361275224E+01  0.11419854575E+02  0.16997458038E+02  0.51100000000E-03 0.  1.
        -12    1    3    3    0    0  0.47483459337E+01  0.81888209643E+01 -0.38068147676E+01  0.10202716137E+02  0.00000000000E+00 0.  1.
</event>
<event>
 7    1  0.6953847E-012  0.5930197E+02  0.7816164E-02  0.1266605E+00
        -11   -1    0    0    0    0  0.00000000000E+00  0.00000000000E+00  0.45593999997E+02  0.45594000000E+02  0.51100000000E-03 0.  1.
         11   -1    0    0    0    0 -0.00000000000E+00 -0.00000000000E+00 -0.45593999997E+02  0.45594000000E+02  0.51100000000E-03 0. -1.
    9900012    2    1    2    0    0  0.11974951798E+02  0.21157703120E+02 -0.20631802104E+02  0.59301966538E+02  0.50000041054E+02 0.  0.
        -12    1    1    2    0    0 -0.11974951798E+02 -0.21157703120E+02  0.20631802104E+02  0.31886033462E+02  0.00000000000E+00 0.  1.
         11    1    3    3    0    0  0.46476383327E+01 -0.95524424261E+01 -0.27096281238E+01  0.10963201321E+02  0.51100000000E-03 0. -1.
        -11    1    3    3    0    0 -0.12173048739E+02  0.12160211596E+02 -0.11417799417E+02  0.20649939599E+02  0.51100000000E-03 0.  1.
        -12    1    3    3    0    0  0.19500362204E+02  0.18549933950E+02 -0.65043745631E+01  0.27688825618E+02  0.00000000000E+00 0.  1.
</event>
<event>
 7    1  0.6953847E-012  0.5930192E+02  0.7816164E-02  0.1266605E+00
        -11   -1    0    0    0    0  0.00000000000E+00  0.00000000000E+00  0.45593999997E+02  0.45594000000E+02  0.51100000000E-03 0. -1.
         11   -1    0    0    0    0 -0.00000000000E+00 -0.00000000000E+00 -0.45593999997E+02  0.45594000000E+02  0.51100000000E-03 0.  1.
    9900012    2    1    2    0    0  0.16726053708E+02  0.22864279066E+02  0.14635094394E+02  0.59301919686E+02  0.49999955606E+02 0.  0.
        -12    1    1    2    0    0 -0.16726053708E+02 -0.22864279066E+02 -0.14635094394E+02  0.31886080314E+02  0.00000000000E+00 0.  1.
         11    1    3    3    0    0  0.12643600241E+01  0.17617651173E+02 -0.95742930088E+01  0.20090976233E+02  0.51100000000E-03 0. -1.
        -11    1    3    3    0    0  0.23950774874E+01  0.40108978559E+01 -0.52093375228E+01  0.69972062617E+01  0.51100000000E-03 0.  1.
        -12    1    3    3    0    0  0.13066616197E+02  0.12357300375E+01  0.29418724926E+02  0.32213737191E+02  0.00000000000E+00 0.  1.
</event>
<event>
 7    1  0.6953847E-012  0.5930199E+02  0.7816164E-02  0.1266605E+00
        -11   -1    0    0    0    0  0.00000000000E+00  0.00000000000E+00  0.45593999997E+02  0.45594000000E+02  0.51100000000E-03 0.  1.
         11   -1    0    0    0    0 -0.00000000000E+00 -0.00000000000E+00 -0.45593999997E+02  0.45594000000E+02  0.51100000000E-03 0. -1.
    9900012    2    1    2    0    0  0.17701588932E+02 -0.14840531771E+02 -0.21980215807E+02  0.59301991770E+02  0.50000087070E+02 0.  0.
        -12    1    1    2    0    0 -0.17701588932E+02  0.14840531771E+02  0.21980215807E+02  0.31886008230E+02  0.00000000000E+00 0.  1.
         11    1    3    3    0    0  0.12349225660E+02 -0.85425928871E+01  0.13346029698E+02  0.20089693293E+02  0.51100000000E-03 0. -1.
        -11    1    3    3    0    0 -0.12174797355E+01 -0.84260504751E+00  0.10705702439E+01  0.18271182449E+01  0.51100000000E-03 0.  1.
         12    1    3    3    0    0  0.65698430067E+01 -0.54553338361E+01 -0.36396815748E+02  0.37385180232E+02  0.00000000000E+00 0. -1.
</event>
<event>
 7    1  0.6953847E-012  0.5930192E+02  0.7816164E-02  0.1266605E+00
        -11   -1    0    0    0    0  0.00000000000E+00  0.00000000000E+00  0.45593999997E+02  0.45594000000E+02  0.51100000000E-03 0. -1.
         11   -1    0    0    0    0 -0.00000000000E+00 -0.00000000000E+00 -0.45593999997E+02  0.45594000000E+02  0.51100000000E-03 0.  1.
    9900012    2    1    2    0    0  0.22039887230E+02 -0.47665378551E+01  0.22544304290E+02  0.59301918897E+02  0.49999954167E+02 0.  0.
        -12    1    1    2    0    0 -0.22039887230E+02  0.47665378551E+01 -0.22544304290E+02  0.31886081103E+02  0.00000000000E+00 0.  1.
         11    1    3    3    0    0  0.16030682277E+02 -0.14325757748E+02  0.15397991396E+02  0.26444437007E+02  0.51100000000E-03 0. -1.
        -11    1    3    3    0    0  0.13331216090E+02  0.51705817113E+01 -0.73174884250E+01  0.16062436763E+02  0.51100000000E-03 0.  1.
        -12    1    3    3    0    0 -0.73220111376E+01  0.43886381816E+01  0.14463801319E+02  0.16795045126E+02  0.00000000000E+00 0.  1.
</event>
<event>
 7    1  0.6953847E-012  0.5930180E+02  0.7816164E-02  0.1266605E+00
        -11   -1    0    0    0    0  0.00000000000E+00  0.00000000000E+00  0.45593999997E+02  0.45594000000E+02  0.51100000000E-03 0. -1.
         11   -1    0    0    0    0 -0.00000000000E+00 -0.00000000000E+00 -0.45593999997E+02  0.45594000000E+02  0.51100000000E-03 0.  1.
    9900012    2    1    2    0    0  0.23109947856E+01  0.22738325841E+01  0.31720949493E+02  0.59301801602E+02  0.49999740249E+02 0.  0.
        -12    1    1    2    0    0 -0.23109947856E+01 -0.22738325841E+01 -0.31720949493E+02  0.31886198398E+02  0.00000000000E+00 0.  1.
         11    1    3    3    0    0  0.10194103987E+02 -0.76879090673E+01  0.55878955642E+01  0.13937298125E+02  0.51100000000E-03 0.  1.
        -11    1    3    3    0    0 -0.11681220929E+02 -0.10769685695E+02  0.94668673189E+01  0.18494827100E+02  0.51100000000E-03 0. -1.
         12    1    3    3    0    0  0.37981117270E+01  0.20731427346E+02  0.16666186610E+02  0.26869676377E+02  0.00000000000E+00 0. -1.
</event>
<event>
 7    1  0.6953847E-012  0.5930195E+02  0.7816164E-02  0.1266605E+00
        -11   -1    0    0    0    0  0.00000000000E+00  0.00000000000E+00  0.45593999997E+02  0.45594000000E+02  0.51100000000E-03 0.  1.
         11   -1    0    0    0    0 -0.00000000000E+00 -0.00000000000E+00 -0.45593999997E+02  0.45594000000E+02  0.51100000000E-03 0. -1.
    9900012    2    1    2    0    0 -0.19929963299E+02  0.37819667263E+01 -0.24601083430E+02  0.59301952653E+02  0.50000015731E+02 0.  0.
        -12    1    1    2    0    0  0.19929963299E+02 -0.37819667263E+01  0.24601083430E+02  0.31886047347E+02  0.00000000000E+00 0.  1.
         11    1    3    3    0    0 -0.44415978203E+01  0.44434980930E+01 -0.25117192821E+01  0.67661806444E+01  0.51100000000E-03 0. -1.
        -11    1    3    3    0    0 -0.11878433429E+01  0.21366482004E+02 -0.95852009175E+01  0.23448104442E+02  0.51100000000E-03 0.  1.
         12    1    3    3    0    0 -0.14300522136E+02 -0.22028013370E+02 -0.12504163231E+02  0.29087667567E+02  0.00000000000E+00 0. -1.
</event>
<event>
 7    1  0.6953847E-012  0.5930195E+02  0.7816164E-02  0.1266605E+00
        -11   -1    0    0    0    0  0.00000000000E+00  0.00000000000E+00  0.45593999997E+02  0.45594000000E+02  0.51100000000E-03 0. -1.
         11   -1    0    0    0    0 -0.00000000000E+00 -0.00000000000E+00 -0.45593999997E+02  0.45594000000E+02  0.51100000000E-03 0.  1.
    9900012    2    1    2    0    0  0.30430067901E+02  0.36679023488E+01 -0.87907641664E+01  0.59301951723E+02  0.50000014034E+02 0.  0.
        -12    1    1    2    0    0 -0.30430067901E+02 -0.36679023488E+01  0.87907641664E+01  0.31886048277E+02  0.00000000000E+00 0.  1.
         11    1    3    3    0    0  0.25453178353E+02  0.98589273055E+01 -0.30079162178E+01  0.27461068736E+02  0.51100000000E-03 0.  1.
        -11    1    3    3    0    0 -0.21755753551E+01  0.75493218089E+01  0.79226398629E+01  0.11157670481E+02  0.51100000000E-03 0. -1.
        -12    1    3    3    0    0  0.71524649028E+01 -0.13740346766E+02 -0.13705487811E+02  0.20683212506E+02  0.00000000000E+00 0.  1.
</event>
<event>
 7    1  0.6953847E-012  0.5930194E+02  0.7816164E-02  0.1266605E+00
        -11   -1    0    0    0    0  0.00000000000E+00  0.00000000000E+00  0.45593999997E+02  0.45594000000E+02  0.51100000000E-03 0.  1.
         11   -1    0    0    0    0 -0.00000000000E+00 -0.00000000000E+00 -0.45593999997E+02  0.45594000000E+02  0.51100000000E-03 0. -1.
    9900012    2    1    2    0    0  0.28638026250E+02 -0.12627920366E+02 -0.60925940992E+01  0.59301943124E+02  0.49999998352E+02 0.  0.
        -12    1    1    2    0    0 -0.28638026250E+02  0.12627920366E+02  0.60925940992E+01  0.31886056876E+02  0.00000000000E+00 0.  1.
         11    1    3    3    0    0 -0.24591647976E+01  0.12475248386E+02  0.61184987896E+01  0.14110823558E+02  0.51100000000E-03 0.  1.
        -11    1    3    3    0    0  0.68687058456E+01 -0.53905447084E+01 -0.10849770711E+02  0.13926759027E+02  0.51100000000E-03 0. -1.
        -12    1    3    3    0    0  0.24228485202E+02 -0.19712624043E+02 -0.13613221776E+01  0.31264360539E+02  0.00000000000E+00 0.  1.
</event>
<event>
 7    1  0.6953847E-012  0.5930195E+02  0.7816164E-02  0.1266605E+00
        -11   -1    0    0    0    0  0.00000000000E+00  0.00000000000E+00  0.45593999997E+02  0.45594000000E+02  0.51100000000E-03 0.  1.
         11   -1    0    0    0    0 -0.00000000000E+00 -0.00000000000E+00 -0.45593999997E+02  0.45594000000E+02  0.51100000000E-03 0. -1.
    9900012    2    1    2    0    0 -0.20731872100E+02  0.21982938589E+01  0.24126272631E+02  0.59301952146E+02  0.50000014807E+02 0.  0.
        -12    1    1    2    0    0  0.20731872100E+02 -0.21982938589E+01 -0.24126272631E+02  0.31886047854E+02  0.00000000000E+00 0.  1.
         11    1    3    3    0    0  0.44310212616E+01  0.49189092142E+01  0.10941224076E+02  0.12788275952E+02  0.51100000000E-03 0.  1.
        -11    1    3    3    0    0  0.30900931130E+01 -0.13796908993E+02  0.26121094536E+01  0.14377986273E+02  0.51100000000E-03 0. -1.
         12    1    3    3    0    0 -0.28252986475E+02  0.11076293638E+02  0.10572939101E+02  0.32135689922E+02  0.00000000000E+00 0. -1.
</event>
<event>
 7    1  0.6953847E-012  0.5930193E+02  0.7816164E-02  0.1266605E+00
        -11   -1    0    0    0    0  0.00000000000E+00  0.00000000000E+00  0.45593999997E+02  0.45594000000E+02  0.51100000000E-03 0. -1.
         11   -1    0    0    0    0 -0.00000000000E+00 -0.00000000000E+00 -0.45593999997E+02  0.45594000000E+02  0.51100000000E-03 0.  1.
    9900012    2    1    2    0    0  0.47862841656E+00  0.27736657450E+02  0.15721642734E+02  0.59301932479E+02  0.49999978938E+02 0.  0.
        -12    1    1    2    0    0 -0.47862841656E+00 -0.27736657450E+02 -0.15721642734E+02  0.31886067521E+02  0.00000000000E+00 0.  1.
         11    1    3    3    0    0 -0.63519372392E+01 -0.67696040025E+01 -0.38827790299E+01  0.10062336622E+02  0.51100000000E-03 0. -1.
        -11    1    3    3    0    0  0.14716395036E+02  0.12218758415E+02  0.99683303130E+00  0.19153694589E+02  0.51100000000E-03 0.  1.
         12    1    3    3    0    0 -0.78858293801E+01  0.22287503038E+02  0.18607588733E+02  0.30085901268E+02  0.00000000000E+00 0. -1.
</event>
<event>
 7    1  0.6953847E-012  0.5930195E+02  0.7816164E-02  0.1266605E+00
        -11   -1    0    0    0    0  0.00000000000E+00  0.00000000000E+00  0.45593999997E+02  0.45594000000E+02  0.51100000000E-03 0.  1.
         11   -1    0    0    0    0 -0.00000000000E+00 -0.00000000000E+00 -0.45593999997E+02  0.45594000000E+02  0.51100000000E-03 0. -1.
    9900012    2    1    2    0    0  0.59878554384E+01 -0.50556862591E+00 -0.31314698022E+02  0.59301947804E+02  0.50000006888E+02 0.  0.
        -12    1    1    2    0    0 -0.59878554384E+01  0.50556862591E+00  0.31314698022E+02  0.31886052196E+02  0.00000000000E+00 0.  1.
         11    1    3    3    0    0 -0.21050692288E+01  0.36552422397E+01  0.54829146246E+01  0.69176921969E+01  0.51100000000E-03 0.  1.
        -11    1    3    3    0    0  0.49056536963E+01  0.11841974814E+02 -0.33320356931E+02  0.35700756182E+02  0.51100000000E-03 0. -1.
         12    1    3    3    0    0  0.31872709709E+01 -0.16002785680E+02 -0.34772557156E+01  0.16683499425E+02  0.00000000000E+00 0. -1.
</event>
<event>
 7    1  0.6953847E-012  0.5930195E+02  0.7816164E-02  0.1266605E+00
        -11   -1    0    0    0    0  0.00000000000E+00  0.00000000000E+00  0.45593999997E+02  0.45594000000E+02  0.51100000000E-03 0.  1.
         11   -1    0    0    0    0 -0.00000000000E+00 -0.00000000000E+00 -0.45593999997E+02  0.45594000000E+02  0.51100000000E-03 0. -1.
    9900012    2    1    2    0    0 -0.28331383093E+01  0.23486751587E+02 -0.21379098635E+02  0.59301952405E+02  0.50000015278E+02 0.  0.
        -12    1    1    2    0    0  0.28331383093E+01 -0.23486751587E+02  0.21379098635E+02  0.31886047595E+02  0.00000000000E+00 0.  1.
         11    1    3    3    0    0 -0.39123633588E+01  0.79384954739E+00 -0.56560178588E+01  0.69229561919E+01  0.51100000000E-03 0. -1.
        -11    1    3    3    0    0 -0.18309851272E+02  0.11858153827E+02  0.45763412215E+01  0.22289220826E+02  0.51100000000E-03 0.  1.
         12    1    3    3    0    0  0.19389076321E+02  0.10834748212E+02 -0.20299421997E+02  0.30089775387E+02  0.00000000000E+00 0. -1.
</event>
<event>
 7    1  0.6953847E-012  0.5930194E+02  0.7816164E-02  0.1266605E+00
        -11   -1    0    0    0    0  0.00000000000E+00  0.00000000000E+00  0.45593999997E+02  0.45594000000E+02  0.51100000000E-03 0. -1.
         11   -1    0    0    0    0 -0.00000000000E+00 -0.00000000000E+00 -0.45593999997E+02  0.45594000000E+02  0.51100000000E-03 0.  1.
    9900012    2    1    2    0    0  0.31092593182E+02 -0.29759884098E+01  0.64121044636E+01  0.59301938132E+02  0.49999989247E+02 0.  0.
        -12    1    1    2    0    0 -0.31092593182E+02  0.29759884098E+01 -0.64121044636E+01  0.31886061868E+02  0.00000000000E+00 0.  1.
         11    1    3    3    0    0  0.54625534462E+01 -0.86015569126E+01  0.11209282574E+02  0.15148408747E+02  0.51100000000E-03 0. -1.
        -11    1    3    3    0    0  0.35839735959E+01  0.13306312504E+02  0.95366655512E+01  0.16758604038E+02  0.51100000000E-03 0.  1.
         12    1    3    3    0    0  0.22046066140E+02 -0.76807440012E+01 -0.14333843661E+02  0.27394925347E+02  0.00000000000E+00 0. -1.
</event>
<event>
 7    1  0.6953847E-012  0.5930193E+02  0.7816164E-02  0.1266605E+00
        -11   -1    0    0    0    0  0.00000000000E+00  0.00000000000E+00  0.45593999997E+02  0.45594000000E+02  0.51100000000E-03 0.  1.
         11   -1    0    0    0    0 -0.00000000000E+00 -0.00000000000E+00 -0.45593999997E+02  0.45594000000E+02  0.51100000000E-03 0. -1.
    9900012    2    1    2    0    0 -0.23763437897E+02  0.11892723671E+02  0.17623373963E+02  0.59301934598E+02  0.49999982802E+02 0.  0.
        -12    1    1    2    0    0  0.23763437897E+02 -0.11892723671E+02 -0.17623373963E+02  0.31886065402E+02  0.00000000000E+00 0.  1.
         11    1    3    3    0    0 -0.45780705139E+01  0.17345254635E+02  0.75916789767E+01  0.19479480946E+02  0.51100000000E-03 0.  1.
        -11    1    3    3    0    0 -0.22181862789E+02 -0.15055275914E+02  0.12323408482E+02  0.29505300651E+02  0.51100000000E-03 0. -1.
         12    1    3    3    0    0  0.29964954061E+01  0.96027449501E+01 -0.22917134955E+01  0.10317153001E+02  0.00000000000E+00 0. -1.
</event>
<event>
 7    1  0.6953847E-012  0.5930195E+02  0.7816164E-02  0.1266605E+00
        -11   -1    0    0    0    0  0.00000000000E+00  0.00000000000E+00  0.45593999997E+02  0.45594000000E+02  0.51100000000E-03 0.  1.
         11   -1    0    0    0    0 -0.00000000000E+00 -0.00000000000E+00 -0.45593999997E+02  0.45594000000E+02  0.51100000000E-03 0. -1.
    9900012    2    1    2    0    0  0.19214566919E+02 -0.17438679939E+02 -0.18531413106E+02  0.59301946441E+02  0.50000004401E+02 0.  0.
        -12    1    1    2    0    0 -0.19214566919E+02  0.17438679939E+02  0.18531413106E+02  0.31886053559E+02  0.00000000000E+00 0.  1.
         11    1    3    3    0    0 -0.21408415776E+00 -0.19213614092E+02 -0.29774970472E+01  0.19444132468E+02  0.51100000000E-03 0. -1.
        -11    1    3    3    0    0  0.19265396316E+02  0.56325868828E+01  0.35363019760E+01  0.20381044187E+02  0.51100000000E-03 0.  1.
         12    1    3    3    0    0  0.16325476051E+00 -0.38576527294E+01 -0.19090218035E+02  0.19476769786E+02  0.00000000000E+00 0. -1.
</event>
<event>
 7    1  0.6953847E-012  0.5930195E+02  0.7816164E-02  0.1266605E+00
        -11   -1    0    0    0    0  0.00000000000E+00  0.00000000000E+00  0.45593999997E+02  0.45594000000E+02  0.51100000000E-03 0.  1.
         11   -1    0    0    0    0 -0.00000000000E+00 -0.00000000000E+00 -0.45593999997E+02  0.45594000000E+02  0.51100000000E-03 0. -1.
    9900012    2    1    2    0    0 -0.17580879703E+02 -0.25645517922E+02 -0.70668345831E+01  0.59301951771E+02  0.50000014122E+02 0.  0.
        -12    1    1    2    0    0  0.17580879703E+02  0.25645517922E+02  0.70668345831E+01  0.31886048229E+02  0.00000000000E+00 0.  1.
         11    1    3    3    0    0  0.99923253516E+01 -0.58789039709E+01 -0.33624759841E+01  0.12071218780E+02  0.51100000000E-03 0. -1.
        -11    1    3    3    0    0 -0.65084294868E+01 -0.76348541271E+01  0.13953443499E+02  0.17185727731E+02  0.51100000000E-03 0.  1.
         12    1    3    3    0    0 -0.21064775568E+02 -0.12131759824E+02 -0.17657802098E+02  0.30045005260E+02  0.00000000000E+00 0. -1.
</event>
<event>
 7    1  0.6953847E-012  0.5930193E+02  0.7816164E-02  0.1266605E+00
        -11   -1    0    0    0    0  0.00000000000E+00  0.00000000000E+00  0.45593999997E+02  0.45594000000E+02  0.51100000000E-03 0.  1.
         11   -1    0    0    0    0 -0.00000000000E+00 -0.00000000000E+00 -0.45593999997E+02  0.45594000000E+02  0.51100000000E-03 0. -1.
    9900012    2    1    2    0    0 -0.90915504580E+01  0.19673458271E+02  0.23388463979E+02  0.59301929415E+02  0.49999973350E+02 0.  0.
        -12    1    1    2    0    0  0.90915504580E+01 -0.19673458271E+02 -0.23388463979E+02  0.31886070585E+02  0.00000000000E+00 0.  1.
         11    1    3    3    0    0 -0.66538941178E+00  0.49850462276E+01  0.24315247488E+02  0.24829915215E+02  0.51100000000E-03 0.  1.
        -11    1    3    3    0    0  0.60094867975E+01  0.46587742586E+01  0.10896865602E+02  0.13287580267E+02  0.51100000000E-03 0. -1.
         12    1    3    3    0    0 -0.14435647844E+02  0.10029637784E+02 -0.11823649110E+02  0.21184433932E+02  0.00000000000E+00 0. -1.
</event>
<event>
 7    1  0.6953847E-012  0.5930195E+02  0.7816164E-02  0.1266605E+00
        -11   -1    0    0    0    0  0.00000000000E+00  0.00000000000E+00  0.45593999997E+02  0.45594000000E+02  0.51100000000E-03 0. -1.
         11   -1    0    0    0    0 -0.00000000000E+00 -0.00000000000E+00 -0.45593999997E+02  0.45594000000E+02  0.51100000000E-03 0.  1.
    9900012    2    1    2    0    0 -0.12663256658E+02 -0.90464111191E+01  0.27830283641E+02  0.59301948020E+02  0.50000007281E+02 0.  0.
        -12    1    1    2    0    0  0.12663256658E+02  0.90464111191E+01 -0.27830283641E+02  0.31886051980E+02  0.00000000000E+00 0.  1.
         11    1    3    3    0    0 -0.73545876528E+01 -0.66432798121E+01  0.16547234520E+02  0.19288185418E+02  0.51100000000E-03 0. -1.
        -11    1    3    3    0    0 -0.32237371596E+00 -0.68453926727E+01  0.24373343345E+02  0.25318435807E+02  0.51100000000E-03 0.  1.
        -12    1    3    3    0    0 -0.49862952896E+01  0.44422613657E+01 -0.13090294223E+02  0.14695326795E+02  0.00000000000E+00 0.  1.
</event>
<event>
 7    1  0.6953847E-012  0.5930203E+02  0.7816164E-02  0.1266604E+00
        -11   -1    0    0    0    0  0.00000000000E+00  0.00000000000E+00  0.45593999997E+02  0.45594000000E+02  0.51100000000E-03 0.  1.
         11   -1    0    0    0    0 -0.00000000000E+00 -0.00000000000E+00 -0.45593999997E+02  0.45594000000E+02  0.51100000000E-03 0. -1.
    9900012    2    1    2    0    0  0.15451475492E+02 -0.16060357689E+02 -0.22804213952E+02  0.59302025686E+02  0.50000148925E+02 0.  0.
        -12    1    1    2    0    0 -0.15451475492E+02  0.16060357689E+02  0.22804213952E+02  0.31885974314E+02  0.00000000000E+00 0.  1.
         11    1    3    3    0    0  0.10450479684E+01  0.54221046942E+01 -0.58345835191E+01  0.80332876006E+01  0.51100000000E-03 0. -1.
        -11    1    3    3    0    0 -0.90919818632E+01  0.69808237097E+01 -0.36719320975E+01  0.12036574241E+02  0.51100000000E-03 0.  1.
        -12    1    3    3    0    0  0.23498409387E+02 -0.28463286093E+02 -0.13297698335E+02  0.39232163845E+02  0.00000000000E+00 0.  1.
</event>
<event>
 7    1  0.6953847E-012  0.5930195E+02  0.7816164E-02  0.1266605E+00
        -11   -1    0    0    0    0  0.00000000000E+00  0.00000000000E+00  0.45593999997E+02  0.45594000000E+02  0.51100000000E-03 0. -1.
         11   -1    0    0    0    0 -0.00000000000E+00 -0.00000000000E+00 -0.45593999997E+02  0.45594000000E+02  0.51100000000E-03 0.  1.
    9900012    2    1    2    0    0 -0.15602212809E+01 -0.27339759690E+02  0.16334726659E+02  0.59301952183E+02  0.50000014873E+02 0.  0.
        -12    1    1    2    0    0  0.15602212809E+01  0.27339759690E+02 -0.16334726659E+02  0.31886047817E+02  0.00000000000E+00 0.  1.
         11    1    3    3    0    0 -0.98015016198E+01 -0.55483156930E+01  0.59594261840E+00  0.11278669642E+02  0.51100000000E-03 0. -1.
        -11    1    3    3    0    0 -0.78433810844E+00  0.82536844065E+01 -0.56688062558E+01  0.10043597820E+02  0.51100000000E-03 0.  1.
         12    1    3    3    0    0  0.90256184473E+01 -0.30045128404E+02  0.21407590297E+02  0.37979684720E+02  0.00000000000E+00 0. -1.
</event>
<event>
 7    1  0.6953847E-012  0.5930193E+02  0.7816164E-02  0.1266605E+00
        -11   -1    0    0    0    0  0.00000000000E+00  0.00000000000E+00  0.45593999997E+02  0.45594000000E+02  0.51100000000E-03 0. -1.
         11   -1    0    0    0    0 -0.00000000000E+00 -0.00000000000E+00 -0.45593999997E+02  0.45594000000E+02  0.51100000000E-03 0.  1.
    9900012    2    1    2    0    0 -0.14599483780E+01  0.10138048647E+01  0.31836496155E+02  0.59301925657E+02  0.49999966496E+02 0.  0.
        -12    1    1    2    0    0  0.14599483780E+01 -0.10138048647E+01 -0.31836496155E+02  0.31886074343E+02  0.00000000000E+00 0.  1.
         11    1    3    3    0    0  0.62590115554E+01 -0.48386234367E+01 -0.34149974303E+01  0.86168271494E+01  0.51100000000E-03 0. -1.
        -11    1    3    3    0    0 -0.11363815940E+02 -0.12673215080E+02  0.20983495258E+02  0.27019507151E+02  0.51100000000E-03 0.  1.
         12    1    3    3    0    0  0.36448560068E+01  0.18525643381E+02  0.14267998328E+02  0.23665591357E+02  0.00000000000E+00 0. -1.
</event>
<event>
 7    1  0.6953847E-012  0.5930194E+02  0.7816164E-02  0.1266605E+00
        -11   -1    0    0    0    0  0.00000000000E+00  0.00000000000E+00  0.45593999997E+02  0.45594000000E+02  0.51100000000E-03 0. -1.
         11   -1    0    0    0    0 -0.00000000000E+00 -0.00000000000E+00 -0.45593999997E+02  0.45594000000E+02  0.51100000000E-03 0.  1.
    9900012    2    1    2    0    0  0.22001728102E+02  0.84258589962E+01  0.21486041169E+02  0.59301935577E+02  0.49999984587E+02 0.  0.
        -12    1    1    2    0    0 -0.22001728102E+02 -0.84258589962E+01 -0.21486041169E+02  0.31886064423E+02  0.00000000000E+00 0.  1.
         11    1    3    3    0    0  0.22719814249E+01  0.26940299458E+02  0.61680190078E+01  0.27730598501E+02  0.51100000000E-03 0. -1.
        -11    1    3    3    0    0  0.31874270351E+01 -0.58065730754E+01  0.49992734391E+01  0.82987178024E+01  0.51100000000E-03 0.  1.
        -12    1    3    3    0    0  0.16542319642E+02 -0.12707867387E+02  0.10318748722E+02  0.23272619273E+02  0.00000000000E+00 0.  1.
</event>
<event>
 7    1  0.6953847E-012  0.5930197E+02  0.7816164E-02  0.1266605E+00
        -11   -1    0    0    0    0  0.00000000000E+00  0.00000000000E+00  0.45593999997E+02  0.45594000000E+02  0.51100000000E-03 0. -1.
         11   -1    0    0    0    0 -0.00000000000E+00 -0.00000000000E+00 -0.45593999997E+02  0.45594000000E+02  0.51100000000E-03 0.  1.
    9900012    2    1    2    0    0  0.73504528721E+01 -0.22283548990E+02  0.21590120763E+02  0.59301968143E+02  0.50000043981E+02 0.  0.
        -12    1    1    2    0    0 -0.73504528721E+01  0.22283548990E+02 -0.21590120763E+02  0.31886031857E+02  0.00000000000E+00 0.  1.
         11    1    3    3    0    0  0.13738177680E+02  0.53647481140E+01  0.66132489685E+01  0.16163326096E+02  0.51100000000E-03 0. -1.
        -11    1    3    3    0    0 -0.57049344824E+01  0.47514066060E+01  0.59037251278E+01  0.94855739326E+01  0.51100000000E-03 0.  1.
         12    1    3    3    0    0 -0.68279032599E+00 -0.32399703710E+02  0.90731466668E+01  0.33653068115E+02  0.00000000000E+00 0. -1.
</event>
<event>
 7    1  0.6953847E-012  0.5930195E+02  0.7816164E-02  0.1266605E+00
        -11   -1    0    0    0    0  0.00000000000E+00  0.00000000000E+00  0.45593999997E+02  0.45594000000E+02  0.51100000000E-03 0.  1.
         11   -1    0    0    0    0 -0.00000000000E+00 -0.00000000000E+00 -0.45593999997E+02  0.45594000000E+02  0.51100000000E-03 0. -1.
    9900012    2    1    2    0    0  0.21275213427E+02 -0.23746081395E+02  0.45761600763E+00  0.59301945048E+02  0.50000001861E+02 0.  0.
        -12    1    1    2    0    0 -0.21275213427E+02  0.23746081395E+02 -0.45761600763E+00  0.31886054952E+02  0.00000000000E+00 0.  1.
         11    1    3    3    0    0 -0.12986997809E+01 -0.16790670762E+02 -0.12122823345E+02  0.20750327513E+02  0.51100000000E-03 0. -1.
        -11    1    3    3    0    0  0.55156233950E+01  0.31292532466E+01 -0.78487560872E+01  0.10090455871E+02  0.51100000000E-03 0.  1.
         12    1    3    3    0    0  0.17058289813E+02 -0.10084663879E+02  0.20429195440E+02  0.28461161664E+02  0.00000000000E+00 0. -1.
</event>
<event>
 7    1  0.6953847E-012  0.5930195E+02  0.7816164E-02  0.1266605E+00
        -11   -1    0    0    0    0  0.00000000000E+00  0.00000000000E+00  0.45593999997E+02  0.45594000000E+02  0.51100000000E-03 0.  1.
         11   -1    0    0    0    0 -0.00000000000E+00 -0.00000000000E+00 -0.45593999997E+02  0.45594000000E+02  0.51100000000E-03 0. -1.
    9900012    2    1    2    0    0 -0.61756639463E+01 -0.19402276136E+02 -0.24538399739E+02  0.59301949662E+02  0.50000010276E+02 0.  0.
        -12    1    1    2    0    0  0.61756639463E+01  0.19402276136E+02  0.24538399739E+02  0.31886050338E+02  0.00000000000E+00 0.  1.
         11    1    3    3    0    0 -0.41531189431E+00 -0.84284500795E+01 -0.22957956383E+02  0.24459742768E+02  0.51100000000E-03 0. -1.
        -11    1    3    3    0    0 -0.36239184499E+01 -0.14361794399E+02 -0.14854292498E+02  0.20977224057E+02  0.51100000000E-03 0.  1.
        -12    1    3    3    0    0 -0.21364336021E+01  0.33879683423E+01  0.13273849142E+02  0.13864982837E+02  0.00000000000E+00 0.  1.
</event>
<event>
 7    1  0.6953847E-012  0.5930195E+02  0.7816164E-02  0.1266605E+00
        -11   -1    0    0    0    0  0.00000000000E+00  0.00000000000E+00  0.45593999997E+02  0.45594000000E+02  0.51100000000E-03 0. -1.
         11   -1    0    0    0    0 -0.00000000000E+00 -0.00000000000E+00 -0.45593999997E+02  0.45594000000E+02  0.51100000000E-03 0.  1.
    9900012    2    1    2    0    0  0.23287401672E+02  0.72033922437E+01 -0.20555497619E+02  0.59301946327E+02  0.50000004194E+02 0.  0.
        -12    1    1    2    0    0 -0.23287401672E+02 -0.72033922437E+01  0.20555497619E+02  0.31886053673E+02  0.00000000000E+00 0.  1.
         11    1    3    3    0    0  0.11027491931E+02 -0.16476242261E+02 -0.13565775574E+02  0.24022955782E+02  0.51100000000E-03 0. -1.
        -11    1    3    3    0    0  0.12552129090E+02  0.40246102545E+01  0.25552581317E+01  0.13426942197E+02  0.51100000000E-03 0.  1.
         12    1    3    3    0    0 -0.29221934865E+00  0.19655024250E+02 -0.95449801768E+01  0.21852048348E+02  0.00000000000E+00 0. -1.
</event>
<event>
 7    1  0.6953847E-012  0.5930195E+02  0.7816164E-02  0.1266605E+00
        -11   -1    0    0    0    0  0.00000000000E+00  0.00000000000E+00  0.45593999997E+02  0.45594000000E+02  0.51100000000E-03 0. -1.
         11   -1    0    0    0    0 -0.00000000000E+00 -0.00000000000E+00 -0.45593999997E+02  0.45594000000E+02  0.51100000000E-03 0.  1.
    9900012    2    1    2    0    0  0.38443049810E+01 -0.28751325552E+02  0.13240203022E+02  0.59301946969E+02  0.50000005365E+02 0.  0.
        -12    1    1    2    0    0 -0.38443049810E+01  0.28751325552E+02 -0.13240203022E+02  0.31886053031E+02  0.00000000000E+00 0.  1.
         11    1    3    3    0    0 -0.15622296706E+01 -0.22517120970E+02 -0.66217916111E+01  0.23522530109E+02  0.51100000000E-03 0. -1.
        -11    1    3    3    0    0  0.13983812510E+02 -0.80759678262E+01  0.25186763217E+01  0.16343561403E+02  0.51100000000E-03 0.  1.
         12    1    3    3    0    0 -0.85772778588E+01  0.18417632440E+01  0.17343318311E+02  0.19435855458E+02  0.00000000000E+00 0. -1.
</event>
<event>
 7    1  0.6953847E-012  0.5930195E+02  0.7816164E-02  0.1266605E+00
        -11   -1    0    0    0    0  0.00000000000E+00  0.00000000000E+00  0.45593999997E+02  0.45594000000E+02  0.51100000000E-03 0.  1.
         11   -1    0    0    0    0 -0.00000000000E+00 -0.00000000000E+00 -0.45593999997E+02  0.45594000000E+02  0.51100000000E-03 0. -1.
    9900012    2    1    2    0    0  0.68829884246E+01  0.23527179564E+02 -0.20391571836E+02  0.59301954309E+02  0.50000018750E+02 0.  0.
        -12    1    1    2    0    0 -0.68829884246E+01 -0.23527179564E+02  0.20391571836E+02  0.31886045691E+02  0.00000000000E+00 0.  1.
         11    1    3    3    0    0 -0.12720314223E+01 -0.93793164737E+01 -0.69389424792E+01  0.11736207413E+02  0.51100000000E-03 0.  1.
        -11    1    3    3    0    0  0.12989434411E+02  0.12071611417E+02 -0.18461816192E+02  0.25598591092E+02  0.51100000000E-03 0. -1.
        -12    1    3    3    0    0 -0.48344145641E+01  0.20834884621E+02  0.50091868355E+01  0.21967155803E+02  0.00000000000E+00 0.  1.
</event>
<event>
 7    1  0.6953847E-012  0.5930195E+02  0.7816164E-02  0.1266605E+00
        -11   -1    0    0    0    0  0.00000000000E+00  0.00000000000E+00  0.45593999997E+02  0.45594000000E+02  0.51100000000E-03 0.  1.
         11   -1    0    0    0    0 -0.00000000000E+00 -0.00000000000E+00 -0.45593999997E+02  0.45594000000E+02  0.51100000000E-03 0. -1.
    9900012    2    1    2    0    0 -0.17942386001E+02  0.18349374574E+02 -0.18923301065E+02  0.59301951548E+02  0.50000013716E+02 0.  0.
        -12    1    1    2    0    0  0.17942386001E+02 -0.18349374574E+02  0.18923301065E+02  0.31886048452E+02  0.00000000000E+00 0.  1.
         11    1    3    3    0    0  0.13627741590E+02  0.11339127347E+02  0.57428658788E+00  0.17737557757E+02  0.51100000000E-03 0.  1.
        -11    1    3    3    0    0 -0.38866638357E+01 -0.51069032275E+01 -0.44209598034E+01  0.77930419087E+01  0.51100000000E-03 0. -1.
        -12    1    3    3    0    0 -0.27683463756E+02  0.12117150455E+02 -0.15076627849E+02  0.33771351883E+02  0.00000000000E+00 0.  1.
</event>
<event>
 7    1  0.6953847E-012  0.5930195E+02  0.7816164E-02  0.1266605E+00
        -11   -1    0    0    0    0  0.00000000000E+00  0.00000000000E+00  0.45593999997E+02  0.45594000000E+02  0.51100000000E-03 0.  1.
         11   -1    0    0    0    0 -0.00000000000E+00 -0.00000000000E+00 -0.45593999997E+02  0.45594000000E+02  0.51100000000E-03 0. -1.
    9900012    2    1    2    0    0 -0.10242939455E+02  0.76175338444E+01 -0.29219443063E+02  0.59301945313E+02  0.50000002345E+02 0.  0.
        -12    1    1    2    0    0  0.10242939455E+02 -0.76175338444E+01  0.29219443063E+02  0.31886054687E+02  0.00000000000E+00 0.  1.
         11    1    3    3    0    0  0.97240043169E+01  0.16824511166E+02 -0.10834259475E+02  0.22248631746E+02  0.51100000000E-03 0. -1.
        -11    1    3    3    0    0  0.30325483862E+01 -0.35076823726E+01 -0.11466851027E+02  0.12368866483E+02  0.51100000000E-03 0.  1.
         12    1    3    3    0    0 -0.22999492158E+02 -0.56992949488E+01 -0.69183325609E+01  0.24684447084E+02  0.00000000000E+00 0. -1.
</event>
<event>
 7    1  0.6953847E-012  0.5930195E+02  0.7816164E-02  0.1266605E+00
        -11   -1    0    0    0    0  0.00000000000E+00  0.00000000000E+00  0.45593999997E+02  0.45594000000E+02  0.51100000000E-03 0. -1.
         11   -1    0    0    0    0 -0.00000000000E+00 -0.00000000000E+00 -0.45593999997E+02  0.45594000000E+02  0.51100000000E-03 0.  1.
    9900012    2    1    2    0    0 -0.36392843577E+00 -0.29529674443E+02  0.12024386106E+02  0.59301953242E+02  0.50000016805E+02 0.  0.
        -12    1    1    2    0    0  0.36392843577E+00  0.29529674443E+02 -0.12024386106E+02  0.31886046758E+02  0.00000000000E+00 0.  1.
         11    1    3    3    0    0  0.81049924941E+01 -0.10957874157E+02  0.26488352698E+02  0.29789238632E+02  0.51100000000E-03 0. -1.
        -11    1    3    3    0    0  0.19346197205E+01  0.19085248746E+01 -0.10614788571E+01  0.29175260556E+01  0.51100000000E-03 0.  1.
        -12    1    3    3    0    0 -0.10403540650E+02 -0.20480325161E+02 -0.13402487735E+02  0.26595188555E+02  0.00000000000E+00 0.  1.
</event>
<event>
 7    1  0.6953847E-012  0.5930193E+02  0.7816164E-02  0.1266605E+00
        -11   -1    0    0    0    0  0.00000000000E+00  0.00000000000E+00  0.45593999997E+02  0.45594000000E+02  0.51100000000E-03 0.  1.
         11   -1    0    0    0    0 -0.00000000000E+00 -0.00000000000E+00 -0.45593999997E+02  0.45594000000E+02  0.51100000000E-03 0. -1.
    9900012    2    1    2    0    0  0.19636407124E+02  0.11513254188E+02 -0.22328857516E+02  0.59301931181E+02  0.49999976571E+02 0.  0.
        -12    1    1    2    0    0 -0.19636407124E+02 -0.11513254188E+02  0.22328857516E+02  0.31886068819E+02  0.00000000000E+00 0.  1.
         11    1    3    3    0    0  0.24262470689E+02  0.33286041339E+01 -0.11480141940E+02  0.27047009976E+02  0.51100000000E-03 0. -1.
        -11    1    3    3    0    0  0.11650728175E+02  0.55716608591E+01 -0.77979764987E+00  0.12937965697E+02  0.51100000000E-03 0.  1.
        -12    1    3    3    0    0 -0.16276791741E+02  0.26129891947E+01 -0.10068917926E+02  0.19316955508E+02  0.00000000000E+00 0.  1.
</event>
<event>
 7    1  0.6953847E-012  0.5930193E+02  0.7816164E-02  0.1266605E+00
        -11   -1    0    0    0    0  0.00000000000E+00  0.00000000000E+00  0.45593999997E+02  0.45594000000E+02  0.51100000000E-03 0.  1.
         11   -1    0    0    0    0 -0.00000000000E+00 -0.00000000000E+00 -0.45593999997E+02  0.45594000000E+02  0.51100000000E-03 0. -1.
    9900012    2    1    2    0    0  0.21724820535E+01  0.23266158380E+02 -0.21695343865E+02  0.59301925462E+02  0.49999966141E+02 0.  0.
        -12    1    1    2    0    0 -0.21724820535E+01 -0.23266158380E+02  0.21695343865E+02  0.31886074538E+02  0.00000000000E+00 0.  1.
         11    1    3    3    0    0  0.31945336325E+01  0.83754635198E+01 -0.91895500512E+01  0.12837494487E+02  0.51100000000E-03 0. -1.
        -11    1    3    3    0    0 -0.13412792763E+02  0.11505866364E+02 -0.23606068790E+02  0.29487869616E+02  0.51100000000E-03 0.  1.
         12    1    3    3    0    0  0.12390741184E+02  0.33848284958E+01  0.11100274976E+02  0.16976561359E+02  0.00000000000E+00 0. -1.
</event>
<event>
 7    1  0.6953847E-012  0.5930195E+02  0.7816164E-02  0.1266605E+00
        -11   -1    0    0    0    0  0.00000000000E+00  0.00000000000E+00  0.45593999997E+02  0.45594000000E+02  0.51100000000E-03 0.  1.
         11   -1    0    0    0    0 -0.00000000000E+00 -0.00000000000E+00 -0.45593999997E+02  0.45594000000E+02  0.51100000000E-03 0. -1.
    9900012    2    1    2    0    0 -0.19631173333E+02  0.22866002500E+02 -0.10415513500E+02  0.59301953550E+02  0.50000017367E+02 0.  0.
        -12    1    1    2    0    0  0.19631173333E+02 -0.22866002500E+02  0.10415513500E+02  0.31886046450E+02  0.00000000000E+00 0.  1.
         11    1    3    3    0    0 -0.75047041156E+01  0.54320381365E+00 -0.58771248787E+01  0.95475782975E+01  0.51100000000E-03 0. -1.
        -11    1    3    3    0    0 -0.52167165871E+01 -0.12746610713E+02 -0.20458820974E+01  0.13923930854E+02  0.51100000000E-03 0.  1.
        -12    1    3    3    0    0 -0.69097526298E+01  0.35069409399E+02 -0.24925065237E+01  0.35830444398E+02  0.00000000000E+00 0.  1.
</event>
<event>
 7    1  0.6953847E-012  0.5930197E+02  0.7816164E-02  0.1266605E+00
        -11   -1    0    0    0    0  0.00000000000E+00  0.00000000000E+00  0.45593999997E+02  0.45594000000E+02  0.51100000000E-03 0.  1.
         11   -1    0    0    0    0 -0.00000000000E+00 -0.00000000000E+00 -0.45593999997E+02  0.45594000000E+02  0.51100000000E-03 0. -1.
    9900012    2    1    2    0    0  0.88806683836E+01  0.29375569027E+02 -0.86561430354E+01  0.59301966398E+02  0.50000040799E+02 0.  0.
        -12    1    1    2    0    0 -0.88806683836E+01 -0.29375569027E+02  0.86561430354E+01  0.31886033602E+02  0.00000000000E+00 0.  1.
         11    1    3    3    0    0  0.11018092242E+02  0.18434003488E+02 -0.17550109072E+02  0.27734764645E+02  0.51100000000E-03 0. -1.
        -11    1    3    3    0    0  0.78836230203E+01  0.92744688172E+01 -0.59745643068E+01  0.13559598176E+02  0.51100000000E-03 0.  1.
        -12    1    3    3    0    0 -0.10021046879E+02  0.16670967221E+01  0.14868530343E+02  0.18007603577E+02  0.00000000000E+00 0.  1.
</event>
<event>
 7    1  0.6953847E-012  0.5930194E+02  0.7816164E-02  0.1266605E+00
        -11   -1    0    0    0    0  0.00000000000E+00  0.00000000000E+00  0.45593999997E+02  0.45594000000E+02  0.51100000000E-03 0.  1.
         11   -1    0    0    0    0 -0.00000000000E+00 -0.00000000000E+00 -0.45593999997E+02  0.45594000000E+02  0.51100000000E-03 0. -1.
    9900012    2    1    2    0    0 -0.27970207008E+02 -0.86343176017E+01 -0.12642657091E+02  0.59301941936E+02  0.49999996185E+02 0.  0.
        -12    1    1    2    0    0  0.27970207008E+02  0.86343176017E+01  0.12642657091E+02  0.31886058064E+02  0.00000000000E+00 0.  1.
         11    1    3    3    0    0 -0.46868749072E+01 -0.39763321397E+01 -0.42092573281E+01  0.74495544294E+01  0.51100000000E-03 0. -1.
        -11    1    3    3    0    0 -0.29753680905E+02  0.55713805399E-02 -0.21385294684E+02  0.36641675554E+02  0.51100000000E-03 0.  1.
        -12    1    3    3    0    0  0.64703488045E+01 -0.46635568425E+01  0.12951894920E+02  0.15210711952E+02  0.00000000000E+00 0.  1.
</event>
<event>
 7    1  0.6953847E-012  0.5930194E+02  0.7816164E-02  0.1266605E+00
        -11   -1    0    0    0    0  0.00000000000E+00  0.00000000000E+00  0.45593999997E+02  0.45594000000E+02  0.51100000000E-03 0. -1.
         11   -1    0    0    0    0 -0.00000000000E+00 -0.00000000000E+00 -0.45593999997E+02  0.45594000000E+02  0.51100000000E-03 0.  1.
    9900012    2    1    2    0    0  0.22354374229E+02 -0.22448842956E+02 -0.36127617239E+01  0.59301942788E+02  0.49999997740E+02 0.  0.
        -12    1    1    2    0    0 -0.22354374229E+02  0.22448842956E+02  0.36127617239E+01  0.31886057212E+02  0.00000000000E+00 0.  1.
         11    1    3    3    0    0  0.17129985187E+02 -0.32300796566E+01  0.16298879327E+01  0.17507893706E+02  0.51100000000E-03 0. -1.
        -11    1    3    3    0    0  0.10506936971E+02 -0.98871570943E+00 -0.16603609392E+02  0.19673665860E+02  0.51100000000E-03 0.  1.
        -12    1    3    3    0    0 -0.52825479293E+01 -0.18230047590E+02  0.11360959736E+02  0.22120383222E+02  0.00000000000E+00 0.  1.
</event>
<event>
 7    1  0.6953847E-012  0.5930194E+02  0.7816164E-02  0.1266605E+00
        -11   -1    0    0    0    0  0.00000000000E+00  0.00000000000E+00  0.45593999997E+02  0.45594000000E+02  0.51100000000E-03 0.  1.
         11   -1    0    0    0    0 -0.00000000000E+00 -0.00000000000E+00 -0.45593999997E+02  0.45594000000E+02  0.51100000000E-03 0. -1.
    9900012    2    1    2    0    0  0.20111445020E+02  0.72978711982E+01 -0.23643011187E+02  0.59301935288E+02  0.49999984061E+02 0.  0.
        -12    1    1    2    0    0 -0.20111445020E+02 -0.72978711982E+01  0.23643011187E+02  0.31886064712E+02  0.00000000000E+00 0.  1.
         11    1    3    3    0    0 -0.49314320632E+00  0.70193932268E+01 -0.81614937536E+01  0.10776133446E+02  0.51100000000E-03 0. -1.
        -11    1    3    3    0    0  0.32724532090E+02 -0.42901074905E+01 -0.10286402148E+02  0.34570364364E+02  0.51100000000E-03 0.  1.
         12    1    3    3    0    0 -0.12119943864E+02  0.45685854620E+01 -0.51951152851E+01  0.13955437479E+02  0.00000000000E+00 0. -1.
</event>
<event>
 7    1  0.6953847E-012  0.5930193E+02  0.7816164E-02  0.1266605E+00
        -11   -1    0    0    0    0  0.00000000000E+00  0.00000000000E+00  0.45593999997E+02  0.45594000000E+02  0.51100000000E-03 0. -1.
         11   -1    0    0    0    0 -0.00000000000E+00 -0.00000000000E+00 -0.45593999997E+02  0.45594000000E+02  0.51100000000E-03 0.  1.
    9900012    2    1    2    0    0  0.21140888523E+02 -0.23362411589E+02 -0.48971595719E+01  0.59301927575E+02  0.49999969994E+02 0.  0.
        -12    1    1    2    0    0 -0.21140888523E+02  0.23362411589E+02  0.48971595719E+01  0.31886072425E+02  0.00000000000E+00 0.  1.
         11    1    3    3    0    0  0.52006728636E+01  0.10237679844E+02  0.46161477226E+01  0.12376021448E+02  0.51100000000E-03 0. -1.
        -11    1    3    3    0    0  0.14314590914E+01  0.41902900278E+01 -0.41924183769E+01  0.60978666561E+01  0.51100000000E-03 0.  1.
        -12    1    3    3    0    0  0.14508756568E+02 -0.37790381461E+02 -0.53208889176E+01  0.40828039471E+02  0.00000000000E+00 0.  1.
</event>
<event>
 7    1  0.6953847E-012  0.5930192E+02  0.7816164E-02  0.1266605E+00
        -11   -1    0    0    0    0  0.00000000000E+00  0.00000000000E+00  0.45593999997E+02  0.45594000000E+02  0.51100000000E-03 0.  1.
         11   -1    0    0    0    0 -0.00000000000E+00 -0.00000000000E+00 -0.45593999997E+02  0.45594000000E+02  0.51100000000E-03 0. -1.
    9900012    2    1    2    0    0  0.18256727723E+02  0.14829402891E+02 -0.21529119880E+02  0.59301916828E+02  0.49999950394E+02 0.  0.
        -12    1    1    2    0    0 -0.18256727723E+02 -0.14829402891E+02  0.21529119880E+02  0.31886083172E+02  0.00000000000E+00 0.  1.
         11    1    3    3    0    0  0.17337000343E+02  0.10883018132E+02 -0.24814925159E+02  0.32168185765E+02  0.51100000000E-03 0. -1.
        -11    1    3    3    0    0 -0.68547460527E+01 -0.89437746397E+01 -0.14306939265E+01  0.11358940691E+02  0.51100000000E-03 0.  1.
         12    1    3    3    0    0  0.77744734337E+01  0.12890159399E+02  0.47164992057E+01  0.15774790371E+02  0.00000000000E+00 0. -1.
</event>
<event>
 7    1  0.6953847E-012  0.5930197E+02  0.7816164E-02  0.1266605E+00
        -11   -1    0    0    0    0  0.00000000000E+00  0.00000000000E+00  0.45593999997E+02  0.45594000000E+02  0.51100000000E-03 0.  1.
         11   -1    0    0    0    0 -0.00000000000E+00 -0.00000000000E+00 -0.45593999997E+02  0.45594000000E+02  0.51100000000E-03 0. -1.
    9900012    2    1    2    0    0  0.22067103573E+02 -0.21986860568E+02  0.68073150351E+01  0.59301974288E+02  0.50000055187E+02 0.  0.
        -12    1    1    2    0    0 -0.22067103573E+02  0.21986860568E+02 -0.68073150351E+01  0.31886025712E+02  0.00000000000E+00 0.  1.
         11    1    3    3    0    0  0.15151923666E+02 -0.64148468221E+01  0.63854046369E+01  0.17649488468E+02  0.51100000000E-03 0. -1.
        -11    1    3    3    0    0  0.87961878682E+01 -0.25278256113E+02  0.93299416668E+01  0.28344505021E+02  0.51100000000E-03 0.  1.
        -12    1    3    3    0    0 -0.18810079618E+01  0.97062423675E+01 -0.89080312687E+01  0.13307980798E+02  0.00000000000E+00 0.  1.
</event>
<event>
 7    1  0.6953847E-012  0.5930168E+02  0.7816164E-02  0.1266606E+00
        -11   -1    0    0    0    0  0.00000000000E+00  0.00000000000E+00  0.45593999997E+02  0.45594000000E+02  0.51100000000E-03 0.  1.
         11   -1    0    0    0    0 -0.00000000000E+00 -0.00000000000E+00 -0.45593999997E+02  0.45594000000E+02  0.51100000000E-03 0. -1.
    9900012    2    1    2    0    0  0.18831547442E+02  0.22418978595E+02 -0.12629321920E+02  0.59301677658E+02  0.49999514204E+02 0.  0.
        -12    1    1    2    0    0 -0.18831547442E+02 -0.22418978595E+02  0.12629321920E+02  0.31886322342E+02  0.00000000000E+00 0.  1.
         11    1    3    3    0    0  0.27142459565E+01 -0.70453968123E+01 -0.13395102666E+02  0.15376394996E+02  0.51100000000E-03 0. -1.
        -11    1    3    3    0    0 -0.21621654387E+01 -0.46980530945E+01  0.20455372854E+00  0.51757612727E+01  0.51100000000E-03 0.  1.
        -12    1    3    3    0    0  0.18279466925E+02  0.34162428502E+02  0.56122701736E+00  0.38749521390E+02  0.00000000000E+00 0.  1.
</event>
<event>
 7    1  0.6953847E-012  0.5930200E+02  0.7816164E-02  0.1266605E+00
        -11   -1    0    0    0    0  0.00000000000E+00  0.00000000000E+00  0.45593999997E+02  0.45594000000E+02  0.51100000000E-03 0.  1.
         11   -1    0    0    0    0 -0.00000000000E+00 -0.00000000000E+00 -0.45593999997E+02  0.45594000000E+02  0.51100000000E-03 0. -1.
    9900012    2    1    2    0    0 -0.13862666587E+02  0.15513384033E+02 -0.24163573745E+02  0.59302001423E+02  0.50000104676E+02 0.  0.
        -12    1    1    2    0    0  0.13862666587E+02 -0.15513384033E+02  0.24163573745E+02  0.31885998577E+02  0.00000000000E+00 0.  1.
         11    1    3    3    0    0 -0.86384528123E+01  0.86582138411E+01  0.11343821432E+02  0.16681421368E+02  0.51100000000E-03 0. -1.
        -11    1    3    3    0    0 -0.84031414629E+00  0.49906229330E+00  0.30990829755E+01  0.32495394423E+01  0.51100000000E-03 0.  1.
         12    1    3    3    0    0 -0.43838996289E+01  0.63561078991E+01 -0.38606478153E+02  0.39371040613E+02  0.00000000000E+00 0. -1.
</event>
<event>
 7    1  0.6953847E-012  0.5930199E+02  0.7816164E-02  0.1266605E+00
        -11   -1    0    0    0    0  0.00000000000E+00  0.00000000000E+00  0.45593999997E+02  0.45594000000E+02  0.51100000000E-03 0.  1.
         11   -1    0    0    0    0 -0.00000000000E+00 -0.00000000000E+00 -0.45593999997E+02  0.45594000000E+02  0.51100000000E-03 0. -1.
    9900012    2    1    2    0    0  0.23821957393E+02 -0.20786888630E+02 -0.41397206175E+01  0.59301989278E+02  0.50000082526E+02 0.  0.
        -12    1    1    2    0    0 -0.23821957393E+02  0.20786888630E+02  0.41397206175E+01  0.31886010722E+02  0.00000000000E+00 0.  1.
         11    1    3    3    0    0 -0.98401015075E+01 -0.85076987140E+01 -0.67572047791E-01  0.13008193623E+02  0.51100000000E-03 0. -1.
        -11    1    3    3    0    0  0.35905820961E+01 -0.33135786194E+01  0.10586242343E+02  0.11659357198E+02  0.51100000000E-03 0.  1.
        -12    1    3    3    0    0  0.30071476805E+02 -0.89656112963E+01 -0.14658390913E+02  0.34634438458E+02  0.00000000000E+00 0.  1.
</event>
<event>
 7    1  0.6953847E-012  0.5930197E+02  0.7816164E-02  0.1266605E+00
        -11   -1    0    0    0    0  0.00000000000E+00  0.00000000000E+00  0.45593999997E+02  0.45594000000E+02  0.51100000000E-03 0. -1.
         11   -1    0    0    0    0 -0.00000000000E+00 -0.00000000000E+00 -0.45593999997E+02  0.45594000000E+02  0.51100000000E-03 0.  1.
    9900012    2    1    2    0    0 -0.17045493641E+02  0.23679524682E+02  0.12862751176E+02  0.59301966844E+02  0.50000041611E+02 0.  0.
        -12    1    1    2    0    0  0.17045493641E+02 -0.23679524682E+02 -0.12862751176E+02  0.31886033156E+02  0.00000000000E+00 0.  1.
         11    1    3    3    0    0  0.62975528987E+01 -0.71359841149E+01  0.73746721255E+01  0.12040233844E+02  0.51100000000E-03 0. -1.
        -11    1    3    3    0    0  0.49569706349E+01  0.89917351511E+01  0.52310665818E+01  0.11523320561E+02  0.51100000000E-03 0.  1.
         12    1    3    3    0    0 -0.28300017174E+02  0.21823773646E+02  0.25701246820E+00  0.35738412439E+02  0.00000000000E+00 0. -1.
</event>
<event>
 7    1  0.6953847E-012  0.5930195E+02  0.7816164E-02  0.1266605E+00
        -11   -1    0    0    0    0  0.00000000000E+00  0.00000000000E+00  0.45593999997E+02  0.45594000000E+02  0.51100000000E-03 0. -1.
         11   -1    0    0    0    0 -0.00000000000E+00 -0.00000000000E+00 -0.45593999997E+02  0.45594000000E+02  0.51100000000E-03 0.  1.
    9900012    2    1    2    0    0  0.24316758595E+02  0.11288467723E+02 -0.17262264387E+02  0.59301952520E+02  0.50000015488E+02 0.  0.
        -12    1    1    2    0    0 -0.24316758595E+02 -0.11288467723E+02  0.17262264387E+02  0.31886047480E+02  0.00000000000E+00 0.  1.
         11    1    3    3    0    0  0.63252274331E+01  0.11868050883E+02  0.11760717372E+02  0.17865430507E+02  0.51100000000E-03 0. -1.
        -11    1    3    3    0    0 -0.46985475045E+01  0.15476709997E+01 -0.12034757282E+02  0.13011802998E+02  0.51100000000E-03 0.  1.
        -12    1    3    3    0    0  0.22690078666E+02 -0.21272541596E+01 -0.16988224478E+02  0.28424719014E+02  0.00000000000E+00 0.  1.
</event>
<event>
 7    1  0.6953847E-012  0.5930184E+02  0.7816164E-02  0.1266605E+00
        -11   -1    0    0    0    0  0.00000000000E+00  0.00000000000E+00  0.45593999997E+02  0.45594000000E+02  0.51100000000E-03 0.  1.
         11   -1    0    0    0    0 -0.00000000000E+00 -0.00000000000E+00 -0.45593999997E+02  0.45594000000E+02  0.51100000000E-03 0. -1.
    9900012    2    1    2    0    0 -0.15737097177E+02  0.26204124098E+02 -0.90782800330E+01  0.59301835043E+02  0.49999801238E+02 0.  0.
        -12    1    1    2    0    0  0.15737097177E+02 -0.26204124098E+02  0.90782800330E+01  0.31886164957E+02  0.00000000000E+00 0.  1.
         11    1    3    3    0    0 -0.20164054064E+02  0.82945201765E+01 -0.15174629887E+02  0.26564215286E+02  0.51100000000E-03 0. -1.
        -11    1    3    3    0    0 -0.90843483856E+01  0.70732489347E+00  0.59139732159E+01  0.10862816097E+02  0.51100000000E-03 0.  1.
         12    1    3    3    0    0  0.13511305273E+02  0.17202279028E+02  0.18237663798E+00  0.21874803661E+02  0.00000000000E+00 0. -1.
</event>
<event>
 7    1  0.6953847E-012  0.5930194E+02  0.7816164E-02  0.1266605E+00
        -11   -1    0    0    0    0  0.00000000000E+00  0.00000000000E+00  0.45593999997E+02  0.45594000000E+02  0.51100000000E-03 0. -1.
         11   -1    0    0    0    0 -0.00000000000E+00 -0.00000000000E+00 -0.45593999997E+02  0.45594000000E+02  0.51100000000E-03 0.  1.
    9900012    2    1    2    0    0  0.28994593635E+02 -0.70153692034E+00 -0.13249228505E+02  0.59301942387E+02  0.49999997008E+02 0.  0.
        -12    1    1    2    0    0 -0.28994593635E+02  0.70153692034E+00  0.13249228505E+02  0.31886057613E+02  0.00000000000E+00 0.  1.
         11    1    3    3    0    0  0.21746859001E+02  0.11054196297E+02 -0.49880749767E+01  0.24899839847E+02  0.51100000000E-03 0. -1.
        -11    1    3    3    0    0  0.13364115513E+02  0.31148562161E+00  0.60810899341E+01  0.14685920529E+02  0.51100000000E-03 0.  1.
        -12    1    3    3    0    0 -0.61163808788E+01 -0.12067218839E+02 -0.14342243462E+02  0.19716182011E+02  0.00000000000E+00 0.  1.
</event>
<event>
 7    1  0.6953847E-012  0.5930196E+02  0.7816164E-02  0.1266605E+00
        -11   -1    0    0    0    0  0.00000000000E+00  0.00000000000E+00  0.45593999997E+02  0.45594000000E+02  0.51100000000E-03 0. -1.
         11   -1    0    0    0    0 -0.00000000000E+00 -0.00000000000E+00 -0.45593999997E+02  0.45594000000E+02  0.51100000000E-03 0.  1.
    9900012    2    1    2    0    0 -0.19352838065E+01  0.30835536807E+02  0.78831562916E+01  0.59301955926E+02  0.50000021699E+02 0.  0.
        -12    1    1    2    0    0  0.19352838065E+01 -0.30835536807E+02 -0.78831562916E+01  0.31886044074E+02  0.00000000000E+00 0.  1.
         11    1    3    3    0    0 -0.12791659304E+02  0.97563151741E+01  0.27770760041E+01  0.16325574566E+02  0.51100000000E-03 0. -1.
        -11    1    3    3    0    0 -0.11950356855E+02  0.22333111463E+01 -0.25374625346E+01  0.12419236048E+02  0.51100000000E-03 0.  1.
         12    1    3    3    0    0  0.22806732353E+02  0.18845910487E+02  0.76435428221E+01  0.30557145311E+02  0.00000000000E+00 0. -1.
</event>
<event>
 7    1  0.6953847E-012  0.5930190E+02  0.7816164E-02  0.1266605E+00
        -11   -1    0    0    0    0  0.00000000000E+00  0.00000000000E+00  0.45593999997E+02  0.45594000000E+02  0.51100000000E-03 0. -1.
         11   -1    0    0    0    0 -0.00000000000E+00 -0.00000000000E+00 -0.45593999997E+02  0.45594000000E+02  0.51100000000E-03 0.  1.
    9900012    2    1    2    0    0 -0.20152629864E+02  0.52987306844E+01  0.24135415905E+02  0.59301900549E+02  0.49999920705E+02 0.  0.
        -12    1    1    2    0    0  0.20152629864E+02 -0.52987306844E+01 -0.24135415905E+02  0.31886099451E+02  0.00000000000E+00 0.  1.
         11    1    3    3    0    0  0.57539187770E+01  0.10748326106E+02 -0.80450829158E+00  0.12218073875E+02  0.51100000000E-03 0. -1.
        -11    1    3    3    0    0 -0.19756693619E+02  0.74636020050E+01  0.36454206939E+01  0.21431784572E+02  0.51100000000E-03 0.  1.
        -12    1    3    3    0    0 -0.61498550221E+01 -0.12913197426E+02  0.21294503503E+02  0.25652042102E+02  0.00000000000E+00 0.  1.
</event>
<event>
 7    1  0.6953847E-012  0.5930195E+02  0.7816164E-02  0.1266605E+00
        -11   -1    0    0    0    0  0.00000000000E+00  0.00000000000E+00  0.45593999997E+02  0.45594000000E+02  0.51100000000E-03 0.  1.
         11   -1    0    0    0    0 -0.00000000000E+00 -0.00000000000E+00 -0.45593999997E+02  0.45594000000E+02  0.51100000000E-03 0. -1.
    9900012    2    1    2    0    0  0.25835074942E+02  0.27203253679E+01  0.18489705579E+02  0.59301945371E+02  0.50000002450E+02 0.  0.
        -12    1    1    2    0    0 -0.25835074942E+02 -0.27203253679E+01 -0.18489705579E+02  0.31886054629E+02  0.00000000000E+00 0.  1.
         11    1    3    3    0    0 -0.63425525514E+01 -0.65734927758E+01  0.40486891462E+01  0.99915296228E+01  0.51100000000E-03 0. -1.
        -11    1    3    3    0    0  0.21190420097E+01  0.79847616273E+01  0.17216158713E+02  0.19095624587E+02  0.51100000000E-03 0.  1.
        -12    1    3    3    0    0  0.30058585484E+02  0.13090565164E+01 -0.27751422795E+01  0.30214791162E+02  0.00000000000E+00 0.  1.
</event>
<event>
 7    1  0.6953847E-012  0.5930196E+02  0.7816164E-02  0.1266605E+00
        -11   -1    0    0    0    0  0.00000000000E+00  0.00000000000E+00  0.45593999997E+02  0.45594000000E+02  0.51100000000E-03 0.  1.
         11   -1    0    0    0    0 -0.00000000000E+00 -0.00000000000E+00 -0.45593999997E+02  0.45594000000E+02  0.51100000000E-03 0. -1.
    9900012    2    1    2    0    0 -0.31920622884E+00 -0.13722333978E+02 -0.28780466962E+02  0.59301958838E+02  0.50000027011E+02 0.  0.
        -12    1    1    2    0    0  0.31920622884E+00  0.13722333978E+02  0.28780466962E+02  0.31886041162E+02  0.00000000000E+00 0.  1.
         11    1    3    3    0    0 -0.59591854468E+01 -0.10355773102E+02 -0.28946389158E+02  0.31315289768E+02  0.51100000000E-03 0. -1.
        -11    1    3    3    0    0 -0.10719248808E+02 -0.42383784771E+01 -0.95282568150E+00  0.11566072115E+02  0.51100000000E-03 0.  1.
        -12    1    3    3    0    0  0.16359228026E+02  0.87181760111E+00  0.11187478774E+01  0.16420596955E+02  0.00000000000E+00 0.  1.
</event>
<event>
 7    1  0.6953847E-012  0.5930199E+02  0.7816164E-02  0.1266605E+00
        -11   -1    0    0    0    0  0.00000000000E+00  0.00000000000E+00  0.45593999997E+02  0.45594000000E+02  0.51100000000E-03 0.  1.
         11   -1    0    0    0    0 -0.00000000000E+00 -0.00000000000E+00 -0.45593999997E+02  0.45594000000E+02  0.51100000000E-03 0. -1.
    9900012    2    1    2    0    0 -0.21321507168E+02  0.21143781201E+02 -0.10726219593E+02  0.59301985226E+02  0.50000075137E+02 0.  0.
        -12    1    1    2    0    0  0.21321507168E+02 -0.21143781201E+02  0.10726219593E+02  0.31886014774E+02  0.00000000000E+00 0.  1.
         11    1    3    3    0    0 -0.58951174110E+01  0.19997807115E+02  0.62444088836E+01  0.21763670216E+02  0.51100000000E-03 0. -1.
        -11    1    3    3    0    0  0.38241809183E+01  0.98311851038E+01 -0.11736137714E+02  0.15780161246E+02  0.51100000000E-03 0.  1.
         12    1    3    3    0    0 -0.19250570675E+02 -0.86852110174E+01 -0.52344907626E+01  0.21758153765E+02  0.00000000000E+00 0. -1.
</event>
<event>
 7    1  0.6953847E-012  0.5930166E+02  0.7816164E-02  0.1266606E+00
        -11   -1    0    0    0    0  0.00000000000E+00  0.00000000000E+00  0.45593999997E+02  0.45594000000E+02  0.51100000000E-03 0.  1.
         11   -1    0    0    0    0 -0.00000000000E+00 -0.00000000000E+00 -0.45593999997E+02  0.45594000000E+02  0.51100000000E-03 0. -1.
    9900012    2    1    2    0    0  0.24610246776E+02 -0.86765103596E+01 -0.18324652623E+02  0.59301655397E+02  0.49999473605E+02 0.  0.
        -12    1    1    2    0    0 -0.24610246776E+02  0.86765103596E+01  0.18324652623E+02  0.31886344603E+02  0.00000000000E+00 0.  1.
         11    1    3    3    0    0  0.17988417712E+02 -0.55366808926E+01  0.78551745550E+01  0.20394650638E+02  0.51100000000E-03 0. -1.
        -11    1    3    3    0    0 -0.89205058106E+01 -0.82930944641E+01 -0.87842232489E+01  0.15017104183E+02  0.51100000000E-03 0.  1.
         12    1    3    3    0    0  0.15542334874E+02  0.51532649971E+01 -0.17395603929E+02  0.23889900576E+02  0.00000000000E+00 0. -1.
</event>
<event>
 7    1  0.6953847E-012  0.5930190E+02  0.7816164E-02  0.1266605E+00
        -11   -1    0    0    0    0  0.00000000000E+00  0.00000000000E+00  0.45593999997E+02  0.45594000000E+02  0.51100000000E-03 0.  1.
         11   -1    0    0    0    0 -0.00000000000E+00 -0.00000000000E+00 -0.45593999997E+02  0.45594000000E+02  0.51100000000E-03 0. -1.
    9900012    2    1    2    0    0 -0.45772025479E+01 -0.31440303408E+02 -0.26980838219E+01  0.59301904004E+02  0.49999927006E+02 0.  0.
        -12    1    1    2    0    0  0.45772025479E+01  0.31440303408E+02  0.26980838219E+01  0.31886095996E+02  0.00000000000E+00 0.  1.
         11    1    3    3    0    0  0.17009199581E+00 -0.27554516160E+01  0.81921114144E+01  0.86447749874E+01  0.51100000000E-03 0. -1.
        -11    1    3    3    0    0  0.92629983441E+01 -0.32186712116E+02 -0.13260465701E+02  0.36022597435E+02  0.51100000000E-03 0.  1.
         12    1    3    3    0    0 -0.14010292888E+02  0.35018603237E+01  0.23702704644E+01  0.14634531581E+02  0.00000000000E+00 0. -1.
</event>
<event>
 7    1  0.6953847E-012  0.5930196E+02  0.7816164E-02  0.1266605E+00
        -11   -1    0    0    0    0  0.00000000000E+00  0.00000000000E+00  0.45593999997E+02  0.45594000000E+02  0.51100000000E-03 0.  1.
         11   -1    0    0    0    0 -0.00000000000E+00 -0.00000000000E+00 -0.45593999997E+02  0.45594000000E+02  0.51100000000E-03 0. -1.
    9900012    2    1    2    0    0  0.16048028053E+02  0.26360817236E+02  0.80179760815E+01  0.59301955557E+02  0.50000021027E+02 0.  0.
        -12    1    1    2    0    0 -0.16048028053E+02 -0.26360817236E+02 -0.80179760815E+01  0.31886044443E+02  0.00000000000E+00 0.  1.
         11    1    3    3    0    0 -0.23162231044E+01  0.90968844848E+01 -0.11179663791E+01  0.94534674001E+01  0.51100000000E-03 0. -1.
        -11    1    3    3    0    0  0.12899458779E-01  0.18383220125E+02  0.21044669935E+02  0.27943175938E+02  0.51100000000E-03 0.  1.
         12    1    3    3    0    0  0.18351351698E+02 -0.11192873734E+01 -0.11908727474E+02  0.21905312220E+02  0.00000000000E+00 0. -1.
</event>
<event>
 7    1  0.6953847E-012  0.5930194E+02  0.7816164E-02  0.1266605E+00
        -11   -1    0    0    0    0  0.00000000000E+00  0.00000000000E+00  0.45593999997E+02  0.45594000000E+02  0.51100000000E-03 0.  1.
         11   -1    0    0    0    0 -0.00000000000E+00 -0.00000000000E+00 -0.45593999997E+02  0.45594000000E+02  0.51100000000E-03 0. -1.
    9900012    2    1    2    0    0 -0.28845825490E+01 -0.27347990360E+02  0.16139620717E+02  0.59301941133E+02  0.49999994720E+02 0.  0.
        -12    1    1    2    0    0  0.28845825490E+01  0.27347990360E+02 -0.16139620717E+02  0.31886058867E+02  0.00000000000E+00 0.  1.
         11    1    3    3    0    0 -0.96323555025E+01 -0.12994827934E+02  0.24675699054E+01  0.16362662590E+02  0.51100000000E-03 0. -1.
        -11    1    3    3    0    0 -0.10379617061E+01 -0.23311265361E+02  0.18843549917E+02  0.29992863001E+02  0.51100000000E-03 0.  1.
        -12    1    3    3    0    0  0.77857346596E+01  0.89581029351E+01 -0.51714991046E+01  0.12946415542E+02  0.00000000000E+00 0.  1.
</event>
<event>
 7    1  0.6953847E-012  0.5930194E+02  0.7816164E-02  0.1266605E+00
        -11   -1    0    0    0    0  0.00000000000E+00  0.00000000000E+00  0.45593999997E+02  0.45594000000E+02  0.51100000000E-03 0.  1.
         11   -1    0    0    0    0 -0.00000000000E+00 -0.00000000000E+00 -0.45593999997E+02  0.45594000000E+02  0.51100000000E-03 0. -1.
    9900012    2    1    2    0    0  0.31726785435E+02 -0.78916670784E+00 -0.30836915394E+01  0.59301939540E+02  0.49999991815E+02 0.  0.
        -12    1    1    2    0    0 -0.31726785435E+02  0.78916670784E+00  0.30836915394E+01  0.31886060460E+02  0.00000000000E+00 0.  1.
         11    1    3    3    0    0 -0.20657299196E+01  0.10102054505E+02 -0.11107268323E+02  0.15155532165E+02  0.51100000000E-03 0. -1.
        -11    1    3    3    0    0  0.18618369849E+02  0.63948928832E+01 -0.29157657559E+00  0.19688152986E+02  0.51100000000E-03 0.  1.
        -12    1    3    3    0    0  0.15174145506E+02 -0.17286114096E+02  0.83151533594E+01  0.24458254390E+02  0.00000000000E+00 0.  1.
</event>
<event>
 7    1  0.8505479E-012  0.5930196E+02  0.7816164E-02  0.1266605E+00
        -11   -1    0    0    0    0  0.00000000000E+00  0.00000000000E+00  0.45593999997E+02  0.45594000000E+02  0.51100000000E-03 0. -1.
         11   -1    0    0    0    0 -0.00000000000E+00 -0.00000000000E+00 -0.45593999997E+02  0.45594000000E+02  0.51100000000E-03 0.  1.
    9900012    2    1    2    0    0  0.12745819723E+02 -0.27943281304E+01  0.29093903488E+02  0.59301962142E+02  0.50000033036E+02 0.  0.
        -12    1    1    2    0    0 -0.12745819723E+02  0.27943281304E+01 -0.29093903488E+02  0.31886037858E+02  0.00000000000E+00 0.  1.
         11    1    3    3    0    0  0.19839152364E+02 -0.74433395927E+01  0.15271275484E+02  0.26119095046E+02  0.51100000000E-03 0. -1.
        -11    1    3    3    0    0  0.26228617349E+00 -0.13169617327E+01 -0.86722213957E+01  0.87755687245E+01  0.51100000000E-03 0.  1.
        -12    1    3    3    0    0 -0.73556188145E+01  0.59659731950E+01  0.22494849399E+02  0.24407298372E+02  0.00000000000E+00 0.  1.
</event>
<event>
 7    1  0.6953847E-012  0.5930197E+02  0.7816164E-02  0.1266605E+00
        -11   -1    0    0    0    0  0.00000000000E+00  0.00000000000E+00  0.45593999997E+02  0.45594000000E+02  0.51100000000E-03 0.  1.
         11   -1    0    0    0    0 -0.00000000000E+00 -0.00000000000E+00 -0.45593999997E+02  0.45594000000E+02  0.51100000000E-03 0. -1.
    9900012    2    1    2    0    0 -0.10957548011E+01 -0.70687163267E+00 -0.31859357365E+02  0.59301968611E+02  0.50000044833E+02 0.  0.
        -12    1    1    2    0    0  0.10957548011E+01  0.70687163267E+00  0.31859357365E+02  0.31886031389E+02  0.00000000000E+00 0.  1.
         11    1    3    3    0    0  0.25000195241E+01  0.47637522577E+01  0.55905678928E+01  0.77587294591E+01  0.51100000000E-03 0. -1.
        -11    1    3    3    0    0  0.15692740299E+02 -0.26417245085E+01 -0.16344002336E+02  0.22811558893E+02  0.51100000000E-03 0.  1.
        -12    1    3    3    0    0 -0.19288514625E+02 -0.28288993819E+01 -0.21105922921E+02  0.28731680259E+02  0.00000000000E+00 0.  1.
</event>
<event>
 7    1  0.6953847E-012  0.5930205E+02  0.7816164E-02  0.1266604E+00
        -11   -1    0    0    0    0  0.00000000000E+00  0.00000000000E+00  0.45593999997E+02  0.45594000000E+02  0.51100000000E-03 0. -1.
         11   -1    0    0    0    0 -0.00000000000E+00 -0.00000000000E+00 -0.45593999997E+02  0.45594000000E+02  0.51100000000E-03 0.  1.
    9900012    2    1    2    0    0 -0.16348058109E+02 -0.24299181732E+02  0.12609690048E+02  0.59302054509E+02  0.50000201491E+02 0.  0.
        -12    1    1    2    0    0  0.16348058109E+02  0.24299181732E+02 -0.12609690048E+02  0.31885945491E+02  0.00000000000E+00 0.  1.
         11    1    3    3    0    0 -0.18240776045E+02 -0.18200058845E+02  0.12421940847E+02  0.28605465691E+02  0.51100000000E-03 0. -1.
        -11    1    3    3    0    0 -0.12280345359E+02 -0.99288352544E+01  0.19411192715E+01  0.15910895510E+02  0.51100000000E-03 0.  1.
         12    1    3    3    0    0  0.14173063296E+02  0.38297123677E+01 -0.17533700704E+01  0.14785693308E+02  0.00000000000E+00 0. -1.
</event>
<event>
 7    1  0.6953847E-012  0.5930195E+02  0.7816164E-02  0.1266605E+00
        -11   -1    0    0    0    0  0.00000000000E+00  0.00000000000E+00  0.45593999997E+02  0.45594000000E+02  0.51100000000E-03 0. -1.
         11   -1    0    0    0    0 -0.00000000000E+00 -0.00000000000E+00 -0.45593999997E+02  0.45594000000E+02  0.51100000000E-03 0.  1.
    9900012    2    1    2    0    0  0.18103846817E+02  0.55415868098E+01  0.25656617308E+02  0.59301945594E+02  0.50000002856E+02 0.  0.
        -12    1    1    2    0    0 -0.18103846817E+02 -0.55415868098E+01 -0.25656617308E+02  0.31886054406E+02  0.00000000000E+00 0.  1.
         11    1    3    3    0    0  0.47275407020E+01  0.90643631933E+01  0.12114332402E+01  0.10294653561E+02  0.51100000000E-03 0. -1.
        -11    1    3    3    0    0  0.43157739979E+01 -0.12825847165E+02 -0.68189258300E+01  0.15153415801E+02  0.51100000000E-03 0.  1.
         12    1    3    3    0    0  0.90605321168E+01  0.93030707818E+01  0.31264109897E+02  0.33853876231E+02  0.00000000000E+00 0. -1.
</event>
<event>
 7    1  0.6953847E-012  0.5930189E+02  0.7816164E-02  0.1266605E+00
        -11   -1    0    0    0    0  0.00000000000E+00  0.00000000000E+00  0.45593999997E+02  0.45594000000E+02  0.51100000000E-03 0.  1.
         11   -1    0    0    0    0 -0.00000000000E+00 -0.00000000000E+00 -0.45593999997E+02  0.45594000000E+02  0.51100000000E-03 0. -1.
    9900012    2    1    2    0    0  0.92271298844E+01  0.10201419678E+02 -0.28766564322E+02  0.59301888411E+02  0.49999898568E+02 0.  0.
        -12    1    1    2    0    0 -0.92271298844E+01 -0.10201419678E+02  0.28766564322E+02  0.31886111589E+02  0.00000000000E+00 0.  1.
         11    1    3    3    0    0  0.22884792230E+02  0.68192928100E+01 -0.12702856787E+01  0.23912969196E+02  0.51100000000E-03 0.  1.
        -11    1    3    3    0    0  0.25328525685E+01  0.81645367556E+00 -0.13721685537E+02  0.13977360015E+02  0.51100000000E-03 0. -1.
        -12    1    3    3    0    0 -0.16190514914E+02  0.25656731926E+01 -0.13774593106E+02  0.21411559199E+02  0.00000000000E+00 0.  1.
</event>
<event>
 7    1  0.6953847E-012  0.5930200E+02  0.7816164E-02  0.1266605E+00
        -11   -1    0    0    0    0  0.00000000000E+00  0.00000000000E+00  0.45593999997E+02  0.45594000000E+02  0.51100000000E-03 0.  1.
         11   -1    0    0    0    0 -0.00000000000E+00 -0.00000000000E+00 -0.45593999997E+02  0.45594000000E+02  0.51100000000E-03 0. -1.
    9900012    2    1    2    0    0 -0.11864184493E+02  0.29296474163E+02  0.42041314362E+01  0.59302000044E+02  0.50000102160E+02 0.  0.
        -12    1    1    2    0    0  0.11864184493E+02 -0.29296474163E+02 -0.42041314362E+01  0.31885999956E+02  0.00000000000E+00 0.  1.
         11    1    3    3    0    0 -0.38991159703E+01  0.16430316209E+02 -0.11378947888E+02  0.20362682814E+02  0.51100000000E-03 0. -1.
        -11    1    3    3    0    0 -0.12871990252E+02  0.21820784418E+02  0.95208518816E+01  0.27064393333E+02  0.51100000000E-03 0.  1.
         12    1    3    3    0    0  0.49069217297E+01 -0.89546264647E+01  0.60622274426E+01  0.11874923897E+02  0.00000000000E+00 0. -1.
</event>
<event>
 7    1  0.6953847E-012  0.5930193E+02  0.7816164E-02  0.1266605E+00
        -11   -1    0    0    0    0  0.00000000000E+00  0.00000000000E+00  0.45593999997E+02  0.45594000000E+02  0.51100000000E-03 0. -1.
         11   -1    0    0    0    0 -0.00000000000E+00 -0.00000000000E+00 -0.45593999997E+02  0.45594000000E+02  0.51100000000E-03 0.  1.
    9900012    2    1    2    0    0  0.25747752396E+02 -0.14919028429E+02  0.11454129234E+02  0.59301933463E+02  0.49999980732E+02 0.  0.
        -12    1    1    2    0    0 -0.25747752396E+02  0.14919028429E+02 -0.11454129234E+02  0.31886066537E+02  0.00000000000E+00 0.  1.
         11    1    3    3    0    0  0.20250109010E+02 -0.28971318522E+02  0.14862701005E+02  0.38344544504E+02  0.51100000000E-03 0. -1.
        -11    1    3    3    0    0  0.27094558674E+01 -0.36327988380E+00 -0.54850697812E+01  0.61285491054E+01  0.51100000000E-03 0.  1.
        -12    1    3    3    0    0  0.27881875191E+01  0.14415569977E+02  0.20764980109E+01  0.14828839853E+02  0.00000000000E+00 0.  1.
</event>
<event>
 7    1  0.6953847E-012  0.5930198E+02  0.7816164E-02  0.1266605E+00
        -11   -1    0    0    0    0  0.00000000000E+00  0.00000000000E+00  0.45593999997E+02  0.45594000000E+02  0.51100000000E-03 0.  1.
         11   -1    0    0    0    0 -0.00000000000E+00 -0.00000000000E+00 -0.45593999997E+02  0.45594000000E+02  0.51100000000E-03 0. -1.
    9900012    2    1    2    0    0 -0.56849801253E+01 -0.28561622913E+02 -0.12985866558E+02  0.59301983743E+02  0.50000072432E+02 0.  0.
        -12    1    1    2    0    0  0.56849801253E+01  0.28561622913E+02  0.12985866558E+02  0.31886016257E+02  0.00000000000E+00 0.  1.
         11    1    3    3    0    0  0.10739333509E+02 -0.70379559986E+01 -0.85483924108E+01  0.15425340253E+02  0.51100000000E-03 0. -1.
        -11    1    3    3    0    0 -0.15129832733E+02 -0.27147641467E+02 -0.12886546634E+02  0.33644752343E+02  0.51100000000E-03 0.  1.
         12    1    3    3    0    0 -0.12944809007E+01  0.56239745530E+01  0.84490724867E+01  0.10231891148E+02  0.00000000000E+00 0. -1.
</event>
<event>
 7    1  0.6953847E-012  0.5930182E+02  0.7816164E-02  0.1266605E+00
        -11   -1    0    0    0    0  0.00000000000E+00  0.00000000000E+00  0.45593999997E+02  0.45594000000E+02  0.51100000000E-03 0.  1.
         11   -1    0    0    0    0 -0.00000000000E+00 -0.00000000000E+00 -0.45593999997E+02  0.45594000000E+02  0.51100000000E-03 0. -1.
    9900012    2    1    2    0    0  0.30729552160E+02  0.38921632101E+01 -0.75679566368E+01  0.59301823088E+02  0.49999779435E+02 0.  0.
        -12    1    1    2    0    0 -0.30729552160E+02 -0.38921632101E+01  0.75679566368E+01  0.31886176912E+02  0.00000000000E+00 0.  1.
         11    1    3    3    0    0  0.12800016971E+01 -0.39147198806E+00 -0.97848619819E+01  0.98759900227E+01  0.51100000000E-03 0. -1.
        -11    1    3    3    0    0  0.18106553217E+02 -0.14054404598E+02  0.11857158006E+02  0.25806312295E+02  0.51100000000E-03 0.  1.
         12    1    3    3    0    0  0.11342997245E+02  0.18338039796E+02 -0.96402526609E+01  0.23619520771E+02  0.00000000000E+00 0. -1.
</event>
<event>
 7    1  0.6953847E-012  0.5930195E+02  0.7816164E-02  0.1266605E+00
        -11   -1    0    0    0    0  0.00000000000E+00  0.00000000000E+00  0.45593999997E+02  0.45594000000E+02  0.51100000000E-03 0. -1.
         11   -1    0    0    0    0 -0.00000000000E+00 -0.00000000000E+00 -0.45593999997E+02  0.45594000000E+02  0.51100000000E-03 0.  1.
    9900012    2    1    2    0    0  0.14812391473E+02 -0.27371914249E+02  0.69348061150E+01  0.59301950282E+02  0.50000011406E+02 0.  0.
        -12    1    1    2    0    0 -0.14812391473E+02  0.27371914249E+02 -0.69348061150E+01  0.31886049718E+02  0.00000000000E+00 0.  1.
         11    1    3    3    0    0  0.62186579991E+00  0.68471237676E+01 -0.74413510242E+01  0.10131314144E+02  0.51100000000E-03 0. -1.
        -11    1    3    3    0    0 -0.75611037606E-01  0.21032750438E+01 -0.51289804729E+01  0.55439989080E+01  0.51100000000E-03 0.  1.
         12    1    3    3    0    0  0.14266136711E+02 -0.36322313060E+02  0.19505137612E+02  0.43626637229E+02  0.00000000000E+00 0. -1.
</event>
<event>
 7    1  0.6953847E-012  0.5930200E+02  0.7816164E-02  0.1266605E+00
        -11   -1    0    0    0    0  0.00000000000E+00  0.00000000000E+00  0.45593999997E+02  0.45594000000E+02  0.51100000000E-03 0. -1.
         11   -1    0    0    0    0 -0.00000000000E+00 -0.00000000000E+00 -0.45593999997E+02  0.45594000000E+02  0.51100000000E-03 0.  1.
    9900012    2    1    2    0    0  0.22660841766E+02  0.41908061088E+01  0.22037249939E+02  0.59302000090E+02  0.50000102244E+02 0.  0.
        -12    1    1    2    0    0 -0.22660841766E+02 -0.41908061088E+01 -0.22037249939E+02  0.31885999910E+02  0.00000000000E+00 0.  1.
         11    1    3    3    0    0  0.40688585923E+01  0.20184932831E+02  0.70426793160E+01  0.21762041629E+02  0.51100000000E-03 0. -1.
        -11    1    3    3    0    0 -0.38911238712E+01 -0.35909241937E+01 -0.30924985913E+01  0.61318128921E+01  0.51100000000E-03 0.  1.
        -12    1    3    3    0    0  0.22483107045E+02 -0.12403202528E+02  0.18087069214E+02  0.31408145569E+02  0.00000000000E+00 0.  1.
</event>
<event>
 7    1  0.6953847E-012  0.5930196E+02  0.7816164E-02  0.1266605E+00
        -11   -1    0    0    0    0  0.00000000000E+00  0.00000000000E+00  0.45593999997E+02  0.45594000000E+02  0.51100000000E-03 0.  1.
         11   -1    0    0    0    0 -0.00000000000E+00 -0.00000000000E+00 -0.45593999997E+02  0.45594000000E+02  0.51100000000E-03 0. -1.
    9900012    2    1    2    0    0 -0.16308614456E+02  0.22439572596E+02 -0.15723047036E+02  0.59301960236E+02  0.50000029560E+02 0.  0.
        -12    1    1    2    0    0  0.16308614456E+02 -0.22439572596E+02  0.15723047036E+02  0.31886039764E+02  0.00000000000E+00 0.  1.
         11    1    3    3    0    0 -0.14519322524E+02  0.11683456543E+02  0.12260052458E+02  0.22307459960E+02  0.51100000000E-03 0. -1.
        -11    1    3    3    0    0  0.50293143653E+00 -0.66181113202E+01 -0.86055420358E+01  0.10867736262E+02  0.51100000000E-03 0.  1.
         12    1    3    3    0    0 -0.22922233685E+01  0.17374227373E+02 -0.19377557458E+02  0.26126764014E+02  0.00000000000E+00 0. -1.
</event>
<event>
 7    1  0.6953847E-012  0.5930193E+02  0.7816164E-02  0.1266605E+00
        -11   -1    0    0    0    0  0.00000000000E+00  0.00000000000E+00  0.45593999997E+02  0.45594000000E+02  0.51100000000E-03 0. -1.
         11   -1    0    0    0    0 -0.00000000000E+00 -0.00000000000E+00 -0.45593999997E+02  0.45594000000E+02  0.51100000000E-03 0.  1.
    9900012    2    1    2    0    0 -0.93831783513E+01 -0.30469733522E+02  0.52239944534E+00  0.59301927836E+02  0.49999970470E+02 0.  0.
        -12    1    1    2    0    0  0.93831783513E+01  0.30469733522E+02 -0.52239944534E+00  0.31886072164E+02  0.00000000000E+00 0.  1.
         11    1    3    3    0    0 -0.12717608263E+02  0.97580950940E+01 -0.68139794506E+01  0.17418045126E+02  0.51100000000E-03 0.  1.
        -11    1    3    3    0    0  0.30127935544E+01 -0.13794275224E+02  0.62089782835E+01  0.15424343277E+02  0.51100000000E-03 0. -1.
        -12    1    3    3    0    0  0.32163635715E+00 -0.26433553392E+02  0.11274006125E+01  0.26459539433E+02  0.00000000000E+00 0.  1.
</event>
<event>
 7    1  0.6953847E-012  0.5930192E+02  0.7816164E-02  0.1266605E+00
        -11   -1    0    0    0    0  0.00000000000E+00  0.00000000000E+00  0.45593999997E+02  0.45594000000E+02  0.51100000000E-03 0.  1.
         11   -1    0    0    0    0 -0.00000000000E+00 -0.00000000000E+00 -0.45593999997E+02  0.45594000000E+02  0.51100000000E-03 0. -1.
    9900012    2    1    2    0    0  0.17988714647E+02 -0.11123772069E+02 -0.23861891520E+02  0.59301921116E+02  0.49999958214E+02 0.  0.
        -12    1    1    2    0    0 -0.17988714647E+02  0.11123772069E+02  0.23861891520E+02  0.31886078884E+02  0.00000000000E+00 0.  1.
         11    1    3    3    0    0 -0.10350866392E+02 -0.24264156653E+01 -0.26565253405E+01  0.10958332683E+02  0.51100000000E-03 0. -1.
        -11    1    3    3    0    0  0.50773011163E+01 -0.17291714294E+02 -0.13003795073E+02  0.22223434847E+02  0.51100000000E-03 0.  1.
        -12    1    3    3    0    0  0.23262279922E+02  0.85943578905E+01 -0.82015711065E+01  0.26120153586E+02  0.00000000000E+00 0.  1.
</event>
<event>
 7    1  0.6953847E-012  0.5930195E+02  0.7816164E-02  0.1266605E+00
        -11   -1    0    0    0    0  0.00000000000E+00  0.00000000000E+00  0.45593999997E+02  0.45594000000E+02  0.51100000000E-03 0.  1.
         11   -1    0    0    0    0 -0.00000000000E+00 -0.00000000000E+00 -0.45593999997E+02  0.45594000000E+02  0.51100000000E-03 0. -1.
    9900012    2    1    2    0    0  0.16047671804E+02  0.27440924079E+02  0.24875521346E+01  0.59301952891E+02  0.50000016165E+02 0.  0.
        -12    1    1    2    0    0 -0.16047671804E+02 -0.27440924079E+02 -0.24875521346E+01  0.31886047109E+02  0.00000000000E+00 0.  1.
         11    1    3    3    0    0  0.21073298783E+02  0.10445523395E+02 -0.59887659213E+01  0.24270521175E+02  0.51100000000E-03 0.  1.
        -11    1    3    3    0    0 -0.46692249701E+01  0.21701272926E+02 -0.32094097155E+01  0.22428714172E+02  0.51100000000E-03 0. -1.
         12    1    3    3    0    0 -0.35640200876E+00 -0.47058722423E+01  0.11685727771E+02  0.12602717544E+02  0.00000000000E+00 0. -1.
</event>
<event>
 7    1  0.6953847E-012  0.5930195E+02  0.7816164E-02  0.1266605E+00
        -11   -1    0    0    0    0  0.00000000000E+00  0.00000000000E+00  0.45593999997E+02  0.45594000000E+02  0.51100000000E-03 0.  1.
         11   -1    0    0    0    0 -0.00000000000E+00 -0.00000000000E+00 -0.45593999997E+02  0.45594000000E+02  0.51100000000E-03 0. -1.
    9900012    2    1    2    0    0 -0.10014470604E+02 -0.18259073853E+02 -0.24146154535E+02  0.59301950100E+02  0.50000011074E+02 0.  0.
        -12    1    1    2    0    0  0.10014470604E+02  0.18259073853E+02  0.24146154535E+02  0.31886049900E+02  0.00000000000E+00 0.  1.
         11    1    3    3    0    0 -0.12557805543E+02 -0.21562217967E+02 -0.10765003263E+02  0.27175596023E+02  0.51100000000E-03 0. -1.
        -11    1    3    3    0    0 -0.12861042147E+02 -0.16143732398E+01 -0.70991720204E+01  0.14778729638E+02  0.51100000000E-03 0.  1.
         12    1    3    3    0    0  0.15404377086E+02  0.49175173541E+01 -0.62819792511E+01  0.17347624438E+02  0.00000000000E+00 0. -1.
</event>
<event>
 7    1  0.6953847E-012  0.5930198E+02  0.7816164E-02  0.1266605E+00
        -11   -1    0    0    0    0  0.00000000000E+00  0.00000000000E+00  0.45593999997E+02  0.45594000000E+02  0.51100000000E-03 0. -1.
         11   -1    0    0    0    0 -0.00000000000E+00 -0.00000000000E+00 -0.45593999997E+02  0.45594000000E+02  0.51100000000E-03 0.  1.
    9900012    2    1    2    0    0 -0.25227555126E+02  0.17359657111E+02  0.88843162979E+01  0.59301979415E+02  0.50000064539E+02 0.  0.
        -12    1    1    2    0    0  0.25227555126E+02 -0.17359657111E+02 -0.88843162979E+01  0.31886020585E+02  0.00000000000E+00 0.  1.
         11    1    3    3    0    0 -0.20075388871E+02  0.18404631633E+01  0.60654113610E+01  0.21052262544E+02  0.51100000000E-03 0. -1.
        -11    1    3    3    0    0 -0.16270392401E+02  0.56470474368E+01  0.11801921737E+02  0.20878222400E+02  0.51100000000E-03 0.  1.
        -12    1    3    3    0    0  0.11118226146E+02  0.98721465111E+01 -0.89830167999E+01  0.17371494472E+02  0.00000000000E+00 0.  1.
</event>
<event>
 7    1  0.6953847E-012  0.5930194E+02  0.7816164E-02  0.1266605E+00
        -11   -1    0    0    0    0  0.00000000000E+00  0.00000000000E+00  0.45593999997E+02  0.45594000000E+02  0.51100000000E-03 0. -1.
         11   -1    0    0    0    0 -0.00000000000E+00 -0.00000000000E+00 -0.45593999997E+02  0.45594000000E+02  0.51100000000E-03 0.  1.
    9900012    2    1    2    0    0 -0.14465408379E+02  0.82631564349E+01  0.27188099000E+02  0.59301944724E+02  0.50000001270E+02 0.  0.
        -12    1    1    2    0    0  0.14465408379E+02 -0.82631564349E+01 -0.27188099000E+02  0.31886055276E+02  0.00000000000E+00 0.  1.
         11    1    3    3    0    0 -0.19440785720E+02 -0.23788173210E+01  0.14213328399E+01  0.19637288727E+02  0.51100000000E-03 0. -1.
        -11    1    3    3    0    0 -0.63470385283E+01  0.14338011327E+02  0.22298379894E+02  0.27259516009E+02  0.51100000000E-03 0.  1.
        -12    1    3    3    0    0  0.11322415869E+02 -0.36960375709E+01  0.34683862654E+01  0.12405139988E+02  0.00000000000E+00 0.  1.
</event>
<event>
 7    1  0.6953847E-012  0.5930195E+02  0.7816164E-02  0.1266605E+00
        -11   -1    0    0    0    0  0.00000000000E+00  0.00000000000E+00  0.45593999997E+02  0.45594000000E+02  0.51100000000E-03 0. -1.
         11   -1    0    0    0    0 -0.00000000000E+00 -0.00000000000E+00 -0.45593999997E+02  0.45594000000E+02  0.51100000000E-03 0.  1.
    9900012    2    1    2    0    0  0.28289324613E+02  0.12351665548E+02 -0.79919025189E+01  0.59301952350E+02  0.50000015178E+02 0.  0.
        -12    1    1    2    0    0 -0.28289324613E+02 -0.12351665548E+02  0.79919025189E+01  0.31886047650E+02  0.00000000000E+00 0.  1.
         11    1    3    3    0    0  0.22586933016E+02  0.42156848269E+01  0.22757856847E+01  0.23089407580E+02  0.51100000000E-03 0. -1.
        -11    1    3    3    0    0  0.12919845198E+02 -0.92250880082E+01 -0.56654653212E+01  0.16855923180E+02  0.51100000000E-03 0.  1.
        -12    1    3    3    0    0 -0.72174536016E+01  0.17361068729E+02 -0.46022228824E+01  0.19356621590E+02  0.00000000000E+00 0.  1.
</event>
<event>
 7    1  0.6953847E-012  0.5930194E+02  0.7816164E-02  0.1266605E+00
        -11   -1    0    0    0    0  0.00000000000E+00  0.00000000000E+00  0.45593999997E+02  0.45594000000E+02  0.51100000000E-03 0. -1.
         11   -1    0    0    0    0 -0.00000000000E+00 -0.00000000000E+00 -0.45593999997E+02  0.45594000000E+02  0.51100000000E-03 0.  1.
    9900012    2    1    2    0    0  0.30954885493E+01  0.82875958618E+01  0.30634205794E+02  0.59301939422E+02  0.49999991600E+02 0.  0.
        -12    1    1    2    0    0 -0.30954885493E+01 -0.82875958618E+01 -0.30634205794E+02  0.31886060578E+02  0.00000000000E+00 0.  1.
         11    1    3    3    0    0  0.25464898394E+01 -0.95718688620E+01 -0.58972218487E+01  0.11527467623E+02  0.51100000000E-03 0. -1.
        -11    1    3    3    0    0 -0.33236019692E+01 -0.33327890042E+01  0.20198911986E+02  0.20740054443E+02  0.51100000000E-03 0.  1.
        -12    1    3    3    0    0  0.38726006791E+01  0.21192253728E+02  0.16332515657E+02  0.27034417356E+02  0.00000000000E+00 0.  1.
</event>
<event>
 7    1  0.6953847E-012  0.5930189E+02  0.7816164E-02  0.1266605E+00
        -11   -1    0    0    0    0  0.00000000000E+00  0.00000000000E+00  0.45593999997E+02  0.45594000000E+02  0.51100000000E-03 0. -1.
         11   -1    0    0    0    0 -0.00000000000E+00 -0.00000000000E+00 -0.45593999997E+02  0.45594000000E+02  0.51100000000E-03 0.  1.
    9900012    2    1    2    0    0 -0.17384739358E+02 -0.22820230111E+02  0.13918755803E+02  0.59301892869E+02  0.49999906699E+02 0.  0.
        -12    1    1    2    0    0  0.17384739358E+02  0.22820230111E+02 -0.13918755803E+02  0.31886107131E+02  0.00000000000E+00 0.  1.
         11    1    3    3    0    0 -0.89250445273E+01 -0.35405161542E+02  0.10743159190E+02  0.38060443419E+02  0.51100000000E-03 0. -1.
        -11    1    3    3    0    0 -0.20223741759E+01  0.27438045392E+01  0.78723935538E+01  0.85786386556E+01  0.51100000000E-03 0.  1.
        -12    1    3    3    0    0 -0.64373206546E+01  0.98411268915E+01 -0.46967969413E+01  0.12662810794E+02  0.00000000000E+00 0.  1.
</event>
<event>
 7    1  0.6953847E-012  0.5930194E+02  0.7816164E-02  0.1266605E+00
        -11   -1    0    0    0    0  0.00000000000E+00  0.00000000000E+00  0.45593999997E+02  0.45594000000E+02  0.51100000000E-03 0.  1.
         11   -1    0    0    0    0 -0.00000000000E+00 -0.00000000000E+00 -0.45593999997E+02  0.45594000000E+02  0.51100000000E-03 0. -1.
    9900012    2    1    2    0    0  0.22725924337E+02  0.86786118297E+00 -0.22349493254E+02  0.59301942409E+02  0.49999997048E+02 0.  0.
        -12    1    1    2    0    0 -0.22725924337E+02 -0.86786118297E+00  0.22349493254E+02  0.31886057591E+02  0.00000000000E+00 0.  1.
         11    1    3    3    0    0  0.11715112130E+02 -0.51564094955E+01 -0.20417383937E+02  0.24097758780E+02  0.51100000000E-03 0. -1.
        -11    1    3    3    0    0  0.64934689343E+01  0.15718238745E+02 -0.11762239879E+02  0.20677970289E+02  0.51100000000E-03 0.  1.
        -12    1    3    3    0    0  0.45173432720E+01 -0.96939680667E+01  0.98301305629E+01  0.14526213340E+02  0.00000000000E+00 0.  1.
</event>
<event>
 7    1  0.6953847E-012  0.5930194E+02  0.7816164E-02  0.1266605E+00
        -11   -1    0    0    0    0  0.00000000000E+00  0.00000000000E+00  0.45593999997E+02  0.45594000000E+02  0.51100000000E-03 0. -1.
         11   -1    0    0    0    0 -0.00000000000E+00 -0.00000000000E+00 -0.45593999997E+02  0.45594000000E+02  0.51100000000E-03 0.  1.
    9900012    2    1    2    0    0 -0.50957343266E+01 -0.59678583364E+01  0.30905324042E+02  0.59301938851E+02  0.49999990559E+02 0.  0.
        -12    1    1    2    0    0  0.50957343266E+01  0.59678583364E+01 -0.30905324042E+02  0.31886061149E+02  0.00000000000E+00 0.  1.
         11    1    3    3    0    0 -0.63410575200E+00 -0.21563838311E+02  0.24576336221E+02  0.32701643921E+02  0.51100000000E-03 0. -1.
        -11    1    3    3    0    0 -0.81072455700E+01 -0.12492302986E+01  0.42548132833E+01  0.92407490718E+01  0.51100000000E-03 0.  1.
        -12    1    3    3    0    0  0.36456169953E+01  0.16845210273E+02  0.20741745374E+01  0.17359545859E+02  0.00000000000E+00 0.  1.
</event>
<event>
 7    1  0.6953847E-012  0.5930196E+02  0.7816164E-02  0.1266605E+00
        -11   -1    0    0    0    0  0.00000000000E+00  0.00000000000E+00  0.45593999997E+02  0.45594000000E+02  0.51100000000E-03 0. -1.
         11   -1    0    0    0    0 -0.00000000000E+00 -0.00000000000E+00 -0.45593999997E+02  0.45594000000E+02  0.51100000000E-03 0.  1.
    9900012    2    1    2    0    0 -0.23621010807E+02 -0.19812411556E+02  0.81385452889E+01  0.59301957244E+02  0.50000024103E+02 0.  0.
        -12    1    1    2    0    0  0.23621010807E+02  0.19812411556E+02 -0.81385452889E+01  0.31886042756E+02  0.00000000000E+00 0.  1.
         11    1    3    3    0    0  0.24375553880E+01 -0.22897531361E+01 -0.80282184629E+00  0.34393558803E+01  0.51100000000E-03 0. -1.
        -11    1    3    3    0    0  0.75893633657E+01 -0.78701042910E+01  0.16744953231E+02  0.19998260844E+02  0.51100000000E-03 0.  1.
         12    1    3    3    0    0 -0.33647929561E+02 -0.96525541292E+01 -0.78035860953E+01  0.35864340519E+02  0.00000000000E+00 0. -1.
</event>
<event>
 7    1  0.6953847E-012  0.5930194E+02  0.7816164E-02  0.1266605E+00
        -11   -1    0    0    0    0  0.00000000000E+00  0.00000000000E+00  0.45593999997E+02  0.45594000000E+02  0.51100000000E-03 0.  1.
         11   -1    0    0    0    0 -0.00000000000E+00 -0.00000000000E+00 -0.45593999997E+02  0.45594000000E+02  0.51100000000E-03 0. -1.
    9900012    2    1    2    0    0  0.28458933267E+01  0.30294713984E+02 -0.95316173699E+01  0.59301944523E+02  0.50000000903E+02 0.  0.
        -12    1    1    2    0    0 -0.28458933267E+01 -0.30294713984E+02  0.95316173699E+01  0.31886055477E+02  0.00000000000E+00 0.  1.
         11    1    3    3    0    0  0.17553799294E+02  0.79097667724E+01  0.12392145841E+02  0.22896846046E+02  0.51100000000E-03 0. -1.
        -11    1    3    3    0    0 -0.40960036983E+01 -0.11709614745E+00 -0.21639258590E+01  0.46339543793E+01  0.51100000000E-03 0.  1.
         12    1    3    3    0    0 -0.10611902269E+02  0.22502043359E+02 -0.19759837352E+02  0.31771144098E+02  0.00000000000E+00 0. -1.
</event>
<event>
 7    1  0.6953847E-012  0.5930195E+02  0.7816164E-02  0.1266605E+00
        -11   -1    0    0    0    0  0.00000000000E+00  0.00000000000E+00  0.45593999997E+02  0.45594000000E+02  0.51100000000E-03 0.  1.
         11   -1    0    0    0    0 -0.00000000000E+00 -0.00000000000E+00 -0.45593999997E+02  0.45594000000E+02  0.51100000000E-03 0. -1.
    9900012    2    1    2    0    0 -0.67495157093E+01 -0.19541127942E+02 -0.24275683738E+02  0.59301945611E+02  0.50000002888E+02 0.  0.
        -12    1    1    2    0    0  0.67495157093E+01  0.19541127942E+02  0.24275683738E+02  0.31886054389E+02  0.00000000000E+00 0.  1.
         11    1    3    3    0    0 -0.99499642465E+01  0.68575589789E+01 -0.16089003858E+02  0.20121728282E+02  0.51100000000E-03 0. -1.
        -11    1    3    3    0    0 -0.20736516987E+01  0.50890749964E+01 -0.43807150161E+01  0.70277578217E+01  0.51100000000E-03 0.  1.
        -12    1    3    3    0    0  0.52741002359E+01 -0.31487761917E+02 -0.38059648632E+01  0.32152459508E+02  0.00000000000E+00 0.  1.
</event>
<event>
 7    1  0.6953847E-012  0.5930183E+02  0.7816164E-02  0.1266605E+00
        -11   -1    0    0    0    0  0.00000000000E+00  0.00000000000E+00  0.45593999997E+02  0.45594000000E+02  0.51100000000E-03 0. -1.
         11   -1    0    0    0    0 -0.00000000000E+00 -0.00000000000E+00 -0.45593999997E+02  0.45594000000E+02  0.51100000000E-03 0.  1.
    9900012    2    1    2    0    0  0.18569217701E+02  0.15298894607E+02  0.20925000588E+02  0.59301832594E+02  0.49999796771E+02 0.  0.
        -12    1    1    2    0    0 -0.18569217701E+02 -0.15298894607E+02 -0.20925000588E+02  0.31886167406E+02  0.00000000000E+00 0.  1.
         11    1    3    3    0    0  0.87422345735E+01  0.78115615476E+01  0.11766698684E+01  0.11782686934E+02  0.51100000000E-03 0. -1.
        -11    1    3    3    0    0 -0.95784359811E+01  0.17066888820E+02  0.22717397670E+01  0.19702434663E+02  0.51100000000E-03 0.  1.
        -12    1    3    3    0    0  0.19405419108E+02 -0.95795557602E+01  0.17476590953E+02  0.27816710997E+02  0.00000000000E+00 0.  1.
</event>
<event>
 7    1  0.6953847E-012  0.5930190E+02  0.7816164E-02  0.1266605E+00
        -11   -1    0    0    0    0  0.00000000000E+00  0.00000000000E+00  0.45593999997E+02  0.45594000000E+02  0.51100000000E-03 0.  1.
         11   -1    0    0    0    0 -0.00000000000E+00 -0.00000000000E+00 -0.45593999997E+02  0.45594000000E+02  0.51100000000E-03 0. -1.
    9900012    2    1    2    0    0 -0.65320953228E+01 -0.24396741521E+02 -0.19464175816E+02  0.59301899481E+02  0.49999918757E+02 0.  0.
        -12    1    1    2    0    0  0.65320953228E+01  0.24396741521E+02  0.19464175816E+02  0.31886100519E+02  0.00000000000E+00 0.  1.
         11    1    3    3    0    0 -0.18125518063E+02 -0.45305072267E+01 -0.11835876802E+02  0.22116687833E+02  0.51100000000E-03 0. -1.
        -11    1    3    3    0    0  0.10464989282E+02  0.39774201984E+01  0.21319498380E+01  0.11396538179E+02  0.51100000000E-03 0.  1.
        -12    1    3    3    0    0  0.11284334580E+01 -0.23843654492E+02 -0.97602488514E+01  0.25788673468E+02  0.00000000000E+00 0.  1.
</event>
<event>
 7    1  0.6953847E-012  0.5930187E+02  0.7816164E-02  0.1266605E+00
        -11   -1    0    0    0    0  0.00000000000E+00  0.00000000000E+00  0.45593999997E+02  0.45594000000E+02  0.51100000000E-03 0.  1.
         11   -1    0    0    0    0 -0.00000000000E+00 -0.00000000000E+00 -0.45593999997E+02  0.45594000000E+02  0.51100000000E-03 0. -1.
    9900012    2    1    2    0    0 -0.29037914393E+02  0.13161455210E+02 -0.54857948446E+00  0.59301869551E+02  0.49999864173E+02 0.  0.
        -12    1    1    2    0    0  0.29037914393E+02 -0.13161455210E+02  0.54857948446E+00  0.31886130449E+02  0.00000000000E+00 0.  1.
         11    1    3    3    0    0  0.44149922517E+01 -0.14493873347E+00  0.40784678652E+01  0.60122428601E+01  0.51100000000E-03 0. -1.
        -11    1    3    3    0    0 -0.49868424664E+01 -0.13159174193E+01  0.14922592632E+02  0.15788730398E+02  0.51100000000E-03 0.  1.
         12    1    3    3    0    0 -0.28466064178E+02  0.14622311363E+02 -0.19549639982E+02  0.37500896294E+02  0.00000000000E+00 0. -1.
</event>
<event>
 7    1  0.6953847E-012  0.5930187E+02  0.7816164E-02  0.1266605E+00
        -11   -1    0    0    0    0  0.00000000000E+00  0.00000000000E+00  0.45593999997E+02  0.45594000000E+02  0.51100000000E-03 0.  1.
         11   -1    0    0    0    0 -0.00000000000E+00 -0.00000000000E+00 -0.45593999997E+02  0.45594000000E+02  0.51100000000E-03 0. -1.
    9900012    2    1    2    0    0 -0.18177485282E+02  0.12298339952E+02 -0.23131255423E+02  0.59301872700E+02  0.49999869915E+02 0.  0.
        -12    1    1    2    0    0  0.18177485282E+02 -0.12298339952E+02  0.23131255423E+02  0.31886127300E+02  0.00000000000E+00 0.  1.
         11    1    3    3    0    0 -0.17933349392E+01 -0.20735691996E+01  0.70490485656E+01  0.75633871626E+01  0.51100000000E-03 0. -1.
        -11    1    3    3    0    0 -0.87718385013E+01  0.10691106102E+02  0.56390555383E+01  0.14934652591E+02  0.51100000000E-03 0.  1.
         12    1    3    3    0    0 -0.76123118419E+01  0.36808030489E+01 -0.35819359527E+02  0.36803832947E+02  0.00000000000E+00 0. -1.
</event>
<event>
 7    1  0.6953847E-012  0.5930192E+02  0.7816164E-02  0.1266605E+00
        -11   -1    0    0    0    0  0.00000000000E+00  0.00000000000E+00  0.45593999997E+02  0.45594000000E+02  0.51100000000E-03 0.  1.
         11   -1    0    0    0    0 -0.00000000000E+00 -0.00000000000E+00 -0.45593999997E+02  0.45594000000E+02  0.51100000000E-03 0. -1.
    9900012    2    1    2    0    0  0.15089712586E+02 -0.15631197769E+02 -0.23338562409E+02  0.59301917379E+02  0.49999951399E+02 0.  0.
        -12    1    1    2    0    0 -0.15089712586E+02  0.15631197769E+02  0.23338562409E+02  0.31886082621E+02  0.00000000000E+00 0.  1.
         11    1    3    3    0    0  0.11904227304E+02  0.13384909810E+01  0.11917019363E+02  0.16897264174E+02  0.51100000000E-03 0.  1.
        -11    1    3    3    0    0  0.40833920983E+01 -0.48460470453E+00 -0.18233629403E+02  0.18691553553E+02  0.51100000000E-03 0. -1.
        -12    1    3    3    0    0 -0.89790681648E+00 -0.16485084046E+02 -0.17021952369E+02  0.23713099652E+02  0.00000000000E+00 0.  1.
</event>
<event>
 7    1  0.6953847E-012  0.5930221E+02  0.7816164E-02  0.1266604E+00
        -11   -1    0    0    0    0  0.00000000000E+00  0.00000000000E+00  0.45593999997E+02  0.45594000000E+02  0.51100000000E-03 0.  1.
         11   -1    0    0    0    0 -0.00000000000E+00 -0.00000000000E+00 -0.45593999997E+02  0.45594000000E+02  0.51100000000E-03 0. -1.
    9900012    2    1    2    0    0  0.21360254109E+02  0.63178954732E+01 -0.22815072019E+02  0.59302207395E+02  0.50000480316E+02 0.  0.
        -12    1    1    2    0    0 -0.21360254109E+02 -0.63178954732E+01  0.22815072019E+02  0.31885792605E+02  0.00000000000E+00 0.  1.
         11    1    3    3    0    0 -0.33563801375E-02 -0.42130374018E+00 -0.14548401554E+01  0.15146181848E+01  0.51100000000E-03 0. -1.
        -11    1    3    3    0    0 -0.14809453048E+02  0.86813134907E+01 -0.40432668860E+01  0.17636130836E+02  0.51100000000E-03 0.  1.
         12    1    3    3    0    0  0.36173063537E+02 -0.19421142774E+01 -0.17316964978E+02  0.40151458374E+02  0.00000000000E+00 0. -1.
</event>
<event>
 7    1  0.6953847E-012  0.5930198E+02  0.7816164E-02  0.1266605E+00
        -11   -1    0    0    0    0  0.00000000000E+00  0.00000000000E+00  0.45593999997E+02  0.45594000000E+02  0.51100000000E-03 0.  1.
         11   -1    0    0    0    0 -0.00000000000E+00 -0.00000000000E+00 -0.45593999997E+02  0.45594000000E+02  0.51100000000E-03 0. -1.
    9900012    2    1    2    0    0  0.26631457938E+02  0.15192714178E+02 -0.87558821433E+01  0.59301975034E+02  0.50000056549E+02 0.  0.
        -12    1    1    2    0    0 -0.26631457938E+02 -0.15192714178E+02  0.87558821433E+01  0.31886024966E+02  0.00000000000E+00 0.  1.
         11    1    3    3    0    0  0.39211954508E+02  0.16114623256E+02 -0.19698454346E+01  0.42439825051E+02  0.51100000000E-03 0. -1.
        -11    1    3    3    0    0 -0.25630661166E+01  0.16342565099E+01  0.17036775214E+01  0.34846261803E+01  0.51100000000E-03 0.  1.
        -12    1    3    3    0    0 -0.10017430454E+02 -0.25561655876E+01 -0.84897142301E+01  0.13377523804E+02  0.00000000000E+00 0.  1.
</event>
<event>
 7    1  0.6953847E-012  0.5930194E+02  0.7816164E-02  0.1266605E+00
        -11   -1    0    0    0    0  0.00000000000E+00  0.00000000000E+00  0.45593999997E+02  0.45594000000E+02  0.51100000000E-03 0.  1.
         11   -1    0    0    0    0 -0.00000000000E+00 -0.00000000000E+00 -0.45593999997E+02  0.45594000000E+02  0.51100000000E-03 0. -1.
    9900012    2    1    2    0    0  0.11204691307E+02  0.17795659209E+02 -0.23968524504E+02  0.59301940963E+02  0.49999994411E+02 0.  0.
        -12    1    1    2    0    0 -0.11204691307E+02 -0.17795659209E+02  0.23968524504E+02  0.31886059037E+02  0.00000000000E+00 0.  1.
         11    1    3    3    0    0 -0.79856148257E+01  0.43331036012E+01 -0.70128334707E+01  0.11477180164E+02  0.51100000000E-03 0. -1.
        -11    1    3    3    0    0  0.17604121231E+02 -0.63475687291E+01 -0.20368926022E+02  0.27660257784E+02  0.51100000000E-03 0.  1.
         12    1    3    3    0    0  0.15861849019E+01  0.19810124337E+02  0.34132349888E+01  0.20164503016E+02  0.00000000000E+00 0. -1.
</event>
<event>
 7    1  0.6953847E-012  0.5930186E+02  0.7816164E-02  0.1266605E+00
        -11   -1    0    0    0    0  0.00000000000E+00  0.00000000000E+00  0.45593999997E+02  0.45594000000E+02  0.51100000000E-03 0.  1.
         11   -1    0    0    0    0 -0.00000000000E+00 -0.00000000000E+00 -0.45593999997E+02  0.45594000000E+02  0.51100000000E-03 0. -1.
    9900012    2    1    2    0    0 -0.25779603901E+02 -0.38874433503E+01  0.18358257324E+02  0.59301861867E+02  0.49999850158E+02 0.  0.
        -12    1    1    2    0    0  0.25779603901E+02  0.38874433503E+01 -0.18358257324E+02  0.31886138133E+02  0.00000000000E+00 0.  1.
         11    1    3    3    0    0 -0.21134712668E+02 -0.10696256567E+02  0.30614233758E+01  0.23884268828E+02  0.51100000000E-03 0. -1.
        -11    1    3    3    0    0 -0.16322513782E+01 -0.12055341008E+02  0.24866710976E+01  0.12416884665E+02  0.51100000000E-03 0.  1.
         12    1    3    3    0    0 -0.30126398547E+01  0.18864154224E+02  0.12810162851E+02  0.23000708375E+02  0.00000000000E+00 0. -1.
</event>
<event>
 7    1  0.6953847E-012  0.5930193E+02  0.7816164E-02  0.1266605E+00
        -11   -1    0    0    0    0  0.00000000000E+00  0.00000000000E+00  0.45593999997E+02  0.45594000000E+02  0.51100000000E-03 0.  1.
         11   -1    0    0    0    0 -0.00000000000E+00 -0.00000000000E+00 -0.45593999997E+02  0.45594000000E+02  0.51100000000E-03 0. -1.
    9900012    2    1    2    0    0 -0.66463680497E+01  0.11525838302E+02 -0.28977612529E+02  0.59301934318E+02  0.49999982292E+02 0.  0.
        -12    1    1    2    0    0  0.66463680497E+01 -0.11525838302E+02  0.28977612529E+02  0.31886065682E+02  0.00000000000E+00 0.  1.
         11    1    3    3    0    0 -0.10807041933E+02  0.93159253213E+01 -0.18735826893E+01  0.14390584848E+02  0.51100000000E-03 0. -1.
        -11    1    3    3    0    0  0.14143565551E+02  0.19068672897E+01  0.17493016340E+01  0.14378339466E+02  0.51100000000E-03 0.  1.
         12    1    3    3    0    0 -0.99828916676E+01  0.30304569098E+00 -0.28853331473E+02  0.30533010003E+02  0.00000000000E+00 0. -1.
</event>
<event>
 7    1  0.6953847E-012  0.5930195E+02  0.7816164E-02  0.1266605E+00
        -11   -1    0    0    0    0  0.00000000000E+00  0.00000000000E+00  0.45593999997E+02  0.45594000000E+02  0.51100000000E-03 0.  1.
         11   -1    0    0    0    0 -0.00000000000E+00 -0.00000000000E+00 -0.45593999997E+02  0.45594000000E+02  0.51100000000E-03 0. -1.
    9900012    2    1    2    0    0  0.26959124286E+02  0.12250115901E+02  0.11826262716E+02  0.59301949575E+02  0.50000010118E+02 0.  0.
        -12    1    1    2    0    0 -0.26959124286E+02 -0.12250115901E+02 -0.11826262716E+02  0.31886050425E+02  0.00000000000E+00 0.  1.
         11    1    3    3    0    0  0.10109593740E+02  0.15460544425E+02 -0.11373672621E+02  0.21693149810E+02  0.51100000000E-03 0. -1.
        -11    1    3    3    0    0  0.10386313703E+01  0.85973391865E+01  0.12366767301E+02  0.15097348441E+02  0.51100000000E-03 0.  1.
        -12    1    3    3    0    0  0.15810899175E+02 -0.11807767711E+02  0.10833168037E+02  0.22511451325E+02  0.00000000000E+00 0.  1.
</event>
<event>
 7    1  0.6953847E-012  0.5930192E+02  0.7816164E-02  0.1266605E+00
        -11   -1    0    0    0    0  0.00000000000E+00  0.00000000000E+00  0.45593999997E+02  0.45594000000E+02  0.51100000000E-03 0.  1.
         11   -1    0    0    0    0 -0.00000000000E+00 -0.00000000000E+00 -0.45593999997E+02  0.45594000000E+02  0.51100000000E-03 0. -1.
    9900012    2    1    2    0    0  0.10489625042E+02 -0.18822755228E+02 -0.23503057310E+02  0.59301920736E+02  0.49999957522E+02 0.  0.
        -12    1    1    2    0    0 -0.10489625042E+02  0.18822755228E+02  0.23503057310E+02  0.31886079264E+02  0.00000000000E+00 0.  1.
         11    1    3    3    0    0  0.21759267335E+01  0.12480004622E+02 -0.20678879761E+02  0.24250798770E+02  0.51100000000E-03 0. -1.
        -11    1    3    3    0    0  0.34826977363E+01 -0.27981461193E+00  0.25755136844E+00  0.35034001639E+01  0.51100000000E-03 0.  1.
         12    1    3    3    0    0  0.48310005722E+01 -0.31022945239E+02 -0.30817289170E+01  0.31547721803E+02  0.00000000000E+00 0. -1.
</event>
<event>
 7    1  0.6953847E-012  0.5930195E+02  0.7816164E-02  0.1266605E+00
        -11   -1    0    0    0    0  0.00000000000E+00  0.00000000000E+00  0.45593999997E+02  0.45594000000E+02  0.51100000000E-03 0. -1.
         11   -1    0    0    0    0 -0.00000000000E+00 -0.00000000000E+00 -0.45593999997E+02  0.45594000000E+02  0.51100000000E-03 0.  1.
    9900012    2    1    2    0    0 -0.22026030283E+02  0.22031245782E+02  0.67969219778E+01  0.59301953693E+02  0.50000017626E+02 0.  0.
        -12    1    1    2    0    0  0.22026030283E+02 -0.22031245782E+02 -0.67969219778E+01  0.31886046307E+02  0.00000000000E+00 0.  1.
         11    1    3    3    0    0  0.76377353279E+01  0.10131590613E+02 -0.25629357801E+00  0.12690540412E+02  0.51100000000E-03 0. -1.
        -11    1    3    3    0    0 -0.61998254719E+01 -0.79646457689E+01  0.11773729995E+02  0.15507873367E+02  0.51100000000E-03 0.  1.
        -12    1    3    3    0    0 -0.23463940139E+02  0.19864300939E+02 -0.47205144390E+01  0.31103539914E+02  0.00000000000E+00 0.  1.
</event>
<event>
 7    1  0.6953847E-012  0.5930195E+02  0.7816164E-02  0.1266605E+00
        -11   -1    0    0    0    0  0.00000000000E+00  0.00000000000E+00  0.45593999997E+02  0.45594000000E+02  0.51100000000E-03 0. -1.
         11   -1    0    0    0    0 -0.00000000000E+00 -0.00000000000E+00 -0.45593999997E+02  0.45594000000E+02  0.51100000000E-03 0.  1.
    9900012    2    1    2    0    0  0.68347697325E+01 -0.27257240497E+02  0.15068149844E+02  0.59301946991E+02  0.50000005404E+02 0.  0.
        -12    1    1    2    0    0 -0.68347697325E+01  0.27257240497E+02 -0.15068149844E+02  0.31886053009E+02  0.00000000000E+00 0.  1.
         11    1    3    3    0    0  0.12927348255E+02 -0.13955403132E+02  0.31555100907E+01  0.19282812390E+02  0.51100000000E-03 0. -1.
        -11    1    3    3    0    0  0.77943297415E+01 -0.20862433083E+02  0.85375942102E+01  0.23851272616E+02  0.51100000000E-03 0.  1.
        -12    1    3    3    0    0 -0.13886908264E+02  0.75605957180E+01  0.33750455431E+01  0.16167861984E+02  0.00000000000E+00 0.  1.
</event>
<event>
 7    1  0.6953847E-012  0.5930196E+02  0.7816164E-02  0.1266605E+00
        -11   -1    0    0    0    0  0.00000000000E+00  0.00000000000E+00  0.45593999997E+02  0.45594000000E+02  0.51100000000E-03 0.  1.
         11   -1    0    0    0    0 -0.00000000000E+00 -0.00000000000E+00 -0.45593999997E+02  0.45594000000E+02  0.51100000000E-03 0. -1.
    9900012    2    1    2    0    0  0.11644759883E+02  0.19179341441E+02  0.22655509843E+02  0.59301957645E+02  0.50000024834E+02 0.  0.
        -12    1    1    2    0    0 -0.11644759883E+02 -0.19179341441E+02 -0.22655509843E+02  0.31886042355E+02  0.00000000000E+00 0.  1.
         11    1    3    3    0    0 -0.51158546639E+01  0.10712496197E+01 -0.19097183783E+01  0.55647613817E+01  0.51100000000E-03 0. -1.
        -11    1    3    3    0    0  0.92285324306E+01 -0.12895267816E+02  0.90755411728E+01  0.18270719490E+02  0.51100000000E-03 0.  1.
        -12    1    3    3    0    0  0.75320821159E+01  0.31003359637E+02  0.15489687049E+02  0.35466476772E+02  0.00000000000E+00 0.  1.
</event>
<event>
 7    1  0.6953847E-012  0.5930195E+02  0.7816164E-02  0.1266605E+00
        -11   -1    0    0    0    0  0.00000000000E+00  0.00000000000E+00  0.45593999997E+02  0.45594000000E+02  0.51100000000E-03 0. -1.
         11   -1    0    0    0    0 -0.00000000000E+00 -0.00000000000E+00 -0.45593999997E+02  0.45594000000E+02  0.51100000000E-03 0.  1.
    9900012    2    1    2    0    0  0.26487191820E+02  0.38659127033E+01  0.17326374647E+02  0.59301954934E+02  0.50000019890E+02 0.  0.
        -12    1    1    2    0    0 -0.26487191820E+02 -0.38659127033E+01 -0.17326374647E+02  0.31886045066E+02  0.00000000000E+00 0.  1.
         11    1    3    3    0    0  0.11721793424E+02 -0.33119376754E+01  0.66731206863E+00  0.12198962165E+02  0.51100000000E-03 0. -1.
        -11    1    3    3    0    0  0.12962575183E+02  0.20406845489E+02 -0.18889292992E+01  0.24249448496E+02  0.51100000000E-03 0.  1.
         12    1    3    3    0    0  0.18028232137E+01 -0.13228995111E+02  0.18547991877E+02  0.22853544273E+02  0.00000000000E+00 0. -1.
</event>
<event>
 7    1  0.6953847E-012  0.5930194E+02  0.7816164E-02  0.1266605E+00
        -11   -1    0    0    0    0  0.00000000000E+00  0.00000000000E+00  0.45593999997E+02  0.45594000000E+02  0.51100000000E-03 0.  1.
         11   -1    0    0    0    0 -0.00000000000E+00 -0.00000000000E+00 -0.45593999997E+02  0.45594000000E+02  0.51100000000E-03 0. -1.
    9900012    2    1    2    0    0 -0.14417948893E+00 -0.14205355352E+02 -0.28546590029E+02  0.59301941751E+02  0.49999995847E+02 0.  0.
        -12    1    1    2    0    0  0.14417948893E+00  0.14205355352E+02  0.28546590029E+02  0.31886058249E+02  0.00000000000E+00 0.  1.
         11    1    3    3    0    0 -0.27648028697E+01  0.48384511077E-01 -0.14019635211E+02  0.14289739244E+02  0.51100000000E-03 0. -1.
        -11    1    3    3    0    0 -0.62838032145E+01  0.47794959980E+01 -0.21474919642E+02  0.22880164744E+02  0.51100000000E-03 0.  1.
         12    1    3    3    0    0  0.89044265952E+01 -0.19033235861E+02  0.69479648235E+01  0.22132037763E+02  0.00000000000E+00 0. -1.
</event>
<event>
 7    1  0.6953847E-012  0.5930194E+02  0.7816164E-02  0.1266605E+00
        -11   -1    0    0    0    0  0.00000000000E+00  0.00000000000E+00  0.45593999997E+02  0.45594000000E+02  0.51100000000E-03 0.  1.
         11   -1    0    0    0    0 -0.00000000000E+00 -0.00000000000E+00 -0.45593999997E+02  0.45594000000E+02  0.51100000000E-03 0. -1.
    9900012    2    1    2    0    0  0.19959382749E+02  0.39552356698E+01 -0.24549943481E+02  0.59301943897E+02  0.49999999761E+02 0.  0.
        -12    1    1    2    0    0 -0.19959382749E+02 -0.39552356698E+01  0.24549943481E+02  0.31886056103E+02  0.00000000000E+00 0.  1.
         11    1    3    3    0    0  0.36106256203E+01  0.60235131937E+01  0.53700291255E+00  0.70432734545E+01  0.51100000000E-03 0. -1.
        -11    1    3    3    0    0 -0.51393806232E+01  0.14060077271E+02  0.74346461292E+00  0.14988387036E+02  0.51100000000E-03 0.  1.
         12    1    3    3    0    0  0.21488137752E+02 -0.16128354795E+02 -0.25830411006E+02  0.37270283406E+02  0.00000000000E+00 0. -1.
</event>
<event>
 7    1  0.6953847E-012  0.5930198E+02  0.7816164E-02  0.1266605E+00
        -11   -1    0    0    0    0  0.00000000000E+00  0.00000000000E+00  0.45593999997E+02  0.45594000000E+02  0.51100000000E-03 0.  1.
         11   -1    0    0    0    0 -0.00000000000E+00 -0.00000000000E+00 -0.45593999997E+02  0.45594000000E+02  0.51100000000E-03 0. -1.
    9900012    2    1    2    0    0  0.23340552565E+02 -0.20083235195E+02  0.82825525596E+01  0.59301977877E+02  0.50000061733E+02 0.  0.
        -12    1    1    2    0    0 -0.23340552565E+02  0.20083235195E+02 -0.82825525596E+01  0.31886022123E+02  0.00000000000E+00 0.  1.
         11    1    3    3    0    0  0.18558220516E+01 -0.31579392914E+01 -0.15388353481E+02  0.15818283067E+02  0.51100000000E-03 0.  1.
        -11    1    3    3    0    0  0.94428726096E+01 -0.15289918090E+02  0.12908508078E+01  0.18017095615E+02  0.51100000000E-03 0. -1.
        -12    1    3    3    0    0  0.12041857904E+02 -0.16353778133E+01  0.22380055233E+02  0.25466599195E+02  0.00000000000E+00 0.  1.
</event>
<event>
 7    1  0.6953847E-012  0.5930194E+02  0.7816164E-02  0.1266605E+00
        -11   -1    0    0    0    0  0.00000000000E+00  0.00000000000E+00  0.45593999997E+02  0.45594000000E+02  0.51100000000E-03 0. -1.
         11   -1    0    0    0    0 -0.00000000000E+00 -0.00000000000E+00 -0.45593999997E+02  0.45594000000E+02  0.51100000000E-03 0.  1.
    9900012    2    1    2    0    0  0.78224986504E+00 -0.28310891587E+02 -0.14649304959E+02  0.59301942967E+02  0.49999998066E+02 0.  0.
        -12    1    1    2    0    0 -0.78224986504E+00  0.28310891587E+02  0.14649304959E+02  0.31886057033E+02  0.00000000000E+00 0.  1.
         11    1    3    3    0    0  0.23019865707E+01 -0.26015262316E+02 -0.19653429898E+01  0.26190753881E+02  0.51100000000E-03 0. -1.
        -11    1    3    3    0    0  0.84306008448E+01  0.10960966104E+02 -0.39806381057E+01  0.14389693831E+02  0.51100000000E-03 0.  1.
         12    1    3    3    0    0 -0.99503375504E+01 -0.13256595376E+02 -0.87033238632E+01  0.18721495255E+02  0.00000000000E+00 0. -1.
</event>
<event>
 7    1  0.6953847E-012  0.5930192E+02  0.7816164E-02  0.1266605E+00
        -11   -1    0    0    0    0  0.00000000000E+00  0.00000000000E+00  0.45593999997E+02  0.45594000000E+02  0.51100000000E-03 0. -1.
         11   -1    0    0    0    0 -0.00000000000E+00 -0.00000000000E+00 -0.45593999997E+02  0.45594000000E+02  0.51100000000E-03 0.  1.
    9900012    2    1    2    0    0  0.25347849997E+02  0.58392295449E+01  0.18442121782E+02  0.59301922208E+02  0.49999960206E+02 0.  0.
        -12    1    1    2    0    0 -0.25347849997E+02 -0.58392295449E+01 -0.18442121782E+02  0.31886077792E+02  0.00000000000E+00 0.  1.
         11    1    3    3    0    0 -0.32190849232E+01  0.14386541337E+02 -0.21703634146E+01  0.14901193140E+02  0.51100000000E-03 0. -1.
        -11    1    3    3    0    0  0.18843466274E+01 -0.14134657651E+01 -0.57533196219E+01  0.62168589025E+01  0.51100000000E-03 0.  1.
         12    1    3    3    0    0  0.26682588293E+02 -0.71338460269E+01  0.26365804818E+02  0.38183870166E+02  0.00000000000E+00 0. -1.
</event>
<event>
 7    1  0.6953847E-012  0.5930194E+02  0.7816164E-02  0.1266605E+00
        -11   -1    0    0    0    0  0.00000000000E+00  0.00000000000E+00  0.45593999997E+02  0.45594000000E+02  0.51100000000E-03 0.  1.
         11   -1    0    0    0    0 -0.00000000000E+00 -0.00000000000E+00 -0.45593999997E+02  0.45594000000E+02  0.51100000000E-03 0. -1.
    9900012    2    1    2    0    0  0.98337515813E+00  0.71348818546E+01 -0.31061986472E+02  0.59301943967E+02  0.49999999889E+02 0.  0.
        -12    1    1    2    0    0 -0.98337515813E+00 -0.71348818546E+01  0.31061986472E+02  0.31886056033E+02  0.00000000000E+00 0.  1.
         11    1    3    3    0    0 -0.11662662941E+02  0.77454389320E+00 -0.74920913522E+01  0.13883409459E+02  0.51100000000E-03 0. -1.
        -11    1    3    3    0    0 -0.96515067159E+01  0.64722886366E+01  0.16698099080E+01  0.11740117864E+02  0.51100000000E-03 0.  1.
         12    1    3    3    0    0  0.22297544815E+02 -0.11195067521E+00 -0.25239705028E+02  0.33678416643E+02  0.00000000000E+00 0. -1.
</event>
<event>
 7    1  0.6953847E-012  0.5930195E+02  0.7816164E-02  0.1266605E+00
        -11   -1    0    0    0    0  0.00000000000E+00  0.00000000000E+00  0.45593999997E+02  0.45594000000E+02  0.51100000000E-03 0. -1.
         11   -1    0    0    0    0 -0.00000000000E+00 -0.00000000000E+00 -0.45593999997E+02  0.45594000000E+02  0.51100000000E-03 0.  1.
    9900012    2    1    2    0    0  0.26969767163E+02  0.13536867578E+02  0.10300732457E+02  0.59301949543E+02  0.50000010058E+02 0.  0.
        -12    1    1    2    0    0 -0.26969767163E+02 -0.13536867578E+02 -0.10300732457E+02  0.31886050457E+02  0.00000000000E+00 0.  1.
         11    1    3    3    0    0  0.81234849729E+01  0.25589097146E+01  0.20432398884E+02  0.22136439449E+02  0.51100000000E-03 0. -1.
        -11    1    3    3    0    0  0.24727617116E+02  0.12192114133E+02 -0.28349882057E+01  0.27715336073E+02  0.51100000000E-03 0.  1.
         12    1    3    3    0    0 -0.58813349256E+01 -0.12141562700E+01 -0.72966782219E+01  0.94501740211E+01  0.00000000000E+00 0. -1.
</event>
<event>
 7    1  0.6953847E-012  0.5930178E+02  0.7816164E-02  0.1266605E+00
        -11   -1    0    0    0    0  0.00000000000E+00  0.00000000000E+00  0.45593999997E+02  0.45594000000E+02  0.51100000000E-03 0.  1.
         11   -1    0    0    0    0 -0.00000000000E+00 -0.00000000000E+00 -0.45593999997E+02  0.45594000000E+02  0.51100000000E-03 0. -1.
    9900012    2    1    2    0    0 -0.10523319977E+02  0.22815359618E+02 -0.19632886846E+02  0.59301778151E+02  0.49999697481E+02 0.  0.
        -12    1    1    2    0    0  0.10523319977E+02 -0.22815359618E+02  0.19632886846E+02  0.31886221849E+02  0.00000000000E+00 0.  1.
         11    1    3    3    0    0 -0.12566326333E+02 -0.44920469424E+01 -0.12657674471E+02  0.18393144552E+02  0.51100000000E-03 0. -1.
        -11    1    3    3    0    0  0.13809358267E+02  0.96059862879E+01  0.35466320845E+01  0.17191624348E+02  0.51100000000E-03 0.  1.
         12    1    3    3    0    0 -0.11766351912E+02  0.17701420273E+02 -0.10521844459E+02  0.23717009251E+02  0.00000000000E+00 0. -1.
</event>
<event>
 7    1  0.6953847E-012  0.5930202E+02  0.7816164E-02  0.1266604E+00
        -11   -1    0    0    0    0  0.00000000000E+00  0.00000000000E+00  0.45593999997E+02  0.45594000000E+02  0.51100000000E-03 0. -1.
         11   -1    0    0    0    0 -0.00000000000E+00 -0.00000000000E+00 -0.45593999997E+02  0.45594000000E+02  0.51100000000E-03 0.  1.
    9900012    2    1    2    0    0 -0.30405150520E+02  0.84412378345E+00  0.95671210067E+01  0.59302023028E+02  0.50000144078E+02 0.  0.
        -12    1    1    2    0    0  0.30405150520E+02 -0.84412378345E+00 -0.95671210067E+01  0.31885976972E+02  0.00000000000E+00 0.  1.
         11    1    3    3    0    0  0.41390332226E+00 -0.21059379693E+01  0.90299784643E+01  0.92815301550E+01  0.51100000000E-03 0. -1.
        -11    1    3    3    0    0 -0.10024274989E+02 -0.13604400460E+02  0.12353581828E+02  0.20932672671E+02  0.51100000000E-03 0.  1.
        -12    1    3    3    0    0 -0.20794778853E+02  0.16554462213E+02 -0.11816439286E+02  0.29087820202E+02  0.00000000000E+00 0.  1.
</event>
<event>
 7    1  0.6953847E-012  0.5930197E+02  0.7816164E-02  0.1266605E+00
        -11   -1    0    0    0    0  0.00000000000E+00  0.00000000000E+00  0.45593999997E+02  0.45594000000E+02  0.51100000000E-03 0.  1.
         11   -1    0    0    0    0 -0.00000000000E+00 -0.00000000000E+00 -0.45593999997E+02  0.45594000000E+02  0.51100000000E-03 0. -1.
    9900012    2    1    2    0    0  0.28802073286E+02 -0.10899663796E+02  0.82678248612E+01  0.59301968194E+02  0.50000044073E+02 0.  0.
        -12    1    1    2    0    0 -0.28802073286E+02  0.10899663796E+02 -0.82678248612E+01  0.31886031806E+02  0.00000000000E+00 0.  1.
         11    1    3    3    0    0  0.23524074466E+01 -0.17633433496E+02  0.73796116300E+01  0.19259555180E+02  0.51100000000E-03 0. -1.
        -11    1    3    3    0    0 -0.63553564786E+01 -0.30450674854E+00 -0.98580315804E+00  0.64385626080E+01  0.51100000000E-03 0.  1.
         12    1    3    3    0    0  0.32805022318E+02  0.70382764491E+01  0.18740163892E+01  0.33603850406E+02  0.00000000000E+00 0. -1.
</event>
<event>
 7    1  0.7025958E-012  0.5930193E+02  0.7816164E-02  0.1266605E+00
        -11   -1    0    0    0    0  0.00000000000E+00  0.00000000000E+00  0.45593999997E+02  0.45594000000E+02  0.51100000000E-03 0. -1.
         11   -1    0    0    0    0 -0.00000000000E+00 -0.00000000000E+00 -0.45593999997E+02  0.45594000000E+02  0.51100000000E-03 0.  1.
    9900012    2    1    2    0    0 -0.98282617950E+01  0.81482168219E+01  0.29218709773E+02  0.59301934579E+02  0.49999982767E+02 0.  0.
        -12    1    1    2    0    0  0.98282617950E+01 -0.81482168219E+01 -0.29218709773E+02  0.31886065421E+02  0.00000000000E+00 0.  1.
         11    1    3    3    0    0  0.47067212828E+01  0.93554324765E+01  0.28762819884E+02  0.30610082489E+02  0.51100000000E-03 0. -1.
        -11    1    3    3    0    0  0.28133556638E+01 -0.68260970036E+01 -0.58256229833E+01  0.94047038123E+01  0.51100000000E-03 0.  1.
        -12    1    3    3    0    0 -0.17348338742E+02  0.56188813489E+01  0.62815128720E+01  0.19287148277E+02  0.00000000000E+00 0.  1.
</event>
<event>
 7    1  0.6953847E-012  0.5930192E+02  0.7816164E-02  0.1266605E+00
        -11   -1    0    0    0    0  0.00000000000E+00  0.00000000000E+00  0.45593999997E+02  0.45594000000E+02  0.51100000000E-03 0.  1.
         11   -1    0    0    0    0 -0.00000000000E+00 -0.00000000000E+00 -0.45593999997E+02  0.45594000000E+02  0.51100000000E-03 0. -1.
    9900012    2    1    2    0    0 -0.22703952471E+02  0.18355986764E+02 -0.12818361438E+02  0.59301919999E+02  0.49999956177E+02 0.  0.
        -12    1    1    2    0    0  0.22703952471E+02 -0.18355986764E+02  0.12818361438E+02  0.31886080001E+02  0.00000000000E+00 0.  1.
         11    1    3    3    0    0 -0.21263873170E+02  0.47445168643E+01 -0.21005089726E+02  0.30263452168E+02  0.51100000000E-03 0. -1.
        -11    1    3    3    0    0 -0.66772618263E+01 -0.44211325091E+00 -0.55551012723E+01  0.86971512595E+01  0.51100000000E-03 0.  1.
        -12    1    3    3    0    0  0.52371825247E+01  0.14053583151E+02  0.13741829561E+02  0.20341316571E+02  0.00000000000E+00 0.  1.
</event>
<event>
 7    1  0.6953847E-012  0.5930194E+02  0.7816164E-02  0.1266605E+00
        -11   -1    0    0    0    0  0.00000000000E+00  0.00000000000E+00  0.45593999997E+02  0.45594000000E+02  0.51100000000E-03 0.  1.
         11   -1    0    0    0    0 -0.00000000000E+00 -0.00000000000E+00 -0.45593999997E+02  0.45594000000E+02  0.51100000000E-03 0. -1.
    9900012    2    1    2    0    0 -0.18908023502E+02 -0.14362166045E+02 -0.21282289605E+02  0.59301936946E+02  0.49999987085E+02 0.  0.
        -12    1    1    2    0    0  0.18908023502E+02  0.14362166045E+02  0.21282289605E+02  0.31886063054E+02  0.00000000000E+00 0.  1.
         11    1    3    3    0    0 -0.91963790269E+01  0.79607335093E+01 -0.16390832571E+02  0.20410929862E+02  0.51100000000E-03 0. -1.
        -11    1    3    3    0    0 -0.70227930607E+01  0.27160152190E+01 -0.10664577420E+02  0.13054867784E+02  0.51100000000E-03 0.  1.
        -12    1    3    3    0    0 -0.26888514144E+01 -0.25038914773E+02  0.57731203860E+01  0.25836139300E+02  0.00000000000E+00 0.  1.
</event>
<event>
 7    1  0.6953847E-012  0.5930189E+02  0.7816164E-02  0.1266605E+00
        -11   -1    0    0    0    0  0.00000000000E+00  0.00000000000E+00  0.45593999997E+02  0.45594000000E+02  0.51100000000E-03 0. -1.
         11   -1    0    0    0    0 -0.00000000000E+00 -0.00000000000E+00 -0.45593999997E+02  0.45594000000E+02  0.51100000000E-03 0.  1.
    9900012    2    1    2    0    0  0.16548334376E+02  0.17986382896E+02  0.20478445339E+02  0.59301889171E+02  0.49999899954E+02 0.  0.
        -12    1    1    2    0    0 -0.16548334376E+02 -0.17986382896E+02 -0.20478445339E+02  0.31886110829E+02  0.00000000000E+00 0.  1.
         11    1    3    3    0    0  0.24243953789E+02  0.92757102303E+01  0.20214902195E+02  0.32900613469E+02  0.51100000000E-03 0. -1.
        -11    1    3    3    0    0  0.83892970784E+01  0.39535076389E+01  0.21551643208E+01  0.95213056685E+01  0.51100000000E-03 0.  1.
        -12    1    3    3    0    0 -0.16084916492E+02  0.47571650273E+01 -0.18916211769E+01  0.16879970033E+02  0.00000000000E+00 0.  1.
</event>
<event>
 7    1  0.6953847E-012  0.5930194E+02  0.7816164E-02  0.1266605E+00
        -11   -1    0    0    0    0  0.00000000000E+00  0.00000000000E+00  0.45593999997E+02  0.45594000000E+02  0.51100000000E-03 0.  1.
         11   -1    0    0    0    0 -0.00000000000E+00 -0.00000000000E+00 -0.45593999997E+02  0.45594000000E+02  0.51100000000E-03 0. -1.
    9900012    2    1    2    0    0  0.20362382309E+02  0.17907257921E+02 -0.16775710881E+02  0.59301937604E+02  0.49999988285E+02 0.  0.
        -12    1    1    2    0    0 -0.20362382309E+02 -0.17907257921E+02  0.16775710881E+02  0.31886062396E+02  0.00000000000E+00 0.  1.
         11    1    3    3    0    0  0.59392808790E+01  0.25539986675E+02 -0.20304943850E+01  0.26299978791E+02  0.51100000000E-03 0. -1.
        -11    1    3    3    0    0 -0.61337417661E+01 -0.43921279060E+00  0.85983915206E+00  0.62092688424E+01  0.51100000000E-03 0.  1.
         12    1    3    3    0    0  0.20556843196E+02 -0.71935159630E+01 -0.15605055648E+02  0.26792689971E+02  0.00000000000E+00 0. -1.
</event>
<event>
 7    1  0.6953847E-012  0.5930195E+02  0.7816164E-02  0.1266605E+00
        -11   -1    0    0    0    0  0.00000000000E+00  0.00000000000E+00  0.45593999997E+02  0.45594000000E+02  0.51100000000E-03 0.  1.
         11   -1    0    0    0    0 -0.00000000000E+00 -0.00000000000E+00 -0.45593999997E+02  0.45594000000E+02  0.51100000000E-03 0. -1.
    9900012    2    1    2    0    0  0.23329772226E+02  0.14795187533E+02 -0.15923085404E+02  0.59301945132E+02  0.50000002015E+02 0.  0.
        -12    1    1    2    0    0 -0.23329772226E+02 -0.14795187533E+02  0.15923085404E+02  0.31886054868E+02  0.00000000000E+00 0.  1.
         11    1    3    3    0    0  0.10386873560E+02 -0.65480615849E+01 -0.11071125355E+02  0.16532817962E+02  0.51100000000E-03 0. -1.
        -11    1    3    3    0    0 -0.32426100852E+01 -0.77757192500E+01 -0.42792933084E+01  0.94492688342E+01  0.51100000000E-03 0.  1.
        -12    1    3    3    0    0  0.16185508751E+02  0.29118968368E+02 -0.57266673992E+00  0.33319858336E+02  0.00000000000E+00 0.  1.
</event>
<event>
 7    1  0.6953847E-012  0.5930194E+02  0.7816164E-02  0.1266605E+00
        -11   -1    0    0    0    0  0.00000000000E+00  0.00000000000E+00  0.45593999997E+02  0.45594000000E+02  0.51100000000E-03 0.  1.
         11   -1    0    0    0    0 -0.00000000000E+00 -0.00000000000E+00 -0.45593999997E+02  0.45594000000E+02  0.51100000000E-03 0. -1.
    9900012    2    1    2    0    0  0.14939077844E+02  0.27546765368E+02  0.58924143192E+01  0.59301939165E+02  0.49999991132E+02 0.  0.
        -12    1    1    2    0    0 -0.14939077844E+02 -0.27546765368E+02 -0.58924143192E+01  0.31886060835E+02  0.00000000000E+00 0.  1.
         11    1    3    3    0    0 -0.85469371137E+01  0.61686982639E+01 -0.51858530799E+01  0.11747171776E+02  0.51100000000E-03 0. -1.
        -11    1    3    3    0    0  0.11056009752E+02  0.19717705479E+02 -0.86282611935E+01  0.24196490499E+02  0.51100000000E-03 0.  1.
        -12    1    3    3    0    0  0.12430005205E+02  0.16603616250E+01  0.19706528593E+02  0.23358276891E+02  0.00000000000E+00 0.  1.
</event>
<event>
 7    1  0.6953847E-012  0.5930194E+02  0.7816164E-02  0.1266605E+00
        -11   -1    0    0    0    0  0.00000000000E+00  0.00000000000E+00  0.45593999997E+02  0.45594000000E+02  0.51100000000E-03 0. -1.
         11   -1    0    0    0    0 -0.00000000000E+00 -0.00000000000E+00 -0.45593999997E+02  0.45594000000E+02  0.51100000000E-03 0.  1.
    9900012    2    1    2    0    0  0.33339989950E+01 -0.12817814545E+02  0.29005323777E+02  0.59301941503E+02  0.49999995396E+02 0.  0.
        -12    1    1    2    0    0 -0.33339989950E+01  0.12817814545E+02 -0.29005323777E+02  0.31886058497E+02  0.00000000000E+00 0.  1.
         11    1    3    3    0    0  0.85876317245E+01 -0.14012420960E+00 -0.96944107569E+00  0.86433135828E+01  0.51100000000E-03 0.  1.
        -11    1    3    3    0    0 -0.34257497312E+01 -0.23948515756E+02  0.72973730128E+01  0.25268929959E+02  0.51100000000E-03 0. -1.
         12    1    3    3    0    0 -0.18278829983E+01  0.11270825420E+02  0.22677391840E+02  0.25389697962E+02  0.00000000000E+00 0. -1.
</event>
<event>
 7    1  0.6953847E-012  0.5930195E+02  0.7816164E-02  0.1266605E+00
        -11   -1    0    0    0    0  0.00000000000E+00  0.00000000000E+00  0.45593999997E+02  0.45594000000E+02  0.51100000000E-03 0.  1.
         11   -1    0    0    0    0 -0.00000000000E+00 -0.00000000000E+00 -0.45593999997E+02  0.45594000000E+02  0.51100000000E-03 0. -1.
    9900012    2    1    2    0    0  0.12475644939E+02  0.44751671458E+01 -0.29000888054E+02  0.59301947477E+02  0.50000006290E+02 0.  0.
        -12    1    1    2    0    0 -0.12475644939E+02 -0.44751671458E+01  0.29000888054E+02  0.31886052523E+02  0.00000000000E+00 0.  1.
         11    1    3    3    0    0  0.51728730645E+01 -0.30424632047E+01  0.26700974084E+01  0.65684563274E+01  0.51100000000E-03 0. -1.
        -11    1    3    3    0    0 -0.16859683379E+01  0.12372174116E+02  0.58914665759E+01  0.13806612918E+02  0.51100000000E-03 0.  1.
         12    1    3    3    0    0  0.89887402120E+01 -0.48545437650E+01 -0.37562452038E+02  0.38926878232E+02  0.00000000000E+00 0. -1.
</event>
<event>
 7    1  0.6953847E-012  0.5930171E+02  0.7816164E-02  0.1266606E+00
        -11   -1    0    0    0    0  0.00000000000E+00  0.00000000000E+00  0.45593999997E+02  0.45594000000E+02  0.51100000000E-03 0.  1.
         11   -1    0    0    0    0 -0.00000000000E+00 -0.00000000000E+00 -0.45593999997E+02  0.45594000000E+02  0.51100000000E-03 0. -1.
    9900012    2    1    2    0    0  0.16176723497E+01 -0.54470494084E+01 -0.31375914684E+02  0.59301714024E+02  0.49999580527E+02 0.  0.
        -12    1    1    2    0    0 -0.16176723497E+01  0.54470494084E+01  0.31375914684E+02  0.31886285976E+02  0.00000000000E+00 0.  1.
         11    1    3    3    0    0 -0.20944811621E+01  0.82443859695E+01 -0.25201893267E+02  0.26598725079E+02  0.51100000000E-03 0. -1.
        -11    1    3    3    0    0  0.14493266068E+01 -0.11313257390E+02 -0.17512297675E+02  0.20899064824E+02  0.51100000000E-03 0.  1.
        -12    1    3    3    0    0  0.22628269050E+01 -0.23781779881E+01  0.11338276259E+02  0.11803924121E+02  0.00000000000E+00 0.  1.
</event>
<event>
 7    1  0.6953847E-012  0.5930188E+02  0.7816164E-02  0.1266605E+00
        -11   -1    0    0    0    0  0.00000000000E+00  0.00000000000E+00  0.45593999997E+02  0.45594000000E+02  0.51100000000E-03 0. -1.
         11   -1    0    0    0    0 -0.00000000000E+00 -0.00000000000E+00 -0.45593999997E+02  0.45594000000E+02  0.51100000000E-03 0.  1.
    9900012    2    1    2    0    0 -0.25523701227E+02 -0.15343539373E+02 -0.11394785822E+02  0.59301879685E+02  0.49999882654E+02 0.  0.
        -12    1    1    2    0    0  0.25523701227E+02  0.15343539373E+02  0.11394785822E+02  0.31886120315E+02  0.00000000000E+00 0.  1.
         11    1    3    3    0    0  0.97896406794E+01 -0.42455289229E+01  0.22894308056E+01  0.10913435488E+02  0.51100000000E-03 0.  1.
        -11    1    3    3    0    0  0.15774806169E+01 -0.10504535249E+01  0.53515574432E+01  0.56772409702E+01  0.51100000000E-03 0. -1.
         12    1    3    3    0    0 -0.36890822523E+02 -0.10047556925E+02 -0.19035774071E+02  0.42711203227E+02  0.00000000000E+00 0. -1.
</event>
<event>
 7    1  0.6953847E-012  0.5930195E+02  0.7816164E-02  0.1266605E+00
        -11   -1    0    0    0    0  0.00000000000E+00  0.00000000000E+00  0.45593999997E+02  0.45594000000E+02  0.51100000000E-03 0.  1.
         11   -1    0    0    0    0 -0.00000000000E+00 -0.00000000000E+00 -0.45593999997E+02  0.45594000000E+02  0.51100000000E-03 0. -1.
    9900012    2    1    2    0    0 -0.15331394072E+02  0.17815930131E+02 -0.21546723520E+02  0.59301948110E+02  0.50000007446E+02 0.  0.
        -12    1    1    2    0    0  0.15331394072E+02 -0.17815930131E+02  0.21546723520E+02  0.31886051890E+02  0.00000000000E+00 0.  1.
         11    1    3    3    0    0 -0.93285416027E+01  0.31748892593E+02 -0.23403145137E+02  0.40530495579E+02  0.51100000000E-03 0. -1.
        -11    1    3    3    0    0 -0.38985699668E+01 -0.28937458877E+01  0.51331140880E+01  0.70655129715E+01  0.51100000000E-03 0.  1.
        -12    1    3    3    0    0 -0.21042825028E+01 -0.11039216574E+02 -0.32766924712E+01  0.11705939560E+02  0.00000000000E+00 0.  1.
</event>
<event>
 7    1  0.6953847E-012  0.5930198E+02  0.7816164E-02  0.1266605E+00
        -11   -1    0    0    0    0  0.00000000000E+00  0.00000000000E+00  0.45593999997E+02  0.45594000000E+02  0.51100000000E-03 0.  1.
         11   -1    0    0    0    0 -0.00000000000E+00 -0.00000000000E+00 -0.45593999997E+02  0.45594000000E+02  0.51100000000E-03 0. -1.
    9900012    2    1    2    0    0 -0.80103682299E+01 -0.25472859918E+02  0.17426571999E+02  0.59301984206E+02  0.50000073275E+02 0.  0.
        -12    1    1    2    0    0  0.80103682299E+01  0.25472859918E+02 -0.17426571999E+02  0.31886015794E+02  0.00000000000E+00 0.  1.
         11    1    3    3    0    0  0.66261115553E+01 -0.18755120749E+02  0.56978214729E+01  0.20691183592E+02  0.51100000000E-03 0.  1.
        -11    1    3    3    0    0 -0.13897256715E+01 -0.17029843941E+01 -0.11334336529E+02  0.11545504670E+02  0.51100000000E-03 0. -1.
        -12    1    3    3    0    0 -0.13246754114E+02 -0.50147547750E+01  0.23063087055E+02  0.27065295944E+02  0.00000000000E+00 0.  1.
</event>
<event>
 7    1  0.6953847E-012  0.5930194E+02  0.7816164E-02  0.1266605E+00
        -11   -1    0    0    0    0  0.00000000000E+00  0.00000000000E+00  0.45593999997E+02  0.45594000000E+02  0.51100000000E-03 0. -1.
         11   -1    0    0    0    0 -0.00000000000E+00 -0.00000000000E+00 -0.45593999997E+02  0.45594000000E+02  0.51100000000E-03 0.  1.
    9900012    2    1    2    0    0 -0.14488029267E+02  0.17576393291E+02  0.22313411079E+02  0.59301938669E+02  0.49999990228E+02 0.  0.
        -12    1    1    2    0    0  0.14488029267E+02 -0.17576393291E+02 -0.22313411079E+02  0.31886061331E+02  0.00000000000E+00 0.  1.
         11    1    3    3    0    0  0.96900006902E+00 -0.36287782746E+01  0.27300331969E+01  0.46432827199E+01  0.51100000000E-03 0. -1.
        -11    1    3    3    0    0  0.84774996789E+01 -0.80491434790E+01 -0.79561237284E+00  0.11717069210E+02  0.51100000000E-03 0.  1.
         12    1    3    3    0    0 -0.23934529015E+02  0.29254315045E+02  0.20378990255E+02  0.42941586740E+02  0.00000000000E+00 0. -1.
</event>
<event>
 7    1  0.6953847E-012  0.5930200E+02  0.7816164E-02  0.1266605E+00
        -11   -1    0    0    0    0  0.00000000000E+00  0.00000000000E+00  0.45593999997E+02  0.45594000000E+02  0.51100000000E-03 0.  1.
         11   -1    0    0    0    0 -0.00000000000E+00 -0.00000000000E+00 -0.45593999997E+02  0.45594000000E+02  0.51100000000E-03 0. -1.
    9900012    2    1    2    0    0  0.23137852250E+02  0.20555479573E+02 -0.76700090277E+01  0.59302000162E+02  0.50000102375E+02 0.  0.
        -12    1    1    2    0    0 -0.23137852250E+02 -0.20555479573E+02  0.76700090277E+01  0.31885999838E+02  0.00000000000E+00 0.  1.
         11    1    3    3    0    0  0.14132817962E+02 -0.85463812564E+01 -0.12967488989E+02  0.20998403441E+02  0.51100000000E-03 0. -1.
        -11    1    3    3    0    0  0.66846431549E+01  0.47887697021E+01 -0.71448168576E+01  0.10893354743E+02  0.51100000000E-03 0.  1.
        -12    1    3    3    0    0  0.23203911325E+01  0.24313091127E+02  0.12442296819E+02  0.27410241978E+02  0.00000000000E+00 0.  1.
</event>
<event>
 7    1  0.6953847E-012  0.5930191E+02  0.7816164E-02  0.1266605E+00
        -11   -1    0    0    0    0  0.00000000000E+00  0.00000000000E+00  0.45593999997E+02  0.45594000000E+02  0.51100000000E-03 0.  1.
         11   -1    0    0    0    0 -0.00000000000E+00 -0.00000000000E+00 -0.45593999997E+02  0.45594000000E+02  0.51100000000E-03 0. -1.
    9900012    2    1    2    0    0 -0.23026948679E+02  0.13832623153E+02 -0.17179656601E+02  0.59301914795E+02  0.49999946687E+02 0.  0.
        -12    1    1    2    0    0  0.23026948679E+02 -0.13832623153E+02  0.17179656601E+02  0.31886085205E+02  0.00000000000E+00 0.  1.
         11    1    3    3    0    0 -0.12878868956E+02 -0.85898224655E+01 -0.39581504478E+01  0.15978650468E+02  0.51100000000E-03 0. -1.
        -11    1    3    3    0    0  0.11405543893E+02  0.22486345669E+01 -0.51717549952E+01  0.12723593789E+02  0.51100000000E-03 0.  1.
         12    1    3    3    0    0 -0.21553623616E+02  0.20173811052E+02 -0.80497511577E+01  0.30599670538E+02  0.00000000000E+00 0. -1.
</event>
<event>
 7    1  0.6953847E-012  0.5930195E+02  0.7816164E-02  0.1266605E+00
        -11   -1    0    0    0    0  0.00000000000E+00  0.00000000000E+00  0.45593999997E+02  0.45594000000E+02  0.51100000000E-03 0. -1.
         11   -1    0    0    0    0 -0.00000000000E+00 -0.00000000000E+00 -0.45593999997E+02  0.45594000000E+02  0.51100000000E-03 0.  1.
    9900012    2    1    2    0    0 -0.13519729086E+02  0.57663002570E+01  0.28296413941E+02  0.59301947640E+02  0.50000006588E+02 0.  0.
        -12    1    1    2    0    0  0.13519729086E+02 -0.57663002570E+01 -0.28296413941E+02  0.31886052360E+02  0.00000000000E+00 0.  1.
         11    1    3    3    0    0 -0.14548594991E+02  0.12356629848E+02  0.16067185753E+02  0.24949997509E+02  0.51100000000E-03 0. -1.
        -11    1    3    3    0    0  0.11836613602E+01 -0.52842879447E+00  0.22439417096E+02  0.22476826534E+02  0.51100000000E-03 0.  1.
        -12    1    3    3    0    0 -0.15479545467E+00 -0.60619007964E+01 -0.10210188908E+02  0.11875123597E+02  0.00000000000E+00 0.  1.
</event>
<event>
 7    1  0.6953847E-012  0.5930197E+02  0.7816164E-02  0.1266605E+00
        -11   -1    0    0    0    0  0.00000000000E+00  0.00000000000E+00  0.45593999997E+02  0.45594000000E+02  0.51100000000E-03 0.  1.
         11   -1    0    0    0    0 -0.00000000000E+00 -0.00000000000E+00 -0.45593999997E+02  0.45594000000E+02  0.51100000000E-03 0. -1.
    9900012    2    1    2    0    0 -0.14221719491E+02 -0.10016269840E+02 -0.26723319325E+02  0.59301972299E+02  0.50000051560E+02 0.  0.
        -12    1    1    2    0    0  0.14221719491E+02  0.10016269840E+02  0.26723319325E+02  0.31886027701E+02  0.00000000000E+00 0.  1.
         11    1    3    3    0    0 -0.25696563268E+02 -0.96364177978E+01 -0.16489206195E+02  0.32016680542E+02  0.51100000000E-03 0. -1.
        -11    1    3    3    0    0  0.49822679036E+01 -0.58701007810E+01  0.54579326684E+01  0.94376960068E+01  0.51100000000E-03 0.  1.
         12    1    3    3    0    0  0.64925758734E+01  0.54902487384E+01 -0.15692045799E+02  0.17847595750E+02  0.00000000000E+00 0. -1.
</event>
<event>
 7    1  0.6953847E-012  0.5930198E+02  0.7816164E-02  0.1266605E+00
        -11   -1    0    0    0    0  0.00000000000E+00  0.00000000000E+00  0.45593999997E+02  0.45594000000E+02  0.51100000000E-03 0.  1.
         11   -1    0    0    0    0 -0.00000000000E+00 -0.00000000000E+00 -0.45593999997E+02  0.45594000000E+02  0.51100000000E-03 0. -1.
    9900012    2    1    2    0    0 -0.25510283415E+02 -0.10551440875E+02 -0.15956535811E+02  0.59301976423E+02  0.50000059082E+02 0.  0.
        -12    1    1    2    0    0  0.25510283415E+02  0.10551440875E+02  0.15956535811E+02  0.31886023577E+02  0.00000000000E+00 0.  1.
         11    1    3    3    0    0  0.83425136895E+01  0.13900216929E+01 -0.38402860054E+01  0.92885678030E+01  0.51100000000E-03 0. -1.
        -11    1    3    3    0    0 -0.95054946028E+01  0.70167296095E+01 -0.14916637306E+02  0.19028793730E+02  0.51100000000E-03 0.  1.
        -12    1    3    3    0    0 -0.24347302501E+02 -0.18958192178E+02  0.28003875003E+01  0.30984614890E+02  0.00000000000E+00 0.  1.
</event>
<event>
 7    1  0.6953847E-012  0.5930194E+02  0.7816164E-02  0.1266605E+00
        -11   -1    0    0    0    0  0.00000000000E+00  0.00000000000E+00  0.45593999997E+02  0.45594000000E+02  0.51100000000E-03 0.  1.
         11   -1    0    0    0    0 -0.00000000000E+00 -0.00000000000E+00 -0.45593999997E+02  0.45594000000E+02  0.51100000000E-03 0. -1.
    9900012    2    1    2    0    0  0.15851057922E+02 -0.27182900094E+02 -0.51531296853E+01  0.59301939718E+02  0.49999992139E+02 0.  0.
        -12    1    1    2    0    0 -0.15851057922E+02  0.27182900094E+02  0.51531296853E+01  0.31886060282E+02  0.00000000000E+00 0.  1.
         11    1    3    3    0    0  0.76560805567E+01 -0.19954767350E+02  0.17258251387E+02  0.27470994716E+02  0.51100000000E-03 0.  1.
        -11    1    3    3    0    0  0.12315848328E+02 -0.24794844564E+01 -0.53623690085E+01  0.13659537505E+02  0.51100000000E-03 0. -1.
        -12    1    3    3    0    0 -0.41208709627E+01 -0.47486482871E+01 -0.17049012064E+02  0.18171407496E+02  0.00000000000E+00 0.  1.
</event>
<event>
 7    1  0.6953847E-012  0.5930199E+02  0.7816164E-02  0.1266605E+00
        -11   -1    0    0    0    0  0.00000000000E+00  0.00000000000E+00  0.45593999997E+02  0.45594000000E+02  0.51100000000E-03 0.  1.
         11   -1    0    0    0    0 -0.00000000000E+00 -0.00000000000E+00 -0.45593999997E+02  0.45594000000E+02  0.51100000000E-03 0. -1.
    9900012    2    1    2    0    0  0.42297959801E+01  0.69471001675E+01 -0.30831221250E+02  0.59301990865E+02  0.50000085420E+02 0.  0.
        -12    1    1    2    0    0 -0.42297959801E+01 -0.69471001675E+01  0.30831221250E+02  0.31886009135E+02  0.00000000000E+00 0.  1.
         11    1    3    3    0    0  0.51469819962E+00 -0.19845628884E+01 -0.35837414951E+02  0.35896012518E+02  0.51100000000E-03 0. -1.
        -11    1    3    3    0    0 -0.17693013842E+01 -0.58799501678E+01 -0.15049941186E+01  0.63221237668E+01  0.51100000000E-03 0.  1.
        -12    1    3    3    0    0  0.54843991647E+01  0.14811613224E+02  0.65111878190E+01  0.17083854580E+02  0.00000000000E+00 0.  1.
</event>
<event>
 7    1  0.6953847E-012  0.5930205E+02  0.7816164E-02  0.1266604E+00
        -11   -1    0    0    0    0  0.00000000000E+00  0.00000000000E+00  0.45593999997E+02  0.45594000000E+02  0.51100000000E-03 0.  1.
         11   -1    0    0    0    0 -0.00000000000E+00 -0.00000000000E+00 -0.45593999997E+02  0.45594000000E+02  0.51100000000E-03 0. -1.
    9900012    2    1    2    0    0  0.14366030182E+02 -0.39369597776E+01 -0.28192756858E+02  0.59302046749E+02  0.50000187338E+02 0.  0.
        -12    1    1    2    0    0 -0.14366030182E+02  0.39369597776E+01  0.28192756858E+02  0.31885953251E+02  0.00000000000E+00 0.  1.
         11    1    3    3    0    0 -0.44453169473E+01 -0.10809250862E+02 -0.88974532139E+01  0.14688955747E+02  0.51100000000E-03 0. -1.
        -11    1    3    3    0    0 -0.59353361347E+01 -0.88803340504E+01 -0.31878742287E+01  0.11146797309E+02  0.51100000000E-03 0.  1.
         12    1    3    3    0    0  0.24746683264E+02  0.15752625135E+02 -0.16107429416E+02  0.33466293694E+02  0.00000000000E+00 0. -1.
</event>
<event>
 7    1  0.6953847E-012  0.5930184E+02  0.7816164E-02  0.1266605E+00
        -11   -1    0    0    0    0  0.00000000000E+00  0.00000000000E+00  0.45593999997E+02  0.45594000000E+02  0.51100000000E-03 0. -1.
         11   -1    0    0    0    0 -0.00000000000E+00 -0.00000000000E+00 -0.45593999997E+02  0.45594000000E+02  0.51100000000E-03 0.  1.
    9900012    2    1    2    0    0 -0.10529083322E+02 -0.23423932186E+02  0.18899335194E+02  0.59301842103E+02  0.49999814114E+02 0.  0.
        -12    1    1    2    0    0  0.10529083322E+02  0.23423932186E+02 -0.18899335194E+02  0.31886157897E+02  0.00000000000E+00 0.  1.
         11    1    3    3    0    0 -0.15819217780E+02 -0.17833037454E+02  0.30837816189E+02  0.38977375279E+02  0.51100000000E-03 0. -1.
        -11    1    3    3    0    0 -0.35442033234E+01 -0.60736788493E+01 -0.26997624754E+01  0.75325739058E+01  0.51100000000E-03 0.  1.
        -12    1    3    3    0    0  0.88343377820E+01  0.48278411706E+00 -0.92387185205E+01  0.12791892919E+02  0.00000000000E+00 0.  1.
</event>
<event>
 7    1  0.6953847E-012  0.5930195E+02  0.7816164E-02  0.1266605E+00
        -11   -1    0    0    0    0  0.00000000000E+00  0.00000000000E+00  0.45593999997E+02  0.45594000000E+02  0.51100000000E-03 0. -1.
         11   -1    0    0    0    0 -0.00000000000E+00 -0.00000000000E+00 -0.45593999997E+02  0.45594000000E+02  0.51100000000E-03 0.  1.
    9900012    2    1    2    0    0 -0.24307642784E+01 -0.11981724613E+02  0.29449107720E+02  0.59301948423E+02  0.50000008015E+02 0.  0.
        -12    1    1    2    0    0  0.24307642784E+01  0.11981724613E+02 -0.29449107720E+02  0.31886051577E+02  0.00000000000E+00 0.  1.
         11    1    3    3    0    0 -0.32463218539E+01 -0.11083290726E+02  0.26877959474E+02  0.29254104749E+02  0.51100000000E-03 0. -1.
        -11    1    3    3    0    0  0.99872811442E+01 -0.11383173045E+02  0.49166821816E+01  0.15921563277E+02  0.51100000000E-03 0.  1.
         12    1    3    3    0    0 -0.91717235687E+01  0.10484739158E+02 -0.23455339356E+01  0.14126280398E+02  0.00000000000E+00 0. -1.
</event>
<event>
 7    1  0.6953847E-012  0.5930196E+02  0.7816164E-02  0.1266605E+00
        -11   -1    0    0    0    0  0.00000000000E+00  0.00000000000E+00  0.45593999997E+02  0.45594000000E+02  0.51100000000E-03 0.  1.
         11   -1    0    0    0    0 -0.00000000000E+00 -0.00000000000E+00 -0.45593999997E+02  0.45594000000E+02  0.51100000000E-03 0. -1.
    9900012    2    1    2    0    0  0.24904869964E+02  0.19028323240E+02  0.58643163366E+01  0.59301955414E+02  0.50000020765E+02 0.  0.
        -12    1    1    2    0    0 -0.24904869964E+02 -0.19028323240E+02 -0.58643163366E+01  0.31886044586E+02  0.00000000000E+00 0.  1.
         11    1    3    3    0    0 -0.10542837794E+02  0.14638460662E+02 -0.41766936183E+01  0.18517038887E+02  0.51100000000E-03 0. -1.
        -11    1    3    3    0    0 -0.19676474137E+00 -0.21108668939E+01  0.33128232668E+01  0.39330997528E+01  0.51100000000E-03 0.  1.
         12    1    3    3    0    0  0.35644472499E+02  0.65007294717E+01  0.67281866881E+01  0.36851816774E+02  0.00000000000E+00 0. -1.
</event>
<event>
 7    1  0.6953847E-012  0.5930187E+02  0.7816164E-02  0.1266605E+00
        -11   -1    0    0    0    0  0.00000000000E+00  0.00000000000E+00  0.45593999997E+02  0.45594000000E+02  0.51100000000E-03 0.  1.
         11   -1    0    0    0    0 -0.00000000000E+00 -0.00000000000E+00 -0.45593999997E+02  0.45594000000E+02  0.51100000000E-03 0. -1.
    9900012    2    1    2    0    0  0.62833271891E+01 -0.31237796513E+02  0.12020548462E+01  0.59301873434E+02  0.49999871254E+02 0.  0.
        -12    1    1    2    0    0 -0.62833271891E+01  0.31237796513E+02 -0.12020548462E+01  0.31886126566E+02  0.00000000000E+00 0.  1.
         11    1    3    3    0    0  0.27757353571E+01  0.17051719902E+01  0.15162116481E+01  0.35932180997E+01  0.51100000000E-03 0. -1.
        -11    1    3    3    0    0  0.61848710701E+01  0.57490751985E+01 -0.12473292978E+02  0.15062786388E+02  0.51100000000E-03 0.  1.
        -12    1    3    3    0    0 -0.26772792381E+01 -0.38692043701E+02  0.12159136176E+02  0.40645868947E+02  0.00000000000E+00 0.  1.
</event>
<event>
 7    1  0.6953847E-012  0.5930197E+02  0.7816164E-02  0.1266605E+00
        -11   -1    0    0    0    0  0.00000000000E+00  0.00000000000E+00  0.45593999997E+02  0.45594000000E+02  0.51100000000E-03 0.  1.
         11   -1    0    0    0    0 -0.00000000000E+00 -0.00000000000E+00 -0.45593999997E+02  0.45594000000E+02  0.51100000000E-03 0. -1.
    9900012    2    1    2    0    0  0.20790562739E+02  0.10676875540E+02 -0.21690459078E+02  0.59301965670E+02  0.50000039470E+02 0.  0.
        -12    1    1    2    0    0 -0.20790562739E+02 -0.10676875540E+02  0.21690459078E+02  0.31886034330E+02  0.00000000000E+00 0.  1.
         11    1    3    3    0    0 -0.63060861931E+01 -0.46243712108E+01 -0.61674340454E+01  0.99593561607E+01  0.51100000000E-03 0. -1.
        -11    1    3    3    0    0  0.60206703364E+01 -0.10373255563E+02  0.13784564393E+01  0.12072822566E+02  0.51100000000E-03 0.  1.
         12    1    3    3    0    0  0.21075978596E+02  0.25674502315E+02 -0.16901481472E+02  0.37269786943E+02  0.00000000000E+00 0. -1.
</event>
<event>
 7    1  0.6953847E-012  0.5930193E+02  0.7816164E-02  0.1266605E+00
        -11   -1    0    0    0    0  0.00000000000E+00  0.00000000000E+00  0.45593999997E+02  0.45594000000E+02  0.51100000000E-03 0. -1.
         11   -1    0    0    0    0 -0.00000000000E+00 -0.00000000000E+00 -0.45593999997E+02  0.45594000000E+02  0.51100000000E-03 0.  1.
    9900012    2    1    2    0    0  0.79350366206E+01  0.28485068055E+02  0.11931367987E+02  0.59301930152E+02  0.49999974695E+02 0.  0.
        -12    1    1    2    0    0 -0.79350366206E+01 -0.28485068055E+02 -0.11931367987E+02  0.31886069848E+02  0.00000000000E+00 0.  1.
         11    1    3    3    0    0  0.41301411172E+01 -0.88561313220E+01  0.63952516648E+01  0.11678543221E+02  0.51100000000E-03 0. -1.
        -11    1    3    3    0    0 -0.92672969504E+01  0.18668531814E+01  0.31865376173E+00  0.94588304800E+01  0.51100000000E-03 0.  1.
        -12    1    3    3    0    0  0.13072192454E+02  0.35474346196E+02  0.52174625603E+01  0.38164556452E+02  0.00000000000E+00 0.  1.
</event>
<event>
 7    1  0.6953847E-012  0.5930195E+02  0.7816164E-02  0.1266605E+00
        -11   -1    0    0    0    0  0.00000000000E+00  0.00000000000E+00  0.45593999997E+02  0.45594000000E+02  0.51100000000E-03 0. -1.
         11   -1    0    0    0    0 -0.00000000000E+00 -0.00000000000E+00 -0.45593999997E+02  0.45594000000E+02  0.51100000000E-03 0.  1.
    9900012    2    1    2    0    0 -0.11969033537E+02  0.29425362943E+02  0.27586915923E+01  0.59301950896E+02  0.50000012526E+02 0.  0.
        -12    1    1    2    0    0  0.11969033537E+02 -0.29425362943E+02 -0.27586915923E+01  0.31886049104E+02  0.00000000000E+00 0.  1.
         11    1    3    3    0    0 -0.56926923327E+01  0.16715379709E+02  0.13587970181E+02  0.22281014310E+02  0.51100000000E-03 0. -1.
        -11    1    3    3    0    0  0.71622692927E+01  0.16026690085E+02  0.25873505994E+01  0.17743936426E+02  0.51100000000E-03 0.  1.
        -12    1    3    3    0    0 -0.13438610497E+02 -0.33167068500E+01 -0.13416629188E+02  0.19277000160E+02  0.00000000000E+00 0.  1.
</event>
<event>
 7    1  0.6953847E-012  0.5930178E+02  0.7816164E-02  0.1266605E+00
        -11   -1    0    0    0    0  0.00000000000E+00  0.00000000000E+00  0.45593999997E+02  0.45594000000E+02  0.51100000000E-03 0.  1.
         11   -1    0    0    0    0 -0.00000000000E+00 -0.00000000000E+00 -0.45593999997E+02  0.45594000000E+02  0.51100000000E-03 0. -1.
    9900012    2    1    2    0    0  0.18376829290E+02  0.23844844364E+02  0.10509360691E+02  0.59301778530E+02  0.49999698172E+02 0.  0.
        -12    1    1    2    0    0 -0.18376829290E+02 -0.23844844364E+02 -0.10509360691E+02  0.31886221470E+02  0.00000000000E+00 0.  1.
         11    1    3    3    0    0  0.93371323434E+01  0.31670296224E+02  0.84170129172E+01  0.34073975554E+02  0.51100000000E-03 0. -1.
        -11    1    3    3    0    0  0.19444226118E+01  0.11090332535E+00  0.11108041287E+02  0.11277484664E+02  0.51100000000E-03 0.  1.
         12    1    3    3    0    0  0.70952743347E+01 -0.79363551856E+01 -0.90156935131E+01  0.13950318313E+02  0.00000000000E+00 0. -1.
</event>
<event>
 7    1  0.6953847E-012  0.5930193E+02  0.7816164E-02  0.1266605E+00
        -11   -1    0    0    0    0  0.00000000000E+00  0.00000000000E+00  0.45593999997E+02  0.45594000000E+02  0.51100000000E-03 0.  1.
         11   -1    0    0    0    0 -0.00000000000E+00 -0.00000000000E+00 -0.45593999997E+02  0.45594000000E+02  0.51100000000E-03 0. -1.
    9900012    2    1    2    0    0  0.10877680021E+02  0.16340776394E+02 -0.25127209754E+02  0.59301928342E+02  0.49999971393E+02 0.  0.
        -12    1    1    2    0    0 -0.10877680021E+02 -0.16340776394E+02  0.25127209754E+02  0.31886071658E+02  0.00000000000E+00 0.  1.
         11    1    3    3    0    0  0.71862470205E+01  0.19472268967E+02 -0.20612153889E+00  0.20757020289E+02  0.51100000000E-03 0. -1.
        -11    1    3    3    0    0  0.72231537652E+01 -0.28176349170E+01  0.44641053145E+01  0.89465777458E+01  0.51100000000E-03 0.  1.
         12    1    3    3    0    0 -0.35317207644E+01 -0.31385765605E+00 -0.29385193529E+02  0.29598330307E+02  0.00000000000E+00 0. -1.
</event>
<event>
 7    1  0.6953847E-012  0.5930194E+02  0.7816164E-02  0.1266605E+00
        -11   -1    0    0    0    0  0.00000000000E+00  0.00000000000E+00  0.45593999997E+02  0.45594000000E+02  0.51100000000E-03 0.  1.
         11   -1    0    0    0    0 -0.00000000000E+00 -0.00000000000E+00 -0.45593999997E+02  0.45594000000E+02  0.51100000000E-03 0. -1.
    9900012    2    1    2    0    0 -0.22630448831E+01 -0.31708834328E+02  0.24798343098E+01  0.59301935257E+02  0.49999984005E+02 0.  0.
        -12    1    1    2    0    0  0.22630448831E+01  0.31708834328E+02 -0.24798343098E+01  0.31886064743E+02  0.00000000000E+00 0.  1.
         11    1    3    3    0    0  0.87477418755E-01  0.67243824572E+01  0.12813229534E+01  0.68459302144E+01  0.51100000000E-03 0. -1.
        -11    1    3    3    0    0 -0.11044791533E+02 -0.47535261766E+01 -0.10287837784E+02  0.15824760272E+02  0.51100000000E-03 0.  1.
         12    1    3    3    0    0  0.86942692316E+01 -0.33679690608E+02  0.11486349140E+02  0.36631244771E+02  0.00000000000E+00 0. -1.
</event>
<event>
 7    1  0.6953847E-012  0.5930199E+02  0.7816164E-02  0.1266605E+00
        -11   -1    0    0    0    0  0.00000000000E+00  0.00000000000E+00  0.45593999997E+02  0.45594000000E+02  0.51100000000E-03 0.  1.
         11   -1    0    0    0    0 -0.00000000000E+00 -0.00000000000E+00 -0.45593999997E+02  0.45594000000E+02  0.51100000000E-03 0. -1.
    9900012    2    1    2    0    0 -0.99170451675E+01  0.27947670297E+02 -0.11717408484E+02  0.59301988624E+02  0.50000081333E+02 0.  0.
        -12    1    1    2    0    0  0.99170451675E+01 -0.27947670297E+02  0.11717408484E+02  0.31886011376E+02  0.00000000000E+00 0.  1.
         11    1    3    3    0    0  0.86778666634E+01 -0.40853980121E+01 -0.33496308255E+00  0.95972937474E+01  0.51100000000E-03 0. -1.
        -11    1    3    3    0    0 -0.20809436425E+02  0.10787497868E+02 -0.15295612837E+02  0.27988542779E+02  0.51100000000E-03 0.  1.
         12    1    3    3    0    0  0.22145245941E+01  0.21245570441E+02  0.39131674353E+01  0.21716152097E+02  0.00000000000E+00 0. -1.
</event>
<event>
 7    1  0.6953847E-012  0.5930192E+02  0.7816164E-02  0.1266605E+00
        -11   -1    0    0    0    0  0.00000000000E+00  0.00000000000E+00  0.45593999997E+02  0.45594000000E+02  0.51100000000E-03 0.  1.
         11   -1    0    0    0    0 -0.00000000000E+00 -0.00000000000E+00 -0.45593999997E+02  0.45594000000E+02  0.51100000000E-03 0. -1.
    9900012    2    1    2    0    0 -0.15741505147E+02 -0.11305642738E+02  0.25320140224E+02  0.59301920859E+02  0.49999957747E+02 0.  0.
        -12    1    1    2    0    0  0.15741505147E+02  0.11305642738E+02 -0.25320140224E+02  0.31886079141E+02  0.00000000000E+00 0.  1.
         11    1    3    3    0    0 -0.16436283007E+02 -0.14452534444E+02 -0.77396346853E+01  0.23214846462E+02  0.51100000000E-03 0. -1.
        -11    1    3    3    0    0  0.47451902938E+01  0.54787522733E+01  0.88930748386E+01  0.11472590716E+02  0.51100000000E-03 0.  1.
        -12    1    3    3    0    0 -0.40504124338E+01 -0.23318605678E+01  0.24166700070E+02  0.24614483681E+02  0.00000000000E+00 0.  1.
</event>
<event>
 7    1  0.6953847E-012  0.5930194E+02  0.7816164E-02  0.1266605E+00
        -11   -1    0    0    0    0  0.00000000000E+00  0.00000000000E+00  0.45593999997E+02  0.45594000000E+02  0.51100000000E-03 0. -1.
         11   -1    0    0    0    0 -0.00000000000E+00 -0.00000000000E+00 -0.45593999997E+02  0.45594000000E+02  0.51100000000E-03 0.  1.
    9900012    2    1    2    0    0  0.23166682728E+02  0.50339817320E+01  0.21323334762E+02  0.59301940882E+02  0.49999994263E+02 0.  0.
        -12    1    1    2    0    0 -0.23166682728E+02 -0.50339817320E+01 -0.21323334762E+02  0.31886059118E+02  0.00000000000E+00 0.  1.
         11    1    3    3    0    0  0.27899841834E+02  0.11256615267E+02  0.10263981887E+02  0.31787763150E+02  0.51100000000E-03 0. -1.
        -11    1    3    3    0    0  0.60591283651E-01  0.88910828406E+01  0.65066021811E+01  0.11017753745E+02  0.51100000000E-03 0.  1.
        -12    1    3    3    0    0 -0.47937503895E+01 -0.15113716376E+02  0.45527506943E+01  0.16496423987E+02  0.00000000000E+00 0.  1.
</event>
<event>
 7    1  0.6953847E-012  0.5930194E+02  0.7816164E-02  0.1266605E+00
        -11   -1    0    0    0    0  0.00000000000E+00  0.00000000000E+00  0.45593999997E+02  0.45594000000E+02  0.51100000000E-03 0.  1.
         11   -1    0    0    0    0 -0.00000000000E+00 -0.00000000000E+00 -0.45593999997E+02  0.45594000000E+02  0.51100000000E-03 0. -1.
    9900012    2    1    2    0    0 -0.26026799096E+02  0.42837716178E+01  0.17915804030E+02  0.59301937143E+02  0.49999987444E+02 0.  0.
        -12    1    1    2    0    0  0.26026799096E+02 -0.42837716178E+01 -0.17915804030E+02  0.31886062857E+02  0.00000000000E+00 0.  1.
         11    1    3    3    0    0 -0.35433649986E+01  0.14941614484E+02 -0.14559793761E+01  0.15424887524E+02  0.51100000000E-03 0. -1.
        -11    1    3    3    0    0 -0.24264576194E+02 -0.93254073098E+01  0.16833568015E+01  0.26049310351E+02  0.51100000000E-03 0.  1.
         12    1    3    3    0    0  0.17811420959E+01 -0.13324355567E+01  0.17688426605E+02  0.17827739269E+02  0.00000000000E+00 0. -1.
</event>
<event>
 7    1  0.6953847E-012  0.5930194E+02  0.7816164E-02  0.1266605E+00
        -11   -1    0    0    0    0  0.00000000000E+00  0.00000000000E+00  0.45593999997E+02  0.45594000000E+02  0.51100000000E-03 0. -1.
         11   -1    0    0    0    0 -0.00000000000E+00 -0.00000000000E+00 -0.45593999997E+02  0.45594000000E+02  0.51100000000E-03 0.  1.
    9900012    2    1    2    0    0 -0.73568439085E+01 -0.13096414528E+02  0.28126177616E+02  0.59301935755E+02  0.49999984912E+02 0.  0.
        -12    1    1    2    0    0  0.73568439085E+01  0.13096414528E+02 -0.28126177616E+02  0.31886064245E+02  0.00000000000E+00 0.  1.
         11    1    3    3    0    0  0.11245053828E+02 -0.19229081879E+02  0.17078475713E+02  0.28069256464E+02  0.51100000000E-03 0. -1.
        -11    1    3    3    0    0 -0.43575478336E+01 -0.37129359351E+01  0.12607840767E+02  0.13846723997E+02  0.51100000000E-03 0.  1.
        -12    1    3    3    0    0 -0.14244349903E+02  0.98456032858E+01 -0.15601388641E+01  0.17385955294E+02  0.00000000000E+00 0.  1.
</event>
<event>
 7    1  0.6953847E-012  0.5930193E+02  0.7816164E-02  0.1266605E+00
        -11   -1    0    0    0    0  0.00000000000E+00  0.00000000000E+00  0.45593999997E+02  0.45594000000E+02  0.51100000000E-03 0. -1.
         11   -1    0    0    0    0 -0.00000000000E+00 -0.00000000000E+00 -0.45593999997E+02  0.45594000000E+02  0.51100000000E-03 0.  1.
    9900012    2    1    2    0    0  0.17088254699E+02 -0.25328493832E+02  0.91203353419E+01  0.59301928351E+02  0.49999971410E+02 0.  0.
        -12    1    1    2    0    0 -0.17088254699E+02  0.25328493832E+02 -0.91203353419E+01  0.31886071649E+02  0.00000000000E+00 0.  1.
         11    1    3    3    0    0  0.58888392719E+01 -0.60850519788E+00 -0.25633566716E+01  0.64513180229E+01  0.51100000000E-03 0. -1.
        -11    1    3    3    0    0  0.26955885482E+02 -0.16084124533E+02  0.14648907139E+02  0.34639707053E+02  0.51100000000E-03 0.  1.
         12    1    3    3    0    0 -0.15756470055E+02 -0.86358641003E+01 -0.29652151251E+01  0.18210903275E+02  0.00000000000E+00 0. -1.
</event>
<event>
 7    1  0.6953847E-012  0.5930197E+02  0.7816164E-02  0.1266605E+00
        -11   -1    0    0    0    0  0.00000000000E+00  0.00000000000E+00  0.45593999997E+02  0.45594000000E+02  0.51100000000E-03 0. -1.
         11   -1    0    0    0    0 -0.00000000000E+00 -0.00000000000E+00 -0.45593999997E+02  0.45594000000E+02  0.51100000000E-03 0.  1.
    9900012    2    1    2    0    0 -0.16826642137E+02  0.19756474453E+02  0.18527404008E+02  0.59301970650E+02  0.50000048553E+02 0.  0.
        -12    1    1    2    0    0  0.16826642137E+02 -0.19756474453E+02 -0.18527404008E+02  0.31886029350E+02  0.00000000000E+00 0.  1.
         11    1    3    3    0    0 -0.83471182709E+01 -0.10140262361E+01  0.11679323341E+02  0.14391289956E+02  0.51100000000E-03 0. -1.
        -11    1    3    3    0    0  0.86835448856E+01 -0.48580231859E+01 -0.58636550360E+01  0.11549319967E+02  0.51100000000E-03 0.  1.
         12    1    3    3    0    0 -0.17163068752E+02  0.25628523875E+02  0.12711735703E+02  0.33361360727E+02  0.00000000000E+00 0. -1.
</event>
<event>
 7    1  0.6953847E-012  0.5930195E+02  0.7816164E-02  0.1266605E+00
        -11   -1    0    0    0    0  0.00000000000E+00  0.00000000000E+00  0.45593999997E+02  0.45594000000E+02  0.51100000000E-03 0. -1.
         11   -1    0    0    0    0 -0.00000000000E+00 -0.00000000000E+00 -0.45593999997E+02  0.45594000000E+02  0.51100000000E-03 0.  1.
    9900012    2    1    2    0    0  0.25008330445E+02 -0.18394300671E+02  0.72768872211E+01  0.59301953264E+02  0.50000016845E+02 0.  0.
        -12    1    1    2    0    0 -0.25008330445E+02  0.18394300671E+02 -0.72768872211E+01  0.31886046736E+02  0.00000000000E+00 0.  1.
         11    1    3    3    0    0  0.13090840601E+02 -0.14243499072E+02  0.19799634158E+02  0.27681634463E+02  0.51100000000E-03 0. -1.
        -11    1    3    3    0    0 -0.57457143354E+01 -0.60980725848E+00  0.41185759162E+01  0.70956159673E+01  0.51100000000E-03 0.  1.
        -12    1    3    3    0    0  0.17663204179E+02 -0.35409943403E+01 -0.16641322853E+02  0.24524702834E+02  0.00000000000E+00 0.  1.
</event>
<event>
 7    1  0.6953847E-012  0.5930194E+02  0.7816164E-02  0.1266605E+00
        -11   -1    0    0    0    0  0.00000000000E+00  0.00000000000E+00  0.45593999997E+02  0.45594000000E+02  0.51100000000E-03 0.  1.
         11   -1    0    0    0    0 -0.00000000000E+00 -0.00000000000E+00 -0.45593999997E+02  0.45594000000E+02  0.51100000000E-03 0. -1.
    9900012    2    1    2    0    0 -0.48989050649E+01  0.12916267759E+02 -0.28738324664E+02  0.59301944300E+02  0.50000000496E+02 0.  0.
        -12    1    1    2    0    0  0.48989050649E+01 -0.12916267759E+02  0.28738324664E+02  0.31886055700E+02  0.00000000000E+00 0.  1.
         11    1    3    3    0    0  0.10890617025E+02 -0.31094595525E+01 -0.49075275991E+01  0.12343342549E+02  0.51100000000E-03 0. -1.
        -11    1    3    3    0    0 -0.57955361471E+01 -0.10567765480E+02 -0.71875325017E+01  0.14033051350E+02  0.51100000000E-03 0.  1.
         12    1    3    3    0    0 -0.99939859427E+01  0.26593492791E+02 -0.16643264563E+02  0.32925550400E+02  0.00000000000E+00 0. -1.
</event>
<event>
 7    1  0.6953847E-012  0.5930197E+02  0.7816164E-02  0.1266605E+00
        -11   -1    0    0    0    0  0.00000000000E+00  0.00000000000E+00  0.45593999997E+02  0.45594000000E+02  0.51100000000E-03 0.  1.
         11   -1    0    0    0    0 -0.00000000000E+00 -0.00000000000E+00 -0.45593999997E+02  0.45594000000E+02  0.51100000000E-03 0. -1.
    9900012    2    1    2    0    0  0.30263066170E+02  0.69449578360E+01 -0.72548782349E+01  0.59301970589E+02  0.50000048442E+02 0.  0.
        -12    1    1    2    0    0 -0.30263066170E+02 -0.69449578360E+01  0.72548782349E+01  0.31886029411E+02  0.00000000000E+00 0.  1.
         11    1    3    3    0    0  0.12206799997E+02 -0.81879368854E+01  0.41687506493E+01  0.15278310078E+02  0.51100000000E-03 0. -1.
        -11    1    3    3    0    0  0.13829227405E+02 -0.30353308977E+01 -0.19164933611E+02  0.23827619370E+02  0.51100000000E-03 0.  1.
        -12    1    3    3    0    0  0.42270387685E+01  0.18168225619E+02  0.77413047269E+01  0.20196041141E+02  0.00000000000E+00 0.  1.
</event>
<event>
 7    1  0.6953847E-012  0.5930196E+02  0.7816164E-02  0.1266605E+00
        -11   -1    0    0    0    0  0.00000000000E+00  0.00000000000E+00  0.45593999997E+02  0.45594000000E+02  0.51100000000E-03 0.  1.
         11   -1    0    0    0    0 -0.00000000000E+00 -0.00000000000E+00 -0.45593999997E+02  0.45594000000E+02  0.51100000000E-03 0. -1.
    9900012    2    1    2    0    0 -0.26408674994E+02 -0.49530054371E+01 -0.17168836008E+02  0.59301963751E+02  0.50000035971E+02 0.  0.
        -12    1    1    2    0    0  0.26408674994E+02  0.49530054371E+01  0.17168836008E+02  0.31886036249E+02  0.00000000000E+00 0.  1.
         11    1    3    3    0    0 -0.56595471885E+01 -0.53031013176E+00 -0.14398257128E+02  0.15479712911E+02  0.51100000000E-03 0. -1.
        -11    1    3    3    0    0  0.10820907990E+02 -0.49980367589E+01  0.12811857240E+01  0.11988071500E+02  0.51100000000E-03 0.  1.
         12    1    3    3    0    0 -0.31570035795E+02  0.57534145357E+00 -0.40517646036E+01  0.31834179341E+02  0.00000000000E+00 0. -1.
</event>
<event>
 7    1  0.6953847E-012  0.5930190E+02  0.7816164E-02  0.1266605E+00
        -11   -1    0    0    0    0  0.00000000000E+00  0.00000000000E+00  0.45593999997E+02  0.45594000000E+02  0.51100000000E-03 0. -1.
         11   -1    0    0    0    0 -0.00000000000E+00 -0.00000000000E+00 -0.45593999997E+02  0.45594000000E+02  0.51100000000E-03 0.  1.
    9900012    2    1    2    0    0 -0.10922245371E+01 -0.30625575247E+02 -0.88093342798E+01  0.59301902965E+02  0.49999925112E+02 0.  0.
        -12    1    1    2    0    0  0.10922245371E+01  0.30625575247E+02  0.88093342798E+01  0.31886097035E+02  0.00000000000E+00 0.  1.
         11    1    3    3    0    0 -0.32052691423E+01 -0.42893763203E+01 -0.60807694253E+00  0.53890868727E+01  0.51100000000E-03 0. -1.
        -11    1    3    3    0    0  0.17539541641E+02 -0.32289638555E+02 -0.53457879792E+01  0.37132650436E+02  0.51100000000E-03 0.  1.
         12    1    3    3    0    0 -0.15426497036E+02  0.59534396286E+01 -0.28554693580E+01  0.16780165657E+02  0.00000000000E+00 0. -1.
</event>
<event>
 7    1  0.6953847E-012  0.5930189E+02  0.7816164E-02  0.1266605E+00
        -11   -1    0    0    0    0  0.00000000000E+00  0.00000000000E+00  0.45593999997E+02  0.45594000000E+02  0.51100000000E-03 0.  1.
         11   -1    0    0    0    0 -0.00000000000E+00 -0.00000000000E+00 -0.45593999997E+02  0.45594000000E+02  0.51100000000E-03 0. -1.
    9900012    2    1    2    0    0 -0.21309268580E+02  0.58394156161E+01 -0.22990009078E+02  0.59301886729E+02  0.49999895500E+02 0.  0.
        -12    1    1    2    0    0  0.21309268580E+02 -0.58394156161E+01  0.22990009078E+02  0.31886113271E+02  0.00000000000E+00 0.  1.
         11    1    3    3    0    0 -0.17214570368E+02 -0.96610726077E+01 -0.18202266389E+02  0.26851447984E+02  0.51100000000E-03 0. -1.
        -11    1    3    3    0    0  0.76154572629E+01 -0.36002746664E+01 -0.54554207118E+01  0.10035874770E+02  0.51100000000E-03 0.  1.
         12    1    3    3    0    0 -0.11710155475E+02  0.19100762890E+02  0.66767802257E+00  0.22414563975E+02  0.00000000000E+00 0. -1.
</event>
<event>
 7    1  0.6953847E-012  0.5930191E+02  0.7816164E-02  0.1266605E+00
        -11   -1    0    0    0    0  0.00000000000E+00  0.00000000000E+00  0.45593999997E+02  0.45594000000E+02  0.51100000000E-03 0. -1.
         11   -1    0    0    0    0 -0.00000000000E+00 -0.00000000000E+00 -0.45593999997E+02  0.45594000000E+02  0.51100000000E-03 0.  1.
    9900012    2    1    2    0    0 -0.16336929381E+02 -0.18522631674E+02  0.20167784803E+02  0.59301910720E+02  0.49999939255E+02 0.  0.
        -12    1    1    2    0    0  0.16336929381E+02  0.18522631674E+02 -0.20167784803E+02  0.31886089280E+02  0.00000000000E+00 0.  1.
         11    1    3    3    0    0  0.35038568728E+01 -0.11696332253E+02 -0.50366144171E+01  0.13207902415E+02  0.51100000000E-03 0. -1.
        -11    1    3    3    0    0 -0.49388255868E+01  0.46620235943E+01 -0.63872909901E+01  0.93233013801E+01  0.51100000000E-03 0.  1.
         12    1    3    3    0    0 -0.14901960667E+02 -0.11488323015E+02  0.31591690210E+02  0.36770706925E+02  0.00000000000E+00 0. -1.
</event>
<event>
 7    1  0.6953847E-012  0.5930194E+02  0.7816164E-02  0.1266605E+00
        -11   -1    0    0    0    0  0.00000000000E+00  0.00000000000E+00  0.45593999997E+02  0.45594000000E+02  0.51100000000E-03 0.  1.
         11   -1    0    0    0    0 -0.00000000000E+00 -0.00000000000E+00 -0.45593999997E+02  0.45594000000E+02  0.51100000000E-03 0. -1.
    9900012    2    1    2    0    0  0.87567047192E+01 -0.10247393109E+01 -0.30642959386E+02  0.59301938341E+02  0.49999989628E+02 0.  0.
        -12    1    1    2    0    0 -0.87567047192E+01  0.10247393109E+01  0.30642959386E+02  0.31886061659E+02  0.00000000000E+00 0.  1.
         11    1    3    3    0    0  0.12629424670E+02  0.25241601948E+01  0.51382850232E+01  0.13866352276E+02  0.51100000000E-03 0. -1.
        -11    1    3    3    0    0 -0.69274964503E+00 -0.13273909486E+02 -0.72834752626E+01  0.15156701069E+02  0.51100000000E-03 0.  1.
         12    1    3    3    0    0 -0.31799703060E+01  0.97250099808E+01 -0.28497769147E+02  0.30278884996E+02  0.00000000000E+00 0. -1.
</event>
<event>
 7    1  0.6953847E-012  0.5930195E+02  0.7816164E-02  0.1266605E+00
        -11   -1    0    0    0    0  0.00000000000E+00  0.00000000000E+00  0.45593999997E+02  0.45594000000E+02  0.51100000000E-03 0.  1.
         11   -1    0    0    0    0 -0.00000000000E+00 -0.00000000000E+00 -0.45593999997E+02  0.45594000000E+02  0.51100000000E-03 0. -1.
    9900012    2    1    2    0    0  0.12912177409E+02 -0.29154623054E+02  0.60777707851E-01  0.59301951879E+02  0.50000014319E+02 0.  0.
        -12    1    1    2    0    0 -0.12912177409E+02  0.29154623054E+02 -0.60777707851E-01  0.31886048121E+02  0.00000000000E+00 0.  1.
         11    1    3    3    0    0  0.83710806741E+01  0.23464236947E+00 -0.77826929376E+01  0.11432425741E+02  0.51100000000E-03 0. -1.
        -11    1    3    3    0    0  0.55990867934E+01 -0.29932198650E+02 -0.83951548455E+01  0.31587417022E+02  0.51100000000E-03 0.  1.
        -12    1    3    3    0    0 -0.10579900587E+01  0.54293322693E+00  0.16238625491E+02  0.16282109117E+02  0.00000000000E+00 0.  1.
</event>
<event>
 7    1  0.6953847E-012  0.5930197E+02  0.7816164E-02  0.1266605E+00
        -11   -1    0    0    0    0  0.00000000000E+00  0.00000000000E+00  0.45593999997E+02  0.45594000000E+02  0.51100000000E-03 0. -1.
         11   -1    0    0    0    0 -0.00000000000E+00 -0.00000000000E+00 -0.45593999997E+02  0.45594000000E+02  0.51100000000E-03 0.  1.
    9900012    2    1    2    0    0 -0.26464796822E+02 -0.10980199782E+02  0.13991745781E+02  0.59301965313E+02  0.50000038819E+02 0.  0.
        -12    1    1    2    0    0  0.26464796822E+02  0.10980199782E+02 -0.13991745781E+02  0.31886034687E+02  0.00000000000E+00 0.  1.
         11    1    3    3    0    0 -0.31466217644E+01 -0.53627391587E+01  0.10265423666E+01  0.63019036254E+01  0.51100000000E-03 0. -1.
        -11    1    3    3    0    0 -0.17820318832E+02 -0.21878090186E+02 -0.44287507096E+01  0.28562710421E+02  0.51100000000E-03 0.  1.
        -12    1    3    3    0    0 -0.54978562255E+01  0.16260629563E+02  0.17393954124E+02  0.24437351267E+02  0.00000000000E+00 0.  1.
</event>
<event>
 7    1  0.6953847E-012  0.5930194E+02  0.7816164E-02  0.1266605E+00
        -11   -1    0    0    0    0  0.00000000000E+00  0.00000000000E+00  0.45593999997E+02  0.45594000000E+02  0.51100000000E-03 0. -1.
         11   -1    0    0    0    0 -0.00000000000E+00 -0.00000000000E+00 -0.45593999997E+02  0.45594000000E+02  0.51100000000E-03 0.  1.
    9900012    2    1    2    0    0  0.19453047714E+02  0.24370887911E+02 -0.66603168233E+01  0.59301936224E+02  0.49999985768E+02 0.  0.
        -12    1    1    2    0    0 -0.19453047714E+02 -0.24370887911E+02  0.66603168233E+01  0.31886063776E+02  0.00000000000E+00 0.  1.
         11    1    3    3    0    0 -0.10330630082E+02  0.16131037273E+02  0.24905511351E+01  0.19316705894E+02  0.51100000000E-03 0.  1.
        -11    1    3    3    0    0 -0.18059276737E+01  0.17086266638E+01  0.43546846560E+01  0.50143851620E+01  0.51100000000E-03 0. -1.
        -12    1    3    3    0    0  0.31589605470E+02  0.65312239745E+01 -0.13505552614E+02  0.34970845168E+02  0.00000000000E+00 0.  1.
</event>
<event>
 7    1  0.6953847E-012  0.5930194E+02  0.7816164E-02  0.1266605E+00
        -11   -1    0    0    0    0  0.00000000000E+00  0.00000000000E+00  0.45593999997E+02  0.45594000000E+02  0.51100000000E-03 0.  1.
         11   -1    0    0    0    0 -0.00000000000E+00 -0.00000000000E+00 -0.45593999997E+02  0.45594000000E+02  0.51100000000E-03 0. -1.
    9900012    2    1    2    0    0 -0.64297717106E+01  0.30611327886E+02  0.61907495313E+01  0.59301941307E+02  0.49999995039E+02 0.  0.
        -12    1    1    2    0    0  0.64297717106E+01 -0.30611327886E+02 -0.61907495313E+01  0.31886058693E+02  0.00000000000E+00 0.  1.
         11    1    3    3    0    0 -0.13430541972E+02  0.13828501850E+02  0.77977151530E+01  0.20794501267E+02  0.51100000000E-03 0. -1.
        -11    1    3    3    0    0 -0.73335548188E+01  0.20256842555E+02  0.53528778513E+01  0.22198513422E+02  0.51100000000E-03 0.  1.
        -12    1    3    3    0    0  0.14334325080E+02 -0.34740165189E+01 -0.69598434730E+01  0.16308926619E+02  0.00000000000E+00 0.  1.
</event>
<event>
 7    1  0.6953847E-012  0.5930192E+02  0.7816164E-02  0.1266605E+00
        -11   -1    0    0    0    0  0.00000000000E+00  0.00000000000E+00  0.45593999997E+02  0.45594000000E+02  0.51100000000E-03 0. -1.
         11   -1    0    0    0    0 -0.00000000000E+00 -0.00000000000E+00 -0.45593999997E+02  0.45594000000E+02  0.51100000000E-03 0.  1.
    9900012    2    1    2    0    0  0.25903477873E+02 -0.15442553754E+02 -0.10356609705E+02  0.59301921581E+02  0.49999959063E+02 0.  0.
        -12    1    1    2    0    0 -0.25903477873E+02  0.15442553754E+02  0.10356609705E+02  0.31886078419E+02  0.00000000000E+00 0.  1.
         11    1    3    3    0    0 -0.50183462907E+01 -0.88602272246E+01  0.66562937787E+01  0.12165265024E+02  0.51100000000E-03 0. -1.
        -11    1    3    3    0    0  0.27008215035E+02 -0.17358484035E+02 -0.97027492038E+01  0.33539588396E+02  0.51100000000E-03 0.  1.
         12    1    3    3    0    0  0.39136091284E+01  0.10776157506E+02 -0.73101542802E+01  0.13597068162E+02  0.00000000000E+00 0. -1.
</event>
<event>
 7    1  0.6953847E-012  0.5930195E+02  0.7816164E-02  0.1266605E+00
        -11   -1    0    0    0    0  0.00000000000E+00  0.00000000000E+00  0.45593999997E+02  0.45594000000E+02  0.51100000000E-03 0.  1.
         11   -1    0    0    0    0 -0.00000000000E+00 -0.00000000000E+00 -0.45593999997E+02  0.45594000000E+02  0.51100000000E-03 0. -1.
    9900012    2    1    2    0    0 -0.13773430038E+02 -0.14215288010E+02 -0.24998773111E+02  0.59301945913E+02  0.50000003438E+02 0.  0.
        -12    1    1    2    0    0  0.13773430038E+02  0.14215288010E+02  0.24998773111E+02  0.31886054087E+02  0.00000000000E+00 0.  1.
         11    1    3    3    0    0 -0.10068823382E+02 -0.17391215913E+02 -0.18500869474E+02  0.27315156356E+02  0.51100000000E-03 0. -1.
        -11    1    3    3    0    0 -0.13983010168E+01 -0.70080622042E+01 -0.16216972482E+02  0.17721692311E+02  0.51100000000E-03 0.  1.
        -12    1    3    3    0    0 -0.23063056395E+01  0.10183990107E+02  0.97190688460E+01  0.14265097246E+02  0.00000000000E+00 0.  1.
</event>
<event>
 7    1  0.6953847E-012  0.5930189E+02  0.7816164E-02  0.1266605E+00
        -11   -1    0    0    0    0  0.00000000000E+00  0.00000000000E+00  0.45593999997E+02  0.45594000000E+02  0.51100000000E-03 0.  1.
         11   -1    0    0    0    0 -0.00000000000E+00 -0.00000000000E+00 -0.45593999997E+02  0.45594000000E+02  0.51100000000E-03 0. -1.
    9900012    2    1    2    0    0  0.30265576950E+02  0.32525595426E+01 -0.94941779283E+01  0.59301894778E+02  0.49999910180E+02 0.  0.
        -12    1    1    2    0    0 -0.30265576950E+02 -0.32525595426E+01  0.94941779283E+01  0.31886105222E+02  0.00000000000E+00 0.  1.
         11    1    3    3    0    0  0.13197683026E+02 -0.10173667775E+02 -0.91241507736E+01  0.18998223098E+02  0.51100000000E-03 0. -1.
        -11    1    3    3    0    0  0.27473777736E+02  0.83170409687E+01 -0.53274141482E+00  0.28710023463E+02  0.51100000000E-03 0.  1.
        -12    1    3    3    0    0 -0.10405883812E+02  0.51091863493E+01  0.16271426010E+00  0.11593648217E+02  0.00000000000E+00 0.  1.
</event>
<event>
 7    1  0.6953847E-012  0.5930198E+02  0.7816164E-02  0.1266605E+00
        -11   -1    0    0    0    0  0.00000000000E+00  0.00000000000E+00  0.45593999997E+02  0.45594000000E+02  0.51100000000E-03 0.  1.
         11   -1    0    0    0    0 -0.00000000000E+00 -0.00000000000E+00 -0.45593999997E+02  0.45594000000E+02  0.51100000000E-03 0. -1.
    9900012    2    1    2    0    0  0.18050764176E+02  0.26070313036E+02  0.33506983624E+01  0.59301976594E+02  0.50000059393E+02 0.  0.
        -12    1    1    2    0    0 -0.18050764176E+02 -0.26070313036E+02 -0.33506983624E+01  0.31886023406E+02  0.00000000000E+00 0.  1.
         11    1    3    3    0    0  0.10499289104E+02  0.10984849074E+02 -0.15757101763E+02  0.21890368592E+02  0.51100000000E-03 0. -1.
        -11    1    3    3    0    0 -0.99642760812E+01  0.30654387900E+01  0.33100665820E+01  0.10938018734E+02  0.51100000000E-03 0.  1.
        -12    1    3    3    0    0  0.17515751153E+02  0.12020025172E+02  0.15797733543E+02  0.26473589267E+02  0.00000000000E+00 0.  1.
</event>
<event>
 7    1  0.6953847E-012  0.5930194E+02  0.7816164E-02  0.1266605E+00
        -11   -1    0    0    0    0  0.00000000000E+00  0.00000000000E+00  0.45593999997E+02  0.45594000000E+02  0.51100000000E-03 0. -1.
         11   -1    0    0    0    0 -0.00000000000E+00 -0.00000000000E+00 -0.45593999997E+02  0.45594000000E+02  0.51100000000E-03 0.  1.
    9900012    2    1    2    0    0  0.27014137514E+02 -0.13310911167E+02 -0.10477433962E+02  0.59301943421E+02  0.49999998894E+02 0.  0.
        -12    1    1    2    0    0 -0.27014137514E+02  0.13310911167E+02  0.10477433962E+02  0.31886056579E+02  0.00000000000E+00 0.  1.
         11    1    3    3    0    0  0.34928049354E+01  0.54926903255E+01 -0.14629496853E+02  0.16012230069E+02  0.51100000000E-03 0.  1.
        -11    1    3    3    0    0  0.21340938536E+02 -0.20018568747E+02  0.14492071105E+02  0.32652700921E+02  0.51100000000E-03 0. -1.
         12    1    3    3    0    0  0.21803940428E+01  0.12149672544E+01 -0.10340008214E+02  0.10637012432E+02  0.00000000000E+00 0. -1.
</event>
<event>
 7    1  0.6953847E-012  0.5930193E+02  0.7816164E-02  0.1266605E+00
        -11   -1    0    0    0    0  0.00000000000E+00  0.00000000000E+00  0.45593999997E+02  0.45594000000E+02  0.51100000000E-03 0.  1.
         11   -1    0    0    0    0 -0.00000000000E+00 -0.00000000000E+00 -0.45593999997E+02  0.45594000000E+02  0.51100000000E-03 0. -1.
    9900012    2    1    2    0    0  0.13251013548E+02  0.99324109838E+00 -0.28985267410E+02  0.59301927574E+02  0.49999969993E+02 0.  0.
        -12    1    1    2    0    0 -0.13251013548E+02 -0.99324109838E+00  0.28985267410E+02  0.31886072426E+02  0.00000000000E+00 0.  1.
         11    1    3    3    0    0  0.95554060601E+00 -0.50193919373E+01 -0.18365157511E+02  0.19062695610E+02  0.51100000000E-03 0. -1.
        -11    1    3    3    0    0 -0.10592615637E+02  0.10713476188E+02 -0.14395339380E+01  0.15134541165E+02  0.51100000000E-03 0.  1.
         12    1    3    3    0    0  0.22888088579E+02 -0.47008431528E+01 -0.91805759610E+01  0.25104690799E+02  0.00000000000E+00 0. -1.
</event>
<event>
 7    1  0.6953847E-012  0.5930194E+02  0.7816164E-02  0.1266605E+00
        -11   -1    0    0    0    0  0.00000000000E+00  0.00000000000E+00  0.45593999997E+02  0.45594000000E+02  0.51100000000E-03 0.  1.
         11   -1    0    0    0    0 -0.00000000000E+00 -0.00000000000E+00 -0.45593999997E+02  0.45594000000E+02  0.51100000000E-03 0. -1.
    9900012    2    1    2    0    0  0.47474865805E+01  0.26278211259E+02 -0.17425202355E+02  0.59301942029E+02  0.49999996355E+02 0.  0.
        -12    1    1    2    0    0 -0.47474865805E+01 -0.26278211259E+02  0.17425202355E+02  0.31886057971E+02  0.00000000000E+00 0.  1.
         11    1    3    3    0    0  0.16173737219E+01 -0.51251748406E+01 -0.11256137895E+02  0.12473329767E+02  0.51100000000E-03 0. -1.
        -11    1    3    3    0    0  0.15939207256E+02  0.20632414212E+02 -0.12527489347E+02  0.28925643186E+02  0.51100000000E-03 0.  1.
         12    1    3    3    0    0 -0.12809094397E+02  0.10770971888E+02  0.63584248870E+01  0.17902969076E+02  0.00000000000E+00 0. -1.
</event>
<event>
 7    1  0.6953847E-012  0.5930188E+02  0.7816164E-02  0.1266605E+00
        -11   -1    0    0    0    0  0.00000000000E+00  0.00000000000E+00  0.45593999997E+02  0.45594000000E+02  0.51100000000E-03 0. -1.
         11   -1    0    0    0    0 -0.00000000000E+00 -0.00000000000E+00 -0.45593999997E+02  0.45594000000E+02  0.51100000000E-03 0.  1.
    9900012    2    1    2    0    0 -0.21958297733E+02 -0.20429136072E+02  0.10826282994E+02  0.59301876945E+02  0.49999877658E+02 0.  0.
        -12    1    1    2    0    0  0.21958297733E+02  0.20429136072E+02 -0.10826282994E+02  0.31886123055E+02  0.00000000000E+00 0.  1.
         11    1    3    3    0    0 -0.93063879301E-01 -0.11538747648E+02 -0.19442676118E+01  0.11701774864E+02  0.51100000000E-03 0.  1.
        -11    1    3    3    0    0 -0.17303948662E+02 -0.24268151407E+02  0.87639834585E+01  0.31067301433E+02  0.51100000000E-03 0. -1.
        -12    1    3    3    0    0 -0.45612851920E+01  0.15377762983E+02  0.40065671470E+01  0.16532800648E+02  0.00000000000E+00 0.  1.
</event>
<event>
 7    1  0.6953847E-012  0.5930195E+02  0.7816164E-02  0.1266605E+00
        -11   -1    0    0    0    0  0.00000000000E+00  0.00000000000E+00  0.45593999997E+02  0.45594000000E+02  0.51100000000E-03 0.  1.
         11   -1    0    0    0    0 -0.00000000000E+00 -0.00000000000E+00 -0.45593999997E+02  0.45594000000E+02  0.51100000000E-03 0. -1.
    9900012    2    1    2    0    0 -0.11977573519E+02 -0.25726448877E+02 -0.14539873502E+02  0.59301947239E+02  0.50000005857E+02 0.  0.
        -12    1    1    2    0    0  0.11977573519E+02  0.25726448877E+02  0.14539873502E+02  0.31886052761E+02  0.00000000000E+00 0.  1.
         11    1    3    3    0    0  0.71100225372E+01  0.45619775354E+01 -0.94746790517E+00  0.85006914545E+01  0.51100000000E-03 0. -1.
        -11    1    3    3    0    0  0.14469703285E+01 -0.11620674406E+02 -0.19199358918E+02  0.22488867911E+02  0.51100000000E-03 0.  1.
        -12    1    3    3    0    0 -0.20534566384E+02 -0.18667752006E+02  0.56069533218E+01  0.28312387873E+02  0.00000000000E+00 0.  1.
</event>
<event>
 7    1  0.6953847E-012  0.5930196E+02  0.7816164E-02  0.1266605E+00
        -11   -1    0    0    0    0  0.00000000000E+00  0.00000000000E+00  0.45593999997E+02  0.45594000000E+02  0.51100000000E-03 0.  1.
         11   -1    0    0    0    0 -0.00000000000E+00 -0.00000000000E+00 -0.45593999997E+02  0.45594000000E+02  0.51100000000E-03 0. -1.
    9900012    2    1    2    0    0 -0.18182301370E+02 -0.25399817450E+02 -0.64010079857E+01  0.59301957398E+02  0.50000024384E+02 0.  0.
        -12    1    1    2    0    0  0.18182301370E+02  0.25399817450E+02  0.64010079857E+01  0.31886042602E+02  0.00000000000E+00 0.  1.
         11    1    3    3    0    0 -0.22626215888E+02 -0.14671305070E+02  0.37121309275E+01  0.27220814723E+02  0.51100000000E-03 0. -1.
        -11    1    3    3    0    0  0.45349797660E+01  0.45496344197E+01  0.67553784686E+01  0.93220359014E+01  0.51100000000E-03 0.  1.
         12    1    3    3    0    0 -0.91065247411E-01 -0.15278146799E+02 -0.16868517382E+02  0.22759106774E+02  0.00000000000E+00 0. -1.
</event>
<event>
 7    1  0.6953847E-012  0.5930195E+02  0.7816164E-02  0.1266605E+00
        -11   -1    0    0    0    0  0.00000000000E+00  0.00000000000E+00  0.45593999997E+02  0.45594000000E+02  0.51100000000E-03 0.  1.
         11   -1    0    0    0    0 -0.00000000000E+00 -0.00000000000E+00 -0.45593999997E+02  0.45594000000E+02  0.51100000000E-03 0. -1.
    9900012    2    1    2    0    0  0.17299871508E+02  0.24083570950E+02 -0.11722457526E+02  0.59301953611E+02  0.50000017478E+02 0.  0.
        -12    1    1    2    0    0 -0.17299871508E+02 -0.24083570950E+02  0.11722457526E+02  0.31886046389E+02  0.00000000000E+00 0.  1.
         11    1    3    3    0    0  0.20983934346E+02  0.13447190779E+02 -0.93867025782E+01  0.26631985019E+02  0.51100000000E-03 0. -1.
        -11    1    3    3    0    0  0.11242836967E+02  0.98425424752E+01  0.53380216399E+01  0.15867309184E+02  0.51100000000E-03 0.  1.
         12    1    3    3    0    0 -0.14926899806E+02  0.79383769587E+00 -0.76737765875E+01  0.16802659409E+02  0.00000000000E+00 0. -1.
</event>
<event>
 7    1  0.6953847E-012  0.5930194E+02  0.7816164E-02  0.1266605E+00
        -11   -1    0    0    0    0  0.00000000000E+00  0.00000000000E+00  0.45593999997E+02  0.45594000000E+02  0.51100000000E-03 0.  1.
         11   -1    0    0    0    0 -0.00000000000E+00 -0.00000000000E+00 -0.45593999997E+02  0.45594000000E+02  0.51100000000E-03 0. -1.
    9900012    2    1    2    0    0 -0.15210649747E+02 -0.27958423395E+02  0.19192009244E+01  0.59301942912E+02  0.49999997965E+02 0.  0.
        -12    1    1    2    0    0  0.15210649747E+02  0.27958423395E+02 -0.19192009244E+01  0.31886057088E+02  0.00000000000E+00 0.  1.
         11    1    3    3    0    0 -0.61738728962E+01 -0.98515708495E+01  0.14180749261E+02  0.18337497228E+02  0.51100000000E-03 0. -1.
        -11    1    3    3    0    0 -0.44809649654E+01 -0.28736575700E+01  0.11328184928E+02  0.12516578161E+02  0.51100000000E-03 0.  1.
         12    1    3    3    0    0 -0.45558118849E+01 -0.15233194975E+02 -0.23589733264E+02  0.28447867522E+02  0.00000000000E+00 0. -1.
</event>
<event>
 7    1  0.6953847E-012  0.5930178E+02  0.7816164E-02  0.1266605E+00
        -11   -1    0    0    0    0  0.00000000000E+00  0.00000000000E+00  0.45593999997E+02  0.45594000000E+02  0.51100000000E-03 0. -1.
         11   -1    0    0    0    0 -0.00000000000E+00 -0.00000000000E+00 -0.45593999997E+02  0.45594000000E+02  0.51100000000E-03 0.  1.
    9900012    2    1    2    0    0 -0.96804299664E+01  0.25209125293E+01  0.30276482822E+02  0.59301778268E+02  0.49999697692E+02 0.  0.
        -12    1    1    2    0    0  0.96804299664E+01 -0.25209125293E+01 -0.30276482822E+02  0.31886221732E+02  0.00000000000E+00 0.  1.
         11    1    3    3    0    0 -0.14943937142E+01 -0.13621083335E+02  0.80508159740E+01  0.15892852542E+02  0.51100000000E-03 0. -1.
        -11    1    3    3    0    0 -0.11982308394E+02 -0.52238687570E+01  0.16338678742E+02  0.20924075667E+02  0.51100000000E-03 0.  1.
        -12    1    3    3    0    0  0.37962721415E+01  0.21365864622E+02  0.58869881058E+01  0.22484850059E+02  0.00000000000E+00 0.  1.
</event>
<event>
 7    1  0.6953847E-012  0.5930194E+02  0.7816164E-02  0.1266605E+00
        -11   -1    0    0    0    0  0.00000000000E+00  0.00000000000E+00  0.45593999997E+02  0.45594000000E+02  0.51100000000E-03 0.  1.
         11   -1    0    0    0    0 -0.00000000000E+00 -0.00000000000E+00 -0.45593999997E+02  0.45594000000E+02  0.51100000000E-03 0. -1.
    9900012    2    1    2    0    0  0.69924334982E+01 -0.17428522395E+02 -0.25769624910E+02  0.59301935848E+02  0.49999985082E+02 0.  0.
        -12    1    1    2    0    0 -0.69924334982E+01  0.17428522395E+02  0.25769624910E+02  0.31886064152E+02  0.00000000000E+00 0.  1.
         11    1    3    3    0    0 -0.12480783315E+01 -0.22475690928E+02 -0.28942553155E+02  0.36665866492E+02  0.51100000000E-03 0. -1.
        -11    1    3    3    0    0  0.12807717899E+02 -0.14965261940E+01  0.59303293802E+01  0.14193168612E+02  0.51100000000E-03 0.  1.
        -12    1    3    3    0    0 -0.45672060695E+01  0.65436947266E+01 -0.27574011351E+01  0.84429007442E+01  0.00000000000E+00 0.  1.
</event>
<event>
 7    1  0.6953847E-012  0.5930192E+02  0.7816164E-02  0.1266605E+00
        -11   -1    0    0    0    0  0.00000000000E+00  0.00000000000E+00  0.45593999997E+02  0.45594000000E+02  0.51100000000E-03 0.  1.
         11   -1    0    0    0    0 -0.00000000000E+00 -0.00000000000E+00 -0.45593999997E+02  0.45594000000E+02  0.51100000000E-03 0. -1.
    9900012    2    1    2    0    0 -0.14770400029E+01 -0.31195479408E+02 -0.64329091207E+01  0.59301923064E+02  0.49999961766E+02 0.  0.
        -12    1    1    2    0    0  0.14770400029E+01  0.31195479408E+02  0.64329091207E+01  0.31886076936E+02  0.00000000000E+00 0.  1.
         11    1    3    3    0    0  0.64093820451E+01 -0.10919938398E+02  0.83990753322E+01  0.15194396977E+02  0.51100000000E-03 0. -1.
        -11    1    3    3    0    0 -0.13349030993E+00 -0.49667741621E+01  0.11585484358E+02  0.12605955470E+02  0.51100000000E-03 0.  1.
         12    1    3    3    0    0 -0.77529317381E+01 -0.15308766848E+02 -0.26417468811E+02  0.31501570616E+02  0.00000000000E+00 0. -1.
</event>
<event>
 7    1  0.6953847E-012  0.5930194E+02  0.7816164E-02  0.1266605E+00
        -11   -1    0    0    0    0  0.00000000000E+00  0.00000000000E+00  0.45593999997E+02  0.45594000000E+02  0.51100000000E-03 0. -1.
         11   -1    0    0    0    0 -0.00000000000E+00 -0.00000000000E+00 -0.45593999997E+02  0.45594000000E+02  0.51100000000E-03 0.  1.
    9900012    2    1    2    0    0  0.25326091343E+02 -0.12740045108E+02 -0.14594556717E+02  0.59301941325E+02  0.49999995071E+02 0.  0.
        -12    1    1    2    0    0 -0.25326091343E+02  0.12740045108E+02  0.14594556717E+02  0.31886058675E+02  0.00000000000E+00 0.  1.
         11    1    3    3    0    0  0.13762105858E+02 -0.18694505361E+02 -0.10806158805E+02  0.25605725077E+02  0.51100000000E-03 0. -1.
        -11    1    3    3    0    0  0.12503098734E+00 -0.33252738846E+01 -0.14886304472E+02  0.15253692676E+02  0.51100000000E-03 0.  1.
        -12    1    3    3    0    0  0.11438954498E+02  0.92797341379E+01  0.11097906561E+02  0.18442523572E+02  0.00000000000E+00 0.  1.
</event>
<event>
 7    1  0.6953847E-012  0.5930192E+02  0.7816164E-02  0.1266605E+00
        -11   -1    0    0    0    0  0.00000000000E+00  0.00000000000E+00  0.45593999997E+02  0.45594000000E+02  0.51100000000E-03 0.  1.
         11   -1    0    0    0    0 -0.00000000000E+00 -0.00000000000E+00 -0.45593999997E+02  0.45594000000E+02  0.51100000000E-03 0. -1.
    9900012    2    1    2    0    0  0.49050777078E+01  0.13329048646E+00 -0.31506262029E+02  0.59301919954E+02  0.49999956094E+02 0.  0.
        -12    1    1    2    0    0 -0.49050777078E+01 -0.13329048646E+00  0.31506262029E+02  0.31886080046E+02  0.00000000000E+00 0.  1.
         11    1    3    3    0    0  0.16287757179E+01  0.63596278429E+01 -0.82383692006E+01  0.10534158912E+02  0.51100000000E-03 0. -1.
        -11    1    3    3    0    0  0.22142249488E+02 -0.81359244537E+01 -0.99844832149E+01  0.25615666777E+02  0.51100000000E-03 0.  1.
        -12    1    3    3    0    0 -0.18865947498E+02  0.19095870973E+01 -0.13283409614E+02  0.23152094265E+02  0.00000000000E+00 0.  1.
</event>
<event>
 7    1  0.6953847E-012  0.5930194E+02  0.7816164E-02  0.1266605E+00
        -11   -1    0    0    0    0  0.00000000000E+00  0.00000000000E+00  0.45593999997E+02  0.45594000000E+02  0.51100000000E-03 0.  1.
         11   -1    0    0    0    0 -0.00000000000E+00 -0.00000000000E+00 -0.45593999997E+02  0.45594000000E+02  0.51100000000E-03 0. -1.
    9900012    2    1    2    0    0  0.18313801521E+02 -0.25983691285E+01 -0.25972558986E+02  0.59301942411E+02  0.49999997051E+02 0.  0.
        -12    1    1    2    0    0 -0.18313801521E+02  0.25983691285E+01  0.25972558986E+02  0.31886057589E+02  0.00000000000E+00 0.  1.
         11    1    3    3    0    0  0.12366880355E-01 -0.37791781786E+01 -0.29330419720E+02  0.29572890657E+02  0.51100000000E-03 0. -1.
        -11    1    3    3    0    0 -0.96448039307E+00  0.71211122124E+00 -0.75094503512E+01  0.76045492738E+01  0.51100000000E-03 0.  1.
        -12    1    3    3    0    0  0.19265915034E+02  0.46869782878E+00  0.10867311085E+02  0.22124502480E+02  0.00000000000E+00 0.  1.
</event>
<event>
 7    1  0.6953847E-012  0.5930196E+02  0.7816164E-02  0.1266605E+00
        -11   -1    0    0    0    0  0.00000000000E+00  0.00000000000E+00  0.45593999997E+02  0.45594000000E+02  0.51100000000E-03 0.  1.
         11   -1    0    0    0    0 -0.00000000000E+00 -0.00000000000E+00 -0.45593999997E+02  0.45594000000E+02  0.51100000000E-03 0. -1.
    9900012    2    1    2    0    0 -0.28195894934E+02  0.81678167200E+01 -0.12449811191E+02  0.59301960425E+02  0.50000029905E+02 0.  0.
        -12    1    1    2    0    0  0.28195894934E+02 -0.81678167200E+01  0.12449811191E+02  0.31886039575E+02  0.00000000000E+00 0.  1.
         11    1    3    3    0    0 -0.63375125711E+01 -0.67817053775E+01 -0.27456081235E+00  0.92860636072E+01  0.51100000000E-03 0. -1.
        -11    1    3    3    0    0 -0.25453854483E+02  0.25323182330E+01  0.73360184006E+01  0.26610684131E+02  0.51100000000E-03 0.  1.
         12    1    3    3    0    0  0.35954721201E+01  0.12417203865E+02 -0.19511268779E+02  0.23405212687E+02  0.00000000000E+00 0. -1.
</event>
<event>
 7    1  0.6953847E-012  0.5930195E+02  0.7816164E-02  0.1266605E+00
        -11   -1    0    0    0    0  0.00000000000E+00  0.00000000000E+00  0.45593999997E+02  0.45594000000E+02  0.51100000000E-03 0.  1.
         11   -1    0    0    0    0 -0.00000000000E+00 -0.00000000000E+00 -0.45593999997E+02  0.45594000000E+02  0.51100000000E-03 0. -1.
    9900012    2    1    2    0    0 -0.24181524208E+02  0.23393946428E+01 -0.20651912890E+02  0.59301946837E+02  0.50000005123E+02 0.  0.
        -12    1    1    2    0    0  0.24181524208E+02 -0.23393946428E+01  0.20651912890E+02  0.31886053163E+02  0.00000000000E+00 0.  1.
         11    1    3    3    0    0 -0.39102065669E+01 -0.77981475070E-01 -0.24633465284E+02  0.24942000896E+02  0.51100000000E-03 0. -1.
        -11    1    3    3    0    0  0.59450157753E+01 -0.36660197352E+01 -0.78414882193E+00  0.70283570558E+01  0.51100000000E-03 0.  1.
         12    1    3    3    0    0 -0.26216333417E+02  0.60833958531E+01  0.47657012162E+01  0.27331588885E+02  0.00000000000E+00 0. -1.
</event>
<event>
 7    1  0.6953847E-012  0.5930187E+02  0.7816164E-02  0.1266605E+00
        -11   -1    0    0    0    0  0.00000000000E+00  0.00000000000E+00  0.45593999997E+02  0.45594000000E+02  0.51100000000E-03 0.  1.
         11   -1    0    0    0    0 -0.00000000000E+00 -0.00000000000E+00 -0.45593999997E+02  0.45594000000E+02  0.51100000000E-03 0. -1.
    9900012    2    1    2    0    0  0.15257991008E+02  0.13043501992E+02 -0.24774700998E+02  0.59301873811E+02  0.49999871941E+02 0.  0.
        -12    1    1    2    0    0 -0.15257991008E+02 -0.13043501992E+02  0.24774700998E+02  0.31886126189E+02  0.00000000000E+00 0.  1.
         11    1    3    3    0    0 -0.42013198715E-01  0.83242231209E+01 -0.12409300776E+02  0.14942730731E+02  0.51100000000E-03 0. -1.
        -11    1    3    3    0    0 -0.61092543956E+01  0.15134841102E+02  0.21690836915E+01  0.16464851314E+02  0.51100000000E-03 0.  1.
         12    1    3    3    0    0  0.21409258602E+02 -0.10415562232E+02 -0.14534483914E+02  0.27894291766E+02  0.00000000000E+00 0. -1.
</event>
<event>
 7    1  0.6953847E-012  0.5930204E+02  0.7816164E-02  0.1266604E+00
        -11   -1    0    0    0    0  0.00000000000E+00  0.00000000000E+00  0.45593999997E+02  0.45594000000E+02  0.51100000000E-03 0.  1.
         11   -1    0    0    0    0 -0.00000000000E+00 -0.00000000000E+00 -0.45593999997E+02  0.45594000000E+02  0.51100000000E-03 0. -1.
    9900012    2    1    2    0    0 -0.29909777264E+02  0.10875367100E+02 -0.19610587804E+01  0.59302044830E+02  0.50000183839E+02 0.  0.
        -12    1    1    2    0    0  0.29909777264E+02 -0.10875367100E+02  0.19610587804E+01  0.31885955170E+02  0.00000000000E+00 0.  1.
         11    1    3    3    0    0  0.42787362343E+01 -0.76680922042E+01  0.59149275851E+00  0.88009707283E+01  0.51100000000E-03 0. -1.
        -11    1    3    3    0    0 -0.75087888826E+01  0.18547557109E+02  0.83467305929E+01  0.21680906279E+02  0.51100000000E-03 0.  1.
         12    1    3    3    0    0 -0.26679724616E+02 -0.40978056127E-02 -0.10899282132E+02  0.28820167823E+02  0.00000000000E+00 0. -1.
</event>
<event>
 7    1  0.6953847E-012  0.5930191E+02  0.7816164E-02  0.1266605E+00
        -11   -1    0    0    0    0  0.00000000000E+00  0.00000000000E+00  0.45593999997E+02  0.45594000000E+02  0.51100000000E-03 0. -1.
         11   -1    0    0    0    0 -0.00000000000E+00 -0.00000000000E+00 -0.45593999997E+02  0.45594000000E+02  0.51100000000E-03 0.  1.
    9900012    2    1    2    0    0  0.28978817567E+01 -0.30852035728E+02  0.75151027641E+01  0.59301912175E+02  0.49999941909E+02 0.  0.
        -12    1    1    2    0    0 -0.28978817567E+01  0.30852035728E+02 -0.75151027641E+01  0.31886087825E+02  0.00000000000E+00 0.  1.
         11    1    3    3    0    0  0.58274081567E+01 -0.74619735389E+01  0.53833662999E+01  0.10891297806E+02  0.51100000000E-03 0. -1.
        -11    1    3    3    0    0  0.11684489389E+02 -0.30060881381E+02  0.24301591815E+01  0.32343307741E+02  0.51100000000E-03 0.  1.
        -12    1    3    3    0    0 -0.14614015789E+02  0.66708191926E+01 -0.29842271721E+00  0.16067306629E+02  0.00000000000E+00 0.  1.
</event>
<event>
 7    1  0.6953847E-012  0.5930197E+02  0.7816164E-02  0.1266605E+00
        -11   -1    0    0    0    0  0.00000000000E+00  0.00000000000E+00  0.45593999997E+02  0.45594000000E+02  0.51100000000E-03 0. -1.
         11   -1    0    0    0    0 -0.00000000000E+00 -0.00000000000E+00 -0.45593999997E+02  0.45594000000E+02  0.51100000000E-03 0.  1.
    9900012    2    1    2    0    0  0.20105623769E+02  0.19817885553E+02  0.14823433041E+02  0.59301970738E+02  0.50000048714E+02 0.  0.
        -12    1    1    2    0    0 -0.20105623769E+02 -0.19817885553E+02 -0.14823433041E+02  0.31886029262E+02  0.00000000000E+00 0.  1.
         11    1    3    3    0    0  0.10241711610E+02  0.25141467125E+02  0.15888671447E+02  0.31455300133E+02  0.51100000000E-03 0. -1.
        -11    1    3    3    0    0  0.68848093946E+01  0.90488837154E+01  0.43891750282E+01  0.12188016844E+02  0.51100000000E-03 0.  1.
        -12    1    3    3    0    0  0.29791027644E+01 -0.14372465287E+02 -0.54544134333E+01  0.15658653761E+02  0.00000000000E+00 0.  1.
</event>
<event>
 7    1  0.6953847E-012  0.5930201E+02  0.7816164E-02  0.1266605E+00
        -11   -1    0    0    0    0  0.00000000000E+00  0.00000000000E+00  0.45593999997E+02  0.45594000000E+02  0.51100000000E-03 0. -1.
         11   -1    0    0    0    0 -0.00000000000E+00 -0.00000000000E+00 -0.45593999997E+02  0.45594000000E+02  0.51100000000E-03 0.  1.
    9900012    2    1    2    0    0  0.15693765201E+02  0.51659557252E+01  0.27271508610E+02  0.59302007047E+02  0.50000114931E+02 0.  0.
        -12    1    1    2    0    0 -0.15693765201E+02 -0.51659557252E+01 -0.27271508610E+02  0.31885992953E+02  0.00000000000E+00 0.  1.
         11    1    3    3    0    0  0.19354959182E+02 -0.66536606990E+01  0.19434646083E+02  0.28223945761E+02  0.51100000000E-03 0. -1.
        -11    1    3    3    0    0 -0.15065927208E+01 -0.23045589980E+01  0.14891391637E+02  0.15143789451E+02  0.51100000000E-03 0.  1.
        -12    1    3    3    0    0 -0.21546012606E+01  0.14124175422E+02 -0.70545291099E+01  0.15934271835E+02  0.00000000000E+00 0.  1.
</event>
<event>
 7    1  0.6953847E-012  0.5930189E+02  0.7816164E-02  0.1266605E+00
        -11   -1    0    0    0    0  0.00000000000E+00  0.00000000000E+00  0.45593999997E+02  0.45594000000E+02  0.51100000000E-03 0.  1.
         11   -1    0    0    0    0 -0.00000000000E+00 -0.00000000000E+00 -0.45593999997E+02  0.45594000000E+02  0.51100000000E-03 0. -1.
    9900012    2    1    2    0    0  0.15010673823E+02  0.68272472024E+01 -0.27290884244E+02  0.59301890237E+02  0.49999901899E+02 0.  0.
        -12    1    1    2    0    0 -0.15010673823E+02 -0.68272472024E+01  0.27290884244E+02  0.31886109763E+02  0.00000000000E+00 0.  1.
         11    1    3    3    0    0  0.10570756952E+02  0.17403641811E+01  0.87772925283E+00  0.10748961761E+02  0.51100000000E-03 0. -1.
        -11    1    3    3    0    0 -0.16338826773E+02 -0.28274092294E+01 -0.75134643983E+01  0.18204495345E+02  0.51100000000E-03 0.  1.
         12    1    3    3    0    0  0.20778743643E+02  0.79142922507E+01 -0.20655149099E+02  0.30348433131E+02  0.00000000000E+00 0. -1.
</event>
<event>
 7    1  0.6953847E-012  0.5930167E+02  0.7816164E-02  0.1266606E+00
        -11   -1    0    0    0    0  0.00000000000E+00  0.00000000000E+00  0.45593999997E+02  0.45594000000E+02  0.51100000000E-03 0. -1.
         11   -1    0    0    0    0 -0.00000000000E+00 -0.00000000000E+00 -0.45593999997E+02  0.45594000000E+02  0.51100000000E-03 0.  1.
    9900012    2    1    2    0    0  0.24676370491E+02 -0.64905958292E+01  0.19122939837E+02  0.59301671851E+02  0.49999503612E+02 0.  0.
        -12    1    1    2    0    0 -0.24676370491E+02  0.64905958292E+01 -0.19122939837E+02  0.31886328149E+02  0.00000000000E+00 0.  1.
         11    1    3    3    0    0  0.75810791560E+01  0.51907767914E+01 -0.56150779945E+01  0.10767823643E+02  0.51100000000E-03 0. -1.
        -11    1    3    3    0    0  0.12031231541E+02  0.69760933289E+01  0.25652301893E+02  0.29179736174E+02  0.51100000000E-03 0.  1.
         12    1    3    3    0    0  0.50640597934E+01 -0.18657465950E+02 -0.91428406131E+00  0.19354112033E+02  0.00000000000E+00 0. -1.
</event>
<event>
 7    1  0.6953847E-012  0.5930192E+02  0.7816164E-02  0.1266605E+00
        -11   -1    0    0    0    0  0.00000000000E+00  0.00000000000E+00  0.45593999997E+02  0.45594000000E+02  0.51100000000E-03 0.  1.
         11   -1    0    0    0    0 -0.00000000000E+00 -0.00000000000E+00 -0.45593999997E+02  0.45594000000E+02  0.51100000000E-03 0. -1.
    9900012    2    1    2    0    0  0.28782243078E+02 -0.12069488462E+02  0.65293279573E+01  0.59301918524E+02  0.49999953487E+02 0.  0.
        -12    1    1    2    0    0 -0.28782243078E+02  0.12069488462E+02 -0.65293279573E+01  0.31886081476E+02  0.00000000000E+00 0.  1.
         11    1    3    3    0    0  0.23468493442E+02 -0.12105830139E+02  0.22290431926E+01  0.26500753604E+02  0.51100000000E-03 0. -1.
        -11    1    3    3    0    0  0.97552356538E+01 -0.59299484506E+01  0.15564742568E+02  0.19302593679E+02  0.51100000000E-03 0.  1.
         12    1    3    3    0    0 -0.44414860176E+01  0.59662901274E+01 -0.11264457803E+02  0.13498571240E+02  0.00000000000E+00 0. -1.
</event>
<event>
 7    1  0.6953847E-012  0.5930194E+02  0.7816164E-02  0.1266605E+00
        -11   -1    0    0    0    0  0.00000000000E+00  0.00000000000E+00  0.45593999997E+02  0.45594000000E+02  0.51100000000E-03 0. -1.
         11   -1    0    0    0    0 -0.00000000000E+00 -0.00000000000E+00 -0.45593999997E+02  0.45594000000E+02  0.51100000000E-03 0.  1.
    9900012    2    1    2    0    0 -0.59152387634E+01  0.15870557140E+00  0.31332176688E+02  0.59301944535E+02  0.50000000925E+02 0.  0.
        -12    1    1    2    0    0  0.59152387634E+01 -0.15870557140E+00 -0.31332176688E+02  0.31886055465E+02  0.00000000000E+00 0.  1.
         11    1    3    3    0    0 -0.85257789115E+01 -0.15340817359E+02  0.15039409196E+02  0.23113057187E+02  0.51100000000E-03 0. -1.
        -11    1    3    3    0    0  0.63519827366E+01 -0.66153271032E+01  0.83263467699E+01  0.12387020956E+02  0.51100000000E-03 0.  1.
        -12    1    3    3    0    0 -0.37414425885E+01  0.22114850033E+02  0.79664207221E+01  0.23801866392E+02  0.00000000000E+00 0.  1.
</event>
<event>
 7    1  0.6953847E-012  0.5930194E+02  0.7816164E-02  0.1266605E+00
        -11   -1    0    0    0    0  0.00000000000E+00  0.00000000000E+00  0.45593999997E+02  0.45594000000E+02  0.51100000000E-03 0.  1.
         11   -1    0    0    0    0 -0.00000000000E+00 -0.00000000000E+00 -0.45593999997E+02  0.45594000000E+02  0.51100000000E-03 0. -1.
    9900012    2    1    2    0    0  0.24503863355E+02  0.93153627791E+01 -0.18152289972E+02  0.59301938245E+02  0.49999989453E+02 0.  0.
        -12    1    1    2    0    0 -0.24503863355E+02 -0.93153627791E+01  0.18152289972E+02  0.31886061755E+02  0.00000000000E+00 0.  1.
         11    1    3    3    0    0  0.27218294407E+02  0.11196606218E+02 -0.80830692338E+01  0.30521067310E+02  0.51100000000E-03 0. -1.
        -11    1    3    3    0    0  0.92070887394E+01  0.71828984492E+01 -0.65799293495E+01  0.13403730216E+02  0.51100000000E-03 0.  1.
        -12    1    3    3    0    0 -0.11921519792E+02 -0.90641418879E+01 -0.34892913884E+01  0.15377140719E+02  0.00000000000E+00 0.  1.
</event>
<event>
 7    1  0.6953847E-012  0.5930195E+02  0.7816164E-02  0.1266605E+00
        -11   -1    0    0    0    0  0.00000000000E+00  0.00000000000E+00  0.45593999997E+02  0.45594000000E+02  0.51100000000E-03 0.  1.
         11   -1    0    0    0    0 -0.00000000000E+00 -0.00000000000E+00 -0.45593999997E+02  0.45594000000E+02  0.51100000000E-03 0. -1.
    9900012    2    1    2    0    0  0.52384362608E+01  0.12114005331E+00 -0.31452573359E+02  0.59301948814E+02  0.50000008728E+02 0.  0.
        -12    1    1    2    0    0 -0.52384362608E+01 -0.12114005331E+00  0.31452573359E+02  0.31886051186E+02  0.00000000000E+00 0.  1.
         11    1    3    3    0    0 -0.25556609178E+01 -0.16638584834E+02 -0.76408013576E+01  0.18486637164E+02  0.51100000000E-03 0. -1.
        -11    1    3    3    0    0  0.11035787496E+02 -0.22274137682E+01 -0.15296993714E+01  0.11361776189E+02  0.51100000000E-03 0.  1.
         12    1    3    3    0    0 -0.32416903169E+01  0.18987138655E+02 -0.22282072630E+02  0.29453535460E+02  0.00000000000E+00 0. -1.
</event>
<event>
 7    1  0.6953847E-012  0.5930193E+02  0.7816164E-02  0.1266605E+00
        -11   -1    0    0    0    0  0.00000000000E+00  0.00000000000E+00  0.45593999997E+02  0.45594000000E+02  0.51100000000E-03 0. -1.
         11   -1    0    0    0    0 -0.00000000000E+00 -0.00000000000E+00 -0.45593999997E+02  0.45594000000E+02  0.51100000000E-03 0.  1.
    9900012    2    1    2    0    0  0.15132935630E+02 -0.80592435677E+01 -0.26884281664E+02  0.59301925481E+02  0.49999966175E+02 0.  0.
        -12    1    1    2    0    0 -0.15132935630E+02  0.80592435677E+01  0.26884281664E+02  0.31886074519E+02  0.00000000000E+00 0.  1.
         11    1    3    3    0    0 -0.13131605803E+02 -0.20724672798E+01 -0.51467837802E+01  0.14255650639E+02  0.51100000000E-03 0.  1.
        -11    1    3    3    0    0  0.18594251244E+02 -0.14809522912E+02 -0.58871689424E+01  0.24489322298E+02  0.51100000000E-03 0. -1.
         12    1    3    3    0    0  0.96702901891E+01  0.88227466236E+01 -0.15850328942E+02  0.20556952544E+02  0.00000000000E+00 0. -1.
</event>
<event>
 7    1  0.6953847E-012  0.5930200E+02  0.7816164E-02  0.1266605E+00
        -11   -1    0    0    0    0  0.00000000000E+00  0.00000000000E+00  0.45593999997E+02  0.45594000000E+02  0.51100000000E-03 0.  1.
         11   -1    0    0    0    0 -0.00000000000E+00 -0.00000000000E+00 -0.45593999997E+02  0.45594000000E+02  0.51100000000E-03 0. -1.
    9900012    2    1    2    0    0 -0.26857138755E+02 -0.17003813116E+02  0.25062287630E+01  0.59302003933E+02  0.50000109252E+02 0.  0.
        -12    1    1    2    0    0  0.26857138755E+02  0.17003813116E+02 -0.25062287630E+01  0.31885996067E+02  0.00000000000E+00 0.  1.
         11    1    3    3    0    0 -0.14848934854E+02 -0.68262832862E+01  0.21260927823E+01  0.16480572823E+02  0.51100000000E-03 0. -1.
        -11    1    3    3    0    0  0.60002516608E+00 -0.69853562035E+00  0.18656529164E+02  0.18679241498E+02  0.51100000000E-03 0.  1.
         12    1    3    3    0    0 -0.12608229068E+02 -0.94789942095E+01 -0.18276393184E+02  0.24142189612E+02  0.00000000000E+00 0. -1.
</event>
<event>
 7    1  0.6953847E-012  0.5930194E+02  0.7816164E-02  0.1266605E+00
        -11   -1    0    0    0    0  0.00000000000E+00  0.00000000000E+00  0.45593999997E+02  0.45594000000E+02  0.51100000000E-03 0. -1.
         11   -1    0    0    0    0 -0.00000000000E+00 -0.00000000000E+00 -0.45593999997E+02  0.45594000000E+02  0.51100000000E-03 0.  1.
    9900012    2    1    2    0    0  0.17665721348E+02 -0.61868582102E+01  0.25814068939E+02  0.59301935953E+02  0.49999985273E+02 0.  0.
        -12    1    1    2    0    0 -0.17665721348E+02  0.61868582102E+01 -0.25814068939E+02  0.31886064047E+02  0.00000000000E+00 0.  1.
         11    1    3    3    0    0  0.22298147030E+02  0.84687716934E-01  0.75895604904E+00  0.22311220216E+02  0.51100000000E-03 0. -1.
        -11    1    3    3    0    0  0.68435289093E+01 -0.86047002230E+00  0.23156322324E+02  0.24161737529E+02  0.51100000000E-03 0.  1.
        -12    1    3    3    0    0 -0.11475954592E+02 -0.54110759049E+01  0.18987905659E+01  0.12828978208E+02  0.00000000000E+00 0.  1.
</event>
<event>
 7    1  0.6953847E-012  0.5930195E+02  0.7816164E-02  0.1266605E+00
        -11   -1    0    0    0    0  0.00000000000E+00  0.00000000000E+00  0.45593999997E+02  0.45594000000E+02  0.51100000000E-03 0. -1.
         11   -1    0    0    0    0 -0.00000000000E+00 -0.00000000000E+00 -0.45593999997E+02  0.45594000000E+02  0.51100000000E-03 0.  1.
    9900012    2    1    2    0    0 -0.23212938785E+02 -0.15995253485E+02  0.14900714302E+02  0.59301953713E+02  0.50000017664E+02 0.  0.
        -12    1    1    2    0    0  0.23212938785E+02  0.15995253485E+02 -0.14900714302E+02  0.31886046287E+02  0.00000000000E+00 0.  1.
         11    1    3    3    0    0  0.65193133572E+00  0.95963977615E+00 -0.69723273891E+01  0.70681873524E+01  0.51100000000E-03 0. -1.
        -11    1    3    3    0    0  0.41666570124E+01 -0.99212194283E+01  0.20675918834E+02  0.23308480120E+02  0.51100000000E-03 0.  1.
         12    1    3    3    0    0 -0.28031527133E+02 -0.70336738327E+01  0.11971228573E+01  0.28925286241E+02  0.00000000000E+00 0. -1.
</event>
<event>
 7    1  0.6953847E-012  0.5930199E+02  0.7816164E-02  0.1266605E+00
        -11   -1    0    0    0    0  0.00000000000E+00  0.00000000000E+00  0.45593999997E+02  0.45594000000E+02  0.51100000000E-03 0.  1.
         11   -1    0    0    0    0 -0.00000000000E+00 -0.00000000000E+00 -0.45593999997E+02  0.45594000000E+02  0.51100000000E-03 0. -1.
    9900012    2    1    2    0    0  0.58476898737E+01  0.49322819692E+01 -0.30954721380E+02  0.59301989620E+02  0.50000083149E+02 0.  0.
        -12    1    1    2    0    0 -0.58476898737E+01 -0.49322819692E+01  0.30954721380E+02  0.31886010380E+02  0.00000000000E+00 0.  1.
         11    1    3    3    0    0 -0.16635465908E+02  0.34821630695E+01 -0.10494020862E+02  0.19974700492E+02  0.51100000000E-03 0. -1.
        -11    1    3    3    0    0 -0.40939003722E+01 -0.38175227274E+01 -0.39413610694E+00  0.56114920978E+01  0.51100000000E-03 0.  1.
         12    1    3    3    0    0  0.26577056154E+02  0.52676416271E+01 -0.20066564411E+02  0.33715797030E+02  0.00000000000E+00 0. -1.
</event>
<event>
 7    1  0.6953847E-012  0.5930192E+02  0.7816164E-02  0.1266605E+00
        -11   -1    0    0    0    0  0.00000000000E+00  0.00000000000E+00  0.45593999997E+02  0.45594000000E+02  0.51100000000E-03 0. -1.
         11   -1    0    0    0    0 -0.00000000000E+00 -0.00000000000E+00 -0.45593999997E+02  0.45594000000E+02  0.51100000000E-03 0.  1.
    9900012    2    1    2    0    0  0.26281231738E+02  0.17668970408E+02 -0.37183719043E+01  0.59301922371E+02  0.49999960503E+02 0.  0.
        -12    1    1    2    0    0 -0.26281231738E+02 -0.17668970408E+02  0.37183719043E+01  0.31886077629E+02  0.00000000000E+00 0.  1.
         11    1    3    3    0    0  0.27752593321E+00  0.11085817638E+02 -0.63889846369E+01  0.12798105262E+02  0.51100000000E-03 0. -1.
        -11    1    3    3    0    0  0.44020275596E+01  0.18469810528E+02 -0.66890420200E+01  0.20130947096E+02  0.51100000000E-03 0.  1.
         12    1    3    3    0    0  0.21601678245E+02 -0.11886657757E+02  0.93596547526E+01  0.26372870013E+02  0.00000000000E+00 0. -1.
</event>
<event>
 7    1  0.6953847E-012  0.5930153E+02  0.7816164E-02  0.1266606E+00
        -11   -1    0    0    0    0  0.00000000000E+00  0.00000000000E+00  0.45593999997E+02  0.45594000000E+02  0.51100000000E-03 0.  1.
         11   -1    0    0    0    0 -0.00000000000E+00 -0.00000000000E+00 -0.45593999997E+02  0.45594000000E+02  0.51100000000E-03 0. -1.
    9900012    2    1    2    0    0  0.23470252248E+02 -0.42720531665E+01 -0.21157587535E+02  0.59301534390E+02  0.49999252913E+02 0.  0.
        -12    1    1    2    0    0 -0.23470252248E+02  0.42720531665E+01  0.21157587535E+02  0.31886465610E+02  0.00000000000E+00 0.  1.
         11    1    3    3    0    0  0.10524570662E+02  0.28574016204E+01  0.36322250539E+00  0.10911611361E+02  0.51100000000E-03 0. -1.
        -11    1    3    3    0    0  0.23718751549E+02 -0.29968389831E+01 -0.26615830505E+02  0.35776565691E+02  0.51100000000E-03 0.  1.
        -12    1    3    3    0    0 -0.10773069963E+02 -0.41326158038E+01  0.50950204646E+01  0.12613357338E+02  0.00000000000E+00 0.  1.
</event>
<event>
 7    1  0.6953847E-012  0.5930192E+02  0.7816164E-02  0.1266605E+00
        -11   -1    0    0    0    0  0.00000000000E+00  0.00000000000E+00  0.45593999997E+02  0.45594000000E+02  0.51100000000E-03 0.  1.
         11   -1    0    0    0    0 -0.00000000000E+00 -0.00000000000E+00 -0.45593999997E+02  0.45594000000E+02  0.51100000000E-03 0. -1.
    9900012    2    1    2    0    0 -0.26697611690E+01 -0.26949294289E+02 -0.16832418516E+02  0.59301915253E+02  0.49999947522E+02 0.  0.
        -12    1    1    2    0    0  0.26697611690E+01  0.26949294289E+02  0.16832418516E+02  0.31886084747E+02  0.00000000000E+00 0.  1.
         11    1    3    3    0    0 -0.98236619590E+01 -0.67300362679E+01 -0.16016174091E+02  0.19957844454E+02  0.51100000000E-03 0. -1.
        -11    1    3    3    0    0  0.60992544550E+01  0.38122521874E+01 -0.11064868284E+02  0.13197177049E+02  0.51100000000E-03 0.  1.
         12    1    3    3    0    0  0.10546463350E+01 -0.24031510208E+02  0.10248623860E+02  0.26146893751E+02  0.00000000000E+00 0. -1.
</event>
<event>
 7    1  0.6953847E-012  0.5930193E+02  0.7816164E-02  0.1266605E+00
        -11   -1    0    0    0    0  0.00000000000E+00  0.00000000000E+00  0.45593999997E+02  0.45594000000E+02  0.51100000000E-03 0. -1.
         11   -1    0    0    0    0 -0.00000000000E+00 -0.00000000000E+00 -0.45593999997E+02  0.45594000000E+02  0.51100000000E-03 0.  1.
    9900012    2    1    2    0    0 -0.17073454187E+02  0.26813553824E+02 -0.25003813150E+01  0.59301930734E+02  0.49999975755E+02 0.  0.
        -12    1    1    2    0    0  0.17073454187E+02 -0.26813553824E+02  0.25003813150E+01  0.31886069266E+02  0.00000000000E+00 0.  1.
         11    1    3    3    0    0 -0.12601235415E+02  0.23603337532E+02  0.12669327716E+01  0.26786447983E+02  0.51100000000E-03 0. -1.
        -11    1    3    3    0    0  0.29471868210E+01  0.22798369025E+01  0.13337212469E+02  0.13847916925E+02  0.51100000000E-03 0.  1.
        -12    1    3    3    0    0 -0.74194055927E+01  0.93037938941E+00 -0.17104526556E+02  0.18667565825E+02  0.00000000000E+00 0.  1.
</event>
<event>
 7    1  0.6953847E-012  0.5930180E+02  0.7816164E-02  0.1266605E+00
        -11   -1    0    0    0    0  0.00000000000E+00  0.00000000000E+00  0.45593999997E+02  0.45594000000E+02  0.51100000000E-03 0. -1.
         11   -1    0    0    0    0 -0.00000000000E+00 -0.00000000000E+00 -0.45593999997E+02  0.45594000000E+02  0.51100000000E-03 0.  1.
    9900012    2    1    2    0    0 -0.16207936024E+02  0.16841498409E+02  0.21688627028E+02  0.59301799204E+02  0.49999735876E+02 0.  0.
        -12    1    1    2    0    0  0.16207936024E+02 -0.16841498409E+02 -0.21688627028E+02  0.31886200796E+02  0.00000000000E+00 0.  1.
         11    1    3    3    0    0  0.10444601191E+02  0.12891285016E+02  0.19540289075E+02  0.25633919341E+02  0.51100000000E-03 0. -1.
        -11    1    3    3    0    0  0.11758133106E+01  0.52947306563E+01 -0.13475084498E+01  0.55886034882E+01  0.51100000000E-03 0.  1.
         12    1    3    3    0    0 -0.27828350526E+02 -0.13445172635E+01  0.34958464032E+01  0.28079276375E+02  0.00000000000E+00 0. -1.
</event>
<event>
 7    1  0.6953847E-012  0.5930193E+02  0.7816164E-02  0.1266605E+00
        -11   -1    0    0    0    0  0.00000000000E+00  0.00000000000E+00  0.45593999997E+02  0.45594000000E+02  0.51100000000E-03 0.  1.
         11   -1    0    0    0    0 -0.00000000000E+00 -0.00000000000E+00 -0.45593999997E+02  0.45594000000E+02  0.51100000000E-03 0. -1.
    9900012    2    1    2    0    0 -0.60944260803E+01  0.27968660097E+02 -0.14047542089E+02  0.59301930697E+02  0.49999975688E+02 0.  0.
        -12    1    1    2    0    0  0.60944260803E+01 -0.27968660097E+02  0.14047542089E+02  0.31886069303E+02  0.00000000000E+00 0.  1.
         11    1    3    3    0    0  0.98853381518E+01  0.26154595894E+01 -0.45342877705E+01  0.11185718801E+02  0.51100000000E-03 0. -1.
        -11    1    3    3    0    0 -0.55273225339E+01  0.68651424812E+01  0.13929411281E+02  0.16483627470E+02  0.51100000000E-03 0.  1.
         12    1    3    3    0    0 -0.10452441698E+02  0.18488058026E+02 -0.23442665600E+02  0.31632584426E+02  0.00000000000E+00 0. -1.
</event>
<event>
 7    1  0.6953847E-012  0.5930194E+02  0.7816164E-02  0.1266605E+00
        -11   -1    0    0    0    0  0.00000000000E+00  0.00000000000E+00  0.45593999997E+02  0.45594000000E+02  0.51100000000E-03 0. -1.
         11   -1    0    0    0    0 -0.00000000000E+00 -0.00000000000E+00 -0.45593999997E+02  0.45594000000E+02  0.51100000000E-03 0.  1.
    9900012    2    1    2    0    0  0.13015679863E+02  0.19643065031E+02  0.21481689271E+02  0.59301938781E+02  0.49999990432E+02 0.  0.
        -12    1    1    2    0    0 -0.13015679863E+02 -0.19643065031E+02 -0.21481689271E+02  0.31886061219E+02  0.00000000000E+00 0.  1.
         11    1    3    3    0    0  0.12352044543E+02  0.24127371261E+02  0.15305526006E+02  0.31128157269E+02  0.51100000000E-03 0. -1.
        -11    1    3    3    0    0  0.89488498477E+01 -0.74202872678E+00 -0.75352231291E+01  0.11722291077E+02  0.51100000000E-03 0.  1.
        -12    1    3    3    0    0 -0.82852145280E+01 -0.37422775039E+01  0.13711386394E+02  0.16451490435E+02  0.00000000000E+00 0.  1.
</event>
<event>
 7    1  0.6953847E-012  0.5930195E+02  0.7816164E-02  0.1266605E+00
        -11   -1    0    0    0    0  0.00000000000E+00  0.00000000000E+00  0.45593999997E+02  0.45594000000E+02  0.51100000000E-03 0.  1.
         11   -1    0    0    0    0 -0.00000000000E+00 -0.00000000000E+00 -0.45593999997E+02  0.45594000000E+02  0.51100000000E-03 0. -1.
    9900012    2    1    2    0    0  0.15278435654E+02 -0.14227791717E+02 -0.24101030796E+02  0.59301947585E+02  0.50000006487E+02 0.  0.
        -12    1    1    2    0    0 -0.15278435654E+02  0.14227791717E+02  0.24101030796E+02  0.31886052415E+02  0.00000000000E+00 0.  1.
         11    1    3    3    0    0  0.43851016648E+01 -0.27550736910E+01 -0.21419088735E+02  0.22036263525E+02  0.51100000000E-03 0. -1.
        -11    1    3    3    0    0  0.14210645547E+02 -0.96620926888E+01 -0.15964720383E+02  0.23455719540E+02  0.51100000000E-03 0.  1.
         12    1    3    3    0    0 -0.33173115577E+01 -0.18106253374E+01  0.13282778321E+02  0.13809964519E+02  0.00000000000E+00 0. -1.
</event>
<event>
 7    1  0.6953847E-012  0.5930193E+02  0.7816164E-02  0.1266605E+00
        -11   -1    0    0    0    0  0.00000000000E+00  0.00000000000E+00  0.45593999997E+02  0.45594000000E+02  0.51100000000E-03 0.  1.
         11   -1    0    0    0    0 -0.00000000000E+00 -0.00000000000E+00 -0.45593999997E+02  0.45594000000E+02  0.51100000000E-03 0. -1.
    9900012    2    1    2    0    0  0.18653888216E+02  0.50783691670E+01 -0.25356734103E+02  0.59301931830E+02  0.49999977754E+02 0.  0.
        -12    1    1    2    0    0 -0.18653888216E+02 -0.50783691670E+01  0.25356734103E+02  0.31886068170E+02  0.00000000000E+00 0.  1.
         11    1    3    3    0    0  0.83777130114E+01  0.92581865536E-01 -0.11623805469E+02  0.14328555425E+02  0.51100000000E-03 0. -1.
        -11    1    3    3    0    0  0.11151778751E+02  0.58000185084E+01 -0.27981260970E+02  0.30674962913E+02  0.51100000000E-03 0.  1.
        -12    1    3    3    0    0 -0.87560354608E+00 -0.81423120693E+00  0.14248332336E+02  0.14298413492E+02  0.00000000000E+00 0.  1.
</event>
<event>
 7    1  0.6953847E-012  0.5930162E+02  0.7816164E-02  0.1266606E+00
        -11   -1    0    0    0    0  0.00000000000E+00  0.00000000000E+00  0.45593999997E+02  0.45594000000E+02  0.51100000000E-03 0.  1.
         11   -1    0    0    0    0 -0.00000000000E+00 -0.00000000000E+00 -0.45593999997E+02  0.45594000000E+02  0.51100000000E-03 0. -1.
    9900012    2    1    2    0    0 -0.15317097424E+02 -0.26758591676E+02  0.81305322828E+01  0.59301619566E+02  0.49999408256E+02 0.  0.
        -12    1    1    2    0    0  0.15317097424E+02  0.26758591676E+02 -0.81305322828E+01  0.31886380434E+02  0.00000000000E+00 0.  1.
         11    1    3    3    0    0 -0.20791990104E+02 -0.27738066346E+02  0.42513240742E+01  0.34925362328E+02  0.51100000000E-03 0. -1.
        -11    1    3    3    0    0 -0.75373865456E+01 -0.55996523246E+01  0.46723402119E+00  0.94014153182E+01  0.51100000000E-03 0.  1.
        -12    1    3    3    0    0  0.13012279226E+02  0.65791269944E+01  0.34119741875E+01  0.14974841919E+02  0.00000000000E+00 0.  1.
</event>
<event>
 7    1  0.6953847E-012  0.5930196E+02  0.7816164E-02  0.1266605E+00
        -11   -1    0    0    0    0  0.00000000000E+00  0.00000000000E+00  0.45593999997E+02  0.45594000000E+02  0.51100000000E-03 0.  1.
         11   -1    0    0    0    0 -0.00000000000E+00 -0.00000000000E+00 -0.45593999997E+02  0.45594000000E+02  0.51100000000E-03 0. -1.
    9900012    2    1    2    0    0  0.31166162473E+02 -0.23185918818E+01  0.63256842520E+01  0.59301955515E+02  0.50000020951E+02 0.  0.
        -12    1    1    2    0    0 -0.31166162473E+02  0.23185918818E+01 -0.63256842520E+01  0.31886044485E+02  0.00000000000E+00 0.  1.
         11    1    3    3    0    0 -0.32159247295E+01 -0.13095254645E+02  0.26468759992E+01  0.13741681808E+02  0.51100000000E-03 0. -1.
        -11    1    3    3    0    0  0.19381314597E+02 -0.76814527275E+01 -0.24687287250E+01  0.20993682223E+02  0.51100000000E-03 0.  1.
         12    1    3    3    0    0  0.15000772606E+02  0.18458115491E+02  0.61475369779E+01  0.24566591484E+02  0.00000000000E+00 0. -1.
</event>
<event>
 7    1  0.6953847E-012  0.5930192E+02  0.7816164E-02  0.1266605E+00
        -11   -1    0    0    0    0  0.00000000000E+00  0.00000000000E+00  0.45593999997E+02  0.45594000000E+02  0.51100000000E-03 0. -1.
         11   -1    0    0    0    0 -0.00000000000E+00 -0.00000000000E+00 -0.45593999997E+02  0.45594000000E+02  0.51100000000E-03 0.  1.
    9900012    2    1    2    0    0 -0.12575612448E+02  0.21103196688E+02  0.20328080713E+02  0.59301924600E+02  0.49999964569E+02 0.  0.
        -12    1    1    2    0    0  0.12575612448E+02 -0.21103196688E+02 -0.20328080713E+02  0.31886075400E+02  0.00000000000E+00 0.  1.
         11    1    3    3    0    0  0.94909478877E+01  0.29367392680E+01  0.18374312119E+02  0.20888223368E+02  0.51100000000E-03 0. -1.
        -11    1    3    3    0    0 -0.17108387573E+02 -0.17753038464E+01  0.43047521106E+01  0.17730750692E+02  0.51100000000E-03 0.  1.
        -12    1    3    3    0    0 -0.49581727625E+01  0.19941761267E+02 -0.23509835167E+01  0.20682950540E+02  0.00000000000E+00 0.  1.
</event>
<event>
 7    1  0.6953847E-012  0.5930194E+02  0.7816164E-02  0.1266605E+00
        -11   -1    0    0    0    0  0.00000000000E+00  0.00000000000E+00  0.45593999997E+02  0.45594000000E+02  0.51100000000E-03 0. -1.
         11   -1    0    0    0    0 -0.00000000000E+00 -0.00000000000E+00 -0.45593999997E+02  0.45594000000E+02  0.51100000000E-03 0.  1.
    9900012    2    1    2    0    0 -0.26560995256E+02  0.17593046768E+02  0.13111134178E+01  0.59301940633E+02  0.49999993809E+02 0.  0.
        -12    1    1    2    0    0  0.26560995256E+02 -0.17593046768E+02 -0.13111134178E+01  0.31886059367E+02  0.00000000000E+00 0.  1.
         11    1    3    3    0    0 -0.89522348692E+01  0.58092314924E+01  0.37382051357E+01  0.11307690197E+02  0.51100000000E-03 0. -1.
        -11    1    3    3    0    0 -0.31488861158E+02  0.98388074345E+01  0.26282742867E+01  0.33094687410E+02  0.51100000000E-03 0.  1.
        -12    1    3    3    0    0  0.13880100772E+02  0.19450078411E+01 -0.50553660047E+01  0.14899563026E+02  0.00000000000E+00 0.  1.
</event>
<event>
 7    1  0.6953847E-012  0.5930196E+02  0.7816164E-02  0.1266605E+00
        -11   -1    0    0    0    0  0.00000000000E+00  0.00000000000E+00  0.45593999997E+02  0.45594000000E+02  0.51100000000E-03 0. -1.
         11   -1    0    0    0    0 -0.00000000000E+00 -0.00000000000E+00 -0.45593999997E+02  0.45594000000E+02  0.51100000000E-03 0.  1.
    9900012    2    1    2    0    0  0.12027052531E+02  0.28718758835E+02 -0.68776661941E+01  0.59301962400E+02  0.50000033506E+02 0.  0.
        -12    1    1    2    0    0 -0.12027052531E+02 -0.28718758835E+02  0.68776661941E+01  0.31886037600E+02  0.00000000000E+00 0.  1.
         11    1    3    3    0    0  0.83361335033E+00 -0.70469506985E+01 -0.83946401435E+01  0.10992015683E+02  0.51100000000E-03 0.  1.
        -11    1    3    3    0    0  0.43991432590E+01 -0.50674695304E+01  0.16693579468E+01  0.69150896647E+01  0.51100000000E-03 0. -1.
         12    1    3    3    0    0  0.67942959212E+01  0.40833179064E+02 -0.15238399745E+00  0.41394857052E+02  0.00000000000E+00 0. -1.
</event>
<event>
 7    1  0.6953847E-012  0.5930180E+02  0.7816164E-02  0.1266605E+00
        -11   -1    0    0    0    0  0.00000000000E+00  0.00000000000E+00  0.45593999997E+02  0.45594000000E+02  0.51100000000E-03 0. -1.
         11   -1    0    0    0    0 -0.00000000000E+00 -0.00000000000E+00 -0.45593999997E+02  0.45594000000E+02  0.51100000000E-03 0.  1.
    9900012    2    1    2    0    0  0.22249176030E+02 -0.14235395777E+02  0.17862170148E+02  0.59301804721E+02  0.49999745938E+02 0.  0.
        -12    1    1    2    0    0 -0.22249176030E+02  0.14235395777E+02 -0.17862170148E+02  0.31886195279E+02  0.00000000000E+00 0.  1.
         11    1    3    3    0    0  0.85826036612E+01 -0.51380726865E+01  0.24794017679E+02  0.26735822214E+02  0.51100000000E-03 0. -1.
        -11    1    3    3    0    0 -0.50961969539E+01 -0.89498872777E+01  0.37673655333E+01  0.10966528576E+02  0.51100000000E-03 0.  1.
         12    1    3    3    0    0  0.18762769323E+02 -0.14743581331E+00 -0.10699213064E+02  0.21599453932E+02  0.00000000000E+00 0. -1.
</event>
<event>
 7    1  0.6953847E-012  0.5930194E+02  0.7816164E-02  0.1266605E+00
        -11   -1    0    0    0    0  0.00000000000E+00  0.00000000000E+00  0.45593999997E+02  0.45594000000E+02  0.51100000000E-03 0. -1.
         11   -1    0    0    0    0 -0.00000000000E+00 -0.00000000000E+00 -0.45593999997E+02  0.45594000000E+02  0.51100000000E-03 0.  1.
    9900012    2    1    2    0    0  0.24426581649E+02  0.16918285935E+01  0.20425485858E+02  0.59301942740E+02  0.49999997651E+02 0.  0.
        -12    1    1    2    0    0 -0.24426581649E+02 -0.16918285935E+01 -0.20425485858E+02  0.31886057260E+02  0.00000000000E+00 0.  1.
         11    1    3    3    0    0 -0.13391173660E+02 -0.13941875835E+01  0.70046491449E+01  0.15176705865E+02  0.51100000000E-03 0. -1.
        -11    1    3    3    0    0  0.26645631295E+01 -0.50224763272E+01  0.36245712393E+01  0.67426020243E+01  0.51100000000E-03 0.  1.
        -12    1    3    3    0    0  0.35153192180E+02  0.81084925042E+01  0.97962654743E+01  0.37382634850E+02  0.00000000000E+00 0.  1.
</event>
<event>
 7    1  0.6953847E-012  0.5930193E+02  0.7816164E-02  0.1266605E+00
        -11   -1    0    0    0    0  0.00000000000E+00  0.00000000000E+00  0.45593999997E+02  0.45594000000E+02  0.51100000000E-03 0. -1.
         11   -1    0    0    0    0 -0.00000000000E+00 -0.00000000000E+00 -0.45593999997E+02  0.45594000000E+02  0.51100000000E-03 0.  1.
    9900012    2    1    2    0    0 -0.31092047618E+02  0.70158168869E+01  0.88560287424E+00  0.59301930877E+02  0.49999976016E+02 0.  0.
        -12    1    1    2    0    0  0.31092047618E+02 -0.70158168869E+01 -0.88560287424E+00  0.31886069123E+02  0.00000000000E+00 0.  1.
         11    1    3    3    0    0 -0.75869413999E+01  0.13160973310E+02 -0.92924710415E+01  0.17807945322E+02  0.51100000000E-03 0. -1.
        -11    1    3    3    0    0 -0.25736896365E+02  0.68114310506E+01  0.97093908195E+01  0.28338237380E+02  0.51100000000E-03 0.  1.
        -12    1    3    3    0    0  0.22317901466E+01 -0.12956587473E+02  0.46868309620E+00  0.13155748175E+02  0.00000000000E+00 0.  1.
</event>
<event>
 7    1  0.6953847E-012  0.5930210E+02  0.7816164E-02  0.1266604E+00
        -11   -1    0    0    0    0  0.00000000000E+00  0.00000000000E+00  0.45593999997E+02  0.45594000000E+02  0.51100000000E-03 0.  1.
         11   -1    0    0    0    0 -0.00000000000E+00 -0.00000000000E+00 -0.45593999997E+02  0.45594000000E+02  0.51100000000E-03 0. -1.
    9900012    2    1    2    0    0  0.79061611932E+00 -0.25460909620E+02 -0.19178831936E+02  0.59302100500E+02  0.50000285366E+02 0.  0.
        -12    1    1    2    0    0 -0.79061611932E+00  0.25460909620E+02  0.19178831936E+02  0.31885899500E+02  0.00000000000E+00 0.  1.
         11    1    3    3    0    0  0.40231429633E+01 -0.48033893415E+01 -0.13251382963E+02  0.14658014162E+02  0.51100000000E-03 0. -1.
        -11    1    3    3    0    0  0.26075527851E+01  0.11257005414E+02 -0.36583997201E+01  0.12120370918E+02  0.51100000000E-03 0.  1.
        -12    1    3    3    0    0 -0.58400796291E+01 -0.31914525692E+02 -0.22690492530E+01  0.32523715420E+02  0.00000000000E+00 0.  1.
</event>
<event>
 7    1  0.6953847E-012  0.5930195E+02  0.7816164E-02  0.1266605E+00
        -11   -1    0    0    0    0  0.00000000000E+00  0.00000000000E+00  0.45593999997E+02  0.45594000000E+02  0.51100000000E-03 0. -1.
         11   -1    0    0    0    0 -0.00000000000E+00 -0.00000000000E+00 -0.45593999997E+02  0.45594000000E+02  0.51100000000E-03 0.  1.
    9900012    2    1    2    0    0  0.10191205506E+01  0.79000218871E+01  0.30875095804E+02  0.59301945157E+02  0.50000002060E+02 0.  0.
        -12    1    1    2    0    0 -0.10191205506E+01 -0.79000218871E+01 -0.30875095804E+02  0.31886054843E+02  0.00000000000E+00 0.  1.
         11    1    3    3    0    0  0.70887078655E+01  0.10812650233E+02  0.18643447584E+02  0.22687911370E+02  0.51100000000E-03 0.  1.
        -11    1    3    3    0    0 -0.13754829923E+02  0.98482347195E+01  0.13528769495E+02  0.21661271375E+02  0.51100000000E-03 0. -1.
        -12    1    3    3    0    0  0.76852426083E+01 -0.12760863066E+02 -0.12971212743E+01  0.14952762411E+02  0.00000000000E+00 0.  1.
</event>
<event>
 7    1  0.6953847E-012  0.5930194E+02  0.7816164E-02  0.1266605E+00
        -11   -1    0    0    0    0  0.00000000000E+00  0.00000000000E+00  0.45593999997E+02  0.45594000000E+02  0.51100000000E-03 0.  1.
         11   -1    0    0    0    0 -0.00000000000E+00 -0.00000000000E+00 -0.45593999997E+02  0.45594000000E+02  0.51100000000E-03 0. -1.
    9900012    2    1    2    0    0  0.26458248784E+02  0.98749213484E+01  0.14804324570E+02  0.59301936801E+02  0.49999986821E+02 0.  0.
        -12    1    1    2    0    0 -0.26458248784E+02 -0.98749213484E+01 -0.14804324570E+02  0.31886063199E+02  0.00000000000E+00 0.  1.
         11    1    3    3    0    0 -0.17458220726E+01  0.42693172370E+01 -0.52163616636E+01  0.69631453845E+01  0.51100000000E-03 0.  1.
        -11    1    3    3    0    0  0.49085096627E+01  0.20144975191E+02  0.64938119883E+01  0.21727473092E+02  0.51100000000E-03 0. -1.
        -12    1    3    3    0    0  0.23295561193E+02 -0.14539371080E+02  0.13526874246E+02  0.30611318325E+02  0.00000000000E+00 0.  1.
</event>
<event>
 7    1  0.6953847E-012  0.5930194E+02  0.7816164E-02  0.1266605E+00
        -11   -1    0    0    0    0  0.00000000000E+00  0.00000000000E+00  0.45593999997E+02  0.45594000000E+02  0.51100000000E-03 0.  1.
         11   -1    0    0    0    0 -0.00000000000E+00 -0.00000000000E+00 -0.45593999997E+02  0.45594000000E+02  0.51100000000E-03 0. -1.
    9900012    2    1    2    0    0  0.12432090469E+02 -0.53635744589E+01  0.28868601148E+02  0.59301938207E+02  0.49999989385E+02 0.  0.
        -12    1    1    2    0    0 -0.12432090469E+02  0.53635744589E+01 -0.28868601148E+02  0.31886061793E+02  0.00000000000E+00 0.  1.
         11    1    3    3    0    0 -0.34091773659E+01 -0.54720462816E+01 -0.84006362302E+00  0.65016527108E+01  0.51100000000E-03 0. -1.
        -11    1    3    3    0    0 -0.84016225416E+01  0.13498116569E+02  0.12124538258E+02  0.19994770328E+02  0.51100000000E-03 0.  1.
         12    1    3    3    0    0  0.24242890376E+02 -0.13389644746E+02  0.17584126513E+02  0.32805515168E+02  0.00000000000E+00 0. -1.
</event>
<event>
 7    1  0.6953847E-012  0.5930196E+02  0.7816164E-02  0.1266605E+00
        -11   -1    0    0    0    0  0.00000000000E+00  0.00000000000E+00  0.45593999997E+02  0.45594000000E+02  0.51100000000E-03 0.  1.
         11   -1    0    0    0    0 -0.00000000000E+00 -0.00000000000E+00 -0.45593999997E+02  0.45594000000E+02  0.51100000000E-03 0. -1.
    9900012    2    1    2    0    0  0.17175980593E+01 -0.29992363042E+02 -0.10687732400E+02  0.59301959045E+02  0.50000027387E+02 0.  0.
        -12    1    1    2    0    0 -0.17175980593E+01  0.29992363042E+02  0.10687732400E+02  0.31886040955E+02  0.00000000000E+00 0.  1.
         11    1    3    3    0    0 -0.44661125293E+01 -0.22624092170E+02  0.22214828150E+00  0.23061766145E+02  0.51100000000E-03 0. -1.
        -11    1    3    3    0    0 -0.54135417202E+01 -0.15874357767E+02  0.20289299289E+01  0.16894325243E+02  0.51100000000E-03 0.  1.
         12    1    3    3    0    0  0.11597252309E+02  0.85060868949E+01 -0.12938810610E+02  0.19345867657E+02  0.00000000000E+00 0. -1.
</event>
<event>
 7    1  0.6953847E-012  0.5930200E+02  0.7816164E-02  0.1266605E+00
        -11   -1    0    0    0    0  0.00000000000E+00  0.00000000000E+00  0.45593999997E+02  0.45594000000E+02  0.51100000000E-03 0. -1.
         11   -1    0    0    0    0 -0.00000000000E+00 -0.00000000000E+00 -0.45593999997E+02  0.45594000000E+02  0.51100000000E-03 0.  1.
    9900012    2    1    2    0    0 -0.17585814144E+02  0.26197897920E+02  0.45963159399E+01  0.59302002529E+02  0.50000106692E+02 0.  0.
        -12    1    1    2    0    0  0.17585814144E+02 -0.26197897920E+02 -0.45963159399E+01  0.31885997471E+02  0.00000000000E+00 0.  1.
         11    1    3    3    0    0 -0.57648002747E+01  0.19138850729E+02  0.19288193253E+02  0.27777021594E+02  0.51100000000E-03 0. -1.
        -11    1    3    3    0    0 -0.37572298609E+01  0.81578128674E+01  0.49561541860E+01  0.10258174866E+02  0.51100000000E-03 0.  1.
        -12    1    3    3    0    0 -0.80637840081E+01 -0.10987656760E+01 -0.19648031499E+02  0.21266806068E+02  0.00000000000E+00 0.  1.
</event>
<event>
 7    1  0.6953847E-012  0.5930199E+02  0.7816164E-02  0.1266605E+00
        -11   -1    0    0    0    0  0.00000000000E+00  0.00000000000E+00  0.45593999997E+02  0.45594000000E+02  0.51100000000E-03 0. -1.
         11   -1    0    0    0    0 -0.00000000000E+00 -0.00000000000E+00 -0.45593999997E+02  0.45594000000E+02  0.51100000000E-03 0.  1.
    9900012    2    1    2    0    0  0.69335716474E+01 -0.25376855295E+02  0.18018281416E+02  0.59301989499E+02  0.50000082929E+02 0.  0.
        -12    1    1    2    0    0 -0.69335716474E+01  0.25376855295E+02 -0.18018281416E+02  0.31886010501E+02  0.00000000000E+00 0.  1.
         11    1    3    3    0    0  0.16271047599E+01 -0.95179370588E+01 -0.52702172952E+01  0.11000626635E+02  0.51100000000E-03 0. -1.
        -11    1    3    3    0    0 -0.50678839808E+01  0.10559827758E+02  0.20155195282E+00  0.11714693072E+02  0.51100000000E-03 0.  1.
         12    1    3    3    0    0  0.10374350868E+02 -0.26418745994E+02  0.23086946759E+02  0.36586669792E+02  0.00000000000E+00 0. -1.
</event>
<event>
 7    1  0.6953847E-012  0.5930197E+02  0.7816164E-02  0.1266605E+00
        -11   -1    0    0    0    0  0.00000000000E+00  0.00000000000E+00  0.45593999997E+02  0.45594000000E+02  0.51100000000E-03 0. -1.
         11   -1    0    0    0    0 -0.00000000000E+00 -0.00000000000E+00 -0.45593999997E+02  0.45594000000E+02  0.51100000000E-03 0.  1.
    9900012    2    1    2    0    0  0.49438621545E+01 -0.31247722344E+02 -0.39820591400E+01  0.59301972972E+02  0.50000052787E+02 0.  0.
        -12    1    1    2    0    0 -0.49438621545E+01  0.31247722344E+02  0.39820591400E+01  0.31886027028E+02  0.00000000000E+00 0.  1.
         11    1    3    3    0    0 -0.51627935363E+01 -0.15118635796E+02 -0.83456304289E+01  0.18024348337E+02  0.51100000000E-03 0. -1.
        -11    1    3    3    0    0 -0.11423153028E+02 -0.15110623446E+02 -0.13154183612E+01  0.18988146085E+02  0.51100000000E-03 0.  1.
         12    1    3    3    0    0  0.21529808719E+02 -0.10184631013E+01  0.56789896501E+01  0.22289478550E+02  0.00000000000E+00 0. -1.
</event>
<event>
 7    1  0.6953847E-012  0.5930193E+02  0.7816164E-02  0.1266605E+00
        -11   -1    0    0    0    0  0.00000000000E+00  0.00000000000E+00  0.45593999997E+02  0.45594000000E+02  0.51100000000E-03 0.  1.
         11   -1    0    0    0    0 -0.00000000000E+00 -0.00000000000E+00 -0.45593999997E+02  0.45594000000E+02  0.51100000000E-03 0. -1.
    9900012    2    1    2    0    0  0.27331917899E+02 -0.95997035236E+00 -0.16394082079E+02  0.59301933978E+02  0.49999981672E+02 0.  0.
        -12    1    1    2    0    0 -0.27331917899E+02  0.95997035236E+00  0.16394082079E+02  0.31886066022E+02  0.00000000000E+00 0.  1.
         11    1    3    3    0    0 -0.44570975140E+01  0.62444873804E+01  0.37657704886E+01  0.85463658082E+01  0.51100000000E-03 0. -1.
        -11    1    3    3    0    0  0.98603325240E+01 -0.10074592141E+02  0.69927568671E+01  0.15736016432E+02  0.51100000000E-03 0.  1.
        -12    1    3    3    0    0  0.21928682889E+02  0.28701344079E+01 -0.27152609435E+02  0.35019551738E+02  0.00000000000E+00 0.  1.
</event>
<event>
 7    1  0.6953847E-012  0.5930196E+02  0.7816164E-02  0.1266605E+00
        -11   -1    0    0    0    0  0.00000000000E+00  0.00000000000E+00  0.45593999997E+02  0.45594000000E+02  0.51100000000E-03 0. -1.
         11   -1    0    0    0    0 -0.00000000000E+00 -0.00000000000E+00 -0.45593999997E+02  0.45594000000E+02  0.51100000000E-03 0.  1.
    9900012    2    1    2    0    0  0.18281755885E+02  0.51585764457E+01  0.25610273942E+02  0.59301958531E+02  0.50000026451E+02 0.  0.
        -12    1    1    2    0    0 -0.18281755885E+02 -0.51585764457E+01 -0.25610273942E+02  0.31886041469E+02  0.00000000000E+00 0.  1.
         11    1    3    3    0    0  0.16159909147E+02 -0.14723146423E+01  0.12191260616E+02  0.20296236343E+02  0.51100000000E-03 0. -1.
        -11    1    3    3    0    0  0.12486678032E+02  0.74691240524E+01 -0.69584325936E+01  0.16128382647E+02  0.51100000000E-03 0.  1.
         12    1    3    3    0    0 -0.10364831294E+02 -0.83823296445E+00  0.20377445920E+02  0.22877339541E+02  0.00000000000E+00 0. -1.
</event>
<event>
 7    1  0.6953847E-012  0.5930191E+02  0.7816164E-02  0.1266605E+00
        -11   -1    0    0    0    0  0.00000000000E+00  0.00000000000E+00  0.45593999997E+02  0.45594000000E+02  0.51100000000E-03 0.  1.
         11   -1    0    0    0    0 -0.00000000000E+00 -0.00000000000E+00 -0.45593999997E+02  0.45594000000E+02  0.51100000000E-03 0. -1.
    9900012    2    1    2    0    0 -0.17054872457E+02  0.24792749361E+02  0.10543884328E+02  0.59301912248E+02  0.49999942042E+02 0.  0.
        -12    1    1    2    0    0  0.17054872457E+02 -0.24792749361E+02 -0.10543884328E+02  0.31886087752E+02  0.00000000000E+00 0.  1.
         11    1    3    3    0    0 -0.11419088045E+01  0.13768664364E+02  0.13159763388E+02  0.19080341893E+02  0.51100000000E-03 0. -1.
        -11    1    3    3    0    0 -0.64510200373E+00 -0.68318397728E+01  0.11075990305E+02  0.13029495492E+02  0.51100000000E-03 0.  1.
         12    1    3    3    0    0 -0.15267861648E+02  0.17855924770E+02 -0.13691869364E+02  0.27192074863E+02  0.00000000000E+00 0. -1.
</event>
<event>
 7    1  0.6953847E-012  0.5930196E+02  0.7816164E-02  0.1266605E+00
        -11   -1    0    0    0    0  0.00000000000E+00  0.00000000000E+00  0.45593999997E+02  0.45594000000E+02  0.51100000000E-03 0.  1.
         11   -1    0    0    0    0 -0.00000000000E+00 -0.00000000000E+00 -0.45593999997E+02  0.45594000000E+02  0.51100000000E-03 0. -1.
    9900012    2    1    2    0    0  0.16627505637E+02  0.29854136336E+01 -0.27043170381E+02  0.59301957559E+02  0.50000024678E+02 0.  0.
        -12    1    1    2    0    0 -0.16627505637E+02 -0.29854136336E+01  0.27043170381E+02  0.31886042441E+02  0.00000000000E+00 0.  1.
         11    1    3    3    0    0  0.14642567079E+02  0.15867591252E+01 -0.12069380834E+01  0.14777661350E+02  0.51100000000E-03 0. -1.
        -11    1    3    3    0    0  0.92029574339E+01  0.80362139665E+01  0.42065325103E+01  0.12921690155E+02  0.51100000000E-03 0.  1.
        -12    1    3    3    0    0 -0.72180188760E+01 -0.66375594580E+01 -0.30042764808E+02  0.31602606054E+02  0.00000000000E+00 0.  1.
</event>
<event>
 7    1  0.6953847E-012  0.5930201E+02  0.7816164E-02  0.1266605E+00
        -11   -1    0    0    0    0  0.00000000000E+00  0.00000000000E+00  0.45593999997E+02  0.45594000000E+02  0.51100000000E-03 0. -1.
         11   -1    0    0    0    0 -0.00000000000E+00 -0.00000000000E+00 -0.45593999997E+02  0.45594000000E+02  0.51100000000E-03 0.  1.
    9900012    2    1    2    0    0 -0.25368689806E+02  0.18861568029E+02  0.41698058474E+01  0.59302008533E+02  0.50000117643E+02 0.  0.
        -12    1    1    2    0    0  0.25368689806E+02 -0.18861568029E+02 -0.41698058474E+01  0.31885991467E+02  0.00000000000E+00 0.  1.
         11    1    3    3    0    0 -0.61153018121E+00  0.14118279480E+02 -0.10730382028E+01  0.14172197990E+02  0.51100000000E-03 0. -1.
        -11    1    3    3    0    0 -0.98665512179E+01  0.18175816438E+02  0.12069876588E+02  0.23945585339E+02  0.51100000000E-03 0.  1.
        -12    1    3    3    0    0 -0.14890608407E+02 -0.13432527889E+02 -0.68270325375E+01  0.21184225204E+02  0.00000000000E+00 0.  1.
</event>
<event>
 7    1  0.6953847E-012  0.5930192E+02  0.7816164E-02  0.1266605E+00
        -11   -1    0    0    0    0  0.00000000000E+00  0.00000000000E+00  0.45593999997E+02  0.45594000000E+02  0.51100000000E-03 0.  1.
         11   -1    0    0    0    0 -0.00000000000E+00 -0.00000000000E+00 -0.45593999997E+02  0.45594000000E+02  0.51100000000E-03 0. -1.
    9900012    2    1    2    0    0 -0.24955442406E+02  0.13802439134E+02 -0.14263264528E+02  0.59301919233E+02  0.49999954780E+02 0.  0.
        -12    1    1    2    0    0  0.24955442406E+02 -0.13802439134E+02  0.14263264528E+02  0.31886080767E+02  0.00000000000E+00 0.  1.
         11    1    3    3    0    0  0.48980921304E+01  0.49796688086E+01 -0.90793288891E+01  0.11455244271E+02  0.51100000000E-03 0. -1.
        -11    1    3    3    0    0 -0.21748064762E+02  0.16585732358E+02 -0.16472624795E+02  0.31928235257E+02  0.51100000000E-03 0.  1.
        -12    1    3    3    0    0 -0.81054697741E+01 -0.77629620333E+01  0.11288689155E+02  0.15918439705E+02  0.00000000000E+00 0.  1.
</event>
<event>
 7    1  0.6953847E-012  0.5930195E+02  0.7816164E-02  0.1266605E+00
        -11   -1    0    0    0    0  0.00000000000E+00  0.00000000000E+00  0.45593999997E+02  0.45594000000E+02  0.51100000000E-03 0. -1.
         11   -1    0    0    0    0 -0.00000000000E+00 -0.00000000000E+00 -0.45593999997E+02  0.45594000000E+02  0.51100000000E-03 0.  1.
    9900012    2    1    2    0    0  0.22716952654E+02 -0.94316687417E+01  0.20290483533E+02  0.59301952344E+02  0.50000015167E+02 0.  0.
        -12    1    1    2    0    0 -0.22716952654E+02  0.94316687417E+01 -0.20290483533E+02  0.31886047656E+02  0.00000000000E+00 0.  1.
         11    1    3    3    0    0  0.15701549597E+02 -0.81527817605E+00 -0.16862314968E+01  0.15812865495E+02  0.51100000000E-03 0. -1.
        -11    1    3    3    0    0  0.81590361770E+01 -0.22216337062E+02  0.11678446794E+02  0.26391696110E+02  0.51100000000E-03 0.  1.
        -12    1    3    3    0    0 -0.11436331196E+01  0.13599946496E+02  0.10298268235E+02  0.17097390739E+02  0.00000000000E+00 0.  1.
</event>
<event>
 7    1  0.6953847E-012  0.5930197E+02  0.7816164E-02  0.1266605E+00
        -11   -1    0    0    0    0  0.00000000000E+00  0.00000000000E+00  0.45593999997E+02  0.45594000000E+02  0.51100000000E-03 0. -1.
         11   -1    0    0    0    0 -0.00000000000E+00 -0.00000000000E+00 -0.45593999997E+02  0.45594000000E+02  0.51100000000E-03 0.  1.
    9900012    2    1    2    0    0 -0.94202585741E+01  0.16979610487E+02  0.25291711444E+02  0.59301966825E+02  0.50000041576E+02 0.  0.
        -12    1    1    2    0    0  0.94202585741E+01 -0.16979610487E+02 -0.25291711444E+02  0.31886033175E+02  0.00000000000E+00 0.  1.
         11    1    3    3    0    0 -0.71127454092E+00 -0.36856851228E+01  0.95208521650E+01  0.10234100474E+02  0.51100000000E-03 0. -1.
        -11    1    3    3    0    0 -0.16083745132E+02 -0.35878061338E+01  0.17016163004E+02  0.23687739739E+02  0.51100000000E-03 0.  1.
         12    1    3    3    0    0  0.73747610986E+01  0.24253101744E+02 -0.12453037248E+01  0.25380126612E+02  0.00000000000E+00 0. -1.
</event>
<event>
 7    1  0.6953847E-012  0.5930193E+02  0.7816164E-02  0.1266605E+00
        -11   -1    0    0    0    0  0.00000000000E+00  0.00000000000E+00  0.45593999997E+02  0.45594000000E+02  0.51100000000E-03 0.  1.
         11   -1    0    0    0    0 -0.00000000000E+00 -0.00000000000E+00 -0.45593999997E+02  0.45594000000E+02  0.51100000000E-03 0. -1.
    9900012    2    1    2    0    0 -0.82535530847E+01  0.40871090594E+01 -0.30526965193E+02  0.59301934032E+02  0.49999981771E+02 0.  0.
        -12    1    1    2    0    0  0.82535530847E+01 -0.40871090594E+01  0.30526965193E+02  0.31886065968E+02  0.00000000000E+00 0.  1.
         11    1    3    3    0    0  0.12928565991E+02 -0.26264718032E+01 -0.25257769651E+01  0.13432264226E+02  0.51100000000E-03 0. -1.
        -11    1    3    3    0    0 -0.69406125323E+01 -0.10048870827E+02 -0.30111803237E+01  0.12578517974E+02  0.51100000000E-03 0.  1.
         12    1    3    3    0    0 -0.14241506543E+02  0.16762451689E+02 -0.24990007904E+02  0.33291151832E+02  0.00000000000E+00 0. -1.
</event>
<event>
 7    1  0.6953847E-012  0.5930193E+02  0.7816164E-02  0.1266605E+00
        -11   -1    0    0    0    0  0.00000000000E+00  0.00000000000E+00  0.45593999997E+02  0.45594000000E+02  0.51100000000E-03 0. -1.
         11   -1    0    0    0    0 -0.00000000000E+00 -0.00000000000E+00 -0.45593999997E+02  0.45594000000E+02  0.51100000000E-03 0.  1.
    9900012    2    1    2    0    0 -0.17975256894E+02  0.17302044153E+02  0.19855745249E+02  0.59301933895E+02  0.49999981520E+02 0.  0.
        -12    1    1    2    0    0  0.17975256894E+02 -0.17302044153E+02 -0.19855745249E+02  0.31886066105E+02  0.00000000000E+00 0.  1.
         11    1    3    3    0    0 -0.67479657257E+01  0.81651784377E-01  0.15577562316E+02  0.16976517794E+02  0.51100000000E-03 0. -1.
        -11    1    3    3    0    0 -0.99294379184E+01 -0.70270309695E+01  0.11757205294E+02  0.16917587836E+02  0.51100000000E-03 0.  1.
        -12    1    3    3    0    0 -0.12978532495E+01  0.24247423339E+02 -0.74790223614E+01  0.25407828264E+02  0.00000000000E+00 0.  1.
</event>
<event>
 7    1  0.6953847E-012  0.5930194E+02  0.7816164E-02  0.1266605E+00
        -11   -1    0    0    0    0  0.00000000000E+00  0.00000000000E+00  0.45593999997E+02  0.45594000000E+02  0.51100000000E-03 0. -1.
         11   -1    0    0    0    0 -0.00000000000E+00 -0.00000000000E+00 -0.45593999997E+02  0.45594000000E+02  0.51100000000E-03 0.  1.
    9900012    2    1    2    0    0  0.21282214774E+02 -0.23617378248E+02  0.24511003930E+01  0.59301935424E+02  0.49999984310E+02 0.  0.
        -12    1    1    2    0    0 -0.21282214774E+02  0.23617378248E+02 -0.24511003930E+01  0.31886064576E+02  0.00000000000E+00 0.  1.
         11    1    3    3    0    0  0.14743564559E+02 -0.26134376537E+01  0.13446664823E+02  0.20124998072E+02  0.51100000000E-03 0. -1.
        -11    1    3    3    0    0  0.83439300318E+01 -0.12735722643E+02 -0.21085273957E+02  0.26007856077E+02  0.51100000000E-03 0.  1.
         12    1    3    3    0    0 -0.18052798169E+01 -0.82682179511E+01  0.10089709527E+02  0.13169081275E+02  0.00000000000E+00 0. -1.
</event>
<event>
 7    1  0.6953847E-012  0.5930193E+02  0.7816164E-02  0.1266605E+00
        -11   -1    0    0    0    0  0.00000000000E+00  0.00000000000E+00  0.45593999997E+02  0.45594000000E+02  0.51100000000E-03 0.  1.
         11   -1    0    0    0    0 -0.00000000000E+00 -0.00000000000E+00 -0.45593999997E+02  0.45594000000E+02  0.51100000000E-03 0. -1.
    9900012    2    1    2    0    0 -0.11341564032E+02  0.28322473084E+02 -0.92697192906E+01  0.59301933262E+02  0.49999980366E+02 0.  0.
        -12    1    1    2    0    0  0.11341564032E+02 -0.28322473084E+02  0.92697192906E+01  0.31886066738E+02  0.00000000000E+00 0.  1.
         11    1    3    3    0    0  0.14233571233E+01 -0.31884863001E+01 -0.94671636284E+01  0.10090568756E+02  0.51100000000E-03 0. -1.
        -11    1    3    3    0    0 -0.29021496536E+01  0.37509487206E+02 -0.74804234597E+00  0.37629026970E+02  0.51100000000E-03 0.  1.
         12    1    3    3    0    0 -0.98627715018E+01 -0.59985278221E+01  0.94548668379E+00  0.11582337536E+02  0.00000000000E+00 0. -1.
</event>
<event>
 7    1  0.6953847E-012  0.5930195E+02  0.7816164E-02  0.1266605E+00
        -11   -1    0    0    0    0  0.00000000000E+00  0.00000000000E+00  0.45593999997E+02  0.45594000000E+02  0.51100000000E-03 0.  1.
         11   -1    0    0    0    0 -0.00000000000E+00 -0.00000000000E+00 -0.45593999997E+02  0.45594000000E+02  0.51100000000E-03 0. -1.
    9900012    2    1    2    0    0 -0.22029656109E+02  0.19402527497E+02 -0.12448158051E+02  0.59301945675E+02  0.50000003004E+02 0.  0.
        -12    1    1    2    0    0  0.22029656109E+02 -0.19402527497E+02  0.12448158051E+02  0.31886054325E+02  0.00000000000E+00 0.  1.
         11    1    3    3    0    0 -0.26569501018E+02  0.14268000885E+02  0.55352257825E+01  0.30661913807E+02  0.51100000000E-03 0. -1.
        -11    1    3    3    0    0 -0.36325784090E+01  0.56443775064E+01  0.20331396167E+01  0.70134356983E+01  0.51100000000E-03 0.  1.
         12    1    3    3    0    0  0.81724233180E+01 -0.50985089418E+00 -0.20016523451E+02  0.21626596169E+02  0.00000000000E+00 0. -1.
</event>
<event>
 7    1  0.6953847E-012  0.5930196E+02  0.7816164E-02  0.1266605E+00
        -11   -1    0    0    0    0  0.00000000000E+00  0.00000000000E+00  0.45593999997E+02  0.45594000000E+02  0.51100000000E-03 0.  1.
         11   -1    0    0    0    0 -0.00000000000E+00 -0.00000000000E+00 -0.45593999997E+02  0.45594000000E+02  0.51100000000E-03 0. -1.
    9900012    2    1    2    0    0 -0.10818374936E+02  0.23829277148E+02 -0.18216690009E+02  0.59301961040E+02  0.50000031026E+02 0.  0.
        -12    1    1    2    0    0  0.10818374936E+02 -0.23829277148E+02  0.18216690009E+02  0.31886038960E+02  0.00000000000E+00 0.  1.
         11    1    3    3    0    0 -0.29581876247E+01 -0.29089884154E+01 -0.16844245171E+02  0.17347670831E+02  0.51100000000E-03 0. -1.
        -11    1    3    3    0    0 -0.12321605857E+02 -0.19018933165E+01  0.24862510693E+01  0.12713009624E+02  0.51100000000E-03 0.  1.
        -12    1    3    3    0    0  0.44614185452E+01  0.28640158880E+02 -0.38586959073E+01  0.29241280584E+02  0.00000000000E+00 0.  1.
</event>
<event>
 7    1  0.6953847E-012  0.5930191E+02  0.7816164E-02  0.1266605E+00
        -11   -1    0    0    0    0  0.00000000000E+00  0.00000000000E+00  0.45593999997E+02  0.45594000000E+02  0.51100000000E-03 0.  1.
         11   -1    0    0    0    0 -0.00000000000E+00 -0.00000000000E+00 -0.45593999997E+02  0.45594000000E+02  0.51100000000E-03 0. -1.
    9900012    2    1    2    0    0 -0.16526172904E+01  0.28872653231E+02 -0.13429884705E+02  0.59301905042E+02  0.49999928898E+02 0.  0.
        -12    1    1    2    0    0  0.16526172904E+01 -0.28872653231E+02  0.13429884705E+02  0.31886094958E+02  0.00000000000E+00 0.  1.
         11    1    3    3    0    0 -0.60885220228E+01  0.27137771462E+02 -0.17867427599E+02  0.33057127970E+02  0.51100000000E-03 0. -1.
        -11    1    3    3    0    0 -0.35987021680E+01  0.90923418728E+01 -0.57376841202E+01  0.11337652197E+02  0.51100000000E-03 0.  1.
        -12    1    3    3    0    0  0.80346069005E+01 -0.73574601033E+01  0.10175227015E+02  0.14907124874E+02  0.00000000000E+00 0.  1.
</event>
<event>
 7    1  0.6953847E-012  0.5930184E+02  0.7816164E-02  0.1266605E+00
        -11   -1    0    0    0    0  0.00000000000E+00  0.00000000000E+00  0.45593999997E+02  0.45594000000E+02  0.51100000000E-03 0.  1.
         11   -1    0    0    0    0 -0.00000000000E+00 -0.00000000000E+00 -0.45593999997E+02  0.45594000000E+02  0.51100000000E-03 0. -1.
    9900012    2    1    2    0    0  0.27290929508E+02  0.33070301777E+01 -0.16155364448E+02  0.59301841837E+02  0.49999813628E+02 0.  0.
        -12    1    1    2    0    0 -0.27290929508E+02 -0.33070301777E+01  0.16155364448E+02  0.31886158163E+02  0.00000000000E+00 0.  1.
         11    1    3    3    0    0  0.22466840056E+02 -0.52335949815E+01 -0.12895400381E+02  0.26428030002E+02  0.51100000000E-03 0. -1.
        -11    1    3    3    0    0  0.11725279210E+02 -0.65169703955E+01 -0.80331926285E+01  0.15636024423E+02  0.51100000000E-03 0.  1.
        -12    1    3    3    0    0 -0.69011897580E+01  0.15057595555E+02  0.47732285616E+01  0.17237787412E+02  0.00000000000E+00 0.  1.
</event>
<event>
 7    1  0.6953847E-012  0.5930195E+02  0.7816164E-02  0.1266605E+00
        -11   -1    0    0    0    0  0.00000000000E+00  0.00000000000E+00  0.45593999997E+02  0.45594000000E+02  0.51100000000E-03 0. -1.
         11   -1    0    0    0    0 -0.00000000000E+00 -0.00000000000E+00 -0.45593999997E+02  0.45594000000E+02  0.51100000000E-03 0.  1.
    9900012    2    1    2    0    0  0.71103280839E+01  0.22582123599E+02  0.21359096679E+02  0.59301951599E+02  0.50000013808E+02 0.  0.
        -12    1    1    2    0    0 -0.71103280839E+01 -0.22582123599E+02 -0.21359096679E+02  0.31886048401E+02  0.00000000000E+00 0.  1.
         11    1    3    3    0    0 -0.90414196799E+01  0.13594255779E+02 -0.33768738573E+01  0.16671962611E+02  0.51100000000E-03 0. -1.
        -11    1    3    3    0    0 -0.12901605297E+01  0.59400133120E+01 -0.51007055173E+01  0.79350784101E+01  0.51100000000E-03 0.  1.
        -12    1    3    3    0    0  0.17441908294E+02  0.30478545080E+01  0.29836676054E+02  0.34694910577E+02  0.00000000000E+00 0.  1.
</event>
<event>
 7    1  0.6953847E-012  0.5930186E+02  0.7816164E-02  0.1266605E+00
        -11   -1    0    0    0    0  0.00000000000E+00  0.00000000000E+00  0.45593999997E+02  0.45594000000E+02  0.51100000000E-03 0.  1.
         11   -1    0    0    0    0 -0.00000000000E+00 -0.00000000000E+00 -0.45593999997E+02  0.45594000000E+02  0.51100000000E-03 0. -1.
    9900012    2    1    2    0    0  0.31550916204E+02 -0.14266185111E+01 -0.43852194004E+01  0.59301863469E+02  0.49999853080E+02 0.  0.
        -12    1    1    2    0    0 -0.31550916204E+02  0.14266185111E+01  0.43852194004E+01  0.31886136531E+02  0.00000000000E+00 0.  1.
         11    1    3    3    0    0  0.33838136677E+02 -0.40375612955E+01  0.61192407981E+01  0.34623207581E+02  0.51100000000E-03 0. -1.
        -11    1    3    3    0    0  0.82664887642E+01  0.69991369040E+01 -0.60893043786E+01  0.12425875501E+02  0.51100000000E-03 0.  1.
         12    1    3    3    0    0 -0.10553709237E+02 -0.43881941195E+01 -0.44151558199E+01  0.12252780387E+02  0.00000000000E+00 0. -1.
</event>
<event>
 7    1  0.6953847E-012  0.5930190E+02  0.7816164E-02  0.1266605E+00
        -11   -1    0    0    0    0  0.00000000000E+00  0.00000000000E+00  0.45593999997E+02  0.45594000000E+02  0.51100000000E-03 0. -1.
         11   -1    0    0    0    0 -0.00000000000E+00 -0.00000000000E+00 -0.45593999997E+02  0.45594000000E+02  0.51100000000E-03 0.  1.
    9900012    2    1    2    0    0 -0.30295341757E+02 -0.98740600976E+01 -0.11911495174E+01  0.59301895940E+02  0.49999912299E+02 0.  0.
        -12    1    1    2    0    0  0.30295341757E+02  0.98740600976E+01  0.11911495174E+01  0.31886104060E+02  0.00000000000E+00 0.  1.
         11    1    3    3    0    0  0.73509834066E+01 -0.36811729929E+01  0.13119975856E+02  0.15482950571E+02  0.51100000000E-03 0. -1.
        -11    1    3    3    0    0 -0.11178768790E+02  0.54135575280E+00  0.28690926684E+01  0.11553771277E+02  0.51100000000E-03 0.  1.
        -12    1    3    3    0    0 -0.26467556373E+02 -0.67342428575E+01 -0.17180218042E+02  0.32265174092E+02  0.00000000000E+00 0.  1.
</event>
<event>
 7    1  0.6953847E-012  0.5930193E+02  0.7816164E-02  0.1266605E+00
        -11   -1    0    0    0    0  0.00000000000E+00  0.00000000000E+00  0.45593999997E+02  0.45594000000E+02  0.51100000000E-03 0. -1.
         11   -1    0    0    0    0 -0.00000000000E+00 -0.00000000000E+00 -0.45593999997E+02  0.45594000000E+02  0.51100000000E-03 0.  1.
    9900012    2    1    2    0    0 -0.28048356127E+02  0.57709053822E+01 -0.14025246624E+02  0.59301934497E+02  0.49999982619E+02 0.  0.
        -12    1    1    2    0    0  0.28048356127E+02 -0.57709053822E+01  0.14025246624E+02  0.31886065503E+02  0.00000000000E+00 0.  1.
         11    1    3    3    0    0 -0.30783793793E+02  0.96578447258E+01  0.13598448861E+01  0.32291873644E+02  0.51100000000E-03 0. -1.
        -11    1    3    3    0    0 -0.43885146551E+01  0.67687338342E+01 -0.10617484007E+02  0.13334383582E+02  0.51100000000E-03 0.  1.
        -12    1    3    3    0    0  0.71239523208E+01 -0.10655673178E+02 -0.47676075028E+01  0.13675677272E+02  0.00000000000E+00 0.  1.
</event>
<event>
 7    1  0.6953847E-012  0.5930189E+02  0.7816164E-02  0.1266605E+00
        -11   -1    0    0    0    0  0.00000000000E+00  0.00000000000E+00  0.45593999997E+02  0.45594000000E+02  0.51100000000E-03 0. -1.
         11   -1    0    0    0    0 -0.00000000000E+00 -0.00000000000E+00 -0.45593999997E+02  0.45594000000E+02  0.51100000000E-03 0.  1.
    9900012    2    1    2    0    0  0.78951174882E+01 -0.29120967603E+02  0.10313106230E+02  0.59301893396E+02  0.49999907659E+02 0.  0.
        -12    1    1    2    0    0 -0.78951174882E+01  0.29120967603E+02 -0.10313106230E+02  0.31886106604E+02  0.00000000000E+00 0.  1.
         11    1    3    3    0    0  0.34417604081E+01  0.39709939415E+01  0.92341351180E+01  0.10624676900E+02  0.51100000000E-03 0. -1.
        -11    1    3    3    0    0  0.10541838165E+02 -0.11374757454E+02  0.15484026685E+02  0.21915075671E+02  0.51100000000E-03 0.  1.
        -12    1    3    3    0    0 -0.60884810850E+01 -0.21717204091E+02 -0.14405055573E+02  0.26762140824E+02  0.00000000000E+00 0.  1.
</event>
<event>
 7    1  0.6953847E-012  0.5930195E+02  0.7816164E-02  0.1266605E+00
        -11   -1    0    0    0    0  0.00000000000E+00  0.00000000000E+00  0.45593999997E+02  0.45594000000E+02  0.51100000000E-03 0. -1.
         11   -1    0    0    0    0 -0.00000000000E+00 -0.00000000000E+00 -0.45593999997E+02  0.45594000000E+02  0.51100000000E-03 0.  1.
    9900012    2    1    2    0    0 -0.21169050246E+02 -0.80638098014E+01  0.22440287026E+02  0.59301949780E+02  0.50000010490E+02 0.  0.
        -12    1    1    2    0    0  0.21169050246E+02  0.80638098014E+01 -0.22440287026E+02  0.31886050220E+02  0.00000000000E+00 0.  1.
         11    1    3    3    0    0 -0.46493830329E+01  0.62337296760E+01  0.36989187677E+01  0.86115125600E+01  0.51100000000E-03 0. -1.
        -11    1    3    3    0    0 -0.41575844520E+01 -0.42324528404E+01 -0.13487399924E+02  0.14734623256E+02  0.51100000000E-03 0.  1.
         12    1    3    3    0    0 -0.12362082761E+02 -0.10065086637E+02  0.32228768183E+02  0.35955813964E+02  0.00000000000E+00 0. -1.
</event>
<event>
 7    1  0.6953847E-012  0.5930190E+02  0.7816164E-02  0.1266605E+00
        -11   -1    0    0    0    0  0.00000000000E+00  0.00000000000E+00  0.45593999997E+02  0.45594000000E+02  0.51100000000E-03 0.  1.
         11   -1    0    0    0    0 -0.00000000000E+00 -0.00000000000E+00 -0.45593999997E+02  0.45594000000E+02  0.51100000000E-03 0. -1.
    9900012    2    1    2    0    0 -0.27258893017E+02 -0.90156597331E+01 -0.13870614076E+02  0.59301901088E+02  0.49999921689E+02 0.  0.
        -12    1    1    2    0    0  0.27258893017E+02  0.90156597331E+01  0.13870614076E+02  0.31886098912E+02  0.00000000000E+00 0.  1.
         11    1    3    3    0    0 -0.56700991580E+01 -0.23671843959E+02 -0.60809401907E+01  0.25089520816E+02  0.51100000000E-03 0. -1.
        -11    1    3    3    0    0  0.40378491663E+01  0.21184257623E+01  0.26602976885E+00  0.45675732834E+01  0.51100000000E-03 0.  1.
        -12    1    3    3    0    0 -0.25626643026E+02  0.12537758464E+02 -0.80557036543E+01  0.29644806989E+02  0.00000000000E+00 0.  1.
</event>
<event>
 7    1  0.6953847E-012  0.5930196E+02  0.7816164E-02  0.1266605E+00
        -11   -1    0    0    0    0  0.00000000000E+00  0.00000000000E+00  0.45593999997E+02  0.45594000000E+02  0.51100000000E-03 0. -1.
         11   -1    0    0    0    0 -0.00000000000E+00 -0.00000000000E+00 -0.45593999997E+02  0.45594000000E+02  0.51100000000E-03 0.  1.
    9900012    2    1    2    0    0 -0.19693010971E+02  0.18208490409E+02  0.17244009558E+02  0.59301958074E+02  0.50000025618E+02 0.  0.
        -12    1    1    2    0    0  0.19693010971E+02 -0.18208490409E+02 -0.17244009558E+02  0.31886041926E+02  0.00000000000E+00 0.  1.
         11    1    3    3    0    0 -0.36883575122E+01 -0.97474249095E+01  0.37996937249E+01  0.11092968321E+02  0.51100000000E-03 0. -1.
        -11    1    3    3    0    0  0.70996428420E+01 -0.10549744273E+01  0.79609493482E+01  0.10718890535E+02  0.51100000000E-03 0.  1.
         12    1    3    3    0    0 -0.23104296300E+02  0.29010889746E+02  0.54833664845E+01  0.37490099218E+02  0.00000000000E+00 0. -1.
</event>
<event>
 7    1  0.6953847E-012  0.5930195E+02  0.7816164E-02  0.1266605E+00
        -11   -1    0    0    0    0  0.00000000000E+00  0.00000000000E+00  0.45593999997E+02  0.45594000000E+02  0.51100000000E-03 0. -1.
         11   -1    0    0    0    0 -0.00000000000E+00 -0.00000000000E+00 -0.45593999997E+02  0.45594000000E+02  0.51100000000E-03 0.  1.
    9900012    2    1    2    0    0 -0.78992209326E+01 -0.30721023195E+02  0.32467244996E+01  0.59301950111E+02  0.50000011095E+02 0.  0.
        -12    1    1    2    0    0  0.78992209326E+01  0.30721023195E+02 -0.32467244996E+01  0.31886049889E+02  0.00000000000E+00 0.  1.
         11    1    3    3    0    0 -0.11314432083E+02 -0.21965908457E+02  0.11434216115E+02  0.27226068503E+02  0.51100000000E-03 0. -1.
        -11    1    3    3    0    0 -0.25394710994E+01 -0.13832704163E+02 -0.15804044061E+02  0.21155624001E+02  0.51100000000E-03 0.  1.
         12    1    3    3    0    0  0.59546822493E+01  0.50775894249E+01  0.76165524458E+01  0.10920257608E+02  0.00000000000E+00 0. -1.
</event>
<event>
 7    1  0.6953847E-012  0.5930184E+02  0.7816164E-02  0.1266605E+00
        -11   -1    0    0    0    0  0.00000000000E+00  0.00000000000E+00  0.45593999997E+02  0.45594000000E+02  0.51100000000E-03 0. -1.
         11   -1    0    0    0    0 -0.00000000000E+00 -0.00000000000E+00 -0.45593999997E+02  0.45594000000E+02  0.51100000000E-03 0.  1.
    9900012    2    1    2    0    0 -0.81278368392E+01 -0.12512759443E+02  0.28179718109E+02  0.59301836962E+02  0.49999804737E+02 0.  0.
        -12    1    1    2    0    0  0.81278368392E+01  0.12512759443E+02 -0.28179718109E+02  0.31886163038E+02  0.00000000000E+00 0.  1.
         11    1    3    3    0    0 -0.74762936326E+01 -0.35345634147E+01  0.83131358062E+01  0.11725883003E+02  0.51100000000E-03 0. -1.
        -11    1    3    3    0    0  0.84612817220E+01  0.14787367289E+02  0.37347321388E+01  0.17441552228E+02  0.51100000000E-03 0.  1.
         12    1    3    3    0    0 -0.91128249286E+01 -0.23765563317E+02  0.16131850164E+02  0.30134401731E+02  0.00000000000E+00 0. -1.
</event>
<event>
 7    1  0.6953847E-012  0.5930195E+02  0.7816164E-02  0.1266605E+00
        -11   -1    0    0    0    0  0.00000000000E+00  0.00000000000E+00  0.45593999997E+02  0.45594000000E+02  0.51100000000E-03 0. -1.
         11   -1    0    0    0    0 -0.00000000000E+00 -0.00000000000E+00 -0.45593999997E+02  0.45594000000E+02  0.51100000000E-03 0.  1.
    9900012    2    1    2    0    0  0.82174810364E+01  0.22823803920E+02  0.20694611419E+02  0.59301953495E+02  0.50000017266E+02 0.  0.
        -12    1    1    2    0    0 -0.82174810364E+01 -0.22823803920E+02 -0.20694611419E+02  0.31886046505E+02  0.00000000000E+00 0.  1.
         11    1    3    3    0    0 -0.62532796765E+01  0.18449477142E+02  0.13657031922E+01  0.19528232357E+02  0.51100000000E-03 0.  1.
        -11    1    3    3    0    0 -0.84048212384E+01 -0.19162024704E+01 -0.80393907837E+00  0.86578964107E+01  0.51100000000E-03 0. -1.
         12    1    3    3    0    0  0.22875581951E+02  0.62905292484E+01  0.20132847305E+02  0.31115824727E+02  0.00000000000E+00 0. -1.
</event>
<event>
 7    1  0.6953847E-012  0.5930194E+02  0.7816164E-02  0.1266605E+00
        -11   -1    0    0    0    0  0.00000000000E+00  0.00000000000E+00  0.45593999997E+02  0.45594000000E+02  0.51100000000E-03 0.  1.
         11   -1    0    0    0    0 -0.00000000000E+00 -0.00000000000E+00 -0.45593999997E+02  0.45594000000E+02  0.51100000000E-03 0. -1.
    9900012    2    1    2    0    0 -0.29406435356E+02 -0.24095784215E+01 -0.12090339486E+02  0.59301940077E+02  0.49999992795E+02 0.  0.
        -12    1    1    2    0    0  0.29406435356E+02  0.24095784215E+01  0.12090339486E+02  0.31886059923E+02  0.00000000000E+00 0.  1.
         11    1    3    3    0    0 -0.20423905808E+02  0.14064304440E+02  0.15813709298E+01  0.24848366588E+02  0.51100000000E-03 0. -1.
        -11    1    3    3    0    0 -0.17407356542E+01  0.50070809238E+01  0.32029512061E+01  0.61935383009E+01  0.51100000000E-03 0.  1.
        -12    1    3    3    0    0 -0.72417938941E+01 -0.21480963786E+02 -0.16874661622E+02  0.28260035188E+02  0.00000000000E+00 0.  1.
</event>
<event>
 7    1  0.6953847E-012  0.5930197E+02  0.7816164E-02  0.1266605E+00
        -11   -1    0    0    0    0  0.00000000000E+00  0.00000000000E+00  0.45593999997E+02  0.45594000000E+02  0.51100000000E-03 0.  1.
         11   -1    0    0    0    0 -0.00000000000E+00 -0.00000000000E+00 -0.45593999997E+02  0.45594000000E+02  0.51100000000E-03 0. -1.
    9900012    2    1    2    0    0 -0.11002959823E+02 -0.25386954093E+02 -0.15847903662E+02  0.59301974637E+02  0.50000055824E+02 0.  0.
        -12    1    1    2    0    0  0.11002959823E+02  0.25386954093E+02  0.15847903662E+02  0.31886025363E+02  0.00000000000E+00 0.  1.
         11    1    3    3    0    0 -0.17644259265E+01 -0.21299299631E+02 -0.14253445160E+01  0.21419733211E+02  0.51100000000E-03 0. -1.
        -11    1    3    3    0    0 -0.93580754822E+01 -0.14618460291E+02  0.29114834404E+01  0.17599707216E+02  0.51100000000E-03 0.  1.
        -12    1    3    3    0    0  0.11954158578E+00  0.10530805828E+02 -0.17334042586E+02  0.20282534209E+02  0.00000000000E+00 0.  1.
</event>
<event>
 7    1  0.6953847E-012  0.5930195E+02  0.7816164E-02  0.1266605E+00
        -11   -1    0    0    0    0  0.00000000000E+00  0.00000000000E+00  0.45593999997E+02  0.45594000000E+02  0.51100000000E-03 0.  1.
         11   -1    0    0    0    0 -0.00000000000E+00 -0.00000000000E+00 -0.45593999997E+02  0.45594000000E+02  0.51100000000E-03 0. -1.
    9900012    2    1    2    0    0  0.15680923055E+02  0.15180135520E+02 -0.23246333334E+02  0.59301954843E+02  0.50000019725E+02 0.  0.
        -12    1    1    2    0    0 -0.15680923055E+02 -0.15180135520E+02  0.23246333334E+02  0.31886045157E+02  0.00000000000E+00 0.  1.
         11    1    3    3    0    0  0.12309355246E+02 -0.26550751169E+01 -0.28269317146E+02  0.30947115255E+02  0.51100000000E-03 0.  1.
        -11    1    3    3    0    0  0.59315784554E+01  0.15429300035E+02 -0.53728531907E+01  0.17381440511E+02  0.51100000000E-03 0. -1.
        -12    1    3    3    0    0 -0.25600106467E+01  0.24059106019E+01  0.10395837003E+02  0.10973399078E+02  0.00000000000E+00 0.  1.
</event>
<event>
 7    1  0.6953847E-012  0.5930187E+02  0.7816164E-02  0.1266605E+00
        -11   -1    0    0    0    0  0.00000000000E+00  0.00000000000E+00  0.45593999997E+02  0.45594000000E+02  0.51100000000E-03 0. -1.
         11   -1    0    0    0    0 -0.00000000000E+00 -0.00000000000E+00 -0.45593999997E+02  0.45594000000E+02  0.51100000000E-03 0.  1.
    9900012    2    1    2    0    0  0.17350808638E+02  0.15539982676E+02  0.21775753192E+02  0.59301873721E+02  0.49999871778E+02 0.  0.
        -12    1    1    2    0    0 -0.17350808638E+02 -0.15539982676E+02 -0.21775753192E+02  0.31886126279E+02  0.00000000000E+00 0.  1.
         11    1    3    3    0    0  0.49198686144E+01  0.23485282488E+00  0.74380638075E+01  0.89210457066E+01  0.51100000000E-03 0. -1.
        -11    1    3    3    0    0  0.14088306069E+02 -0.13291629165E+02  0.31225257738E+01  0.19618815999E+02  0.51100000000E-03 0.  1.
        -12    1    3    3    0    0 -0.16573660447E+01  0.28596759016E+02  0.11215163610E+02  0.30762012016E+02  0.00000000000E+00 0.  1.
</event>
<event>
 7    1  0.6953847E-012  0.5930195E+02  0.7816164E-02  0.1266605E+00
        -11   -1    0    0    0    0  0.00000000000E+00  0.00000000000E+00  0.45593999997E+02  0.45594000000E+02  0.51100000000E-03 0. -1.
         11   -1    0    0    0    0 -0.00000000000E+00 -0.00000000000E+00 -0.45593999997E+02  0.45594000000E+02  0.51100000000E-03 0.  1.
    9900012    2    1    2    0    0 -0.23855702190E+02  0.17560552917E+02 -0.11800543483E+02  0.59301947058E+02  0.50000005527E+02 0.  0.
        -12    1    1    2    0    0  0.23855702190E+02 -0.17560552917E+02  0.11800543483E+02  0.31886052942E+02  0.00000000000E+00 0.  1.
         11    1    3    3    0    0  0.19437959035E+01 -0.48801959734E+01  0.53385224897E+01  0.74896246827E+01  0.51100000000E-03 0. -1.
        -11    1    3    3    0    0  0.34160426562E+01  0.29811583494E+01  0.76125287598E+01  0.88604315309E+01  0.51100000000E-03 0.  1.
         12    1    3    3    0    0 -0.29215540749E+02  0.19459590541E+02 -0.24751594733E+02  0.42951890845E+02  0.00000000000E+00 0. -1.
</event>
<event>
 7    1  0.6953847E-012  0.5930217E+02  0.7816164E-02  0.1266604E+00
        -11   -1    0    0    0    0  0.00000000000E+00  0.00000000000E+00  0.45593999997E+02  0.45594000000E+02  0.51100000000E-03 0.  1.
         11   -1    0    0    0    0 -0.00000000000E+00 -0.00000000000E+00 -0.45593999997E+02  0.45594000000E+02  0.51100000000E-03 0. -1.
    9900012    2    1    2    0    0 -0.20132647576E+02 -0.18305165550E+02  0.16622372885E+02  0.59302174551E+02  0.50000420418E+02 0.  0.
        -12    1    1    2    0    0  0.20132647576E+02  0.18305165550E+02 -0.16622372885E+02  0.31885825449E+02  0.00000000000E+00 0.  1.
         11    1    3    3    0    0 -0.84889961767E+01 -0.18731625799E+01 -0.42895049757E+01  0.96938974276E+01  0.51100000000E-03 0. -1.
        -11    1    3    3    0    0 -0.17973521819E+02  0.55767341172E+01  0.33629102790E+00  0.18821810272E+02  0.51100000000E-03 0.  1.
        -12    1    3    3    0    0  0.63298704203E+01 -0.22008737087E+02  0.20575586833E+02  0.30786466852E+02  0.00000000000E+00 0.  1.
</event>
<event>
 7    1  0.6953847E-012  0.5930196E+02  0.7816164E-02  0.1266605E+00
        -11   -1    0    0    0    0  0.00000000000E+00  0.00000000000E+00  0.45593999997E+02  0.45594000000E+02  0.51100000000E-03 0.  1.
         11   -1    0    0    0    0 -0.00000000000E+00 -0.00000000000E+00 -0.45593999997E+02  0.45594000000E+02  0.51100000000E-03 0. -1.
    9900012    2    1    2    0    0 -0.12815633604E+02  0.25839119499E+02 -0.13594819512E+02  0.59301957933E+02  0.50000025359E+02 0.  0.
        -12    1    1    2    0    0  0.12815633604E+02 -0.25839119499E+02  0.13594819512E+02  0.31886042067E+02  0.00000000000E+00 0.  1.
         11    1    3    3    0    0 -0.16702096111E+02  0.90498678853E+01 -0.13214783742E+02  0.23140670535E+02  0.51100000000E-03 0. -1.
        -11    1    3    3    0    0  0.79501379448E+01 -0.37795877061E+01 -0.98024779783E+01  0.13174921303E+02  0.51100000000E-03 0.  1.
        -12    1    3    3    0    0 -0.40636754384E+01  0.20568839320E+02  0.94224422083E+01  0.22986366094E+02  0.00000000000E+00 0.  1.
</event>
<event>
 7    1  0.6953847E-012  0.5930194E+02  0.7816164E-02  0.1266605E+00
        -11   -1    0    0    0    0  0.00000000000E+00  0.00000000000E+00  0.45593999997E+02  0.45594000000E+02  0.51100000000E-03 0. -1.
         11   -1    0    0    0    0 -0.00000000000E+00 -0.00000000000E+00 -0.45593999997E+02  0.45594000000E+02  0.51100000000E-03 0.  1.
    9900012    2    1    2    0    0 -0.60561019014E+01  0.30731473943E+02  0.59683449860E+01  0.59301937170E+02  0.49999987492E+02 0.  0.
        -12    1    1    2    0    0  0.60561019014E+01 -0.30731473943E+02 -0.59683449860E+01  0.31886062830E+02  0.00000000000E+00 0.  1.
         11    1    3    3    0    0 -0.58699291501E+01  0.85050393540E+01 -0.37839451778E+01  0.11004999046E+02  0.51100000000E-03 0. -1.
        -11    1    3    3    0    0 -0.18846283397E+02  0.13061710337E+02 -0.41295236112E+01  0.23299005136E+02  0.51100000000E-03 0.  1.
         12    1    3    3    0    0  0.18660110646E+02  0.91647242518E+01  0.13881813775E+02  0.24997932987E+02  0.00000000000E+00 0. -1.
</event>
<event>
 7    1  0.6953847E-012  0.5930196E+02  0.7816164E-02  0.1266605E+00
        -11   -1    0    0    0    0  0.00000000000E+00  0.00000000000E+00  0.45593999997E+02  0.45594000000E+02  0.51100000000E-03 0. -1.
         11   -1    0    0    0    0 -0.00000000000E+00 -0.00000000000E+00 -0.45593999997E+02  0.45594000000E+02  0.51100000000E-03 0.  1.
    9900012    2    1    2    0    0  0.11219908298E+02  0.41169443955E+01  0.29561524635E+02  0.59301963682E+02  0.50000035844E+02 0.  0.
        -12    1    1    2    0    0 -0.11219908298E+02 -0.41169443955E+01 -0.29561524635E+02  0.31886036318E+02  0.00000000000E+00 0.  1.
         11    1    3    3    0    0  0.29770875518E+01  0.10873885052E+02  0.21732513076E+01  0.11481613472E+02  0.51100000000E-03 0. -1.
        -11    1    3    3    0    0  0.15761661493E+02 -0.18964329016E+02  0.19631642780E+02  0.31519472498E+02  0.51100000000E-03 0.  1.
         12    1    3    3    0    0 -0.75188407465E+01  0.12207388359E+02  0.77566305464E+01  0.16300877711E+02  0.00000000000E+00 0. -1.
</event>
<event>
 7    1  0.6953847E-012  0.5930183E+02  0.7816164E-02  0.1266605E+00
        -11   -1    0    0    0    0  0.00000000000E+00  0.00000000000E+00  0.45593999997E+02  0.45594000000E+02  0.51100000000E-03 0.  1.
         11   -1    0    0    0    0 -0.00000000000E+00 -0.00000000000E+00 -0.45593999997E+02  0.45594000000E+02  0.51100000000E-03 0. -1.
    9900012    2    1    2    0    0 -0.26662882487E+02 -0.17146267962E+02 -0.34386103820E+01  0.59301829818E+02  0.49999791709E+02 0.  0.
        -12    1    1    2    0    0  0.26662882487E+02  0.17146267962E+02  0.34386103820E+01  0.31886170182E+02  0.00000000000E+00 0.  1.
         11    1    3    3    0    0 -0.98306754755E+01 -0.20722859626E+02  0.31609928768E+01  0.23153206421E+02  0.51100000000E-03 0. -1.
        -11    1    3    3    0    0 -0.37471611727E+01 -0.13509251867E+02 -0.24725301787E+01  0.14235677315E+02  0.51100000000E-03 0.  1.
        -12    1    3    3    0    0 -0.13085045838E+02  0.17085843531E+02 -0.41270730801E+01  0.21912946082E+02  0.00000000000E+00 0.  1.
</event>
<event>
 7    1  0.6953847E-012  0.5930196E+02  0.7816164E-02  0.1266605E+00
        -11   -1    0    0    0    0  0.00000000000E+00  0.00000000000E+00  0.45593999997E+02  0.45594000000E+02  0.51100000000E-03 0.  1.
         11   -1    0    0    0    0 -0.00000000000E+00 -0.00000000000E+00 -0.45593999997E+02  0.45594000000E+02  0.51100000000E-03 0. -1.
    9900012    2    1    2    0    0  0.19914534218E+02 -0.24464153914E+02 -0.46514902636E+01  0.59301955066E+02  0.50000020132E+02 0.  0.
        -12    1    1    2    0    0 -0.19914534218E+02  0.24464153914E+02  0.46514902636E+01  0.31886044934E+02  0.00000000000E+00 0.  1.
         11    1    3    3    0    0  0.85279324174E+01 -0.50474394728E+01 -0.96958478422E+01  0.13864044943E+02  0.51100000000E-03 0. -1.
        -11    1    3    3    0    0 -0.13017457500E+02 -0.41682950126E+01 -0.55791226583E+01  0.14763315785E+02  0.51100000000E-03 0.  1.
         12    1    3    3    0    0  0.24404059301E+02 -0.15248419428E+02  0.10623480237E+02  0.30674594338E+02  0.00000000000E+00 0. -1.
</event>
<event>
 7    1  0.6953847E-012  0.5930191E+02  0.7816164E-02  0.1266605E+00
        -11   -1    0    0    0    0  0.00000000000E+00  0.00000000000E+00  0.45593999997E+02  0.45594000000E+02  0.51100000000E-03 0.  1.
         11   -1    0    0    0    0 -0.00000000000E+00 -0.00000000000E+00 -0.45593999997E+02  0.45594000000E+02  0.51100000000E-03 0. -1.
    9900012    2    1    2    0    0 -0.10449924170E+02 -0.26254959237E+02 -0.14771549279E+02  0.59301914198E+02  0.49999945597E+02 0.  0.
        -12    1    1    2    0    0  0.10449924170E+02  0.26254959237E+02  0.14771549279E+02  0.31886085802E+02  0.00000000000E+00 0.  1.
         11    1    3    3    0    0 -0.63434778276E+01 -0.12758618475E+02  0.94116098189E+01  0.17076312716E+02  0.51100000000E-03 0. -1.
        -11    1    3    3    0    0 -0.71330030502E+01 -0.62900714470E+01  0.58678294475E+01  0.11174799954E+02  0.51100000000E-03 0.  1.
        -12    1    3    3    0    0  0.30265567082E+01 -0.72062693150E+01 -0.30050988545E+02  0.31050801527E+02  0.00000000000E+00 0.  1.
</event>
<event>
 7    1  0.6953847E-012  0.5930194E+02  0.7816164E-02  0.1266605E+00
        -11   -1    0    0    0    0  0.00000000000E+00  0.00000000000E+00  0.45593999997E+02  0.45594000000E+02  0.51100000000E-03 0.  1.
         11   -1    0    0    0    0 -0.00000000000E+00 -0.00000000000E+00 -0.45593999997E+02  0.45594000000E+02  0.51100000000E-03 0. -1.
    9900012    2    1    2    0    0  0.12072542383E+02 -0.57503759169E+01 -0.28946634878E+02  0.59301940765E+02  0.49999994049E+02 0.  0.
        -12    1    1    2    0    0 -0.12072542383E+02  0.57503759169E+01  0.28946634878E+02  0.31886059235E+02  0.00000000000E+00 0.  1.
         11    1    3    3    0    0  0.44536590184E+01  0.22171850258E+01  0.87479421805E+01  0.10063671335E+02  0.51100000000E-03 0.  1.
        -11    1    3    3    0    0  0.15267739106E+01  0.47040907028E+01 -0.34457229896E+02  0.34810346167E+02  0.51100000000E-03 0. -1.
         12    1    3    3    0    0  0.60921094535E+01 -0.12671651645E+02 -0.32373471630E+01  0.14427923263E+02  0.00000000000E+00 0. -1.
</event>
<event>
 7    1  0.6953847E-012  0.5930196E+02  0.7816164E-02  0.1266605E+00
        -11   -1    0    0    0    0  0.00000000000E+00  0.00000000000E+00  0.45593999997E+02  0.45594000000E+02  0.51100000000E-03 0. -1.
         11   -1    0    0    0    0 -0.00000000000E+00 -0.00000000000E+00 -0.45593999997E+02  0.45594000000E+02  0.51100000000E-03 0.  1.
    9900012    2    1    2    0    0 -0.44036247209E+00  0.19816994282E+02  0.24976239326E+02  0.59301957405E+02  0.50000024398E+02 0.  0.
        -12    1    1    2    0    0  0.44036247209E+00 -0.19816994282E+02 -0.24976239326E+02  0.31886042595E+02  0.00000000000E+00 0.  1.
         11    1    3    3    0    0 -0.11597681353E+02 -0.54325651890E+01  0.24140022546E+02  0.27326903705E+02  0.51100000000E-03 0. -1.
        -11    1    3    3    0    0 -0.40361716628E+01  0.30665589165E+01 -0.12584975083E+00  0.50705328814E+01  0.51100000000E-03 0.  1.
        -12    1    3    3    0    0  0.15193490543E+02  0.22183000555E+02  0.96206653041E+00  0.26904520819E+02  0.00000000000E+00 0.  1.
</event>
<event>
 7    1  0.6953847E-012  0.5930210E+02  0.7816164E-02  0.1266604E+00
        -11   -1    0    0    0    0  0.00000000000E+00  0.00000000000E+00  0.45593999997E+02  0.45594000000E+02  0.51100000000E-03 0.  1.
         11   -1    0    0    0    0 -0.00000000000E+00 -0.00000000000E+00 -0.45593999997E+02  0.45594000000E+02  0.51100000000E-03 0. -1.
    9900012    2    1    2    0    0  0.79656239179E+00 -0.31869303520E+02 -0.65082383388E+00  0.59302100449E+02  0.50000285275E+02 0.  0.
        -12    1    1    2    0    0 -0.79656239179E+00  0.31869303520E+02  0.65082383388E+00  0.31885899551E+02  0.00000000000E+00 0.  1.
         11    1    3    3    0    0  0.55484094802E+01 -0.18963782186E+02  0.12759546846E+02  0.23520542480E+02  0.51100000000E-03 0. -1.
        -11    1    3    3    0    0 -0.14419594003E+02  0.26899114577E+01 -0.42410863141E+01  0.15269156107E+02  0.51100000000E-03 0.  1.
         12    1    3    3    0    0  0.96677469141E+01 -0.15595432791E+02 -0.91692843662E+01  0.20512401862E+02  0.00000000000E+00 0. -1.
</event>
<event>
 7    1  0.6953847E-012  0.5930202E+02  0.7816164E-02  0.1266604E+00
        -11   -1    0    0    0    0  0.00000000000E+00  0.00000000000E+00  0.45593999997E+02  0.45594000000E+02  0.51100000000E-03 0.  1.
         11   -1    0    0    0    0 -0.00000000000E+00 -0.00000000000E+00 -0.45593999997E+02  0.45594000000E+02  0.51100000000E-03 0. -1.
    9900012    2    1    2    0    0  0.13223397422E+02  0.22968132764E+01 -0.28923730066E+02  0.59302019515E+02  0.50000137670E+02 0.  0.
        -12    1    1    2    0    0 -0.13223397422E+02 -0.22968132764E+01  0.28923730066E+02  0.31885980485E+02  0.00000000000E+00 0.  1.
         11    1    3    3    0    0 -0.18323331652E-01  0.13155309684E+02 -0.36991309178E+01  0.13665506886E+02  0.51100000000E-03 0. -1.
        -11    1    3    3    0    0  0.14176416568E+02  0.29413471558E+01  0.24630075620E+01  0.14686344552E+02  0.51100000000E-03 0.  1.
         12    1    3    3    0    0 -0.93469581455E+00 -0.13799843564E+02 -0.27687606710E+02  0.30950168077E+02  0.00000000000E+00 0. -1.
</event>
<event>
 7    1  0.6953847E-012  0.5930193E+02  0.7816164E-02  0.1266605E+00
        -11   -1    0    0    0    0  0.00000000000E+00  0.00000000000E+00  0.45593999997E+02  0.45594000000E+02  0.51100000000E-03 0.  1.
         11   -1    0    0    0    0 -0.00000000000E+00 -0.00000000000E+00 -0.45593999997E+02  0.45594000000E+02  0.51100000000E-03 0. -1.
    9900012    2    1    2    0    0 -0.46098251447E+01 -0.18007789997E+02 -0.25907343802E+02  0.59301930137E+02  0.49999974666E+02 0.  0.
        -12    1    1    2    0    0  0.46098251447E+01  0.18007789997E+02  0.25907343802E+02  0.31886069863E+02  0.00000000000E+00 0.  1.
         11    1    3    3    0    0  0.29255184453E+01  0.14661023905E+02 -0.19873865439E+02  0.24869153743E+02  0.51100000000E-03 0.  1.
        -11    1    3    3    0    0 -0.14629426688E+01 -0.16110496538E+02 -0.41158314365E+01  0.16692164887E+02  0.51100000000E-03 0. -1.
        -12    1    3    3    0    0 -0.60724009211E+01 -0.16558317365E+02 -0.19176469261E+01  0.17740611507E+02  0.00000000000E+00 0.  1.
</event>
<event>
 7    1  0.6953847E-012  0.5930189E+02  0.7816164E-02  0.1266605E+00
        -11   -1    0    0    0    0  0.00000000000E+00  0.00000000000E+00  0.45593999997E+02  0.45594000000E+02  0.51100000000E-03 0. -1.
         11   -1    0    0    0    0 -0.00000000000E+00 -0.00000000000E+00 -0.45593999997E+02  0.45594000000E+02  0.51100000000E-03 0.  1.
    9900012    2    1    2    0    0 -0.44706300273E+01  0.27053070558E+02 -0.16274788739E+02  0.59301891615E+02  0.49999904412E+02 0.  0.
        -12    1    1    2    0    0  0.44706300273E+01 -0.27053070558E+02  0.16274788739E+02  0.31886108385E+02  0.00000000000E+00 0.  1.
         11    1    3    3    0    0 -0.36403178986E+01  0.27509474920E+02 -0.44078470080E+00  0.27752791143E+02  0.51100000000E-03 0. -1.
        -11    1    3    3    0    0  0.72005820997E+01  0.10760891589E+02 -0.45422777779E+01  0.13721423324E+02  0.51100000000E-03 0.  1.
        -12    1    3    3    0    0 -0.80308942283E+01 -0.11217295952E+02 -0.11291726260E+02  0.17827677148E+02  0.00000000000E+00 0.  1.
</event>
<event>
 7    1  0.6953847E-012  0.5930193E+02  0.7816164E-02  0.1266605E+00
        -11   -1    0    0    0    0  0.00000000000E+00  0.00000000000E+00  0.45593999997E+02  0.45594000000E+02  0.51100000000E-03 0.  1.
         11   -1    0    0    0    0 -0.00000000000E+00 -0.00000000000E+00 -0.45593999997E+02  0.45594000000E+02  0.51100000000E-03 0. -1.
    9900012    2    1    2    0    0 -0.18859238037E+02 -0.18757044556E+02 -0.17584758968E+02  0.59301932074E+02  0.49999978199E+02 0.  0.
        -12    1    1    2    0    0  0.18859238037E+02  0.18757044556E+02  0.17584758968E+02  0.31886067926E+02  0.00000000000E+00 0.  1.
         11    1    3    3    0    0 -0.19789403927E+02  0.45142787527E+01 -0.11552918454E+02  0.23355280892E+02  0.51100000000E-03 0.  1.
        -11    1    3    3    0    0  0.56487608928E+01 -0.14978924833E+02 -0.15658197959E+02  0.22393209961E+02  0.51100000000E-03 0. -1.
        -12    1    3    3    0    0 -0.47185950025E+01 -0.82923984758E+01  0.96263574448E+01  0.13553441221E+02  0.00000000000E+00 0.  1.
</event>
<event>
 7    1  0.6953847E-012  0.5930181E+02  0.7816164E-02  0.1266605E+00
        -11   -1    0    0    0    0  0.00000000000E+00  0.00000000000E+00  0.45593999997E+02  0.45594000000E+02  0.51100000000E-03 0.  1.
         11   -1    0    0    0    0 -0.00000000000E+00 -0.00000000000E+00 -0.45593999997E+02  0.45594000000E+02  0.51100000000E-03 0. -1.
    9900012    2    1    2    0    0  0.80516587779E+00  0.98834451962E+01 -0.30305084599E+02  0.59301812809E+02  0.49999760688E+02 0.  0.
        -12    1    1    2    0    0 -0.80516587779E+00 -0.98834451962E+01  0.30305084599E+02  0.31886187191E+02  0.00000000000E+00 0.  1.
         11    1    3    3    0    0  0.58899087485E+01  0.17797450536E+02 -0.18574533136E+02  0.26390406441E+02  0.51100000000E-03 0. -1.
        -11    1    3    3    0    0 -0.41507807856E+01 -0.35409436819E+01 -0.21492404945E+02  0.22174100520E+02  0.51100000000E-03 0.  1.
        -12    1    3    3    0    0 -0.93396208511E+00 -0.43730616583E+01  0.97618534827E+01  0.10737305847E+02  0.00000000000E+00 0.  1.
</event>
<event>
 7    1  0.6953847E-012  0.5930194E+02  0.7816164E-02  0.1266605E+00
        -11   -1    0    0    0    0  0.00000000000E+00  0.00000000000E+00  0.45593999997E+02  0.45594000000E+02  0.51100000000E-03 0.  1.
         11   -1    0    0    0    0 -0.00000000000E+00 -0.00000000000E+00 -0.45593999997E+02  0.45594000000E+02  0.51100000000E-03 0. -1.
    9900012    2    1    2    0    0  0.24863525883E+02  0.86005976957E+01  0.18015422983E+02  0.59301942462E+02  0.49999997144E+02 0.  0.
        -12    1    1    2    0    0 -0.24863525883E+02 -0.86005976957E+01 -0.18015422983E+02  0.31886057538E+02  0.00000000000E+00 0.  1.
         11    1    3    3    0    0 -0.51641522168E+01  0.11511121542E+02  0.13246208334E+02  0.18293070348E+02  0.51100000000E-03 0. -1.
        -11    1    3    3    0    0 -0.30034018908E+01 -0.67556187001E+01 -0.13906534125E+00  0.73944672809E+01  0.51100000000E-03 0.  1.
         12    1    3    3    0    0  0.33031079991E+02  0.38450948540E+01  0.49082799897E+01  0.33614404833E+02  0.00000000000E+00 0. -1.
</event>
<event>
 7    1  0.6953847E-012  0.5930195E+02  0.7816164E-02  0.1266605E+00
        -11   -1    0    0    0    0  0.00000000000E+00  0.00000000000E+00  0.45593999997E+02  0.45594000000E+02  0.51100000000E-03 0. -1.
         11   -1    0    0    0    0 -0.00000000000E+00 -0.00000000000E+00 -0.45593999997E+02  0.45594000000E+02  0.51100000000E-03 0.  1.
    9900012    2    1    2    0    0  0.25921164441E+02 -0.39300793385E+01  0.18148488311E+02  0.59301954188E+02  0.50000018529E+02 0.  0.
        -12    1    1    2    0    0 -0.25921164441E+02  0.39300793385E+01 -0.18148488311E+02  0.31886045812E+02  0.00000000000E+00 0.  1.
         11    1    3    3    0    0  0.92122664513E+01 -0.13443860040E+01  0.24058353015E+02  0.25796852075E+02  0.51100000000E-03 0. -1.
        -11    1    3    3    0    0  0.26217637709E+00 -0.12426412626E+02  0.23252585741E+01  0.12644812964E+02  0.51100000000E-03 0.  1.
         12    1    3    3    0    0  0.16446721612E+02  0.98407192911E+01 -0.82351232783E+01  0.20860289149E+02  0.00000000000E+00 0. -1.
</event>
<event>
 7    1  0.6953847E-012  0.5930188E+02  0.7816164E-02  0.1266605E+00
        -11   -1    0    0    0    0  0.00000000000E+00  0.00000000000E+00  0.45593999997E+02  0.45594000000E+02  0.51100000000E-03 0. -1.
         11   -1    0    0    0    0 -0.00000000000E+00 -0.00000000000E+00 -0.45593999997E+02  0.45594000000E+02  0.51100000000E-03 0.  1.
    9900012    2    1    2    0    0  0.15514457051E+02 -0.14354526888E+02  0.23874127211E+02  0.59301878099E+02  0.49999879762E+02 0.  0.
        -12    1    1    2    0    0 -0.15514457051E+02  0.14354526888E+02 -0.23874127211E+02  0.31886121901E+02  0.00000000000E+00 0.  1.
         11    1    3    3    0    0  0.66223546378E+00 -0.18767738831E+02 -0.18512305412E+01  0.18870443329E+02  0.51100000000E-03 0.  1.
        -11    1    3    3    0    0 -0.14491929142E+01  0.12304019250E+01  0.23611873997E+02  0.23688280708E+02  0.51100000000E-03 0. -1.
        -12    1    3    3    0    0  0.16301414502E+02  0.31828100182E+01  0.21134837557E+01  0.16743154062E+02  0.00000000000E+00 0.  1.
</event>
<event>
 7    1  0.6953847E-012  0.5930193E+02  0.7816164E-02  0.1266605E+00
        -11   -1    0    0    0    0  0.00000000000E+00  0.00000000000E+00  0.45593999997E+02  0.45594000000E+02  0.51100000000E-03 0. -1.
         11   -1    0    0    0    0 -0.00000000000E+00 -0.00000000000E+00 -0.45593999997E+02  0.45594000000E+02  0.51100000000E-03 0.  1.
    9900012    2    1    2    0    0 -0.23339058394E+02  0.21400876234E+02 -0.37433257359E+01  0.59301927212E+02  0.49999969331E+02 0.  0.
        -12    1    1    2    0    0  0.23339058394E+02 -0.21400876234E+02  0.37433257359E+01  0.31886072788E+02  0.00000000000E+00 0.  1.
         11    1    3    3    0    0  0.13224875315E+02  0.51774468637E+01 -0.14224959195E+01  0.14273288970E+02  0.51100000000E-03 0. -1.
        -11    1    3    3    0    0 -0.54168619369E+01 -0.27700949136E+00  0.67239538011E+01  0.86389051669E+01  0.51100000000E-03 0.  1.
        -12    1    3    3    0    0 -0.31147071772E+02  0.16500438861E+02 -0.90447836176E+01  0.36389733075E+02  0.00000000000E+00 0.  1.
</event>
<event>
 7    1  0.6953847E-012  0.5930192E+02  0.7816164E-02  0.1266605E+00
        -11   -1    0    0    0    0  0.00000000000E+00  0.00000000000E+00  0.45593999997E+02  0.45594000000E+02  0.51100000000E-03 0.  1.
         11   -1    0    0    0    0 -0.00000000000E+00 -0.00000000000E+00 -0.45593999997E+02  0.45594000000E+02  0.51100000000E-03 0. -1.
    9900012    2    1    2    0    0  0.29111285740E+02 -0.61444778038E+01  0.11467380856E+02  0.59301915439E+02  0.49999947862E+02 0.  0.
        -12    1    1    2    0    0 -0.29111285740E+02  0.61444778038E+01 -0.11467380856E+02  0.31886084561E+02  0.00000000000E+00 0.  1.
         11    1    3    3    0    0  0.26981586841E+01  0.39018576622E+01 -0.28920886858E+01  0.55559635283E+01  0.51100000000E-03 0. -1.
        -11    1    3    3    0    0  0.34463408868E+02  0.40443072999E+01  0.14264669279E+02  0.37517512741E+02  0.51100000000E-03 0.  1.
        -12    1    3    3    0    0 -0.80502818122E+01 -0.14090642766E+02  0.94800262366E-01  0.16228439170E+02  0.00000000000E+00 0.  1.
</event>
<event>
 7    1  0.6953847E-012  0.5930196E+02  0.7816164E-02  0.1266605E+00
        -11   -1    0    0    0    0  0.00000000000E+00  0.00000000000E+00  0.45593999997E+02  0.45594000000E+02  0.51100000000E-03 0. -1.
         11   -1    0    0    0    0 -0.00000000000E+00 -0.00000000000E+00 -0.45593999997E+02  0.45594000000E+02  0.51100000000E-03 0.  1.
    9900012    2    1    2    0    0  0.40692229586E+01  0.20973296154E+02  0.23670277772E+02  0.59301956394E+02  0.50000022553E+02 0.  0.
        -12    1    1    2    0    0 -0.40692229586E+01 -0.20973296154E+02 -0.23670277772E+02  0.31886043606E+02  0.00000000000E+00 0.  1.
         11    1    3    3    0    0  0.93605059595E+01  0.17789699333E+01 -0.66191999966E+00  0.95510179661E+01  0.51100000000E-03 0. -1.
        -11    1    3    3    0    0  0.12267396205E+02  0.28045396566E+01 -0.34273563338E+01  0.13042285998E+02  0.51100000000E-03 0.  1.
         12    1    3    3    0    0 -0.17558679206E+02  0.16389786564E+02  0.27759554106E+02  0.36708652430E+02  0.00000000000E+00 0. -1.
</event>
<event>
 7    1  0.6953847E-012  0.5930196E+02  0.7816164E-02  0.1266605E+00
        -11   -1    0    0    0    0  0.00000000000E+00  0.00000000000E+00  0.45593999997E+02  0.45594000000E+02  0.51100000000E-03 0. -1.
         11   -1    0    0    0    0 -0.00000000000E+00 -0.00000000000E+00 -0.45593999997E+02  0.45594000000E+02  0.51100000000E-03 0.  1.
    9900012    2    1    2    0    0  0.28507182095E+02  0.10254447501E+01  0.14248097241E+02  0.59301964766E+02  0.50000037822E+02 0.  0.
        -12    1    1    2    0    0 -0.28507182095E+02 -0.10254447501E+01 -0.14248097241E+02  0.31886035234E+02  0.00000000000E+00 0.  1.
         11    1    3    3    0    0 -0.44027920393E+01 -0.14878677245E+02 -0.16542609747E+01  0.15604364580E+02  0.51100000000E-03 0. -1.
        -11    1    3    3    0    0  0.16193754034E+01 -0.35094237733E+01  0.11964153398E+01  0.40459661200E+01  0.51100000000E-03 0.  1.
        -12    1    3    3    0    0  0.31290598731E+02  0.19413545769E+02  0.14705942876E+02  0.39651634066E+02  0.00000000000E+00 0.  1.
</event>
<event>
 7    1  0.6953847E-012  0.5930184E+02  0.7816164E-02  0.1266605E+00
        -11   -1    0    0    0    0  0.00000000000E+00  0.00000000000E+00  0.45593999997E+02  0.45594000000E+02  0.51100000000E-03 0.  1.
         11   -1    0    0    0    0 -0.00000000000E+00 -0.00000000000E+00 -0.45593999997E+02  0.45594000000E+02  0.51100000000E-03 0. -1.
    9900012    2    1    2    0    0 -0.23425484550E+02  0.21524290437E+02 -0.21630106586E+01  0.59301842810E+02  0.49999815402E+02 0.  0.
        -12    1    1    2    0    0  0.23425484550E+02 -0.21524290437E+02  0.21630106586E+01  0.31886157190E+02  0.00000000000E+00 0.  1.
         11    1    3    3    0    0 -0.11181093920E+01  0.36049756346E+01 -0.95300096857E+01  0.10250224525E+02  0.51100000000E-03 0. -1.
        -11    1    3    3    0    0  0.67755174385E+01 -0.69729470828E+01 -0.12788025279E+01  0.98063736287E+01  0.51100000000E-03 0.  1.
         12    1    3    3    0    0 -0.29082892597E+02  0.24892261886E+02  0.86458015550E+01  0.39245244656E+02  0.00000000000E+00 0. -1.
</event>
<event>
 7    1  0.6953847E-012  0.5930198E+02  0.7816164E-02  0.1266605E+00
        -11   -1    0    0    0    0  0.00000000000E+00  0.00000000000E+00  0.45593999997E+02  0.45594000000E+02  0.51100000000E-03 0.  1.
         11   -1    0    0    0    0 -0.00000000000E+00 -0.00000000000E+00 -0.45593999997E+02  0.45594000000E+02  0.51100000000E-03 0. -1.
    9900012    2    1    2    0    0 -0.78507693068E+01  0.15887962449E+02 -0.26507664357E+02  0.59301981134E+02  0.50000067672E+02 0.  0.
        -12    1    1    2    0    0  0.78507693068E+01 -0.15887962449E+02  0.26507664357E+02  0.31886018866E+02  0.00000000000E+00 0.  1.
         11    1    3    3    0    0  0.60559439637E+01 -0.12019952069E+02 -0.52575603454E+01  0.14449762838E+02  0.51100000000E-03 0. -1.
        -11    1    3    3    0    0 -0.70725228049E+01  0.72237003556E+01  0.45494000235E+01  0.11086003179E+02  0.51100000000E-03 0.  1.
         12    1    3    3    0    0 -0.68341904656E+01  0.20684214163E+02 -0.25799504035E+02  0.33766215116E+02  0.00000000000E+00 0. -1.
</event>
<event>
 7    1  0.6953847E-012  0.5930195E+02  0.7816164E-02  0.1266605E+00
        -11   -1    0    0    0    0  0.00000000000E+00  0.00000000000E+00  0.45593999997E+02  0.45594000000E+02  0.51100000000E-03 0. -1.
         11   -1    0    0    0    0 -0.00000000000E+00 -0.00000000000E+00 -0.45593999997E+02  0.45594000000E+02  0.51100000000E-03 0.  1.
    9900012    2    1    2    0    0 -0.11781271476E+02  0.26196494321E+02  0.13844342541E+02  0.59301945169E+02  0.50000002081E+02 0.  0.
        -12    1    1    2    0    0  0.11781271476E+02 -0.26196494321E+02 -0.13844342541E+02  0.31886054831E+02  0.00000000000E+00 0.  1.
         11    1    3    3    0    0  0.67244864394E+01 -0.27517255751E+00  0.45536268908E+01  0.81258818556E+01  0.51100000000E-03 0. -1.
        -11    1    3    3    0    0  0.44645912369E+01 -0.77612078715E+01  0.31729255266E+01  0.94992830885E+01  0.51100000000E-03 0.  1.
         12    1    3    3    0    0 -0.22970349153E+02  0.34232874750E+02  0.61177901232E+01  0.41676780224E+02  0.00000000000E+00 0. -1.
</event>
<event>
 7    1  0.6953847E-012  0.5930191E+02  0.7816164E-02  0.1266605E+00
        -11   -1    0    0    0    0  0.00000000000E+00  0.00000000000E+00  0.45593999997E+02  0.45594000000E+02  0.51100000000E-03 0.  1.
         11   -1    0    0    0    0 -0.00000000000E+00 -0.00000000000E+00 -0.45593999997E+02  0.45594000000E+02  0.51100000000E-03 0. -1.
    9900012    2    1    2    0    0  0.94367487436E+01 -0.26691374062E+02 -0.14671087746E+02  0.59301913821E+02  0.49999944910E+02 0.  0.
        -12    1    1    2    0    0 -0.94367487436E+01  0.26691374062E+02  0.14671087746E+02  0.31886086179E+02  0.00000000000E+00 0.  1.
         11    1    3    3    0    0  0.16478666475E+02 -0.23006947627E+02 -0.15454207008E+00  0.28299999495E+02  0.51100000000E-03 0. -1.
        -11    1    3    3    0    0  0.17948941000E+01 -0.10880818960E+02  0.17239232397E+01  0.11161799929E+02  0.51100000000E-03 0.  1.
        -12    1    3    3    0    0 -0.88368118311E+01  0.71963925240E+01 -0.16240468915E+02  0.19840114397E+02  0.00000000000E+00 0.  1.
</event>
<event>
 7    1  0.6953847E-012  0.5930184E+02  0.7816164E-02  0.1266605E+00
        -11   -1    0    0    0    0  0.00000000000E+00  0.00000000000E+00  0.45593999997E+02  0.45594000000E+02  0.51100000000E-03 0. -1.
         11   -1    0    0    0    0 -0.00000000000E+00 -0.00000000000E+00 -0.45593999997E+02  0.45594000000E+02  0.51100000000E-03 0.  1.
    9900012    2    1    2    0    0 -0.20801253343E+02  0.91437340442E+01  0.22370229044E+02  0.59301840614E+02  0.49999811399E+02 0.  0.
        -12    1    1    2    0    0  0.20801253343E+02 -0.91437340442E+01 -0.22370229044E+02  0.31886159386E+02  0.00000000000E+00 0.  1.
         11    1    3    3    0    0  0.10522874557E+02  0.15984002189E+02  0.82520755158E+01  0.20840248691E+02  0.51100000000E-03 0.  1.
        -11    1    3    3    0    0 -0.12820407845E+02 -0.46435670424E+01  0.14392408612E+02  0.19825917333E+02  0.51100000000E-03 0. -1.
        -12    1    3    3    0    0 -0.18503720055E+02 -0.21967011019E+01 -0.27425508375E+00  0.18635674591E+02  0.00000000000E+00 0.  1.
</event>
<event>
 7    1  0.6953847E-012  0.5930191E+02  0.7816164E-02  0.1266605E+00
        -11   -1    0    0    0    0  0.00000000000E+00  0.00000000000E+00  0.45593999997E+02  0.45594000000E+02  0.51100000000E-03 0.  1.
         11   -1    0    0    0    0 -0.00000000000E+00 -0.00000000000E+00 -0.45593999997E+02  0.45594000000E+02  0.51100000000E-03 0. -1.
    9900012    2    1    2    0    0  0.66281688450E+01  0.31150300455E+02 -0.15649526109E+01  0.59301907148E+02  0.49999932741E+02 0.  0.
        -12    1    1    2    0    0 -0.66281688450E+01 -0.31150300455E+02  0.15649526109E+01  0.31886092852E+02  0.00000000000E+00 0.  1.
         11    1    3    3    0    0 -0.98511348435E+01  0.38311480836E+00 -0.61169441075E-01  0.98587715575E+01  0.51100000000E-03 0. -1.
        -11    1    3    3    0    0 -0.39704042567E+01  0.74207588462E+01  0.12760420362E+02  0.15285944521E+02  0.51100000000E-03 0.  1.
         12    1    3    3    0    0  0.20449707945E+02  0.23346426800E+02 -0.14264203532E+02  0.34157191070E+02  0.00000000000E+00 0. -1.
</event>
<event>
 7    1  0.6953847E-012  0.5930196E+02  0.7816164E-02  0.1266605E+00
        -11   -1    0    0    0    0  0.00000000000E+00  0.00000000000E+00  0.45593999997E+02  0.45594000000E+02  0.51100000000E-03 0. -1.
         11   -1    0    0    0    0 -0.00000000000E+00 -0.00000000000E+00 -0.45593999997E+02  0.45594000000E+02  0.51100000000E-03 0.  1.
    9900012    2    1    2    0    0  0.30722935070E+02 -0.75460855300E+01  0.39846149279E+01  0.59301963836E+02  0.50000036125E+02 0.  0.
        -12    1    1    2    0    0 -0.30722935070E+02  0.75460855300E+01 -0.39846149279E+01  0.31886036164E+02  0.00000000000E+00 0.  1.
         11    1    3    3    0    0  0.19987681556E+02  0.89647923984E+01 -0.63315267833E+00  0.21915195625E+02  0.51100000000E-03 0. -1.
        -11    1    3    3    0    0  0.16252076060E+02 -0.10634584467E+02 -0.91216610105E+01  0.21457610839E+02  0.51100000000E-03 0.  1.
         12    1    3    3    0    0 -0.55168225459E+01 -0.58762934616E+01  0.13739428617E+02  0.15929157371E+02  0.00000000000E+00 0. -1.
</event>
<event>
 7    1  0.6953847E-012  0.5930195E+02  0.7816164E-02  0.1266605E+00
        -11   -1    0    0    0    0  0.00000000000E+00  0.00000000000E+00  0.45593999997E+02  0.45594000000E+02  0.51100000000E-03 0. -1.
         11   -1    0    0    0    0 -0.00000000000E+00 -0.00000000000E+00 -0.45593999997E+02  0.45594000000E+02  0.51100000000E-03 0.  1.
    9900012    2    1    2    0    0  0.25741019924E+02 -0.17488101954E+02 -0.69488168140E+01  0.59301954905E+02  0.50000019838E+02 0.  0.
        -12    1    1    2    0    0 -0.25741019924E+02  0.17488101954E+02  0.69488168140E+01  0.31886045095E+02  0.00000000000E+00 0.  1.
         11    1    3    3    0    0 -0.75861905227E+01 -0.83304439593E+00  0.10703702935E+02  0.13145855103E+02  0.51100000000E-03 0. -1.
        -11    1    3    3    0    0  0.61765189407E+01 -0.71044136418E+01  0.39097429106E+01  0.10193535663E+02  0.51100000000E-03 0.  1.
        -12    1    3    3    0    0  0.27150691506E+02 -0.95506439163E+01 -0.21562262660E+02  0.35962564139E+02  0.00000000000E+00 0.  1.
</event>
<event>
 7    1  0.6953847E-012  0.5930193E+02  0.7816164E-02  0.1266605E+00
        -11   -1    0    0    0    0  0.00000000000E+00  0.00000000000E+00  0.45593999997E+02  0.45594000000E+02  0.51100000000E-03 0. -1.
         11   -1    0    0    0    0 -0.00000000000E+00 -0.00000000000E+00 -0.45593999997E+02  0.45594000000E+02  0.51100000000E-03 0.  1.
    9900012    2    1    2    0    0  0.34002862515E+01 -0.31701511892E+02  0.41700504961E+00  0.59301926299E+02  0.49999967667E+02 0.  0.
        -12    1    1    2    0    0 -0.34002862515E+01  0.31701511892E+02 -0.41700504961E+00  0.31886073701E+02  0.00000000000E+00 0.  1.
         11    1    3    3    0    0  0.14230436456E+01 -0.42760985080E+01  0.10266850529E+01  0.46221373980E+01  0.51100000000E-03 0. -1.
        -11    1    3    3    0    0  0.45293877303E+01  0.10650643337E+02  0.97543154764E+01  0.15135991126E+02  0.51100000000E-03 0.  1.
         12    1    3    3    0    0 -0.25521451244E+01 -0.38076056721E+02 -0.10363995480E+02  0.39543797775E+02  0.00000000000E+00 0. -1.
</event>
<event>
 7    1  0.6953847E-012  0.5930191E+02  0.7816164E-02  0.1266605E+00
        -11   -1    0    0    0    0  0.00000000000E+00  0.00000000000E+00  0.45593999997E+02  0.45594000000E+02  0.51100000000E-03 0. -1.
         11   -1    0    0    0    0 -0.00000000000E+00 -0.00000000000E+00 -0.45593999997E+02  0.45594000000E+02  0.51100000000E-03 0.  1.
    9900012    2    1    2    0    0  0.14568302890E+02  0.11237757960E+02  0.26042279965E+02  0.59301905871E+02  0.49999930411E+02 0.  0.
        -12    1    1    2    0    0 -0.14568302890E+02 -0.11237757960E+02 -0.26042279965E+02  0.31886094129E+02  0.00000000000E+00 0.  1.
         11    1    3    3    0    0  0.39666517183E+00 -0.66218987089E+01  0.24113486356E+00  0.66381497462E+01  0.51100000000E-03 0. -1.
        -11    1    3    3    0    0 -0.83986561372E+01 -0.64185511758E+01  0.13857405370E+02  0.17428795367E+02  0.51100000000E-03 0.  1.
        -12    1    3    3    0    0  0.22570293855E+02  0.24278207844E+02  0.11943739731E+02  0.35234960758E+02  0.00000000000E+00 0.  1.
</event>
<event>
 7    1  0.6953847E-012  0.5930196E+02  0.7816164E-02  0.1266605E+00
        -11   -1    0    0    0    0  0.00000000000E+00  0.00000000000E+00  0.45593999997E+02  0.45594000000E+02  0.51100000000E-03 0. -1.
         11   -1    0    0    0    0 -0.00000000000E+00 -0.00000000000E+00 -0.45593999997E+02  0.45594000000E+02  0.51100000000E-03 0.  1.
    9900012    2    1    2    0    0 -0.11371737004E+02  0.29767267622E+02  0.11459006588E+01  0.59301957404E+02  0.50000024394E+02 0.  0.
        -12    1    1    2    0    0  0.11371737004E+02 -0.29767267622E+02 -0.11459006588E+01  0.31886042596E+02  0.00000000000E+00 0.  1.
         11    1    3    3    0    0  0.83063735928E+01  0.25685680036E+01  0.19499811568E-01  0.86944674567E+01  0.51100000000E-03 0. -1.
        -11    1    3    3    0    0 -0.87809981498E+01  0.80306978059E+01 -0.17893186094E+02  0.21488698067E+02  0.51100000000E-03 0.  1.
         12    1    3    3    0    0 -0.10897112447E+02  0.19168001812E+02  0.19019586941E+02  0.29118791880E+02  0.00000000000E+00 0. -1.
</event>
<event>
 7    1  0.6953847E-012  0.5930192E+02  0.7816164E-02  0.1266605E+00
        -11   -1    0    0    0    0  0.00000000000E+00  0.00000000000E+00  0.45593999997E+02  0.45594000000E+02  0.51100000000E-03 0. -1.
         11   -1    0    0    0    0 -0.00000000000E+00 -0.00000000000E+00 -0.45593999997E+02  0.45594000000E+02  0.51100000000E-03 0.  1.
    9900012    2    1    2    0    0  0.30412694396E+02  0.45476611553E+01  0.84325932957E+01  0.59301924166E+02  0.49999963776E+02 0.  0.
        -12    1    1    2    0    0 -0.30412694396E+02 -0.45476611553E+01 -0.84325932957E+01  0.31886075834E+02  0.00000000000E+00 0.  1.
         11    1    3    3    0    0  0.40448363074E+02  0.68819836530E+01  0.51562246004E+01  0.41352369059E+02  0.51100000000E-03 0. -1.
        -11    1    3    3    0    0  0.75924427439E+00  0.13948614200E+01  0.60014733552E+01  0.62080409908E+01  0.51100000000E-03 0.  1.
        -12    1    3    3    0    0 -0.10794912952E+02 -0.37291839178E+01 -0.27251046598E+01  0.11741514116E+02  0.00000000000E+00 0.  1.
</event>
<event>
 7    1  0.6953847E-012  0.5930194E+02  0.7816164E-02  0.1266605E+00
        -11   -1    0    0    0    0  0.00000000000E+00  0.00000000000E+00  0.45593999997E+02  0.45594000000E+02  0.51100000000E-03 0.  1.
         11   -1    0    0    0    0 -0.00000000000E+00 -0.00000000000E+00 -0.45593999997E+02  0.45594000000E+02  0.51100000000E-03 0. -1.
    9900012    2    1    2    0    0 -0.20486336276E+02 -0.11998170472E+02 -0.21285553529E+02  0.59301939445E+02  0.49999991642E+02 0.  0.
        -12    1    1    2    0    0  0.20486336276E+02  0.11998170472E+02  0.21285553529E+02  0.31886060555E+02  0.00000000000E+00 0.  1.
         11    1    3    3    0    0  0.23211358275E+01  0.57003532097E+01  0.11598932237E+01  0.62631502295E+01  0.51100000000E-03 0. -1.
        -11    1    3    3    0    0  0.54200483753E+01  0.67640194746E+01  0.13188564527E+01  0.87674549583E+01  0.51100000000E-03 0.  1.
         12    1    3    3    0    0 -0.28227520479E+02 -0.24462543156E+02 -0.23764303206E+02  0.44271334257E+02  0.00000000000E+00 0. -1.
</event>
<event>
 7    1  0.6953847E-012  0.5930190E+02  0.7816164E-02  0.1266605E+00
        -11   -1    0    0    0    0  0.00000000000E+00  0.00000000000E+00  0.45593999997E+02  0.45594000000E+02  0.51100000000E-03 0.  1.
         11   -1    0    0    0    0 -0.00000000000E+00 -0.00000000000E+00 -0.45593999997E+02  0.45594000000E+02  0.51100000000E-03 0. -1.
    9900012    2    1    2    0    0  0.89594564200E+01  0.49155180726E+01 -0.30204124903E+02  0.59301900546E+02  0.49999920699E+02 0.  0.
        -12    1    1    2    0    0 -0.89594564200E+01 -0.49155180726E+01  0.30204124903E+02  0.31886099454E+02  0.00000000000E+00 0.  1.
         11    1    3    3    0    0 -0.16626139315E+01  0.13093472055E+02 -0.16296423764E+02  0.20970854139E+02  0.51100000000E-03 0. -1.
        -11    1    3    3    0    0  0.28107830583E+01  0.26826280548E+01  0.10114406017E+02  0.10835045179E+02  0.51100000000E-03 0.  1.
         12    1    3    3    0    0  0.78112872932E+01 -0.10860582037E+02 -0.24022107156E+02  0.27496001228E+02  0.00000000000E+00 0. -1.
</event>
<event>
 7    1  0.6953847E-012  0.5930195E+02  0.7816164E-02  0.1266605E+00
        -11   -1    0    0    0    0  0.00000000000E+00  0.00000000000E+00  0.45593999997E+02  0.45594000000E+02  0.51100000000E-03 0.  1.
         11   -1    0    0    0    0 -0.00000000000E+00 -0.00000000000E+00 -0.45593999997E+02  0.45594000000E+02  0.51100000000E-03 0. -1.
    9900012    2    1    2    0    0 -0.29363954624E+02  0.10137383146E+02  0.71910887197E+01  0.59301950932E+02  0.50000012591E+02 0.  0.
        -12    1    1    2    0    0  0.29363954624E+02 -0.10137383146E+02 -0.71910887197E+01  0.31886049068E+02  0.00000000000E+00 0.  1.
         11    1    3    3    0    0  0.10578247678E+01  0.57653850882E+01 -0.35230887665E+00  0.58722040377E+01  0.51100000000E-03 0. -1.
        -11    1    3    3    0    0 -0.11747118911E+02 -0.18814706567E+02  0.82070516539E+01  0.23650447840E+02  0.51100000000E-03 0.  1.
         12    1    3    3    0    0 -0.18674660480E+02  0.23186704625E+02 -0.66365405748E+00  0.29779299054E+02  0.00000000000E+00 0. -1.
</event>
<event>
 7    1  0.6953847E-012  0.5930191E+02  0.7816164E-02  0.1266605E+00
        -11   -1    0    0    0    0  0.00000000000E+00  0.00000000000E+00  0.45593999997E+02  0.45594000000E+02  0.51100000000E-03 0. -1.
         11   -1    0    0    0    0 -0.00000000000E+00 -0.00000000000E+00 -0.45593999997E+02  0.45594000000E+02  0.51100000000E-03 0.  1.
    9900012    2    1    2    0    0  0.24805491857E+02  0.19083762307E+02 -0.61008552169E+01  0.59301908291E+02  0.49999934825E+02 0.  0.
        -12    1    1    2    0    0 -0.24805491857E+02 -0.19083762307E+02  0.61008552169E+01  0.31886091709E+02  0.00000000000E+00 0.  1.
         11    1    3    3    0    0  0.25536186106E+02  0.19521981333E+02  0.36026225592E+01  0.32344759167E+02  0.51100000000E-03 0. -1.
        -11    1    3    3    0    0  0.50613318325E+01 -0.57148117656E+01  0.57993107170E+01  0.95868742814E+01  0.51100000000E-03 0.  1.
        -12    1    3    3    0    0 -0.57920260807E+01  0.52765927400E+01 -0.15502788493E+02  0.17370274843E+02  0.00000000000E+00 0.  1.
</event>
<event>
 7    1  0.6953847E-012  0.5930195E+02  0.7816164E-02  0.1266605E+00
        -11   -1    0    0    0    0  0.00000000000E+00  0.00000000000E+00  0.45593999997E+02  0.45594000000E+02  0.51100000000E-03 0. -1.
         11   -1    0    0    0    0 -0.00000000000E+00 -0.00000000000E+00 -0.45593999997E+02  0.45594000000E+02  0.51100000000E-03 0.  1.
    9900012    2    1    2    0    0  0.26621328878E+02  0.17270544457E+02  0.31230518604E+01  0.59301948034E+02  0.50000007306E+02 0.  0.
        -12    1    1    2    0    0 -0.26621328878E+02 -0.17270544457E+02 -0.31230518604E+01  0.31886051966E+02  0.00000000000E+00 0.  1.
         11    1    3    3    0    0  0.19658025988E+02  0.59523426131E+01 -0.93941156006E+01  0.22585787046E+02  0.51100000000E-03 0. -1.
        -11    1    3    3    0    0 -0.98834360433E+01  0.15309410856E+01 -0.43875102215E+01  0.10921370557E+02  0.51100000000E-03 0.  1.
         12    1    3    3    0    0  0.16846738933E+02  0.97872607587E+01  0.16904677682E+02  0.25794790431E+02  0.00000000000E+00 0. -1.
</event>
<event>
 7    1  0.6953847E-012  0.5930195E+02  0.7816164E-02  0.1266605E+00
        -11   -1    0    0    0    0  0.00000000000E+00  0.00000000000E+00  0.45593999997E+02  0.45594000000E+02  0.51100000000E-03 0. -1.
         11   -1    0    0    0    0 -0.00000000000E+00 -0.00000000000E+00 -0.45593999997E+02  0.45594000000E+02  0.51100000000E-03 0.  1.
    9900012    2    1    2    0    0  0.29668412388E+01 -0.31623490038E+02 -0.28058368563E+01  0.59301953058E+02  0.50000016469E+02 0.  0.
        -12    1    1    2    0    0 -0.29668412388E+01  0.31623490038E+02  0.28058368563E+01  0.31886046942E+02  0.00000000000E+00 0.  1.
         11    1    3    3    0    0 -0.44396093387E+01 -0.50670932000E+00  0.19239593491E+01  0.48650288029E+01  0.51100000000E-03 0. -1.
        -11    1    3    3    0    0 -0.10232404376E+02  0.64609353866E+01 -0.45394519368E+01  0.12924875610E+02  0.51100000000E-03 0.  1.
        -12    1    3    3    0    0  0.17638854954E+02 -0.37577716105E+02 -0.19034426860E+00  0.41512048645E+02  0.00000000000E+00 0.  1.
</event>
<event>
 7    1  0.6953847E-012  0.5930195E+02  0.7816164E-02  0.1266605E+00
        -11   -1    0    0    0    0  0.00000000000E+00  0.00000000000E+00  0.45593999997E+02  0.45594000000E+02  0.51100000000E-03 0.  1.
         11   -1    0    0    0    0 -0.00000000000E+00 -0.00000000000E+00 -0.45593999997E+02  0.45594000000E+02  0.51100000000E-03 0. -1.
    9900012    2    1    2    0    0 -0.26067367104E+02  0.10635916889E+02 -0.14969634864E+02  0.59301947818E+02  0.50000006912E+02 0.  0.
        -12    1    1    2    0    0  0.26067367104E+02 -0.10635916889E+02  0.14969634864E+02  0.31886052182E+02  0.00000000000E+00 0.  1.
         11    1    3    3    0    0 -0.11882990868E+02  0.61797552176E+01 -0.90309610715E+01  0.16154042981E+02  0.51100000000E-03 0. -1.
        -11    1    3    3    0    0  0.10172679540E+02  0.10010229297E+02 -0.10544374587E+02  0.17744631168E+02  0.51100000000E-03 0.  1.
         12    1    3    3    0    0 -0.24357055776E+02 -0.55540676257E+01  0.46057007940E+01  0.25403273668E+02  0.00000000000E+00 0. -1.
</event>
<event>
 7    1  0.6953847E-012  0.5930195E+02  0.7816164E-02  0.1266605E+00
        -11   -1    0    0    0    0  0.00000000000E+00  0.00000000000E+00  0.45593999997E+02  0.45594000000E+02  0.51100000000E-03 0.  1.
         11   -1    0    0    0    0 -0.00000000000E+00 -0.00000000000E+00 -0.45593999997E+02  0.45594000000E+02  0.51100000000E-03 0. -1.
    9900012    2    1    2    0    0 -0.86591342818E+01 -0.24517393998E+02 -0.18456359851E+02  0.59301946091E+02  0.50000003762E+02 0.  0.
        -12    1    1    2    0    0  0.86591342818E+01  0.24517393998E+02  0.18456359851E+02  0.31886053909E+02  0.00000000000E+00 0.  1.
         11    1    3    3    0    0 -0.33164508122E+01 -0.17160928754E+02  0.11030812684E+02  0.20668215947E+02  0.51100000000E-03 0. -1.
        -11    1    3    3    0    0  0.24103129257E+01 -0.70194974956E+01  0.70969159829E+00  0.74556432262E+01  0.51100000000E-03 0.  1.
        -12    1    3    3    0    0 -0.77529963954E+01 -0.33696774915E+00 -0.30196864133E+02  0.31178086918E+02  0.00000000000E+00 0.  1.
</event>
<event>
 7    1  0.6953847E-012  0.5930193E+02  0.7816164E-02  0.1266605E+00
        -11   -1    0    0    0    0  0.00000000000E+00  0.00000000000E+00  0.45593999997E+02  0.45594000000E+02  0.51100000000E-03 0.  1.
         11   -1    0    0    0    0 -0.00000000000E+00 -0.00000000000E+00 -0.45593999997E+02  0.45594000000E+02  0.51100000000E-03 0. -1.
    9900012    2    1    2    0    0 -0.36057020746E+01 -0.14702017889E+02 -0.28063692655E+02  0.59301933091E+02  0.49999980054E+02 0.  0.
        -12    1    1    2    0    0  0.36057020746E+01  0.14702017889E+02  0.28063692655E+02  0.31886066909E+02  0.00000000000E+00 0.  1.
         11    1    3    3    0    0  0.22085623088E+01 -0.65850748891E+01 -0.72834813822E+00  0.69836559221E+01  0.51100000000E-03 0. -1.
        -11    1    3    3    0    0  0.44871960717E+01 -0.22272712522E+02 -0.38793778525E+01  0.23049039556E+02  0.51100000000E-03 0.  1.
         12    1    3    3    0    0 -0.10301460455E+02  0.14155769522E+02 -0.23455966665E+02  0.29269237613E+02  0.00000000000E+00 0. -1.
</event>
<event>
 7    1  0.6953847E-012  0.5930189E+02  0.7816164E-02  0.1266605E+00
        -11   -1    0    0    0    0  0.00000000000E+00  0.00000000000E+00  0.45593999997E+02  0.45594000000E+02  0.51100000000E-03 0. -1.
         11   -1    0    0    0    0 -0.00000000000E+00 -0.00000000000E+00 -0.45593999997E+02  0.45594000000E+02  0.51100000000E-03 0.  1.
    9900012    2    1    2    0    0 -0.18657762920E+02  0.25785991406E+02 -0.19221654081E+01  0.59301887194E+02  0.49999896350E+02 0.  0.
        -12    1    1    2    0    0  0.18657762920E+02 -0.25785991406E+02  0.19221654081E+01  0.31886112806E+02  0.00000000000E+00 0.  1.
         11    1    3    3    0    0 -0.20319689199E+02  0.23096489656E+02 -0.68369334550E+01  0.31513191887E+02  0.51100000000E-03 0. -1.
        -11    1    3    3    0    0 -0.94382222439E+01  0.10141089663E+02  0.11598400008E+01  0.13902049050E+02  0.51100000000E-03 0.  1.
        -12    1    3    3    0    0  0.11100148523E+02 -0.74515879129E+01  0.37549280461E+01  0.13886646258E+02  0.00000000000E+00 0.  1.
</event>
<event>
 7    1  0.6953847E-012  0.5930195E+02  0.7816164E-02  0.1266605E+00
        -11   -1    0    0    0    0  0.00000000000E+00  0.00000000000E+00  0.45593999997E+02  0.45594000000E+02  0.51100000000E-03 0. -1.
         11   -1    0    0    0    0 -0.00000000000E+00 -0.00000000000E+00 -0.45593999997E+02  0.45594000000E+02  0.51100000000E-03 0.  1.
    9900012    2    1    2    0    0 -0.29729554158E+02  0.53226794646E+01 -0.10224631409E+02  0.59301946707E+02  0.50000004887E+02 0.  0.
        -12    1    1    2    0    0  0.29729554158E+02 -0.53226794646E+01  0.10224631409E+02  0.31886053293E+02  0.00000000000E+00 0.  1.
         11    1    3    3    0    0 -0.20768722145E+02  0.68091937992E+01 -0.14097353484E+02  0.26008466223E+02  0.51100000000E-03 0. -1.
        -11    1    3    3    0    0 -0.15533370386E+02 -0.11839653096E+02  0.68085051757E+01  0.20683779248E+02  0.51100000000E-03 0.  1.
        -12    1    3    3    0    0  0.65725383726E+01  0.10353138761E+02 -0.29357830999E+01  0.12609701237E+02  0.00000000000E+00 0.  1.
</event>
<event>
 7    1  0.6953847E-012  0.5930196E+02  0.7816164E-02  0.1266605E+00
        -11   -1    0    0    0    0  0.00000000000E+00  0.00000000000E+00  0.45593999997E+02  0.45594000000E+02  0.51100000000E-03 0. -1.
         11   -1    0    0    0    0 -0.00000000000E+00 -0.00000000000E+00 -0.45593999997E+02  0.45594000000E+02  0.51100000000E-03 0.  1.
    9900012    2    1    2    0    0  0.36336831626E+01  0.27309205327E+02 -0.16053752517E+02  0.59301963577E+02  0.50000035653E+02 0.  0.
        -12    1    1    2    0    0 -0.36336831626E+01 -0.27309205327E+02  0.16053752517E+02  0.31886036423E+02  0.00000000000E+00 0.  1.
         11    1    3    3    0    0 -0.31220176782E+01  0.28471616363E+02 -0.14573562771E+02  0.32136718327E+02  0.51100000000E-03 0. -1.
        -11    1    3    3    0    0  0.24644304942E+01  0.10052396157E+01 -0.13740553416E+02  0.13995954158E+02  0.51100000000E-03 0.  1.
         12    1    3    3    0    0  0.42912703466E+01 -0.21676506522E+01  0.12260363670E+02  0.13169291092E+02  0.00000000000E+00 0. -1.
</event>
<event>
 7    1  0.6953847E-012  0.5930194E+02  0.7816164E-02  0.1266605E+00
        -11   -1    0    0    0    0  0.00000000000E+00  0.00000000000E+00  0.45593999997E+02  0.45594000000E+02  0.51100000000E-03 0. -1.
         11   -1    0    0    0    0 -0.00000000000E+00 -0.00000000000E+00 -0.45593999997E+02  0.45594000000E+02  0.51100000000E-03 0.  1.
    9900012    2    1    2    0    0  0.11314096969E+02  0.43672165923E+01  0.29489647823E+02  0.59301941922E+02  0.49999996160E+02 0.  0.
        -12    1    1    2    0    0 -0.11314096969E+02 -0.43672165923E+01 -0.29489647823E+02  0.31886058078E+02  0.00000000000E+00 0.  1.
         11    1    3    3    0    0  0.93303119548E+01  0.54055999688E+01  0.16423640318E+02  0.19647167576E+02  0.51100000000E-03 0. -1.
        -11    1    3    3    0    0  0.58591740509E+01  0.15104282825E+02  0.16029897195E+02  0.22790938650E+02  0.51100000000E-03 0.  1.
        -12    1    3    3    0    0 -0.38753890363E+01 -0.16142666202E+02 -0.29638896900E+01  0.16863835696E+02  0.00000000000E+00 0.  1.
</event>
<event>
 7    1  0.6953847E-012  0.5930196E+02  0.7816164E-02  0.1266605E+00
        -11   -1    0    0    0    0  0.00000000000E+00  0.00000000000E+00  0.45593999997E+02  0.45594000000E+02  0.51100000000E-03 0.  1.
         11   -1    0    0    0    0 -0.00000000000E+00 -0.00000000000E+00 -0.45593999997E+02  0.45594000000E+02  0.51100000000E-03 0. -1.
    9900012    2    1    2    0    0 -0.20011886067E+02 -0.23484095781E+02  0.80461899938E+01  0.59301960546E+02  0.50000030126E+02 0.  0.
        -12    1    1    2    0    0  0.20011886067E+02  0.23484095781E+02 -0.80461899938E+01  0.31886039454E+02  0.00000000000E+00 0.  1.
         11    1    3    3    0    0 -0.21112448733E+01 -0.26416099080E+01  0.46896511052E+01  0.57817199492E+01  0.51100000000E-03 0. -1.
        -11    1    3    3    0    0 -0.63738001283E+01  0.64487193636E+01  0.18237628825E+02  0.20367189667E+02  0.51100000000E-03 0.  1.
         12    1    3    3    0    0 -0.11526841066E+02 -0.27291205237E+02 -0.14881089937E+02  0.33153050930E+02  0.00000000000E+00 0. -1.
</event>
<event>
 7    1  0.6953847E-012  0.5930195E+02  0.7816164E-02  0.1266605E+00
        -11   -1    0    0    0    0  0.00000000000E+00  0.00000000000E+00  0.45593999997E+02  0.45594000000E+02  0.51100000000E-03 0.  1.
         11   -1    0    0    0    0 -0.00000000000E+00 -0.00000000000E+00 -0.45593999997E+02  0.45594000000E+02  0.51100000000E-03 0. -1.
    9900012    2    1    2    0    0  0.27161851628E+01  0.44767220798E+01 -0.31453168161E+02  0.59301945214E+02  0.50000002164E+02 0.  0.
        -12    1    1    2    0    0 -0.27161851628E+01 -0.44767220798E+01  0.31453168161E+02  0.31886054786E+02  0.00000000000E+00 0.  1.
         11    1    3    3    0    0  0.66804007392E+00  0.30116300844E+00 -0.24755506958E+02  0.24766350189E+02  0.51100000000E-03 0. -1.
        -11    1    3    3    0    0 -0.96131012303E+01  0.44819875870E+01 -0.16286042706E+02  0.19435408801E+02  0.51100000000E-03 0.  1.
        -12    1    3    3    0    0  0.11661246319E+02 -0.30642851568E+00  0.95883815027E+01  0.15100186224E+02  0.00000000000E+00 0.  1.
</event>
<event>
 7    1  0.7258898E-012  0.5930192E+02  0.7816164E-02  0.1266605E+00
        -11   -1    0    0    0    0  0.00000000000E+00  0.00000000000E+00  0.45593999997E+02  0.45594000000E+02  0.51100000000E-03 0. -1.
         11   -1    0    0    0    0 -0.00000000000E+00 -0.00000000000E+00 -0.45593999997E+02  0.45594000000E+02  0.51100000000E-03 0.  1.
    9900012    2    1    2    0    0  0.11473966777E+02 -0.10436434104E+02  0.27859488264E+02  0.59301919075E+02  0.49999954492E+02 0.  0.
        -12    1    1    2    0    0 -0.11473966777E+02  0.10436434104E+02 -0.27859488264E+02  0.31886080925E+02  0.00000000000E+00 0.  1.
         11    1    3    3    0    0 -0.12377134747E+01 -0.16732220006E+02  0.21439308526E+02  0.27223942978E+02  0.51100000000E-03 0. -1.
        -11    1    3    3    0    0 -0.60852199258E+01  0.12567026834E+01 -0.62842917819E+01  0.88375068113E+01  0.51100000000E-03 0.  1.
        -12    1    3    3    0    0  0.18796900178E+02  0.50390832188E+01  0.12704471521E+02  0.23240469285E+02  0.00000000000E+00 0.  1.
</event>
<event>
 7    1  0.6953847E-012  0.5930197E+02  0.7816164E-02  0.1266605E+00
        -11   -1    0    0    0    0  0.00000000000E+00  0.00000000000E+00  0.45593999997E+02  0.45594000000E+02  0.51100000000E-03 0.  1.
         11   -1    0    0    0    0 -0.00000000000E+00 -0.00000000000E+00 -0.45593999997E+02  0.45594000000E+02  0.51100000000E-03 0. -1.
    9900012    2    1    2    0    0 -0.30788283139E+02  0.70328808945E+01 -0.43976294774E+01  0.59301969558E+02  0.50000046561E+02 0.  0.
        -12    1    1    2    0    0  0.30788283139E+02 -0.70328808945E+01  0.43976294774E+01  0.31886030442E+02  0.00000000000E+00 0.  1.
         11    1    3    3    0    0 -0.95512896275E+01 -0.12771197297E+02  0.10877755600E+01  0.15984801215E+02  0.51100000000E-03 0. -1.
        -11    1    3    3    0    0 -0.62721886320E+01  0.82533767472E+01  0.13168473179E+02  0.16759094967E+02  0.51100000000E-03 0.  1.
        -12    1    3    3    0    0 -0.14964804880E+02  0.11550701444E+02 -0.18653878217E+02  0.26558073376E+02  0.00000000000E+00 0.  1.
</event>
<event>
 7    1  0.6953847E-012  0.5930192E+02  0.7816164E-02  0.1266605E+00
        -11   -1    0    0    0    0  0.00000000000E+00  0.00000000000E+00  0.45593999997E+02  0.45594000000E+02  0.51100000000E-03 0.  1.
         11   -1    0    0    0    0 -0.00000000000E+00 -0.00000000000E+00 -0.45593999997E+02  0.45594000000E+02  0.51100000000E-03 0. -1.
    9900012    2    1    2    0    0  0.19846925409E+02 -0.69253476347E+01 -0.23976269094E+02  0.59301915767E+02  0.49999948459E+02 0.  0.
        -12    1    1    2    0    0 -0.19846925409E+02  0.69253476347E+01  0.23976269094E+02  0.31886084233E+02  0.00000000000E+00 0.  1.
         11    1    3    3    0    0  0.73464839649E+01 -0.44573647838E+01 -0.85752770257E+01  0.12139781867E+02  0.51100000000E-03 0. -1.
        -11    1    3    3    0    0  0.77809289418E+01 -0.19814172772E+02 -0.19337902828E+02  0.28759325164E+02  0.51100000000E-03 0.  1.
        -12    1    3    3    0    0  0.47195125024E+01  0.17346189921E+02  0.39369107594E+01  0.18402808735E+02  0.00000000000E+00 0.  1.
</event>
<event>
 7    1  0.6953847E-012  0.5930192E+02  0.7816164E-02  0.1266605E+00
        -11   -1    0    0    0    0  0.00000000000E+00  0.00000000000E+00  0.45593999997E+02  0.45594000000E+02  0.51100000000E-03 0. -1.
         11   -1    0    0    0    0 -0.00000000000E+00 -0.00000000000E+00 -0.45593999997E+02  0.45594000000E+02  0.51100000000E-03 0.  1.
    9900012    2    1    2    0    0 -0.19823264449E+02  0.16383785454E+02  0.18850240390E+02  0.59301924638E+02  0.49999964638E+02 0.  0.
        -12    1    1    2    0    0  0.19823264449E+02 -0.16383785454E+02 -0.18850240390E+02  0.31886075362E+02  0.00000000000E+00 0.  1.
         11    1    3    3    0    0 -0.13806942286E+01 -0.36903686894E+01 -0.53391460615E+01  0.66356324901E+01  0.51100000000E-03 0. -1.
        -11    1    3    3    0    0 -0.23007255489E+02 -0.67286276361E+00  0.40049202346E+01  0.23362917963E+02  0.51100000000E-03 0.  1.
        -12    1    3    3    0    0  0.45646852684E+01  0.20747016907E+02  0.20184466217E+02  0.29303374185E+02  0.00000000000E+00 0.  1.
</event>
<event>
 7    1  0.6953847E-012  0.5930200E+02  0.7816164E-02  0.1266605E+00
        -11   -1    0    0    0    0  0.00000000000E+00  0.00000000000E+00  0.45593999997E+02  0.45594000000E+02  0.51100000000E-03 0. -1.
         11   -1    0    0    0    0 -0.00000000000E+00 -0.00000000000E+00 -0.45593999997E+02  0.45594000000E+02  0.51100000000E-03 0.  1.
    9900012    2    1    2    0    0  0.21513577611E+02  0.20867744338E+02  0.10882101104E+02  0.59302001508E+02  0.50000104830E+02 0.  0.
        -12    1    1    2    0    0 -0.21513577611E+02 -0.20867744338E+02 -0.10882101104E+02  0.31885998492E+02  0.00000000000E+00 0.  1.
         11    1    3    3    0    0  0.10258429170E+01 -0.64907198725E+00 -0.52838024097E+00  0.13239464019E+01  0.51100000000E-03 0. -1.
        -11    1    3    3    0    0 -0.71024392767E+01 -0.88425986409E+00 -0.13016006996E+02  0.14854056603E+02  0.51100000000E-03 0.  1.
         12    1    3    3    0    0  0.27590173971E+02  0.22401076189E+02  0.24426488341E+02  0.43123998503E+02  0.00000000000E+00 0. -1.
</event>
<event>
 7    1  0.6953847E-012  0.5930192E+02  0.7816164E-02  0.1266605E+00
        -11   -1    0    0    0    0  0.00000000000E+00  0.00000000000E+00  0.45593999997E+02  0.45594000000E+02  0.51100000000E-03 0.  1.
         11   -1    0    0    0    0 -0.00000000000E+00 -0.00000000000E+00 -0.45593999997E+02  0.45594000000E+02  0.51100000000E-03 0. -1.
    9900012    2    1    2    0    0  0.14685161572E+02  0.71891845507E+01 -0.27374869210E+02  0.59301924526E+02  0.49999964433E+02 0.  0.
        -12    1    1    2    0    0 -0.14685161572E+02 -0.71891845507E+01  0.27374869210E+02  0.31886075474E+02  0.00000000000E+00 0.  1.
         11    1    3    3    0    0 -0.13416853778E+02  0.26243511550E+00 -0.47453329273E+01  0.14233728336E+02  0.51100000000E-03 0. -1.
        -11    1    3    3    0    0  0.26218386892E+01  0.27782495745E+01  0.56226972370E+01  0.67976049672E+01  0.51100000000E-03 0.  1.
         12    1    3    3    0    0  0.25480176660E+02  0.41484998607E+01 -0.28252233519E+02  0.38270591223E+02  0.00000000000E+00 0. -1.
</event>
<event>
 7    1  0.6953847E-012  0.5930197E+02  0.7816164E-02  0.1266605E+00
        -11   -1    0    0    0    0  0.00000000000E+00  0.00000000000E+00  0.45593999997E+02  0.45594000000E+02  0.51100000000E-03 0. -1.
         11   -1    0    0    0    0 -0.00000000000E+00 -0.00000000000E+00 -0.45593999997E+02  0.45594000000E+02  0.51100000000E-03 0.  1.
    9900012    2    1    2    0    0  0.14268893424E+02  0.14642846701E+02  0.24468441439E+02  0.59301970057E+02  0.50000047472E+02 0.  0.
        -12    1    1    2    0    0 -0.14268893424E+02 -0.14642846701E+02 -0.24468441439E+02  0.31886029943E+02  0.00000000000E+00 0.  1.
         11    1    3    3    0    0 -0.59546601915E+01 -0.10757045726E+01  0.26043702986E+02  0.26737419169E+02  0.51100000000E-03 0.  1.
        -11    1    3    3    0    0  0.65724527360E+01 -0.99517571365E+00  0.67131982879E+01  0.94474621556E+01  0.51100000000E-03 0. -1.
        -12    1    3    3    0    0  0.13651100879E+02  0.16713726987E+02 -0.82884598352E+01  0.23117088732E+02  0.00000000000E+00 0.  1.
</event>
<event>
 7    1  0.6953847E-012  0.5930195E+02  0.7816164E-02  0.1266605E+00
        -11   -1    0    0    0    0  0.00000000000E+00  0.00000000000E+00  0.45593999997E+02  0.45594000000E+02  0.51100000000E-03 0. -1.
         11   -1    0    0    0    0 -0.00000000000E+00 -0.00000000000E+00 -0.45593999997E+02  0.45594000000E+02  0.51100000000E-03 0.  1.
    9900012    2    1    2    0    0  0.19971744679E+02 -0.46141258716E+01  0.24424569753E+02  0.59301947395E+02  0.50000006142E+02 0.  0.
        -12    1    1    2    0    0 -0.19971744679E+02  0.46141258716E+01 -0.24424569753E+02  0.31886052605E+02  0.00000000000E+00 0.  1.
         11    1    3    3    0    0 -0.40427357560E+01  0.19335577683E+01  0.16364275685E+02  0.16966787468E+02  0.51100000000E-03 0. -1.
        -11    1    3    3    0    0 -0.53925683647E+01 -0.64936206496E+01 -0.53722967051E+01  0.10005422273E+02  0.51100000000E-03 0.  1.
         12    1    3    3    0    0  0.29407048800E+02 -0.54062990261E-01  0.13432590773E+02  0.32329737654E+02  0.00000000000E+00 0. -1.
</event>
<event>
 7    1  0.6953847E-012  0.5930194E+02  0.7816164E-02  0.1266605E+00
        -11   -1    0    0    0    0  0.00000000000E+00  0.00000000000E+00  0.45593999997E+02  0.45594000000E+02  0.51100000000E-03 0.  1.
         11   -1    0    0    0    0 -0.00000000000E+00 -0.00000000000E+00 -0.45593999997E+02  0.45594000000E+02  0.51100000000E-03 0. -1.
    9900012    2    1    2    0    0  0.14923001975E+02 -0.98489980664E+01 -0.26401174996E+02  0.59301940475E+02  0.49999993521E+02 0.  0.
        -12    1    1    2    0    0 -0.14923001975E+02  0.98489980664E+01  0.26401174996E+02  0.31886059525E+02  0.00000000000E+00 0.  1.
         11    1    3    3    0    0  0.10208894885E+00 -0.13542454291E+02 -0.25128704453E+02  0.28545757621E+02  0.51100000000E-03 0. -1.
        -11    1    3    3    0    0 -0.58111461108E+01  0.76553240984E+01  0.80473315018E+00  0.96447395961E+01  0.51100000000E-03 0.  1.
        -12    1    3    3    0    0  0.20632059137E+02 -0.39618678737E+01 -0.20772036928E+01  0.21111443258E+02  0.00000000000E+00 0.  1.
</event>
<event>
 7    1  0.6953847E-012  0.5930195E+02  0.7816164E-02  0.1266605E+00
        -11   -1    0    0    0    0  0.00000000000E+00  0.00000000000E+00  0.45593999997E+02  0.45594000000E+02  0.51100000000E-03 0. -1.
         11   -1    0    0    0    0 -0.00000000000E+00 -0.00000000000E+00 -0.45593999997E+02  0.45594000000E+02  0.51100000000E-03 0.  1.
    9900012    2    1    2    0    0 -0.24627740764E+02  0.20081814116E+02  0.26296594139E+01  0.59301953177E+02  0.50000016687E+02 0.  0.
        -12    1    1    2    0    0  0.24627740764E+02 -0.20081814116E+02 -0.26296594139E+01  0.31886046823E+02  0.00000000000E+00 0.  1.
         11    1    3    3    0    0 -0.29444337149E+02 -0.46951774223E+01  0.28249648303E+01  0.29949859895E+02  0.51100000000E-03 0. -1.
        -11    1    3    3    0    0 -0.10434201131E+01 -0.15514605400E+01 -0.14258275437E+01  0.23513272390E+01  0.51100000000E-03 0.  1.
         12    1    3    3    0    0  0.58600164986E+01  0.26328452078E+02  0.12305221273E+01  0.27000766043E+02  0.00000000000E+00 0. -1.
</event>
<event>
 7    1  0.6953847E-012  0.5930193E+02  0.7816164E-02  0.1266605E+00
        -11   -1    0    0    0    0  0.00000000000E+00  0.00000000000E+00  0.45593999997E+02  0.45594000000E+02  0.51100000000E-03 0.  1.
         11   -1    0    0    0    0 -0.00000000000E+00 -0.00000000000E+00 -0.45593999997E+02  0.45594000000E+02  0.51100000000E-03 0. -1.
    9900012    2    1    2    0    0 -0.91390578981E+01 -0.27345277922E+02 -0.13617456130E+02  0.59301925997E+02  0.49999967116E+02 0.  0.
        -12    1    1    2    0    0  0.91390578981E+01  0.27345277922E+02  0.13617456130E+02  0.31886074003E+02  0.00000000000E+00 0.  1.
         11    1    3    3    0    0  0.31872758729E+01 -0.16185935452E+02  0.57538875442E+01  0.17471418262E+02  0.51100000000E-03 0. -1.
        -11    1    3    3    0    0  0.10754278802E+02 -0.50616736586E+01 -0.14382010879E+01  0.11972613558E+02  0.51100000000E-03 0.  1.
        -12    1    3    3    0    0 -0.23080612573E+02 -0.60976688110E+01 -0.17933142586E+02  0.29857894177E+02  0.00000000000E+00 0.  1.
</event>
<event>
 7    1  0.6953847E-012  0.5930195E+02  0.7816164E-02  0.1266605E+00
        -11   -1    0    0    0    0  0.00000000000E+00  0.00000000000E+00  0.45593999997E+02  0.45594000000E+02  0.51100000000E-03 0.  1.
         11   -1    0    0    0    0 -0.00000000000E+00 -0.00000000000E+00 -0.45593999997E+02  0.45594000000E+02  0.51100000000E-03 0. -1.
    9900012    2    1    2    0    0 -0.56490553564E+01 -0.17280340383E+02 -0.26195388724E+02  0.59301946927E+02  0.50000005288E+02 0.  0.
        -12    1    1    2    0    0  0.56490553564E+01  0.17280340383E+02  0.26195388724E+02  0.31886053073E+02  0.00000000000E+00 0.  1.
         11    1    3    3    0    0 -0.43338753688E-01  0.11653833980E+01 -0.38953308842E+01  0.40661529325E+01  0.51100000000E-03 0. -1.
        -11    1    3    3    0    0  0.21477067253E+01  0.10910173462E+02 -0.22249309288E+02  0.24873204321E+02  0.51100000000E-03 0.  1.
        -12    1    3    3    0    0 -0.77534233280E+01 -0.29355897244E+02 -0.50748551767E-01  0.30362589674E+02  0.00000000000E+00 0.  1.
</event>
<event>
 7    1  0.6953847E-012  0.5930197E+02  0.7816164E-02  0.1266605E+00
        -11   -1    0    0    0    0  0.00000000000E+00  0.00000000000E+00  0.45593999997E+02  0.45594000000E+02  0.51100000000E-03 0.  1.
         11   -1    0    0    0    0 -0.00000000000E+00 -0.00000000000E+00 -0.45593999997E+02  0.45594000000E+02  0.51100000000E-03 0. -1.
    9900012    2    1    2    0    0 -0.18449141922E+02 -0.92962550228E+01 -0.24288425481E+02  0.59301971595E+02  0.50000050276E+02 0.  0.
        -12    1    1    2    0    0  0.18449141922E+02  0.92962550228E+01  0.24288425481E+02  0.31886028405E+02  0.00000000000E+00 0.  1.
         11    1    3    3    0    0  0.14590458134E+02  0.19723282372E+01 -0.66195174365E+01  0.16142786581E+02  0.51100000000E-03 0. -1.
        -11    1    3    3    0    0 -0.79487947312E-01  0.28863496290E+01 -0.36310291052E+01  0.46391491826E+01  0.51100000000E-03 0.  1.
        -12    1    3    3    0    0 -0.32960112109E+02 -0.14154932889E+02 -0.14037878940E+02  0.38520035831E+02  0.00000000000E+00 0.  1.
</event>
<event>
 7    1  0.6953847E-012  0.5930207E+02  0.7816164E-02  0.1266604E+00
        -11   -1    0    0    0    0  0.00000000000E+00  0.00000000000E+00  0.45593999997E+02  0.45594000000E+02  0.51100000000E-03 0. -1.
         11   -1    0    0    0    0 -0.00000000000E+00 -0.00000000000E+00 -0.45593999997E+02  0.45594000000E+02  0.51100000000E-03 0.  1.
    9900012    2    1    2    0    0 -0.58551083663E+01  0.21980368960E+02  0.22344885155E+02  0.59302065699E+02  0.50000221900E+02 0.  0.
        -12    1    1    2    0    0  0.58551083663E+01 -0.21980368960E+02 -0.22344885155E+02  0.31885934301E+02  0.00000000000E+00 0.  1.
         11    1    3    3    0    0  0.12510100354E+02  0.71619051690E+01  0.19577282491E+02  0.24311838402E+02  0.51100000000E-03 0. -1.
        -11    1    3    3    0    0  0.36235921515E+01  0.30358978022E+01  0.81943310273E+01  0.94601351360E+01  0.51100000000E-03 0.  1.
        -12    1    3    3    0    0 -0.21988800871E+02  0.11782565989E+02 -0.54267283626E+01  0.25530092161E+02  0.00000000000E+00 0.  1.
</event>
<event>
 7    1  0.6953847E-012  0.5930195E+02  0.7816164E-02  0.1266605E+00
        -11   -1    0    0    0    0  0.00000000000E+00  0.00000000000E+00  0.45593999997E+02  0.45594000000E+02  0.51100000000E-03 0.  1.
         11   -1    0    0    0    0 -0.00000000000E+00 -0.00000000000E+00 -0.45593999997E+02  0.45594000000E+02  0.51100000000E-03 0. -1.
    9900012    2    1    2    0    0  0.31170442805E+02  0.39906057292E+01 -0.54035767641E+01  0.59301951631E+02  0.50000013866E+02 0.  0.
        -12    1    1    2    0    0 -0.31170442805E+02 -0.39906057292E+01  0.54035767641E+01  0.31886048369E+02  0.00000000000E+00 0.  1.
         11    1    3    3    0    0  0.18592778655E+02  0.11203370565E+02 -0.12269531165E+02  0.24934881700E+02  0.51100000000E-03 0. -1.
        -11    1    3    3    0    0  0.72675265941E+01  0.62270791822E+01 -0.88372683955E+01  0.13026541018E+02  0.51100000000E-03 0.  1.
        -12    1    3    3    0    0  0.53101375562E+01 -0.13439844018E+02  0.15703222796E+02  0.21340528913E+02  0.00000000000E+00 0.  1.
</event>
<event>
 7    1  0.6953847E-012  0.5930196E+02  0.7816164E-02  0.1266605E+00
        -11   -1    0    0    0    0  0.00000000000E+00  0.00000000000E+00  0.45593999997E+02  0.45594000000E+02  0.51100000000E-03 0.  1.
         11   -1    0    0    0    0 -0.00000000000E+00 -0.00000000000E+00 -0.45593999997E+02  0.45594000000E+02  0.51100000000E-03 0. -1.
    9900012    2    1    2    0    0  0.31565986716E+02  0.34447271710E+01 -0.29054983701E+01  0.59301959427E+02  0.50000028085E+02 0.  0.
        -12    1    1    2    0    0 -0.31565986716E+02 -0.34447271710E+01  0.29054983701E+01  0.31886040573E+02  0.00000000000E+00 0.  1.
         11    1    3    3    0    0  0.21580991380E+02  0.54088787758E+01  0.13201025040E+02  0.25870102840E+02  0.51100000000E-03 0.  1.
        -11    1    3    3    0    0  0.12584917500E+02  0.93828703478E+01 -0.15043674745E+02  0.21742367731E+02  0.51100000000E-03 0. -1.
         12    1    3    3    0    0 -0.25999221648E+01 -0.11347021953E+02 -0.10628486653E+01  0.11689488857E+02  0.00000000000E+00 0. -1.
</event>
<event>
 7    1  0.6953847E-012  0.5930194E+02  0.7816164E-02  0.1266605E+00
        -11   -1    0    0    0    0  0.00000000000E+00  0.00000000000E+00  0.45593999997E+02  0.45594000000E+02  0.51100000000E-03 0.  1.
         11   -1    0    0    0    0 -0.00000000000E+00 -0.00000000000E+00 -0.45593999997E+02  0.45594000000E+02  0.51100000000E-03 0. -1.
    9900012    2    1    2    0    0 -0.11145703247E+02 -0.26265731642E+02  0.14233961285E+02  0.59301937004E+02  0.49999987190E+02 0.  0.
        -12    1    1    2    0    0  0.11145703247E+02  0.26265731642E+02 -0.14233961285E+02  0.31886062996E+02  0.00000000000E+00 0.  1.
         11    1    3    3    0    0  0.64630006760E+00 -0.10618250342E+02 -0.13830988634E+02  0.17448816320E+02  0.51100000000E-03 0. -1.
        -11    1    3    3    0    0  0.45112750695E+01 -0.93755062020E+00 -0.16595389177E+01  0.48974149915E+01  0.51100000000E-03 0.  1.
        -12    1    3    3    0    0 -0.16303278384E+02 -0.14709930680E+02  0.29724488836E+02  0.36955705693E+02  0.00000000000E+00 0.  1.
</event>
<event>
 7    1  0.6953847E-012  0.5930195E+02  0.7816164E-02  0.1266605E+00
        -11   -1    0    0    0    0  0.00000000000E+00  0.00000000000E+00  0.45593999997E+02  0.45594000000E+02  0.51100000000E-03 0.  1.
         11   -1    0    0    0    0 -0.00000000000E+00 -0.00000000000E+00 -0.45593999997E+02  0.45594000000E+02  0.51100000000E-03 0. -1.
    9900012    2    1    2    0    0  0.79092651306E+01  0.30504017866E+02 -0.48650702233E+01  0.59301945225E+02  0.50000002183E+02 0.  0.
        -12    1    1    2    0    0 -0.79092651306E+01 -0.30504017866E+02  0.48650702233E+01  0.31886054775E+02  0.00000000000E+00 0.  1.
         11    1    3    3    0    0 -0.36105218395E+01  0.22341299242E+02 -0.16512280883E+02  0.28014727198E+02  0.51100000000E-03 0. -1.
        -11    1    3    3    0    0 -0.80402345777E+01  0.30368127467E+01  0.17355596947E+01  0.87681110530E+01  0.51100000000E-03 0.  1.
        -12    1    3    3    0    0  0.19560021548E+02  0.51259058771E+01  0.99116509654E+01  0.22519106973E+02  0.00000000000E+00 0.  1.
</event>
<event>
 7    1  0.6953847E-012  0.5930198E+02  0.7816164E-02  0.1266605E+00
        -11   -1    0    0    0    0  0.00000000000E+00  0.00000000000E+00  0.45593999997E+02  0.45594000000E+02  0.51100000000E-03 0. -1.
         11   -1    0    0    0    0 -0.00000000000E+00 -0.00000000000E+00 -0.45593999997E+02  0.45594000000E+02  0.51100000000E-03 0.  1.
    9900012    2    1    2    0    0  0.54472687307E+01 -0.12000407265E+02  0.29035078663E+02  0.59301979488E+02  0.50000064671E+02 0.  0.
        -12    1    1    2    0    0 -0.54472687307E+01  0.12000407265E+02 -0.29035078663E+02  0.31886020512E+02  0.00000000000E+00 0.  1.
         11    1    3    3    0    0 -0.11794982721E+02 -0.16013861656E+01  0.29102796884E+02  0.31442945819E+02  0.51100000000E-03 0. -1.
        -11    1    3    3    0    0  0.34271747266E+01  0.51884875320E+01  0.28264184450E+01  0.68304151384E+01  0.51100000000E-03 0.  1.
         12    1    3    3    0    0  0.13815076725E+02 -0.15587508632E+02 -0.28941366665E+01  0.21028618530E+02  0.00000000000E+00 0. -1.
</event>
<event>
 7    1  0.6953847E-012  0.5930196E+02  0.7816164E-02  0.1266605E+00
        -11   -1    0    0    0    0  0.00000000000E+00  0.00000000000E+00  0.45593999997E+02  0.45594000000E+02  0.51100000000E-03 0.  1.
         11   -1    0    0    0    0 -0.00000000000E+00 -0.00000000000E+00 -0.45593999997E+02  0.45594000000E+02  0.51100000000E-03 0. -1.
    9900012    2    1    2    0    0 -0.22696128900E+02  0.12121902623E+02 -0.18832549984E+02  0.59301957142E+02  0.50000023918E+02 0.  0.
        -12    1    1    2    0    0  0.22696128900E+02 -0.12121902623E+02  0.18832549984E+02  0.31886042858E+02  0.00000000000E+00 0.  1.
         11    1    3    3    0    0 -0.24122633857E+01  0.14837558246E+01 -0.14004743205E+02  0.14288225169E+02  0.51100000000E-03 0. -1.
        -11    1    3    3    0    0  0.54918321068E+01 -0.95390069751E+01 -0.54319474240E+01  0.12274319820E+02  0.51100000000E-03 0.  1.
        -12    1    3    3    0    0 -0.25775697621E+02  0.20177153774E+02  0.60414064521E+00  0.32739412154E+02  0.00000000000E+00 0.  1.
</event>
<event>
 7    1  0.6953847E-012  0.5930195E+02  0.7816164E-02  0.1266605E+00
        -11   -1    0    0    0    0  0.00000000000E+00  0.00000000000E+00  0.45593999997E+02  0.45594000000E+02  0.51100000000E-03 0. -1.
         11   -1    0    0    0    0 -0.00000000000E+00 -0.00000000000E+00 -0.45593999997E+02  0.45594000000E+02  0.51100000000E-03 0.  1.
    9900012    2    1    2    0    0  0.28460554742E+01 -0.30711734437E+02  0.80876283417E+01  0.59301946684E+02  0.50000004845E+02 0.  0.
        -12    1    1    2    0    0 -0.28460554742E+01  0.30711734437E+02 -0.80876283417E+01  0.31886053316E+02  0.00000000000E+00 0.  1.
         11    1    3    3    0    0  0.62338394005E+01  0.44504490921E+01  0.50109859540E+01  0.91529902920E+01  0.51100000000E-03 0. -1.
        -11    1    3    3    0    0 -0.17064934465E+02 -0.86419167774E+01  0.62924784521E+01  0.20136782246E+02  0.51100000000E-03 0.  1.
        -12    1    3    3    0    0  0.13677150538E+02 -0.26520266751E+02 -0.32158360645E+01  0.30012174147E+02  0.00000000000E+00 0.  1.
</event>
<event>
 7    1  0.6953847E-012  0.5930190E+02  0.7816164E-02  0.1266605E+00
        -11   -1    0    0    0    0  0.00000000000E+00  0.00000000000E+00  0.45593999997E+02  0.45594000000E+02  0.51100000000E-03 0.  1.
         11   -1    0    0    0    0 -0.00000000000E+00 -0.00000000000E+00 -0.45593999997E+02  0.45594000000E+02  0.51100000000E-03 0. -1.
    9900012    2    1    2    0    0  0.21236372908E+02 -0.20026079134E+02 -0.12833384270E+02  0.59301903788E+02  0.49999926613E+02 0.  0.
        -12    1    1    2    0    0 -0.21236372908E+02  0.20026079134E+02  0.12833384270E+02  0.31886096212E+02  0.00000000000E+00 0.  1.
         11    1    3    3    0    0  0.18261115877E+02 -0.80304930614E+01  0.15747524453E+02  0.25415383108E+02  0.51100000000E-03 0. -1.
        -11    1    3    3    0    0  0.20223018963E+00  0.85115354277E+00  0.11120887877E+01  0.14149562311E+01  0.51100000000E-03 0.  1.
         12    1    3    3    0    0  0.27730268418E+01 -0.12846739616E+02 -0.29692997511E+02  0.32471564449E+02  0.00000000000E+00 0. -1.
</event>
<event>
 7    1  0.6953847E-012  0.5930190E+02  0.7816164E-02  0.1266605E+00
        -11   -1    0    0    0    0  0.00000000000E+00  0.00000000000E+00  0.45593999997E+02  0.45594000000E+02  0.51100000000E-03 0.  1.
         11   -1    0    0    0    0 -0.00000000000E+00 -0.00000000000E+00 -0.45593999997E+02  0.45594000000E+02  0.51100000000E-03 0. -1.
    9900012    2    1    2    0    0  0.21238183632E+02 -0.22091137216E+02 -0.88116254339E+01  0.59301897537E+02  0.49999915213E+02 0.  0.
        -12    1    1    2    0    0 -0.21238183632E+02  0.22091137216E+02  0.88116254339E+01  0.31886102463E+02  0.00000000000E+00 0.  1.
         11    1    3    3    0    0  0.15352889939E+02 -0.22832860947E+02 -0.22352156415E+02  0.35449536883E+02  0.51100000000E-03 0. -1.
        -11    1    3    3    0    0  0.19802988089E+01  0.22548234184E+01 -0.44574789488E+01  0.53735398818E+01  0.51100000000E-03 0.  1.
        -12    1    3    3    0    0  0.39049948835E+01 -0.15130996871E+01  0.17998009930E+02  0.18478820773E+02  0.00000000000E+00 0.  1.
</event>
<event>
 7    1  0.6953847E-012  0.5930194E+02  0.7816164E-02  0.1266605E+00
        -11   -1    0    0    0    0  0.00000000000E+00  0.00000000000E+00  0.45593999997E+02  0.45594000000E+02  0.51100000000E-03 0. -1.
         11   -1    0    0    0    0 -0.00000000000E+00 -0.00000000000E+00 -0.45593999997E+02  0.45594000000E+02  0.51100000000E-03 0.  1.
    9900012    2    1    2    0    0  0.24425861066E+01  0.31139765000E+02  0.64085445886E+01  0.59301942940E+02  0.49999998015E+02 0.  0.
        -12    1    1    2    0    0 -0.24425861066E+01 -0.31139765000E+02 -0.64085445886E+01  0.31886057060E+02  0.00000000000E+00 0.  1.
         11    1    3    3    0    0  0.14137778246E+02  0.96154484385E+01  0.20859975379E+01  0.17224546682E+02  0.51100000000E-03 0.  1.
        -11    1    3    3    0    0 -0.18838052502E+02  0.13807241071E+02 -0.90651828855E+01  0.25053735631E+02  0.51100000000E-03 0. -1.
         12    1    3    3    0    0  0.71428603632E+01  0.77170754899E+01  0.13387729936E+02  0.17023660627E+02  0.00000000000E+00 0. -1.
</event>
<event>
 7    1  0.6953847E-012  0.5930199E+02  0.7816164E-02  0.1266605E+00
        -11   -1    0    0    0    0  0.00000000000E+00  0.00000000000E+00  0.45593999997E+02  0.45594000000E+02  0.51100000000E-03 0.  1.
         11   -1    0    0    0    0 -0.00000000000E+00 -0.00000000000E+00 -0.45593999997E+02  0.45594000000E+02  0.51100000000E-03 0. -1.
    9900012    2    1    2    0    0 -0.79149744108E+01  0.12574828189E+02 -0.28212486521E+02  0.59301991789E+02  0.50000087105E+02 0.  0.
        -12    1    1    2    0    0  0.79149744108E+01 -0.12574828189E+02  0.28212486521E+02  0.31886008211E+02  0.00000000000E+00 0.  1.
         11    1    3    3    0    0 -0.10517168831E+02  0.39237311763E+01  0.26365395166E+01  0.11530734905E+02  0.51100000000E-03 0. -1.
        -11    1    3    3    0    0 -0.53002270314E+01 -0.34966073103E+01 -0.32564862368E+02  0.33178139347E+02  0.51100000000E-03 0.  1.
         12    1    3    3    0    0  0.79024214519E+01  0.12147704323E+02  0.17158363295E+01  0.14593117536E+02  0.00000000000E+00 0. -1.
</event>
<event>
 7    1  0.6953847E-012  0.5930202E+02  0.7816164E-02  0.1266604E+00
        -11   -1    0    0    0    0  0.00000000000E+00  0.00000000000E+00  0.45593999997E+02  0.45594000000E+02  0.51100000000E-03 0. -1.
         11   -1    0    0    0    0 -0.00000000000E+00 -0.00000000000E+00 -0.45593999997E+02  0.45594000000E+02  0.51100000000E-03 0.  1.
    9900012    2    1    2    0    0 -0.19555345971E+02 -0.12474123809E+02 -0.21879217303E+02  0.59302023919E+02  0.50000145702E+02 0.  0.
        -12    1    1    2    0    0  0.19555345971E+02  0.12474123809E+02  0.21879217303E+02  0.31885976081E+02  0.00000000000E+00 0.  1.
         11    1    3    3    0    0 -0.22890032771E+02  0.29890905969E+01 -0.72123741573E+01  0.24184842445E+02  0.51100000000E-03 0.  1.
        -11    1    3    3    0    0  0.21674787195E+01 -0.12362243276E+02  0.61931750826E+01  0.13995657922E+02  0.51100000000E-03 0. -1.
         12    1    3    3    0    0  0.11672080805E+01 -0.31009711309E+01 -0.20860018228E+02  0.21121523552E+02  0.00000000000E+00 0. -1.
</event>
<event>
 7    1  0.6953847E-012  0.5930194E+02  0.7816164E-02  0.1266605E+00
        -11   -1    0    0    0    0  0.00000000000E+00  0.00000000000E+00  0.45593999997E+02  0.45594000000E+02  0.51100000000E-03 0.  1.
         11   -1    0    0    0    0 -0.00000000000E+00 -0.00000000000E+00 -0.45593999997E+02  0.45594000000E+02  0.51100000000E-03 0. -1.
    9900012    2    1    2    0    0  0.31428621906E+02 -0.85244827952E+00 -0.53137573343E+01  0.59301937841E+02  0.49999988717E+02 0.  0.
        -12    1    1    2    0    0 -0.31428621906E+02  0.85244827952E+00  0.53137573343E+01  0.31886062159E+02  0.00000000000E+00 0.  1.
         11    1    3    3    0    0  0.18225812086E+02 -0.16806571686E+02  0.95995123071E+00  0.24810533744E+02  0.51100000000E-03 0. -1.
        -11    1    3    3    0    0  0.18290535047E+02  0.50116680980E+01  0.30930989413E+01  0.19215299914E+02  0.51100000000E-03 0.  1.
        -12    1    3    3    0    0 -0.50877252266E+01  0.10942455309E+02 -0.93668075064E+01  0.15276104184E+02  0.00000000000E+00 0.  1.
</event>
<event>
 7    1  0.6953847E-012  0.5930181E+02  0.7816164E-02  0.1266605E+00
        -11   -1    0    0    0    0  0.00000000000E+00  0.00000000000E+00  0.45593999997E+02  0.45594000000E+02  0.51100000000E-03 0. -1.
         11   -1    0    0    0    0 -0.00000000000E+00 -0.00000000000E+00 -0.45593999997E+02  0.45594000000E+02  0.51100000000E-03 0.  1.
    9900012    2    1    2    0    0 -0.30530105180E+02  0.59770840599E+01 -0.69940295867E+01  0.59301806968E+02  0.49999750036E+02 0.  0.
        -12    1    1    2    0    0  0.30530105180E+02 -0.59770840599E+01  0.69940295867E+01  0.31886193032E+02  0.00000000000E+00 0.  1.
         11    1    3    3    0    0 -0.19151562751E+02  0.49704727912E+01 -0.15852759038E+01  0.19849459829E+02  0.51100000000E-03 0. -1.
        -11    1    3    3    0    0 -0.36874560513E+01  0.18961081523E+02 -0.48315101716E+01  0.19911389591E+02  0.51100000000E-03 0.  1.
        -12    1    3    3    0    0 -0.76910863783E+01 -0.17954470255E+02 -0.57724351133E+00  0.19540957547E+02  0.00000000000E+00 0.  1.
</event>
<event>
 7    1  0.6953847E-012  0.5930192E+02  0.7816164E-02  0.1266605E+00
        -11   -1    0    0    0    0  0.00000000000E+00  0.00000000000E+00  0.45593999997E+02  0.45594000000E+02  0.51100000000E-03 0.  1.
         11   -1    0    0    0    0 -0.00000000000E+00 -0.00000000000E+00 -0.45593999997E+02  0.45594000000E+02  0.51100000000E-03 0. -1.
    9900012    2    1    2    0    0 -0.25268658295E+02 -0.16245206379E+01 -0.19379829120E+02  0.59301922536E+02  0.49999960805E+02 0.  0.
        -12    1    1    2    0    0  0.25268658295E+02  0.16245206379E+01  0.19379829120E+02  0.31886077464E+02  0.00000000000E+00 0.  1.
         11    1    3    3    0    0 -0.30063131745E+02 -0.19043440847E+01 -0.46312984139E+01  0.30477325046E+02  0.51100000000E-03 0. -1.
        -11    1    3    3    0    0 -0.45152874465E-01 -0.11088694966E+02 -0.23788989625E+01  0.11341091454E+02  0.51100000000E-03 0.  1.
        -12    1    3    3    0    0  0.48396263246E+01  0.11368518413E+02 -0.12369631743E+02  0.17483506036E+02  0.00000000000E+00 0.  1.
</event>
<event>
 7    1  0.6953847E-012  0.5930191E+02  0.7816164E-02  0.1266605E+00
        -11   -1    0    0    0    0  0.00000000000E+00  0.00000000000E+00  0.45593999997E+02  0.45594000000E+02  0.51100000000E-03 0.  1.
         11   -1    0    0    0    0 -0.00000000000E+00 -0.00000000000E+00 -0.45593999997E+02  0.45594000000E+02  0.51100000000E-03 0. -1.
    9900012    2    1    2    0    0  0.46052135699E+01  0.28471962105E+02 -0.13596411547E+02  0.59301905459E+02  0.49999929660E+02 0.  0.
        -12    1    1    2    0    0 -0.46052135699E+01 -0.28471962105E+02  0.13596411547E+02  0.31886094541E+02  0.00000000000E+00 0.  1.
         11    1    3    3    0    0 -0.24483292680E+00  0.12279737910E+01 -0.42468656279E+01  0.44276100456E+01  0.51100000000E-03 0. -1.
        -11    1    3    3    0    0 -0.82260581981E+01 -0.99379123913E+01 -0.85031698459E+01  0.15451020480E+02  0.51100000000E-03 0.  1.
        -12    1    3    3    0    0  0.13076104695E+02  0.37181900705E+02 -0.84637607279E+00  0.39423274934E+02  0.00000000000E+00 0.  1.
</event>
<event>
 7    1  0.6953847E-012  0.5930195E+02  0.7816164E-02  0.1266605E+00
        -11   -1    0    0    0    0  0.00000000000E+00  0.00000000000E+00  0.45593999997E+02  0.45594000000E+02  0.51100000000E-03 0.  1.
         11   -1    0    0    0    0 -0.00000000000E+00 -0.00000000000E+00 -0.45593999997E+02  0.45594000000E+02  0.51100000000E-03 0. -1.
    9900012    2    1    2    0    0 -0.10048420375E+01 -0.11143288049E+02 -0.29858628848E+02  0.59301948304E+02  0.50000007800E+02 0.  0.
        -12    1    1    2    0    0  0.10048420375E+01  0.11143288049E+02  0.29858628848E+02  0.31886051696E+02  0.00000000000E+00 0.  1.
         11    1    3    3    0    0  0.17550305877E+01  0.11338135711E+02 -0.71220017167E+01  0.13503938776E+02  0.51100000000E-03 0. -1.
        -11    1    3    3    0    0  0.80208516046E+01 -0.20184783764E+02 -0.13790403099E+01  0.21763761359E+02  0.51100000000E-03 0.  1.
         12    1    3    3    0    0 -0.10780724230E+02 -0.22966399953E+01 -0.21357586821E+02  0.24034248168E+02  0.00000000000E+00 0. -1.
</event>
<event>
 7    1  0.6953847E-012  0.5930194E+02  0.7816164E-02  0.1266605E+00
        -11   -1    0    0    0    0  0.00000000000E+00  0.00000000000E+00  0.45593999997E+02  0.45594000000E+02  0.51100000000E-03 0.  1.
         11   -1    0    0    0    0 -0.00000000000E+00 -0.00000000000E+00 -0.45593999997E+02  0.45594000000E+02  0.51100000000E-03 0. -1.
    9900012    2    1    2    0    0  0.56581089040E+01  0.23276221941E+02  0.21045761816E+02  0.59301940435E+02  0.49999993447E+02 0.  0.
        -12    1    1    2    0    0 -0.56581089040E+01 -0.23276221941E+02 -0.21045761816E+02  0.31886059565E+02  0.00000000000E+00 0.  1.
         11    1    3    3    0    0  0.94555733544E+01  0.29626357524E+02  0.87551312584E+01  0.32307603613E+02  0.51100000000E-03 0. -1.
        -11    1    3    3    0    0  0.68857542865E+01  0.10901750453E+01  0.12111097786E+02  0.13974290092E+02  0.51100000000E-03 0.  1.
        -12    1    3    3    0    0 -0.10683218737E+02 -0.74403106284E+01  0.17953277117E+00  0.13020046730E+02  0.00000000000E+00 0.  1.
</event>
<event>
 7    1  0.6953847E-012  0.5930193E+02  0.7816164E-02  0.1266605E+00
        -11   -1    0    0    0    0  0.00000000000E+00  0.00000000000E+00  0.45593999997E+02  0.45594000000E+02  0.51100000000E-03 0.  1.
         11   -1    0    0    0    0 -0.00000000000E+00 -0.00000000000E+00 -0.45593999997E+02  0.45594000000E+02  0.51100000000E-03 0. -1.
    9900012    2    1    2    0    0  0.66927697375E+01  0.94083931422E+01 -0.29722216363E+02  0.59301934489E+02  0.49999982604E+02 0.  0.
        -12    1    1    2    0    0 -0.66927697375E+01 -0.94083931422E+01  0.29722216363E+02  0.31886065511E+02  0.00000000000E+00 0.  1.
         11    1    3    3    0    0  0.14227355538E+02  0.53717080487E+01 -0.14196414783E+02  0.20804112236E+02  0.51100000000E-03 0.  1.
        -11    1    3    3    0    0  0.59217309891E+01  0.15951744309E+02 -0.97931570024E+01  0.19632395899E+02  0.51100000000E-03 0. -1.
         12    1    3    3    0    0 -0.13456316790E+02 -0.11915059216E+02 -0.57326445773E+01  0.18865426354E+02  0.00000000000E+00 0. -1.
</event>
<event>
 7    1  0.6953847E-012  0.5930193E+02  0.7816164E-02  0.1266605E+00
        -11   -1    0    0    0    0  0.00000000000E+00  0.00000000000E+00  0.45593999997E+02  0.45594000000E+02  0.51100000000E-03 0. -1.
         11   -1    0    0    0    0 -0.00000000000E+00 -0.00000000000E+00 -0.45593999997E+02  0.45594000000E+02  0.51100000000E-03 0.  1.
    9900012    2    1    2    0    0  0.21611666211E+02 -0.89412739355E+01  0.21672816349E+02  0.59301929930E+02  0.49999974289E+02 0.  0.
        -12    1    1    2    0    0 -0.21611666211E+02  0.89412739355E+01 -0.21672816349E+02  0.31886070070E+02  0.00000000000E+00 0.  1.
         11    1    3    3    0    0  0.15829923192E+02  0.19519640865E+02  0.76502342666E+01  0.26270305144E+02  0.51100000000E-03 0. -1.
        -11    1    3    3    0    0  0.10181011524E+01 -0.33783746884E+00 -0.30017787194E+00  0.11138990654E+01  0.51100000000E-03 0.  1.
        -12    1    3    3    0    0  0.47636418667E+01 -0.28123077332E+02  0.14322759954E+02  0.31917725720E+02  0.00000000000E+00 0.  1.
</event>
<event>
 7    1  0.6953847E-012  0.5930195E+02  0.7816164E-02  0.1266605E+00
        -11   -1    0    0    0    0  0.00000000000E+00  0.00000000000E+00  0.45593999997E+02  0.45594000000E+02  0.51100000000E-03 0.  1.
         11   -1    0    0    0    0 -0.00000000000E+00 -0.00000000000E+00 -0.45593999997E+02  0.45594000000E+02  0.51100000000E-03 0. -1.
    9900012    2    1    2    0    0 -0.31022856742E+02  0.71798021068E+01 -0.16591261316E+01  0.59301954491E+02  0.50000019082E+02 0.  0.
        -12    1    1    2    0    0  0.31022856742E+02 -0.71798021068E+01  0.16591261316E+01  0.31886045509E+02  0.00000000000E+00 0.  1.
         11    1    3    3    0    0 -0.45839004918E+01  0.10101059267E+02 -0.11234763916E+02  0.15788079761E+02  0.51100000000E-03 0. -1.
        -11    1    3    3    0    0 -0.71744776758E+00 -0.13722976917E+02  0.72043810794E+01  0.15515731815E+02  0.51100000000E-03 0.  1.
         12    1    3    3    0    0 -0.25721508482E+02  0.10801719757E+02  0.23712567051E+01  0.27998142915E+02  0.00000000000E+00 0. -1.
</event>
<event>
 7    1  0.6953847E-012  0.5930192E+02  0.7816164E-02  0.1266605E+00
        -11   -1    0    0    0    0  0.00000000000E+00  0.00000000000E+00  0.45593999997E+02  0.45594000000E+02  0.51100000000E-03 0.  1.
         11   -1    0    0    0    0 -0.00000000000E+00 -0.00000000000E+00 -0.45593999997E+02  0.45594000000E+02  0.51100000000E-03 0. -1.
    9900012    2    1    2    0    0 -0.28974848923E+02  0.12725926415E+02 -0.39026641487E+01  0.59301923718E+02  0.49999962960E+02 0.  0.
        -12    1    1    2    0    0  0.28974848923E+02 -0.12725926415E+02  0.39026641487E+01  0.31886076282E+02  0.00000000000E+00 0.  1.
         11    1    3    3    0    0  0.58978067947E+00  0.21481099396E+01 -0.14725437091E+02  0.14892975369E+02  0.51100000000E-03 0. -1.
        -11    1    3    3    0    0 -0.29107576076E+02  0.80644196435E+01 -0.29994496966E+01  0.30352636590E+02  0.51100000000E-03 0.  1.
        -12    1    3    3    0    0 -0.45705352618E+00  0.25133968319E+01  0.13822222639E+02  0.14056311758E+02  0.00000000000E+00 0.  1.
</event>
<event>
 7    1  0.6953847E-012  0.5930195E+02  0.7816164E-02  0.1266605E+00
        -11   -1    0    0    0    0  0.00000000000E+00  0.00000000000E+00  0.45593999997E+02  0.45594000000E+02  0.51100000000E-03 0. -1.
         11   -1    0    0    0    0 -0.00000000000E+00 -0.00000000000E+00 -0.45593999997E+02  0.45594000000E+02  0.51100000000E-03 0.  1.
    9900012    2    1    2    0    0  0.66595682202E+01 -0.25576693151E+02  0.17838247174E+02  0.59301950642E+02  0.50000012063E+02 0.  0.
        -12    1    1    2    0    0 -0.66595682202E+01  0.25576693151E+02 -0.17838247174E+02  0.31886049358E+02  0.00000000000E+00 0.  1.
         11    1    3    3    0    0 -0.64387744307E+00 -0.93276665460E+01  0.29770322050E+01  0.98123729223E+01  0.51100000000E-03 0. -1.
        -11    1    3    3    0    0  0.81116675039E+00 -0.59374598407E+01  0.29694477940E+02  0.30293125314E+02  0.51100000000E-03 0.  1.
         12    1    3    3    0    0  0.64922789129E+01 -0.10311566764E+02 -0.14833262971E+02  0.19196452406E+02  0.00000000000E+00 0. -1.
</event>
<event>
 7    1  0.6953847E-012  0.5930202E+02  0.7816164E-02  0.1266604E+00
        -11   -1    0    0    0    0  0.00000000000E+00  0.00000000000E+00  0.45593999997E+02  0.45594000000E+02  0.51100000000E-03 0.  1.
         11   -1    0    0    0    0 -0.00000000000E+00 -0.00000000000E+00 -0.45593999997E+02  0.45594000000E+02  0.51100000000E-03 0. -1.
    9900012    2    1    2    0    0  0.64496037345E+01 -0.90204049862E+01 -0.29895659815E+02  0.59302022357E+02  0.50000142854E+02 0.  0.
        -12    1    1    2    0    0 -0.64496037345E+01  0.90204049862E+01  0.29895659815E+02  0.31885977643E+02  0.00000000000E+00 0.  1.
         11    1    3    3    0    0  0.16102027793E+02  0.33486969459E+01  0.71134837538E+00  0.16461928413E+02  0.51100000000E-03 0. -1.
        -11    1    3    3    0    0  0.75421925776E+01 -0.11415461378E+01 -0.15729632525E+02  0.17481680013E+02  0.51100000000E-03 0.  1.
        -12    1    3    3    0    0 -0.17194616636E+02 -0.11227555794E+02 -0.14877375666E+02  0.25358413931E+02  0.00000000000E+00 0.  1.
</event>
<event>
 7    1  0.6953847E-012  0.5930195E+02  0.7816164E-02  0.1266605E+00
        -11   -1    0    0    0    0  0.00000000000E+00  0.00000000000E+00  0.45593999997E+02  0.45594000000E+02  0.51100000000E-03 0.  1.
         11   -1    0    0    0    0 -0.00000000000E+00 -0.00000000000E+00 -0.45593999997E+02  0.45594000000E+02  0.51100000000E-03 0. -1.
    9900012    2    1    2    0    0 -0.11887688996E+02 -0.53386075936E+01 -0.29101589002E+02  0.59301947201E+02  0.50000005787E+02 0.  0.
        -12    1    1    2    0    0  0.11887688996E+02  0.53386075936E+01  0.29101589002E+02  0.31886052799E+02  0.00000000000E+00 0.  1.
         11    1    3    3    0    0 -0.12768805378E+01 -0.10132959575E+02 -0.11322567322E+01  0.10275665391E+02  0.51100000000E-03 0. -1.
        -11    1    3    3    0    0  0.68815922554E+01 -0.13174704813E+02 -0.13469211917E+02  0.20058634769E+02  0.51100000000E-03 0.  1.
        -12    1    3    3    0    0 -0.17492400714E+02  0.17969056795E+02 -0.14500120352E+02  0.28967647040E+02  0.00000000000E+00 0.  1.
</event>
<event>
 7    1  0.6953847E-012  0.5930197E+02  0.7816164E-02  0.1266605E+00
        -11   -1    0    0    0    0  0.00000000000E+00  0.00000000000E+00  0.45593999997E+02  0.45594000000E+02  0.51100000000E-03 0. -1.
         11   -1    0    0    0    0 -0.00000000000E+00 -0.00000000000E+00 -0.45593999997E+02  0.45594000000E+02  0.51100000000E-03 0.  1.
    9900012    2    1    2    0    0 -0.63717890701E+01  0.11456979466E+02  0.29066421998E+02  0.59301969168E+02  0.50000045850E+02 0.  0.
        -12    1    1    2    0    0  0.63717890701E+01 -0.11456979466E+02 -0.29066421998E+02  0.31886030832E+02  0.00000000000E+00 0.  1.
         11    1    3    3    0    0 -0.26800897721E+01  0.14551502923E+02  0.38983891440E+01  0.15301194616E+02  0.51100000000E-03 0. -1.
        -11    1    3    3    0    0 -0.70081596858E+01 -0.65649359174E+01 -0.67410635528E+01  0.11732630731E+02  0.51100000000E-03 0.  1.
        -12    1    3    3    0    0  0.33164603879E+01  0.34704124604E+01  0.31909096407E+02  0.32268143821E+02  0.00000000000E+00 0.  1.
</event>
<event>
 7    1  0.6953847E-012  0.5930194E+02  0.7816164E-02  0.1266605E+00
        -11   -1    0    0    0    0  0.00000000000E+00  0.00000000000E+00  0.45593999997E+02  0.45594000000E+02  0.51100000000E-03 0. -1.
         11   -1    0    0    0    0 -0.00000000000E+00 -0.00000000000E+00 -0.45593999997E+02  0.45594000000E+02  0.51100000000E-03 0.  1.
    9900012    2    1    2    0    0  0.90556145579E+01 -0.30248498365E+02  0.44435412162E+01  0.59301939301E+02  0.49999991380E+02 0.  0.
        -12    1    1    2    0    0 -0.90556145579E+01  0.30248498365E+02 -0.44435412162E+01  0.31886060699E+02  0.00000000000E+00 0.  1.
         11    1    3    3    0    0 -0.20794017620E+01  0.29646348918E+00 -0.16701245090E+01  0.26834899710E+01  0.51100000000E-03 0. -1.
        -11    1    3    3    0    0 -0.10257503479E+02  0.73671377890E+01 -0.20744653740E+00  0.12630682133E+02  0.51100000000E-03 0.  1.
         12    1    3    3    0    0  0.21392519799E+02 -0.37912099643E+02  0.63211122626E+01  0.43987767197E+02  0.00000000000E+00 0. -1.
</event>
<event>
 7    1  0.6953847E-012  0.5930194E+02  0.7816164E-02  0.1266605E+00
        -11   -1    0    0    0    0  0.00000000000E+00  0.00000000000E+00  0.45593999997E+02  0.45594000000E+02  0.51100000000E-03 0. -1.
         11   -1    0    0    0    0 -0.00000000000E+00 -0.00000000000E+00 -0.45593999997E+02  0.45594000000E+02  0.51100000000E-03 0.  1.
    9900012    2    1    2    0    0  0.10506903374E+02  0.27807936876E+02  0.11534496847E+02  0.59301937381E+02  0.49999987879E+02 0.  0.
        -12    1    1    2    0    0 -0.10506903374E+02 -0.27807936876E+02 -0.11534496847E+02  0.31886062619E+02  0.00000000000E+00 0.  1.
         11    1    3    3    0    0  0.51568276939E+01 -0.24277318360E+01 -0.53910287928E+01  0.78453773292E+01  0.51100000000E-03 0. -1.
        -11    1    3    3    0    0 -0.84170760467E+01 -0.56348703196E+01  0.44133866796E+01  0.11048842244E+02  0.51100000000E-03 0.  1.
         12    1    3    3    0    0  0.13767151727E+02  0.35870539031E+02  0.12512138960E+02  0.40407717808E+02  0.00000000000E+00 0. -1.
</event>
<event>
 7    1  0.6953847E-012  0.5930189E+02  0.7816164E-02  0.1266605E+00
        -11   -1    0    0    0    0  0.00000000000E+00  0.00000000000E+00  0.45593999997E+02  0.45594000000E+02  0.51100000000E-03 0. -1.
         11   -1    0    0    0    0 -0.00000000000E+00 -0.00000000000E+00 -0.45593999997E+02  0.45594000000E+02  0.51100000000E-03 0.  1.
    9900012    2    1    2    0    0 -0.14768415780E+02 -0.21427350951E+02  0.18425156865E+02  0.59301892070E+02  0.49999905241E+02 0.  0.
        -12    1    1    2    0    0  0.14768415780E+02  0.21427350951E+02 -0.18425156865E+02  0.31886107930E+02  0.00000000000E+00 0.  1.
         11    1    3    3    0    0  0.13204542942E+01 -0.73737057050E+01 -0.95999781484E+01  0.12176810587E+02  0.51100000000E-03 0. -1.
        -11    1    3    3    0    0 -0.60845168985E+01 -0.11723181732E+01 -0.64760421425E+01  0.89629681400E+01  0.51100000000E-03 0.  1.
         12    1    3    3    0    0 -0.10004353176E+02 -0.12881327073E+02  0.34501177155E+02  0.38162113342E+02  0.00000000000E+00 0. -1.
</event>
<event>
 7    1  0.6953847E-012  0.5930197E+02  0.7816164E-02  0.1266605E+00
        -11   -1    0    0    0    0  0.00000000000E+00  0.00000000000E+00  0.45593999997E+02  0.45594000000E+02  0.51100000000E-03 0.  1.
         11   -1    0    0    0    0 -0.00000000000E+00 -0.00000000000E+00 -0.45593999997E+02  0.45594000000E+02  0.51100000000E-03 0. -1.
    9900012    2    1    2    0    0  0.14684046902E+02 -0.87100573131E+01  0.26930140617E+02  0.59301971626E+02  0.50000050333E+02 0.  0.
        -12    1    1    2    0    0 -0.14684046902E+02  0.87100573131E+01 -0.26930140617E+02  0.31886028374E+02  0.00000000000E+00 0.  1.
         11    1    3    3    0    0  0.18849972234E+02 -0.11904230776E+02  0.18333788837E+02  0.28864510683E+02  0.51100000000E-03 0. -1.
        -11    1    3    3    0    0  0.73800641293E+01  0.26564986049E+01 -0.73456364449E+01  0.10746194975E+02  0.51100000000E-03 0.  1.
        -12    1    3    3    0    0 -0.11545989461E+02  0.53767485754E+00  0.15941988225E+02  0.19691265969E+02  0.00000000000E+00 0.  1.
</event>
<event>
 7    1  0.6953847E-012  0.5930196E+02  0.7816164E-02  0.1266605E+00
        -11   -1    0    0    0    0  0.00000000000E+00  0.00000000000E+00  0.45593999997E+02  0.45594000000E+02  0.51100000000E-03 0.  1.
         11   -1    0    0    0    0 -0.00000000000E+00 -0.00000000000E+00 -0.45593999997E+02  0.45594000000E+02  0.51100000000E-03 0. -1.
    9900012    2    1    2    0    0  0.72921590379E+01 -0.63692286483E+01 -0.30380534698E+02  0.59301960021E+02  0.50000029167E+02 0.  0.
        -12    1    1    2    0    0 -0.72921590379E+01  0.63692286483E+01  0.30380534698E+02  0.31886039979E+02  0.00000000000E+00 0.  1.
         11    1    3    3    0    0 -0.76759330050E+01 -0.30075674545E+01 -0.30269167856E+02  0.31371769674E+02  0.51100000000E-03 0. -1.
        -11    1    3    3    0    0 -0.24148433181E+01 -0.76928175964E+01 -0.48376105374E+01  0.94028392943E+01  0.51100000000E-03 0.  1.
        -12    1    3    3    0    0  0.17382935361E+02  0.43311564026E+01  0.47262436955E+01  0.18527351052E+02  0.00000000000E+00 0.  1.
</event>
<event>
 7    1  0.6953847E-012  0.5930190E+02  0.7816164E-02  0.1266605E+00
        -11   -1    0    0    0    0  0.00000000000E+00  0.00000000000E+00  0.45593999997E+02  0.45594000000E+02  0.51100000000E-03 0.  1.
         11   -1    0    0    0    0 -0.00000000000E+00 -0.00000000000E+00 -0.45593999997E+02  0.45594000000E+02  0.51100000000E-03 0. -1.
    9900012    2    1    2    0    0  0.20402902497E+02 -0.18257370613E+02 -0.16343594632E+02  0.59301904324E+02  0.49999927590E+02 0.  0.
        -12    1    1    2    0    0 -0.20402902497E+02  0.18257370613E+02  0.16343594632E+02  0.31886095676E+02  0.00000000000E+00 0.  1.
         11    1    3    3    0    0  0.13690840210E+02 -0.90705614876E+01  0.52807073472E+01  0.17251088711E+02  0.51100000000E-03 0. -1.
        -11    1    3    3    0    0 -0.16679215920E+00 -0.88300926045E-02  0.91794634509E+01  0.91809829050E+01  0.51100000000E-03 0.  1.
         12    1    3    3    0    0  0.68788544459E+01 -0.91779790327E+01 -0.30803765430E+02  0.32869832708E+02  0.00000000000E+00 0. -1.
</event>
<event>
 7    1  0.6953847E-012  0.5930195E+02  0.7816164E-02  0.1266605E+00
        -11   -1    0    0    0    0  0.00000000000E+00  0.00000000000E+00  0.45593999997E+02  0.45594000000E+02  0.51100000000E-03 0. -1.
         11   -1    0    0    0    0 -0.00000000000E+00 -0.00000000000E+00 -0.45593999997E+02  0.45594000000E+02  0.51100000000E-03 0.  1.
    9900012    2    1    2    0    0  0.20451920310E+02 -0.14236060876E+02  0.19894067961E+02  0.59301946408E+02  0.50000004341E+02 0.  0.
        -12    1    1    2    0    0 -0.20451920310E+02  0.14236060876E+02 -0.19894067961E+02  0.31886053592E+02  0.00000000000E+00 0.  1.
         11    1    3    3    0    0  0.93294425269E+01  0.41479003716E+01 -0.41681745722E+01  0.11028021349E+02  0.51100000000E-03 0. -1.
        -11    1    3    3    0    0  0.94646653286E+01  0.85117306294E+01  0.93491659659E+00  0.12763366225E+02  0.51100000000E-03 0.  1.
        -12    1    3    3    0    0  0.16578124546E+01 -0.26895691878E+02  0.23127325936E+02  0.35510558834E+02  0.00000000000E+00 0.  1.
</event>
<event>
 7    1  0.6953847E-012  0.5930197E+02  0.7816164E-02  0.1266605E+00
        -11   -1    0    0    0    0  0.00000000000E+00  0.00000000000E+00  0.45593999997E+02  0.45594000000E+02  0.51100000000E-03 0. -1.
         11   -1    0    0    0    0 -0.00000000000E+00 -0.00000000000E+00 -0.45593999997E+02  0.45594000000E+02  0.51100000000E-03 0.  1.
    9900012    2    1    2    0    0 -0.81008399127E+01  0.10317952174E+02  0.29062605163E+02  0.59301972288E+02  0.50000051540E+02 0.  0.
        -12    1    1    2    0    0  0.81008399127E+01 -0.10317952174E+02 -0.29062605163E+02  0.31886027712E+02  0.00000000000E+00 0.  1.
         11    1    3    3    0    0 -0.19264807985E+02  0.46546328628E+01  0.25983637765E+02  0.32679471623E+02  0.51100000000E-03 0. -1.
        -11    1    3    3    0    0 -0.41527077401E+01  0.69316428488E+01  0.70776051612E+01  0.10741747960E+02  0.51100000000E-03 0.  1.
        -12    1    3    3    0    0  0.15316675812E+02 -0.12683235377E+01 -0.39986377624E+01  0.15880752706E+02  0.00000000000E+00 0.  1.
</event>
<event>
 7    1  0.6953847E-012  0.5930195E+02  0.7816164E-02  0.1266605E+00
        -11   -1    0    0    0    0  0.00000000000E+00  0.00000000000E+00  0.45593999997E+02  0.45594000000E+02  0.51100000000E-03 0.  1.
         11   -1    0    0    0    0 -0.00000000000E+00 -0.00000000000E+00 -0.45593999997E+02  0.45594000000E+02  0.51100000000E-03 0. -1.
    9900012    2    1    2    0    0  0.95040071120E+01  0.30320690921E+02  0.26551611491E+01  0.59301947723E+02  0.50000006739E+02 0.  0.
        -12    1    1    2    0    0 -0.95040071120E+01 -0.30320690921E+02 -0.26551611491E+01  0.31886052277E+02  0.00000000000E+00 0.  1.
         11    1    3    3    0    0  0.98687557175E+00  0.13758533026E+02 -0.13493017267E+02  0.19295923654E+02  0.51100000000E-03 0. -1.
        -11    1    3    3    0    0  0.57857427573E+01  0.64488521825E+01 -0.91643609974E+01  0.12611424443E+02  0.51100000000E-03 0.  1.
        -12    1    3    3    0    0  0.27313887829E+01  0.10113305712E+02  0.25312539413E+02  0.27394599626E+02  0.00000000000E+00 0.  1.
</event>
<event>
 7    1  0.6953847E-012  0.5930192E+02  0.7816164E-02  0.1266605E+00
        -11   -1    0    0    0    0  0.00000000000E+00  0.00000000000E+00  0.45593999997E+02  0.45594000000E+02  0.51100000000E-03 0. -1.
         11   -1    0    0    0    0 -0.00000000000E+00 -0.00000000000E+00 -0.45593999997E+02  0.45594000000E+02  0.51100000000E-03 0.  1.
    9900012    2    1    2    0    0  0.31834533189E+02 -0.15302062977E+01  0.97113567438E+00  0.59301919350E+02  0.49999954995E+02 0.  0.
        -12    1    1    2    0    0 -0.31834533189E+02  0.15302062977E+01 -0.97113567438E+00  0.31886080650E+02  0.00000000000E+00 0.  1.
         11    1    3    3    0    0  0.38373826814E+02  0.35264836029E+01  0.71952222121E+01  0.39201503720E+02  0.51100000000E-03 0. -1.
        -11    1    3    3    0    0 -0.29597381224E+01  0.55864337362E+01 -0.62237148102E+01  0.88714665046E+01  0.51100000000E-03 0.  1.
        -12    1    3    3    0    0 -0.35795555022E+01 -0.10643123637E+02 -0.37172747152E-03  0.11228949126E+02  0.00000000000E+00 0.  1.
</event>
<event>
 7    1  0.6953847E-012  0.5930193E+02  0.7816164E-02  0.1266605E+00
        -11   -1    0    0    0    0  0.00000000000E+00  0.00000000000E+00  0.45593999997E+02  0.45594000000E+02  0.51100000000E-03 0. -1.
         11   -1    0    0    0    0 -0.00000000000E+00 -0.00000000000E+00 -0.45593999997E+02  0.45594000000E+02  0.51100000000E-03 0.  1.
    9900012    2    1    2    0    0 -0.15164750996E+02  0.18241830477E+02  0.21306983332E+02  0.59301927952E+02  0.49999970682E+02 0.  0.
        -12    1    1    2    0    0  0.15164750996E+02 -0.18241830477E+02 -0.21306983332E+02  0.31886072048E+02  0.00000000000E+00 0.  1.
         11    1    3    3    0    0  0.27105241577E+00 -0.48552234162E+01  0.86770521836E+01  0.99467531733E+01  0.51100000000E-03 0. -1.
        -11    1    3    3    0    0 -0.13049324361E+02 -0.45859732188E+01 -0.68364820701E+01  0.15428982598E+02  0.51100000000E-03 0.  1.
         12    1    3    3    0    0 -0.23864790511E+01  0.27683027112E+02  0.19466413218E+02  0.33926192181E+02  0.00000000000E+00 0. -1.
</event>
<event>
 7    1  0.6953847E-012  0.5930195E+02  0.7816164E-02  0.1266605E+00
        -11   -1    0    0    0    0  0.00000000000E+00  0.00000000000E+00  0.45593999997E+02  0.45594000000E+02  0.51100000000E-03 0.  1.
         11   -1    0    0    0    0 -0.00000000000E+00 -0.00000000000E+00 -0.45593999997E+02  0.45594000000E+02  0.51100000000E-03 0. -1.
    9900012    2    1    2    0    0 -0.29624212616E+01  0.21812026937E+02 -0.23069021757E+02  0.59301949388E+02  0.50000009776E+02 0.  0.
        -12    1    1    2    0    0  0.29624212616E+01 -0.21812026937E+02  0.23069021757E+02  0.31886050612E+02  0.00000000000E+00 0.  1.
         11    1    3    3    0    0 -0.63375354027E+01  0.17472042320E+01 -0.57795998987E+01  0.87533338139E+01  0.51100000000E-03 0. -1.
        -11    1    3    3    0    0 -0.16950077051E+02 -0.23903223338E+01 -0.47228043071E+01  0.17757354355E+02  0.51100000000E-03 0.  1.
         12    1    3    3    0    0  0.20325191192E+02  0.22455145038E+02 -0.12566617551E+02  0.32791261219E+02  0.00000000000E+00 0. -1.
</event>
<event>
 7    1  0.6953847E-012  0.5930194E+02  0.7816164E-02  0.1266605E+00
        -11   -1    0    0    0    0  0.00000000000E+00  0.00000000000E+00  0.45593999997E+02  0.45594000000E+02  0.51100000000E-03 0. -1.
         11   -1    0    0    0    0 -0.00000000000E+00 -0.00000000000E+00 -0.45593999997E+02  0.45594000000E+02  0.51100000000E-03 0.  1.
    9900012    2    1    2    0    0 -0.21528341487E+02 -0.21097103917E+02  0.10400157612E+02  0.59301944126E+02  0.50000000179E+02 0.  0.
        -12    1    1    2    0    0  0.21528341487E+02  0.21097103917E+02 -0.10400157612E+02  0.31886055874E+02  0.00000000000E+00 0.  1.
         11    1    3    3    0    0 -0.18968286338E+02 -0.46925415156E+01 -0.36432477565E+01  0.19876848013E+02  0.51100000000E-03 0. -1.
        -11    1    3    3    0    0 -0.11686082527E+02 -0.25460544263E+01 -0.60192551154E+01  0.13389486562E+02  0.51100000000E-03 0.  1.
         12    1    3    3    0    0  0.91260273785E+01 -0.13858507975E+02  0.20062660483E+02  0.26035609551E+02  0.00000000000E+00 0. -1.
</event>
<event>
 7    1  0.6953847E-012  0.5930192E+02  0.7816164E-02  0.1266605E+00
        -11   -1    0    0    0    0  0.00000000000E+00  0.00000000000E+00  0.45593999997E+02  0.45594000000E+02  0.51100000000E-03 0. -1.
         11   -1    0    0    0    0 -0.00000000000E+00 -0.00000000000E+00 -0.45593999997E+02  0.45594000000E+02  0.51100000000E-03 0.  1.
    9900012    2    1    2    0    0 -0.16276092627E+02  0.46195586144E+01  0.27027214650E+02  0.59301923968E+02  0.49999963415E+02 0.  0.
        -12    1    1    2    0    0  0.16276092627E+02 -0.46195586144E+01 -0.27027214650E+02  0.31886076032E+02  0.00000000000E+00 0.  1.
         11    1    3    3    0    0 -0.62145974796E+01  0.18877822912E+02  0.70680603862E+01  0.21093859240E+02  0.51100000000E-03 0. -1.
        -11    1    3    3    0    0  0.92625827938E+01 -0.14309730324E+01  0.52393943201E+01  0.10737521918E+02  0.51100000000E-03 0.  1.
         12    1    3    3    0    0 -0.19324077941E+02 -0.12827291265E+02  0.14719759944E+02  0.27470542810E+02  0.00000000000E+00 0. -1.
</event>
<event>
 7    1  0.6953847E-012  0.5930194E+02  0.7816164E-02  0.1266605E+00
        -11   -1    0    0    0    0  0.00000000000E+00  0.00000000000E+00  0.45593999997E+02  0.45594000000E+02  0.51100000000E-03 0.  1.
         11   -1    0    0    0    0 -0.00000000000E+00 -0.00000000000E+00 -0.45593999997E+02  0.45594000000E+02  0.51100000000E-03 0. -1.
    9900012    2    1    2    0    0 -0.94884776509E+01 -0.23969853769E+02 -0.18765283945E+02  0.59301937537E+02  0.49999988162E+02 0.  0.
        -12    1    1    2    0    0  0.94884776509E+01  0.23969853769E+02  0.18765283945E+02  0.31886062463E+02  0.00000000000E+00 0.  1.
         11    1    3    3    0    0 -0.12148413478E+02 -0.26107523379E+02 -0.87088007640E+01  0.30083715496E+02  0.51100000000E-03 0. -1.
        -11    1    3    3    0    0 -0.60227146822E+01  0.57459992060E+01  0.62403641889E+01  0.10403448682E+02  0.51100000000E-03 0.  1.
        -12    1    3    3    0    0  0.86826505088E+01 -0.36083295964E+01 -0.16296847370E+02  0.18814773359E+02  0.00000000000E+00 0.  1.
</event>
<event>
 7    1  0.6953847E-012  0.5930229E+02  0.7816164E-02  0.1266604E+00
        -11   -1    0    0    0    0  0.00000000000E+00  0.00000000000E+00  0.45593999997E+02  0.45594000000E+02  0.51100000000E-03 0. -1.
         11   -1    0    0    0    0 -0.00000000000E+00 -0.00000000000E+00 -0.45593999997E+02  0.45594000000E+02  0.51100000000E-03 0.  1.
    9900012    2    1    2    0    0 -0.27389076447E+02  0.16317855793E+02 -0.51415712318E+00  0.59302293424E+02  0.50000637210E+02 0.  0.
        -12    1    1    2    0    0  0.27389076447E+02 -0.16317855793E+02  0.51415712318E+00  0.31885706576E+02  0.00000000000E+00 0.  1.
         11    1    3    3    0    0 -0.11606711393E+02  0.44593048735E-01 -0.15747587330E+02  0.19562828141E+02  0.51100000000E-03 0. -1.
        -11    1    3    3    0    0  0.90885471304E+00 -0.75521325862E+01  0.28481136254E+01  0.81223441797E+01  0.51100000000E-03 0.  1.
         12    1    3    3    0    0 -0.16691219767E+02  0.23825395331E+02  0.12385316582E+02  0.31617121103E+02  0.00000000000E+00 0. -1.
</event>
<event>
 7    1  0.6953847E-012  0.5930194E+02  0.7816164E-02  0.1266605E+00
        -11   -1    0    0    0    0  0.00000000000E+00  0.00000000000E+00  0.45593999997E+02  0.45594000000E+02  0.51100000000E-03 0. -1.
         11   -1    0    0    0    0 -0.00000000000E+00 -0.00000000000E+00 -0.45593999997E+02  0.45594000000E+02  0.51100000000E-03 0.  1.
    9900012    2    1    2    0    0  0.34019631554E+01 -0.26102550996E+02  0.17994560643E+02  0.59301941376E+02  0.49999995164E+02 0.  0.
        -12    1    1    2    0    0 -0.34019631554E+01  0.26102550996E+02 -0.17994560643E+02  0.31886058624E+02  0.00000000000E+00 0.  1.
         11    1    3    3    0    0 -0.86326635097E+01 -0.13869865099E+02  0.10009108801E+02  0.19159287471E+02  0.51100000000E-03 0. -1.
        -11    1    3    3    0    0  0.90522188797E+00  0.71877733304E+01  0.15023340487E+02  0.16678857029E+02  0.51100000000E-03 0.  1.
        -12    1    3    3    0    0  0.11129404777E+02 -0.19420459228E+02 -0.70378886453E+01  0.23463796877E+02  0.00000000000E+00 0.  1.
</event>
<event>
 7    1  0.6953847E-012  0.5930193E+02  0.7816164E-02  0.1266605E+00
        -11   -1    0    0    0    0  0.00000000000E+00  0.00000000000E+00  0.45593999997E+02  0.45594000000E+02  0.51100000000E-03 0. -1.
         11   -1    0    0    0    0 -0.00000000000E+00 -0.00000000000E+00 -0.45593999997E+02  0.45594000000E+02  0.51100000000E-03 0.  1.
    9900012    2    1    2    0    0  0.19654644603E+02 -0.58519133241E+01  0.24416629928E+02  0.59301925280E+02  0.49999965809E+02 0.  0.
        -12    1    1    2    0    0 -0.19654644603E+02  0.58519133241E+01 -0.24416629928E+02  0.31886074720E+02  0.00000000000E+00 0.  1.
         11    1    3    3    0    0  0.98023397677E+01 -0.68317837284E+01 -0.12497691535E+01  0.12013369928E+02  0.51100000000E-03 0. -1.
        -11    1    3    3    0    0  0.19758035946E+02  0.15034973316E+01  0.46350562969E-01  0.19815212270E+02  0.51100000000E-03 0.  1.
         12    1    3    3    0    0 -0.99057311108E+01 -0.52362692720E+00  0.25620048518E+02  0.27473343081E+02  0.00000000000E+00 0. -1.
</event>
<event>
 7    1  0.6953847E-012  0.5930194E+02  0.7816164E-02  0.1266605E+00
        -11   -1    0    0    0    0  0.00000000000E+00  0.00000000000E+00  0.45593999997E+02  0.45594000000E+02  0.51100000000E-03 0.  1.
         11   -1    0    0    0    0 -0.00000000000E+00 -0.00000000000E+00 -0.45593999997E+02  0.45594000000E+02  0.51100000000E-03 0. -1.
    9900012    2    1    2    0    0 -0.14300734852E+02  0.27489462588E+02 -0.75192513869E+01  0.59301941728E+02  0.49999995806E+02 0.  0.
        -12    1    1    2    0    0  0.14300734852E+02 -0.27489462588E+02  0.75192513869E+01  0.31886058272E+02  0.00000000000E+00 0.  1.
         11    1    3    3    0    0  0.37822886327E+01  0.89785881652E+01 -0.14835456182E+02  0.17748563692E+02  0.51100000000E-03 0. -1.
        -11    1    3    3    0    0  0.86554757243E+01  0.86986029113E+01  0.38509440463E+01  0.12861287763E+02  0.51100000000E-03 0.  1.
        -12    1    3    3    0    0 -0.26738499209E+02  0.98122715115E+01  0.34652607485E+01  0.28692090273E+02  0.00000000000E+00 0.  1.
</event>
<event>
 7    1  0.6953847E-012  0.5930191E+02  0.7816164E-02  0.1266605E+00
        -11   -1    0    0    0    0  0.00000000000E+00  0.00000000000E+00  0.45593999997E+02  0.45594000000E+02  0.51100000000E-03 0.  1.
         11   -1    0    0    0    0 -0.00000000000E+00 -0.00000000000E+00 -0.45593999997E+02  0.45594000000E+02  0.51100000000E-03 0. -1.
    9900012    2    1    2    0    0  0.12891090654E+02  0.10907506288E+02 -0.27047525040E+02  0.59301913341E+02  0.49999944035E+02 0.  0.
        -12    1    1    2    0    0 -0.12891090654E+02 -0.10907506288E+02  0.27047525040E+02  0.31886086659E+02  0.00000000000E+00 0.  1.
         11    1    3    3    0    0 -0.75256884918E+01  0.11030665018E+02 -0.76707871737E+01  0.15399757600E+02  0.51100000000E-03 0. -1.
        -11    1    3    3    0    0 -0.45059961501E+01  0.78123081076E+01  0.29753130602E+01  0.94967703636E+01  0.51100000000E-03 0.  1.
         12    1    3    3    0    0  0.24922775296E+02 -0.79354668377E+01 -0.22352050926E+02  0.34405385378E+02  0.00000000000E+00 0. -1.
</event>
<event>
 7    1  0.6953847E-012  0.5930195E+02  0.7816164E-02  0.1266605E+00
        -11   -1    0    0    0    0  0.00000000000E+00  0.00000000000E+00  0.45593999997E+02  0.45594000000E+02  0.51100000000E-03 0. -1.
         11   -1    0    0    0    0 -0.00000000000E+00 -0.00000000000E+00 -0.45593999997E+02  0.45594000000E+02  0.51100000000E-03 0.  1.
    9900012    2    1    2    0    0  0.14418729663E+01 -0.29149058005E+01  0.31719785551E+02  0.59301945543E+02  0.50000002763E+02 0.  0.
        -12    1    1    2    0    0 -0.14418729663E+01  0.29149058005E+01 -0.31719785551E+02  0.31886054457E+02  0.00000000000E+00 0.  1.
         11    1    3    3    0    0  0.94626025755E+01  0.20094034152E+02  0.12677521800E+02  0.25574022273E+02  0.51100000000E-03 0. -1.
        -11    1    3    3    0    0 -0.65194508443E+01 -0.83083036888E+01  0.15113092695E+02  0.18437372930E+02  0.51100000000E-03 0.  1.
        -12    1    3    3    0    0 -0.15012787649E+01 -0.14700636263E+02  0.39291710554E+01  0.15290550339E+02  0.00000000000E+00 0.  1.
</event>
<event>
 7    1  0.6953847E-012  0.5930195E+02  0.7816164E-02  0.1266605E+00
        -11   -1    0    0    0    0  0.00000000000E+00  0.00000000000E+00  0.45593999997E+02  0.45594000000E+02  0.51100000000E-03 0.  1.
         11   -1    0    0    0    0 -0.00000000000E+00 -0.00000000000E+00 -0.45593999997E+02  0.45594000000E+02  0.51100000000E-03 0. -1.
    9900012    2    1    2    0    0  0.10244795798E+02  0.17585658910E+02 -0.24546059430E+02  0.59301948602E+02  0.50000008342E+02 0.  0.
        -12    1    1    2    0    0 -0.10244795798E+02 -0.17585658910E+02  0.24546059430E+02  0.31886051398E+02  0.00000000000E+00 0.  1.
         11    1    3    3    0    0  0.54061166119E+01 -0.58627380892E+01  0.17145633673E+01  0.81570535444E+01  0.51100000000E-03 0.  1.
        -11    1    3    3    0    0  0.18059920958E+02  0.77503724610E+01 -0.26013482591E+01  0.19824127505E+02  0.51100000000E-03 0. -1.
         12    1    3    3    0    0 -0.13221241772E+02  0.15698024538E+02 -0.23659274538E+02  0.31320767553E+02  0.00000000000E+00 0. -1.
</event>
<event>
 7    1  0.6953847E-012  0.5930195E+02  0.7816164E-02  0.1266605E+00
        -11   -1    0    0    0    0  0.00000000000E+00  0.00000000000E+00  0.45593999997E+02  0.45594000000E+02  0.51100000000E-03 0.  1.
         11   -1    0    0    0    0 -0.00000000000E+00 -0.00000000000E+00 -0.45593999997E+02  0.45594000000E+02  0.51100000000E-03 0. -1.
    9900012    2    1    2    0    0 -0.17326914991E+02  0.23126753050E+02 -0.13477805271E+02  0.59301954076E+02  0.50000018326E+02 0.  0.
        -12    1    1    2    0    0  0.17326914991E+02 -0.23126753050E+02  0.13477805271E+02  0.31886045924E+02  0.00000000000E+00 0.  1.
         11    1    3    3    0    0 -0.11900239582E+02  0.10676523148E+02 -0.48470825035E+00  0.15994961425E+02  0.51100000000E-03 0. -1.
        -11    1    3    3    0    0 -0.13653438247E+02  0.14784844085E+02  0.72029877977E+01  0.21375009335E+02  0.51100000000E-03 0.  1.
         12    1    3    3    0    0  0.82267628382E+01 -0.23346141829E+01 -0.20196084819E+02  0.21931983316E+02  0.00000000000E+00 0. -1.
</event>
<event>
 7    1  0.6953847E-012  0.5930197E+02  0.7816164E-02  0.1266605E+00
        -11   -1    0    0    0    0  0.00000000000E+00  0.00000000000E+00  0.45593999997E+02  0.45594000000E+02  0.51100000000E-03 0. -1.
         11   -1    0    0    0    0 -0.00000000000E+00 -0.00000000000E+00 -0.45593999997E+02  0.45594000000E+02  0.51100000000E-03 0.  1.
    9900012    2    1    2    0    0  0.22414553762E+02 -0.99576680575E+01  0.20375266288E+02  0.59301970931E+02  0.50000049065E+02 0.  0.
        -12    1    1    2    0    0 -0.22414553762E+02  0.99576680575E+01 -0.20375266288E+02  0.31886029069E+02  0.00000000000E+00 0.  1.
         11    1    3    3    0    0  0.61590106196E+00  0.88938361990E+01 -0.76944266886E+00  0.89482790935E+01  0.51100000000E-03 0. -1.
        -11    1    3    3    0    0 -0.50634506080E+01  0.65195679281E+01  0.11306871520E+01  0.83319716590E+01  0.51100000000E-03 0.  1.
         12    1    3    3    0    0  0.26862103308E+02 -0.25371072185E+02  0.20014021805E+02  0.42021720178E+02  0.00000000000E+00 0. -1.
</event>
<event>
 7    1  0.6953847E-012  0.5930189E+02  0.7816164E-02  0.1266605E+00
        -11   -1    0    0    0    0  0.00000000000E+00  0.00000000000E+00  0.45593999997E+02  0.45594000000E+02  0.51100000000E-03 0. -1.
         11   -1    0    0    0    0 -0.00000000000E+00 -0.00000000000E+00 -0.45593999997E+02  0.45594000000E+02  0.51100000000E-03 0.  1.
    9900012    2    1    2    0    0  0.61903068418E+00  0.31327205945E+02  0.59115812803E+01  0.59301892923E+02  0.49999906797E+02 0.  0.
        -12    1    1    2    0    0 -0.61903068418E+00 -0.31327205945E+02 -0.59115812803E+01  0.31886107077E+02  0.00000000000E+00 0.  1.
         11    1    3    3    0    0 -0.39670517463E+01  0.52064699209E+01  0.35925076249E+01  0.74666552010E+01  0.51100000000E-03 0. -1.
        -11    1    3    3    0    0 -0.11401375471E+02  0.12556065200E+02  0.18687238775E+02  0.25236066041E+02  0.51100000000E-03 0.  1.
        -12    1    3    3    0    0  0.15987457901E+02  0.13564670824E+02 -0.16368165120E+02  0.26599171681E+02  0.00000000000E+00 0.  1.
</event>
<event>
 7    1  0.6953847E-012  0.5930194E+02  0.7816164E-02  0.1266605E+00
        -11   -1    0    0    0    0  0.00000000000E+00  0.00000000000E+00  0.45593999997E+02  0.45594000000E+02  0.51100000000E-03 0.  1.
         11   -1    0    0    0    0 -0.00000000000E+00 -0.00000000000E+00 -0.45593999997E+02  0.45594000000E+02  0.51100000000E-03 0. -1.
    9900012    2    1    2    0    0 -0.11484633906E+02 -0.18910908441E+02 -0.22960870741E+02  0.59301939422E+02  0.49999991600E+02 0.  0.
        -12    1    1    2    0    0  0.11484633906E+02  0.18910908441E+02  0.22960870741E+02  0.31886060578E+02  0.00000000000E+00 0.  1.
         11    1    3    3    0    0 -0.19730908779E+01 -0.10510188305E+01  0.30370399485E+01  0.37711192111E+01  0.51100000000E-03 0. -1.
        -11    1    3    3    0    0 -0.15567509472E+01 -0.31253776342E+02 -0.24760567148E+02  0.39903730339E+02  0.51100000000E-03 0.  1.
         12    1    3    3    0    0 -0.79547920812E+01  0.13393886732E+02 -0.12373435407E+01  0.15627089872E+02  0.00000000000E+00 0. -1.
</event>
<event>
 7    1  0.6953847E-012  0.5930193E+02  0.7816164E-02  0.1266605E+00
        -11   -1    0    0    0    0  0.00000000000E+00  0.00000000000E+00  0.45593999997E+02  0.45594000000E+02  0.51100000000E-03 0. -1.
         11   -1    0    0    0    0 -0.00000000000E+00 -0.00000000000E+00 -0.45593999997E+02  0.45594000000E+02  0.51100000000E-03 0.  1.
    9900012    2    1    2    0    0  0.10904630259E+02 -0.24690335065E+02  0.16976388972E+02  0.59301931111E+02  0.49999976442E+02 0.  0.
        -12    1    1    2    0    0 -0.10904630259E+02  0.24690335065E+02 -0.16976388972E+02  0.31886068889E+02  0.00000000000E+00 0.  1.
         11    1    3    3    0    0  0.89847827892E+00  0.11040628716E+01 -0.13923908752E+01  0.19912234060E+01  0.51100000000E-03 0. -1.
        -11    1    3    3    0    0  0.87647315400E+01  0.12435180512E+02  0.98497014781E+01  0.18123764863E+02  0.51100000000E-03 0.  1.
         12    1    3    3    0    0  0.12414204404E+01 -0.38229578448E+02  0.85190783688E+01  0.39186942842E+02  0.00000000000E+00 0. -1.
</event>
<event>
 7    1  0.6953847E-012  0.5930198E+02  0.7816164E-02  0.1266605E+00
        -11   -1    0    0    0    0  0.00000000000E+00  0.00000000000E+00  0.45593999997E+02  0.45594000000E+02  0.51100000000E-03 0. -1.
         11   -1    0    0    0    0 -0.00000000000E+00 -0.00000000000E+00 -0.45593999997E+02  0.45594000000E+02  0.51100000000E-03 0.  1.
    9900012    2    1    2    0    0 -0.55967404581E+01 -0.24100160680E+02  0.20114094541E+02  0.59301983507E+02  0.50000072001E+02 0.  0.
        -12    1    1    2    0    0  0.55967404581E+01  0.24100160680E+02 -0.20114094541E+02  0.31886016493E+02  0.00000000000E+00 0.  1.
         11    1    3    3    0    0  0.85389720032E+01 -0.26857050848E+02 -0.13886826169E+01  0.28216017841E+02  0.51100000000E-03 0. -1.
        -11    1    3    3    0    0 -0.58074101711E+01 -0.17681637789E+01 -0.14601980155E+01  0.62437644534E+01  0.51100000000E-03 0.  1.
         12    1    3    3    0    0 -0.83283022902E+01  0.45250539467E+01  0.22962975174E+02  0.24842201212E+02  0.00000000000E+00 0. -1.
</event>
<event>
 7    1  0.6953847E-012  0.5930201E+02  0.7816164E-02  0.1266605E+00
        -11   -1    0    0    0    0  0.00000000000E+00  0.00000000000E+00  0.45593999997E+02  0.45594000000E+02  0.51100000000E-03 0.  1.
         11   -1    0    0    0    0 -0.00000000000E+00 -0.00000000000E+00 -0.45593999997E+02  0.45594000000E+02  0.51100000000E-03 0. -1.
    9900012    2    1    2    0    0 -0.10252018595E+02  0.63886082197E+01 -0.29509287014E+02  0.59302012163E+02  0.50000124263E+02 0.  0.
        -12    1    1    2    0    0  0.10252018595E+02 -0.63886082197E+01  0.29509287014E+02  0.31885987837E+02  0.00000000000E+00 0.  1.
         11    1    3    3    0    0  0.11929224805E+02  0.14648650731E+02 -0.11068797644E+02  0.21895379746E+02  0.51100000000E-03 0. -1.
        -11    1    3    3    0    0 -0.11827838534E+02  0.72060937168E+01 -0.92003526145E+01  0.16627448377E+02  0.51100000000E-03 0.  1.
        -12    1    3    3    0    0 -0.10353404866E+02 -0.15466136228E+02 -0.92401367548E+01  0.20779184040E+02  0.00000000000E+00 0.  1.
</event>
<event>
 7    1  0.6953847E-012  0.5930194E+02  0.7816164E-02  0.1266605E+00
        -11   -1    0    0    0    0  0.00000000000E+00  0.00000000000E+00  0.45593999997E+02  0.45594000000E+02  0.51100000000E-03 0. -1.
         11   -1    0    0    0    0 -0.00000000000E+00 -0.00000000000E+00 -0.45593999997E+02  0.45594000000E+02  0.51100000000E-03 0.  1.
    9900012    2    1    2    0    0  0.25892042655E+02  0.17095270956E+02  0.73535534527E+01  0.59301938621E+02  0.49999990139E+02 0.  0.
        -12    1    1    2    0    0 -0.25892042655E+02 -0.17095270956E+02 -0.73535534527E+01  0.31886061379E+02  0.00000000000E+00 0.  1.
         11    1    3    3    0    0 -0.81228317010E+01 -0.12365801164E+01  0.42050682651E+01  0.92299579957E+01  0.51100000000E-03 0. -1.
        -11    1    3    3    0    0  0.77421023640E+01  0.67916622370E+01  0.15679751170E+02  0.18759568811E+02  0.51100000000E-03 0.  1.
        -12    1    3    3    0    0  0.26272771992E+02  0.11540188835E+02 -0.12531265982E+02  0.31312411814E+02  0.00000000000E+00 0.  1.
</event>
<event>
 7    1  0.6953847E-012  0.5930193E+02  0.7816164E-02  0.1266605E+00
        -11   -1    0    0    0    0  0.00000000000E+00  0.00000000000E+00  0.45593999997E+02  0.45594000000E+02  0.51100000000E-03 0. -1.
         11   -1    0    0    0    0 -0.00000000000E+00 -0.00000000000E+00 -0.45593999997E+02  0.45594000000E+02  0.51100000000E-03 0.  1.
    9900012    2    1    2    0    0 -0.29253310989E+01  0.47133100221E+01  0.31399816816E+02  0.59301931733E+02  0.49999977578E+02 0.  0.
        -12    1    1    2    0    0  0.29253310989E+01 -0.47133100221E+01 -0.31399816816E+02  0.31886068267E+02  0.00000000000E+00 0.  1.
         11    1    3    3    0    0  0.10273029693E+02  0.18402224696E+02  0.18629991190E+02  0.28129230078E+02  0.51100000000E-03 0. -1.
        -11    1    3    3    0    0 -0.42911197623E+01  0.53968433332E+01  0.57310161311E+01  0.89657221089E+01  0.51100000000E-03 0.  1.
        -12    1    3    3    0    0 -0.89072410291E+01 -0.19085758007E+02  0.70388094955E+01  0.22206979546E+02  0.00000000000E+00 0.  1.
</event>
<event>
 7    1  0.6953847E-012  0.5930197E+02  0.7816164E-02  0.1266605E+00
        -11   -1    0    0    0    0  0.00000000000E+00  0.00000000000E+00  0.45593999997E+02  0.45594000000E+02  0.51100000000E-03 0. -1.
         11   -1    0    0    0    0 -0.00000000000E+00 -0.00000000000E+00 -0.45593999997E+02  0.45594000000E+02  0.51100000000E-03 0.  1.
    9900012    2    1    2    0    0 -0.24340737802E+02  0.13573258647E+02 -0.15492383048E+02  0.59301971719E+02  0.50000050502E+02 0.  0.
        -12    1    1    2    0    0  0.24340737802E+02 -0.13573258647E+02  0.15492383048E+02  0.31886028281E+02  0.00000000000E+00 0.  1.
         11    1    3    3    0    0 -0.14587773489E+02  0.57556955749E+01 -0.33939138906E+00  0.15685864773E+02  0.51100000000E-03 0. -1.
        -11    1    3    3    0    0 -0.18200105875E+02 -0.10087545459E+02 -0.51578674222E+01  0.21438424006E+02  0.51100000000E-03 0.  1.
         12    1    3    3    0    0  0.84471415622E+01  0.17905108531E+02 -0.99951242367E+01  0.22177682940E+02  0.00000000000E+00 0. -1.
</event>
<event>
 7    1  0.6953847E-012  0.5930202E+02  0.7816164E-02  0.1266605E+00
        -11   -1    0    0    0    0  0.00000000000E+00  0.00000000000E+00  0.45593999997E+02  0.45594000000E+02  0.51100000000E-03 0.  1.
         11   -1    0    0    0    0 -0.00000000000E+00 -0.00000000000E+00 -0.45593999997E+02  0.45594000000E+02  0.51100000000E-03 0. -1.
    9900012    2    1    2    0    0  0.18814879803E+02 -0.86099269375E+01 -0.24260780986E+02  0.59302015024E+02  0.50000129480E+02 0.  0.
        -12    1    1    2    0    0 -0.18814879803E+02  0.86099269375E+01  0.24260780986E+02  0.31885984976E+02  0.00000000000E+00 0.  1.
         11    1    3    3    0    0  0.22899829207E+02 -0.79561300169E+01 -0.15162188857E+01  0.24289938298E+02  0.51100000000E-03 0. -1.
        -11    1    3    3    0    0  0.10017867330E+02 -0.35671470619E+01 -0.15747108696E+02  0.19001411436E+02  0.51100000000E-03 0.  1.
        -12    1    3    3    0    0 -0.14102816734E+02  0.29133501413E+01 -0.69974534034E+01  0.16010665289E+02  0.00000000000E+00 0.  1.
</event>
<event>
 7    1  0.6953847E-012  0.5930194E+02  0.7816164E-02  0.1266605E+00
        -11   -1    0    0    0    0  0.00000000000E+00  0.00000000000E+00  0.45593999997E+02  0.45594000000E+02  0.51100000000E-03 0.  1.
         11   -1    0    0    0    0 -0.00000000000E+00 -0.00000000000E+00 -0.45593999997E+02  0.45594000000E+02  0.51100000000E-03 0. -1.
    9900012    2    1    2    0    0  0.27192166397E+02  0.12043728714E+02 -0.11500252151E+02  0.59301935423E+02  0.49999984307E+02 0.  0.
        -12    1    1    2    0    0 -0.27192166397E+02 -0.12043728714E+02  0.11500252151E+02  0.31886064577E+02  0.00000000000E+00 0.  1.
         11    1    3    3    0    0  0.18181036656E+02  0.92826966536E+00 -0.12317570240E+02  0.21980316543E+02  0.51100000000E-03 0. -1.
        -11    1    3    3    0    0 -0.54299800520E+01  0.16554409796E+02 -0.84058220896E+01  0.19344017482E+02  0.51100000000E-03 0.  1.
         12    1    3    3    0    0  0.14441109792E+02 -0.54389507480E+01  0.92231401785E+01  0.17977601398E+02  0.00000000000E+00 0. -1.
</event>
<event>
 7    1  0.6953847E-012  0.5930195E+02  0.7816164E-02  0.1266605E+00
        -11   -1    0    0    0    0  0.00000000000E+00  0.00000000000E+00  0.45593999997E+02  0.45594000000E+02  0.51100000000E-03 0.  1.
         11   -1    0    0    0    0 -0.00000000000E+00 -0.00000000000E+00 -0.45593999997E+02  0.45594000000E+02  0.51100000000E-03 0. -1.
    9900012    2    1    2    0    0  0.29944337563E+02  0.60419634734E+01 -0.91406458256E+01  0.59301951628E+02  0.50000013860E+02 0.  0.
        -12    1    1    2    0    0 -0.29944337563E+02 -0.60419634734E+01  0.91406458256E+01  0.31886048372E+02  0.00000000000E+00 0.  1.
         11    1    3    3    0    0  0.19064390134E+02  0.86148026662E+01  0.78750580759E+01  0.22353575466E+02  0.51100000000E-03 0. -1.
        -11    1    3    3    0    0  0.37931793457E+01  0.13972549607E+02 -0.10161230417E+02  0.17688158635E+02  0.51100000000E-03 0.  1.
        -12    1    3    3    0    0  0.70867680831E+01 -0.16545388800E+02 -0.68544734846E+01  0.19260217526E+02  0.00000000000E+00 0.  1.
</event>
<event>
 7    1  0.6953847E-012  0.5930195E+02  0.7816164E-02  0.1266605E+00
        -11   -1    0    0    0    0  0.00000000000E+00  0.00000000000E+00  0.45593999997E+02  0.45594000000E+02  0.51100000000E-03 0.  1.
         11   -1    0    0    0    0 -0.00000000000E+00 -0.00000000000E+00 -0.45593999997E+02  0.45594000000E+02  0.51100000000E-03 0. -1.
    9900012    2    1    2    0    0  0.38515381832E+01  0.27484733924E+00 -0.31651387881E+02  0.59301949097E+02  0.50000009244E+02 0.  0.
        -12    1    1    2    0    0 -0.38515381832E+01 -0.27484733924E+00  0.31651387881E+02  0.31886050903E+02  0.00000000000E+00 0.  1.
         11    1    3    3    0    0  0.15797530382E+02  0.43451253605E+01  0.61022993502E+01  0.17483710653E+02  0.51100000000E-03 0. -1.
        -11    1    3    3    0    0  0.18130867007E+01 -0.24333515594E+01 -0.13942674631E+02  0.14269080535E+02  0.51100000000E-03 0.  1.
        -12    1    3    3    0    0 -0.13759078900E+02 -0.16369264618E+01 -0.23811012600E+02  0.27549157908E+02  0.00000000000E+00 0.  1.
</event>
<event>
 7    1  0.6953847E-012  0.5930194E+02  0.7816164E-02  0.1266605E+00
        -11   -1    0    0    0    0  0.00000000000E+00  0.00000000000E+00  0.45593999997E+02  0.45594000000E+02  0.51100000000E-03 0. -1.
         11   -1    0    0    0    0 -0.00000000000E+00 -0.00000000000E+00 -0.45593999997E+02  0.45594000000E+02  0.51100000000E-03 0.  1.
    9900012    2    1    2    0    0  0.66249491074E+01 -0.30107020275E+02  0.81485071003E+01  0.59301940530E+02  0.49999993622E+02 0.  0.
        -12    1    1    2    0    0 -0.66249491074E+01  0.30107020275E+02 -0.81485071003E+01  0.31886059470E+02  0.00000000000E+00 0.  1.
         11    1    3    3    0    0  0.95413699424E+01  0.75194991258E+00  0.14857385033E+02  0.17673286602E+02  0.51100000000E-03 0. -1.
        -11    1    3    3    0    0 -0.18530512192E+01  0.18939316908E+01 -0.84068563211E+01  0.88145339942E+01  0.51100000000E-03 0.  1.
         12    1    3    3    0    0 -0.10633696159E+01 -0.32752901879E+02  0.16979783886E+01  0.32814119934E+02  0.00000000000E+00 0. -1.
</event>
<event>
 7    1  0.6953847E-012  0.5930194E+02  0.7816164E-02  0.1266605E+00
        -11   -1    0    0    0    0  0.00000000000E+00  0.00000000000E+00  0.45593999997E+02  0.45594000000E+02  0.51100000000E-03 0. -1.
         11   -1    0    0    0    0 -0.00000000000E+00 -0.00000000000E+00 -0.45593999997E+02  0.45594000000E+02  0.51100000000E-03 0.  1.
    9900012    2    1    2    0    0  0.17143689627E+02 -0.17798611032E+02  0.20150034376E+02  0.59301944521E+02  0.50000000899E+02 0.  0.
        -12    1    1    2    0    0 -0.17143689627E+02  0.17798611032E+02 -0.20150034376E+02  0.31886055479E+02  0.00000000000E+00 0.  1.
         11    1    3    3    0    0  0.81437952352E+01 -0.94014381374E+01  0.16045554547E+02  0.20301927516E+02  0.51100000000E-03 0. -1.
        -11    1    3    3    0    0  0.22837366169E+02 -0.65728036589E+00  0.36649398547E+01  0.23138908691E+02  0.51100000000E-03 0.  1.
        -12    1    3    3    0    0 -0.13837471777E+02 -0.77398925284E+01  0.43953997399E+00  0.15861108313E+02  0.00000000000E+00 0.  1.
</event>
<event>
 7    1  0.6953847E-012  0.5930195E+02  0.7816164E-02  0.1266605E+00
        -11   -1    0    0    0    0  0.00000000000E+00  0.00000000000E+00  0.45593999997E+02  0.45594000000E+02  0.51100000000E-03 0.  1.
         11   -1    0    0    0    0 -0.00000000000E+00 -0.00000000000E+00 -0.45593999997E+02  0.45594000000E+02  0.51100000000E-03 0. -1.
    9900012    2    1    2    0    0  0.19471541527E+02  0.24634004403E+02 -0.55448437401E+01  0.59301946709E+02  0.50000004890E+02 0.  0.
        -12    1    1    2    0    0 -0.19471541527E+02 -0.24634004403E+02  0.55448437401E+01  0.31886053291E+02  0.00000000000E+00 0.  1.
         11    1    3    3    0    0  0.12427714688E+02 -0.62910090240E+01 -0.11484697018E+02  0.18053341872E+02  0.51100000000E-03 0. -1.
        -11    1    3    3    0    0  0.12568075941E+01 -0.45495426296E+01 -0.45079535779E+00  0.47414259651E+01  0.51100000000E-03 0.  1.
        -12    1    3    3    0    0  0.57870192444E+01  0.35474556057E+02  0.63906486354E+01  0.36507178872E+02  0.00000000000E+00 0.  1.
</event>
<event>
 7    1  0.6953847E-012  0.5930198E+02  0.7816164E-02  0.1266605E+00
        -11   -1    0    0    0    0  0.00000000000E+00  0.00000000000E+00  0.45593999997E+02  0.45594000000E+02  0.51100000000E-03 0.  1.
         11   -1    0    0    0    0 -0.00000000000E+00 -0.00000000000E+00 -0.45593999997E+02  0.45594000000E+02  0.51100000000E-03 0. -1.
    9900012    2    1    2    0    0  0.13374242902E+00 -0.24364143232E+02 -0.20569120165E+02  0.59301983208E+02  0.50000071455E+02 0.  0.
        -12    1    1    2    0    0 -0.13374242902E+00  0.24364143232E+02  0.20569120165E+02  0.31886016792E+02  0.00000000000E+00 0.  1.
         11    1    3    3    0    0  0.79967492273E+01 -0.17295990356E+02 -0.21901765472E+02  0.29030787307E+02  0.51100000000E-03 0.  1.
        -11    1    3    3    0    0 -0.10794361959E+02 -0.96748896244E+00 -0.11475781463E+02  0.15784417805E+02  0.51100000000E-03 0. -1.
        -12    1    3    3    0    0  0.29313551608E+01 -0.61006639137E+01  0.12808426770E+02  0.14486778096E+02  0.00000000000E+00 0.  1.
</event>
<event>
 7    1  0.6953847E-012  0.5930183E+02  0.7816164E-02  0.1266605E+00
        -11   -1    0    0    0    0  0.00000000000E+00  0.00000000000E+00  0.45593999997E+02  0.45594000000E+02  0.51100000000E-03 0. -1.
         11   -1    0    0    0    0 -0.00000000000E+00 -0.00000000000E+00 -0.45593999997E+02  0.45594000000E+02  0.51100000000E-03 0.  1.
    9900012    2    1    2    0    0 -0.67853525080E+01 -0.60739801273E+01  0.30558040574E+02  0.59301826085E+02  0.49999784900E+02 0.  0.
        -12    1    1    2    0    0  0.67853525080E+01  0.60739801273E+01 -0.30558040574E+02  0.31886173915E+02  0.00000000000E+00 0.  1.
         11    1    3    3    0    0 -0.79171062461E+01 -0.56101090513E+01 -0.42539619736E+00  0.97126132974E+01  0.51100000000E-03 0. -1.
        -11    1    3    3    0    0 -0.39476303575E+01 -0.33430942350E+01 -0.83512157859E+01  0.98235874235E+01  0.51100000000E-03 0.  1.
         12    1    3    3    0    0  0.50793840956E+01  0.28792231590E+01  0.39334652557E+02  0.39765625364E+02  0.00000000000E+00 0. -1.
</event>
<event>
 7    1  0.6953847E-012  0.5930195E+02  0.7816164E-02  0.1266605E+00
        -11   -1    0    0    0    0  0.00000000000E+00  0.00000000000E+00  0.45593999997E+02  0.45594000000E+02  0.51100000000E-03 0.  1.
         11   -1    0    0    0    0 -0.00000000000E+00 -0.00000000000E+00 -0.45593999997E+02  0.45594000000E+02  0.51100000000E-03 0. -1.
    9900012    2    1    2    0    0 -0.92041533620E+01  0.27451705106E+02 -0.13356943446E+02  0.59301945203E+02  0.50000002143E+02 0.  0.
        -12    1    1    2    0    0  0.92041533620E+01 -0.27451705106E+02  0.13356943446E+02  0.31886054797E+02  0.00000000000E+00 0.  1.
         11    1    3    3    0    0  0.11488734783E+02  0.23227040408E+02 -0.11838957505E+02  0.28489425197E+02  0.51100000000E-03 0. -1.
        -11    1    3    3    0    0 -0.10867970914E+02  0.11926876524E+02 -0.64666679814E+01  0.17383353257E+02  0.51100000000E-03 0.  1.
        -12    1    3    3    0    0 -0.98249172316E+01 -0.77022118261E+01  0.49486820402E+01  0.13429166748E+02  0.00000000000E+00 0.  1.
</event>
<event>
 7    1  0.6953847E-012  0.5930210E+02  0.7816164E-02  0.1266604E+00
        -11   -1    0    0    0    0  0.00000000000E+00  0.00000000000E+00  0.45593999997E+02  0.45594000000E+02  0.51100000000E-03 0.  1.
         11   -1    0    0    0    0 -0.00000000000E+00 -0.00000000000E+00 -0.45593999997E+02  0.45594000000E+02  0.51100000000E-03 0. -1.
    9900012    2    1    2    0    0 -0.22742221410E+02 -0.33842049893E+01 -0.22091835027E+02  0.59302099465E+02  0.50000283479E+02 0.  0.
        -12    1    1    2    0    0  0.22742221410E+02  0.33842049893E+01  0.22091835027E+02  0.31885900535E+02  0.00000000000E+00 0.  1.
         11    1    3    3    0    0 -0.35162786315E+01  0.20572567870E+02 -0.13055773656E+02  0.24618041965E+02  0.51100000000E-03 0.  1.
        -11    1    3    3    0    0 -0.79118452013E+01 -0.56766110633E+01 -0.88900073233E+01  0.13185349374E+02  0.51100000000E-03 0. -1.
        -12    1    3    3    0    0 -0.11314097578E+02 -0.18280161796E+02 -0.14605404812E+00  0.21498708126E+02  0.00000000000E+00 0.  1.
</event>
<event>
 7    1  0.6953847E-012  0.5930197E+02  0.7816164E-02  0.1266605E+00
        -11   -1    0    0    0    0  0.00000000000E+00  0.00000000000E+00  0.45593999997E+02  0.45594000000E+02  0.51100000000E-03 0.  1.
         11   -1    0    0    0    0 -0.00000000000E+00 -0.00000000000E+00 -0.45593999997E+02  0.45594000000E+02  0.51100000000E-03 0. -1.
    9900012    2    1    2    0    0 -0.31750418239E+02 -0.20259343124E+01 -0.21272680157E+01  0.59301972693E+02  0.50000052279E+02 0.  0.
        -12    1    1    2    0    0  0.31750418239E+02  0.20259343124E+01  0.21272680157E+01  0.31886027307E+02  0.00000000000E+00 0.  1.
         11    1    3    3    0    0  0.61813601761E+01  0.67610078246E+00 -0.95558948217E+01  0.11400940838E+02  0.51100000000E-03 0. -1.
        -11    1    3    3    0    0 -0.26641525837E+02  0.11614542660E+02  0.53298473217E+01  0.29547855639E+02  0.51100000000E-03 0.  1.
         12    1    3    3    0    0 -0.11290252578E+02 -0.14316577755E+02  0.20987794842E+01  0.18353176216E+02  0.00000000000E+00 0. -1.
</event>
<event>
 7    1  0.6953847E-012  0.5930197E+02  0.7816164E-02  0.1266605E+00
        -11   -1    0    0    0    0  0.00000000000E+00  0.00000000000E+00  0.45593999997E+02  0.45594000000E+02  0.51100000000E-03 0.  1.
         11   -1    0    0    0    0 -0.00000000000E+00 -0.00000000000E+00 -0.45593999997E+02  0.45594000000E+02  0.51100000000E-03 0. -1.
    9900012    2    1    2    0    0  0.19631454912E+02 -0.25900002231E+00 -0.25124845725E+02  0.59301968957E+02  0.50000045465E+02 0.  0.
        -12    1    1    2    0    0 -0.19631454912E+02  0.25900002231E+00  0.25124845725E+02  0.31886031043E+02  0.00000000000E+00 0.  1.
         11    1    3    3    0    0  0.68961037909E+01  0.15324119088E+02 -0.21102694828E+02  0.26976074633E+02  0.51100000000E-03 0. -1.
        -11    1    3    3    0    0  0.82953634954E+00  0.55997391270E+01  0.37773746800E+01  0.68054219986E+01  0.51100000000E-03 0.  1.
        -12    1    3    3    0    0  0.11905814772E+02 -0.21182858238E+02 -0.77995255764E+01  0.25520472325E+02  0.00000000000E+00 0.  1.
</event>
<event>
 7    1  0.6953847E-012  0.5930194E+02  0.7816164E-02  0.1266605E+00
        -11   -1    0    0    0    0  0.00000000000E+00  0.00000000000E+00  0.45593999997E+02  0.45594000000E+02  0.51100000000E-03 0. -1.
         11   -1    0    0    0    0 -0.00000000000E+00 -0.00000000000E+00 -0.45593999997E+02  0.45594000000E+02  0.51100000000E-03 0.  1.
    9900012    2    1    2    0    0 -0.59607995087E+01 -0.12559208778E+02  0.28695917661E+02  0.59301944328E+02  0.50000000548E+02 0.  0.
        -12    1    1    2    0    0  0.59607995087E+01  0.12559208778E+02 -0.28695917661E+02  0.31886055672E+02  0.00000000000E+00 0.  1.
         11    1    3    3    0    0  0.17061777822E+02 -0.18602675600E+01  0.17804322355E+02  0.24729713962E+02  0.51100000000E-03 0. -1.
        -11    1    3    3    0    0 -0.93514788669E+01  0.59261919308E+01  0.18436742665E+01  0.11223593135E+02  0.51100000000E-03 0.  1.
         12    1    3    3    0    0 -0.13671098464E+02 -0.16625133148E+02  0.90479210393E+01  0.23348637231E+02  0.00000000000E+00 0. -1.
</event>
<event>
 7    1  0.6953847E-012  0.5930205E+02  0.7816164E-02  0.1266604E+00
        -11   -1    0    0    0    0  0.00000000000E+00  0.00000000000E+00  0.45593999997E+02  0.45594000000E+02  0.51100000000E-03 0.  1.
         11   -1    0    0    0    0 -0.00000000000E+00 -0.00000000000E+00 -0.45593999997E+02  0.45594000000E+02  0.51100000000E-03 0. -1.
    9900012    2    1    2    0    0 -0.14017794097E+01 -0.28999044277E+02 -0.13183474047E+02  0.59302054155E+02  0.50000200845E+02 0.  0.
        -12    1    1    2    0    0  0.14017794097E+01  0.28999044277E+02  0.13183474047E+02  0.31885945845E+02  0.00000000000E+00 0.  1.
         11    1    3    3    0    0 -0.62077031765E+01 -0.29886419553E+02 -0.69297039512E+01  0.31301029528E+02  0.51100000000E-03 0. -1.
        -11    1    3    3    0    0  0.82405109079E-01 -0.12051840315E+02  0.15792805234E+01  0.12155154167E+02  0.51100000000E-03 0.  1.
         12    1    3    3    0    0  0.47235186577E+01  0.12939215591E+02 -0.78330506188E+01  0.15845870460E+02  0.00000000000E+00 0. -1.
</event>
<event>
 7    1  0.6953847E-012  0.5930194E+02  0.7816164E-02  0.1266605E+00
        -11   -1    0    0    0    0  0.00000000000E+00  0.00000000000E+00  0.45593999997E+02  0.45594000000E+02  0.51100000000E-03 0.  1.
         11   -1    0    0    0    0 -0.00000000000E+00 -0.00000000000E+00 -0.45593999997E+02  0.45594000000E+02  0.51100000000E-03 0. -1.
    9900012    2    1    2    0    0 -0.18298360092E+02  0.17613724482E+02 -0.19278166716E+02  0.59301937463E+02  0.49999988028E+02 0.  0.
        -12    1    1    2    0    0  0.18298360092E+02 -0.17613724482E+02  0.19278166716E+02  0.31886062537E+02  0.00000000000E+00 0.  1.
         11    1    3    3    0    0 -0.34054929201E+01 -0.10887194001E+02 -0.17182010174E+02  0.20624011470E+02  0.51100000000E-03 0. -1.
        -11    1    3    3    0    0  0.52947865541E+01  0.31206492610E+01 -0.10207816999E+01  0.62301855513E+01  0.51100000000E-03 0.  1.
        -12    1    3    3    0    0 -0.20187653726E+02  0.25380269222E+02 -0.10753748429E+01  0.32447740442E+02  0.00000000000E+00 0.  1.
</event>
<event>
 7    1  0.6953847E-012  0.5930196E+02  0.7816164E-02  0.1266605E+00
        -11   -1    0    0    0    0  0.00000000000E+00  0.00000000000E+00  0.45593999997E+02  0.45594000000E+02  0.51100000000E-03 0.  1.
         11   -1    0    0    0    0 -0.00000000000E+00 -0.00000000000E+00 -0.45593999997E+02  0.45594000000E+02  0.51100000000E-03 0. -1.
    9900012    2    1    2    0    0 -0.20205112201E+01  0.21448095708E+02 -0.23507788829E+02  0.59301962135E+02  0.50000033024E+02 0.  0.
        -12    1    1    2    0    0  0.20205112201E+01 -0.21448095708E+02  0.23507788829E+02  0.31886037865E+02  0.00000000000E+00 0.  1.
         11    1    3    3    0    0 -0.10180784101E+02  0.24632640587E+01 -0.14625142258E+02  0.17989186226E+02  0.51100000000E-03 0. -1.
        -11    1    3    3    0    0 -0.13059044572E+02  0.38966665472E+01 -0.66965555242E+01  0.15184416731E+02  0.51100000000E-03 0.  1.
         12    1    3    3    0    0  0.21219317453E+02  0.15088165102E+02 -0.21860910470E+01  0.26128359178E+02  0.00000000000E+00 0. -1.
</event>
<event>
 7    1  0.6953847E-012  0.5930192E+02  0.7816164E-02  0.1266605E+00
        -11   -1    0    0    0    0  0.00000000000E+00  0.00000000000E+00  0.45593999997E+02  0.45594000000E+02  0.51100000000E-03 0. -1.
         11   -1    0    0    0    0 -0.00000000000E+00 -0.00000000000E+00 -0.45593999997E+02  0.45594000000E+02  0.51100000000E-03 0.  1.
    9900012    2    1    2    0    0 -0.10893467744E+02 -0.24796357724E+02  0.16828407665E+02  0.59301916822E+02  0.49999950383E+02 0.  0.
        -12    1    1    2    0    0  0.10893467744E+02  0.24796357724E+02 -0.16828407665E+02  0.31886083178E+02  0.00000000000E+00 0.  1.
         11    1    3    3    0    0 -0.16782267146E+02 -0.14220849456E+02  0.13899333173E+02  0.26020540208E+02  0.51100000000E-03 0. -1.
        -11    1    3    3    0    0 -0.12427010490E+02 -0.76198799354E+01  0.18953547565E+01  0.14699847954E+02  0.51100000000E-03 0.  1.
         12    1    3    3    0    0  0.18315809892E+02 -0.29556283332E+01  0.10337197360E+01  0.18581528660E+02  0.00000000000E+00 0. -1.
</event>
<event>
 7    1  0.6953847E-012  0.5930190E+02  0.7816164E-02  0.1266605E+00
        -11   -1    0    0    0    0  0.00000000000E+00  0.00000000000E+00  0.45593999997E+02  0.45594000000E+02  0.51100000000E-03 0. -1.
         11   -1    0    0    0    0 -0.00000000000E+00 -0.00000000000E+00 -0.45593999997E+02  0.45594000000E+02  0.51100000000E-03 0.  1.
    9900012    2    1    2    0    0  0.25441395377E+02  0.18779810003E+02  0.40960369183E+01  0.59301899879E+02  0.49999919483E+02 0.  0.
        -12    1    1    2    0    0 -0.25441395377E+02 -0.18779810003E+02 -0.40960369183E+01  0.31886100121E+02  0.00000000000E+00 0.  1.
         11    1    3    3    0    0  0.63763910014E+01  0.13776733838E+02  0.11346111745E+02  0.18952335197E+02  0.51100000000E-03 0. -1.
        -11    1    3    3    0    0  0.11987990495E+02 -0.14460318193E+02 -0.54676043727E+01  0.19562909195E+02  0.51100000000E-03 0.  1.
         12    1    3    3    0    0  0.70770138806E+01  0.19463394358E+02 -0.17824704536E+01  0.20786655486E+02  0.00000000000E+00 0. -1.
</event>
<event>
 7    1  0.6953847E-012  0.5930196E+02  0.7816164E-02  0.1266605E+00
        -11   -1    0    0    0    0  0.00000000000E+00  0.00000000000E+00  0.45593999997E+02  0.45594000000E+02  0.51100000000E-03 0.  1.
         11   -1    0    0    0    0 -0.00000000000E+00 -0.00000000000E+00 -0.45593999997E+02  0.45594000000E+02  0.51100000000E-03 0. -1.
    9900012    2    1    2    0    0  0.30761851222E+02 -0.64656614088E+01  0.53500543578E+01  0.59301963092E+02  0.50000034769E+02 0.  0.
        -12    1    1    2    0    0 -0.30761851222E+02  0.64656614088E+01 -0.53500543578E+01  0.31886036908E+02  0.00000000000E+00 0.  1.
         11    1    3    3    0    0  0.15790881437E+02  0.49607063850E+01 -0.75256752617E+01  0.18182308237E+02  0.51100000000E-03 0. -1.
        -11    1    3    3    0    0  0.20715831657E+02 -0.13086128908E+02  0.20135050668E+02  0.31714550552E+02  0.51100000000E-03 0.  1.
         12    1    3    3    0    0 -0.57448618718E+01  0.16597611138E+01 -0.72593210487E+01  0.94051043040E+01  0.00000000000E+00 0. -1.
</event>
<event>
 7    1  0.6953847E-012  0.5930205E+02  0.7816164E-02  0.1266604E+00
        -11   -1    0    0    0    0  0.00000000000E+00  0.00000000000E+00  0.45593999997E+02  0.45594000000E+02  0.51100000000E-03 0.  1.
         11   -1    0    0    0    0 -0.00000000000E+00 -0.00000000000E+00 -0.45593999997E+02  0.45594000000E+02  0.51100000000E-03 0. -1.
    9900012    2    1    2    0    0  0.23464659906E+01  0.21698716278E+02 -0.23245935075E+02  0.59302051868E+02  0.50000196674E+02 0.  0.
        -12    1    1    2    0    0 -0.23464659906E+01 -0.21698716278E+02  0.23245935075E+02  0.31885948132E+02  0.00000000000E+00 0.  1.
         11    1    3    3    0    0  0.70808643824E+01  0.42310540031E+00 -0.27448963368E+02  0.28350718665E+02  0.51100000000E-03 0. -1.
        -11    1    3    3    0    0 -0.72443370399E+01 -0.17238055917E+01  0.20012668336E+01  0.77108361458E+01  0.51100000000E-03 0.  1.
        -12    1    3    3    0    0  0.25099386482E+01  0.22999416470E+02  0.22017614592E+01  0.23240497058E+02  0.00000000000E+00 0.  1.
</event>
<event>
 7    1  0.6953847E-012  0.5930196E+02  0.7816164E-02  0.1266605E+00
        -11   -1    0    0    0    0  0.00000000000E+00  0.00000000000E+00  0.45593999997E+02  0.45594000000E+02  0.51100000000E-03 0. -1.
         11   -1    0    0    0    0 -0.00000000000E+00 -0.00000000000E+00 -0.45593999997E+02  0.45594000000E+02  0.51100000000E-03 0.  1.
    9900012    2    1    2    0    0  0.28812613570E+02  0.39371372404E+01  0.13078669858E+02  0.59301962999E+02  0.50000034598E+02 0.  0.
        -12    1    1    2    0    0 -0.28812613570E+02 -0.39371372404E+01 -0.13078669858E+02  0.31886037001E+02  0.00000000000E+00 0.  1.
         11    1    3    3    0    0  0.17299093924E+01 -0.16068446384E+02  0.27000749715E+01  0.16385297093E+02  0.51100000000E-03 0. -1.
        -11    1    3    3    0    0 -0.39597961554E+01  0.39436566522E+01 -0.18509839134E+01  0.58871516960E+01  0.51100000000E-03 0.  1.
         12    1    3    3    0    0  0.31042500333E+02  0.16061926972E+02  0.12229578800E+02  0.37029514210E+02  0.00000000000E+00 0. -1.
</event>
<event>
 7    1  0.6953847E-012  0.5930196E+02  0.7816164E-02  0.1266605E+00
        -11   -1    0    0    0    0  0.00000000000E+00  0.00000000000E+00  0.45593999997E+02  0.45594000000E+02  0.51100000000E-03 0.  1.
         11   -1    0    0    0    0 -0.00000000000E+00 -0.00000000000E+00 -0.45593999997E+02  0.45594000000E+02  0.51100000000E-03 0. -1.
    9900012    2    1    2    0    0 -0.27462371909E+02 -0.11815533425E+02 -0.11087432443E+02  0.59301955103E+02  0.50000020199E+02 0.  0.
        -12    1    1    2    0    0  0.27462371909E+02  0.11815533425E+02  0.11087432443E+02  0.31886044897E+02  0.00000000000E+00 0.  1.
         11    1    3    3    0    0 -0.64761123852E-01 -0.20754046180E+02  0.53707985302E+01  0.21437819478E+02  0.51100000000E-03 0.  1.
        -11    1    3    3    0    0 -0.19684716169E+02 -0.25339445650E+01 -0.67181726569E+01  0.20953347461E+02  0.51100000000E-03 0. -1.
        -12    1    3    3    0    0 -0.77128946158E+01  0.11472457321E+02 -0.97400583164E+01  0.16910788164E+02  0.00000000000E+00 0.  1.
</event>
<event>
 7    1  0.6953847E-012  0.5930194E+02  0.7816164E-02  0.1266605E+00
        -11   -1    0    0    0    0  0.00000000000E+00  0.00000000000E+00  0.45593999997E+02  0.45594000000E+02  0.51100000000E-03 0. -1.
         11   -1    0    0    0    0 -0.00000000000E+00 -0.00000000000E+00 -0.45593999997E+02  0.45594000000E+02  0.51100000000E-03 0.  1.
    9900012    2    1    2    0    0  0.19309738864E+02 -0.13666521304E+02  0.21379454846E+02  0.59301938639E+02  0.49999990173E+02 0.  0.
        -12    1    1    2    0    0 -0.19309738864E+02  0.13666521304E+02 -0.21379454846E+02  0.31886061361E+02  0.00000000000E+00 0.  1.
         11    1    3    3    0    0 -0.73460611062E+01 -0.25053108686E+01  0.24553846650E+01  0.81406455787E+01  0.51100000000E-03 0. -1.
        -11    1    3    3    0    0  0.65728928263E+01 -0.17582691739E+02 -0.48469541658E+01  0.19386772136E+02  0.51100000000E-03 0.  1.
         12    1    3    3    0    0  0.20082907144E+02  0.64214813034E+01  0.23771024347E+02  0.31774520925E+02  0.00000000000E+00 0. -1.
</event>
<event>
 7    1  0.6953847E-012  0.5930200E+02  0.7816164E-02  0.1266605E+00
        -11   -1    0    0    0    0  0.00000000000E+00  0.00000000000E+00  0.45593999997E+02  0.45594000000E+02  0.51100000000E-03 0.  1.
         11   -1    0    0    0    0 -0.00000000000E+00 -0.00000000000E+00 -0.45593999997E+02  0.45594000000E+02  0.51100000000E-03 0. -1.
    9900012    2    1    2    0    0 -0.21002883737E+02  0.20469696825E+02 -0.12513495406E+02  0.59301997104E+02  0.50000096798E+02 0.  0.
        -12    1    1    2    0    0  0.21002883737E+02 -0.20469696825E+02  0.12513495406E+02  0.31886002896E+02  0.00000000000E+00 0.  1.
         11    1    3    3    0    0  0.44939195085E+01  0.74928392163E+01  0.59213456263E-01  0.87373599311E+01  0.51100000000E-03 0. -1.
        -11    1    3    3    0    0 -0.50655601998E+01 -0.44550342312E+01  0.12255485410E+02  0.13989430046E+02  0.51100000000E-03 0.  1.
         12    1    3    3    0    0 -0.20431243046E+02  0.17431891840E+02 -0.24828194272E+02  0.36575207126E+02  0.00000000000E+00 0. -1.
</event>
<event>
 7    1  0.6953847E-012  0.5930199E+02  0.7816164E-02  0.1266605E+00
        -11   -1    0    0    0    0  0.00000000000E+00  0.00000000000E+00  0.45593999997E+02  0.45594000000E+02  0.51100000000E-03 0.  1.
         11   -1    0    0    0    0 -0.00000000000E+00 -0.00000000000E+00 -0.45593999997E+02  0.45594000000E+02  0.51100000000E-03 0. -1.
    9900012    2    1    2    0    0 -0.31173497313E+01  0.16463946771E+02 -0.27128178745E+02  0.59301992181E+02  0.50000087820E+02 0.  0.
        -12    1    1    2    0    0  0.31173497313E+01 -0.16463946771E+02  0.27128178745E+02  0.31886007819E+02  0.00000000000E+00 0.  1.
         11    1    3    3    0    0 -0.11186657432E+02 -0.68991576263E+00 -0.20011419049E+02  0.22936307045E+02  0.51100000000E-03 0. -1.
        -11    1    3    3    0    0  0.75622398964E+01 -0.36518066885E+01 -0.12323125896E+02  0.14912497995E+02  0.51100000000E-03 0.  1.
        -12    1    3    3    0    0  0.50706780375E+00  0.20805669222E+02  0.52063661998E+01  0.21453187142E+02  0.00000000000E+00 0.  1.
</event>
<event>
 7    1  0.6953847E-012  0.5930196E+02  0.7816164E-02  0.1266605E+00
        -11   -1    0    0    0    0  0.00000000000E+00  0.00000000000E+00  0.45593999997E+02  0.45594000000E+02  0.51100000000E-03 0. -1.
         11   -1    0    0    0    0 -0.00000000000E+00 -0.00000000000E+00 -0.45593999997E+02  0.45594000000E+02  0.51100000000E-03 0.  1.
    9900012    2    1    2    0    0  0.29854869807E+02  0.87237069527E+01 -0.70216469016E+01  0.59301955413E+02  0.50000020764E+02 0.  0.
        -12    1    1    2    0    0 -0.29854869807E+02 -0.87237069527E+01  0.70216469016E+01  0.31886044587E+02  0.00000000000E+00 0.  1.
         11    1    3    3    0    0 -0.30113691083E+01  0.28057819723E+01  0.94521313457E+00  0.42230539321E+01  0.51100000000E-03 0. -1.
        -11    1    3    3    0    0 -0.27516279402E+01  0.13442548630E+02  0.73709048517E+01  0.15575744238E+02  0.51100000000E-03 0.  1.
         12    1    3    3    0    0  0.35617866855E+02 -0.75246236494E+01 -0.15337764888E+02  0.39503157243E+02  0.00000000000E+00 0. -1.
</event>
<event>
 7    1  0.6953847E-012  0.5930195E+02  0.7816164E-02  0.1266605E+00
        -11   -1    0    0    0    0  0.00000000000E+00  0.00000000000E+00  0.45593999997E+02  0.45594000000E+02  0.51100000000E-03 0.  1.
         11   -1    0    0    0    0 -0.00000000000E+00 -0.00000000000E+00 -0.45593999997E+02  0.45594000000E+02  0.51100000000E-03 0. -1.
    9900012    2    1    2    0    0 -0.10671892959E+02 -0.89058811305E+01 -0.28696975734E+02  0.59301946084E+02  0.50000003750E+02 0.  0.
        -12    1    1    2    0    0  0.10671892959E+02  0.89058811305E+01  0.28696975734E+02  0.31886053916E+02  0.00000000000E+00 0.  1.
         11    1    3    3    0    0 -0.87552876446E+00 -0.14503917207E+02 -0.31563401388E+02  0.34747352020E+02  0.51100000000E-03 0. -1.
        -11    1    3    3    0    0 -0.65907032612E+00  0.76053301890E+01 -0.74231588903E+01  0.10647943893E+02  0.51100000000E-03 0.  1.
        -12    1    3    3    0    0 -0.91372938686E+01 -0.20072941125E+01  0.10289584544E+02  0.13906650171E+02  0.00000000000E+00 0.  1.
</event>
<event>
 7    1  0.6953847E-012  0.5930194E+02  0.7816164E-02  0.1266605E+00
        -11   -1    0    0    0    0  0.00000000000E+00  0.00000000000E+00  0.45593999997E+02  0.45594000000E+02  0.51100000000E-03 0.  1.
         11   -1    0    0    0    0 -0.00000000000E+00 -0.00000000000E+00 -0.45593999997E+02  0.45594000000E+02  0.51100000000E-03 0. -1.
    9900012    2    1    2    0    0  0.19216516990E+02 -0.16608617951E+02 -0.19276935318E+02  0.59301937987E+02  0.49999988984E+02 0.  0.
        -12    1    1    2    0    0 -0.19216516990E+02  0.16608617951E+02  0.19276935318E+02  0.31886062013E+02  0.00000000000E+00 0.  1.
         11    1    3    3    0    0 -0.35925474571E+01 -0.12710944472E+02 -0.10065491518E+02  0.16606884909E+02  0.51100000000E-03 0. -1.
        -11    1    3    3    0    0 -0.16520839825E+01 -0.14665483705E+02 -0.12645449601E+01  0.14812321492E+02  0.51100000000E-03 0.  1.
         12    1    3    3    0    0  0.24461148429E+02  0.10767810226E+02 -0.79468988390E+01  0.27882731586E+02  0.00000000000E+00 0. -1.
</event>
<event>
 7    1  0.6953847E-012  0.5930196E+02  0.7816164E-02  0.1266605E+00
        -11   -1    0    0    0    0  0.00000000000E+00  0.00000000000E+00  0.45593999997E+02  0.45594000000E+02  0.51100000000E-03 0. -1.
         11   -1    0    0    0    0 -0.00000000000E+00 -0.00000000000E+00 -0.45593999997E+02  0.45594000000E+02  0.51100000000E-03 0.  1.
    9900012    2    1    2    0    0 -0.20161254329E+02 -0.24248502876E+02  0.47173781465E+01  0.59301957215E+02  0.50000024051E+02 0.  0.
        -12    1    1    2    0    0  0.20161254329E+02  0.24248502876E+02 -0.47173781465E+01  0.31886042785E+02  0.00000000000E+00 0.  1.
         11    1    3    3    0    0  0.12235349010E+02  0.11637116909E+01  0.31002569048E+01  0.12675550617E+02  0.51100000000E-03 0. -1.
        -11    1    3    3    0    0  0.48708719167E+00  0.17628991280E+00  0.48098148857E+01  0.48376287127E+01  0.51100000000E-03 0.  1.
         12    1    3    3    0    0 -0.32883690531E+02 -0.25588504480E+02 -0.31926936440E+01  0.41788777886E+02  0.00000000000E+00 0. -1.
</event>
<event>
 7    1  0.6953847E-012  0.5930195E+02  0.7816164E-02  0.1266605E+00
        -11   -1    0    0    0    0  0.00000000000E+00  0.00000000000E+00  0.45593999997E+02  0.45594000000E+02  0.51100000000E-03 0.  1.
         11   -1    0    0    0    0 -0.00000000000E+00 -0.00000000000E+00 -0.45593999997E+02  0.45594000000E+02  0.51100000000E-03 0. -1.
    9900012    2    1    2    0    0 -0.31535051065E+02  0.28009107847E+01 -0.37968149405E+01  0.59301947397E+02  0.50000006145E+02 0.  0.
        -12    1    1    2    0    0  0.31535051065E+02 -0.28009107847E+01  0.37968149405E+01  0.31886052603E+02  0.00000000000E+00 0.  1.
         11    1    3    3    0    0 -0.19505780202E+02  0.11399771858E+02 -0.12868084716E+02  0.26000343540E+02  0.51100000000E-03 0. -1.
        -11    1    3    3    0    0  0.77474881673E+01  0.14872778530E+01 -0.24883870601E+01  0.82721000197E+01  0.51100000000E-03 0.  1.
         12    1    3    3    0    0 -0.19776759030E+02 -0.10086138926E+02  0.11559656836E+02  0.25029503837E+02  0.00000000000E+00 0. -1.
</event>
<event>
 7    1  0.6953847E-012  0.5930211E+02  0.7816164E-02  0.1266604E+00
        -11   -1    0    0    0    0  0.00000000000E+00  0.00000000000E+00  0.45593999997E+02  0.45594000000E+02  0.51100000000E-03 0.  1.
         11   -1    0    0    0    0 -0.00000000000E+00 -0.00000000000E+00 -0.45593999997E+02  0.45594000000E+02  0.51100000000E-03 0. -1.
    9900012    2    1    2    0    0  0.76571661657E+01  0.29560463025E+02 -0.91791423110E+01  0.59302112502E+02  0.50000307256E+02 0.  0.
        -12    1    1    2    0    0 -0.76571661657E+01 -0.29560463025E+02  0.91791423110E+01  0.31885887498E+02  0.00000000000E+00 0.  1.
         11    1    3    3    0    0  0.49507481878E+00  0.69786217782E+01 -0.12528681233E+02  0.14349707826E+02  0.51100000000E-03 0. -1.
        -11    1    3    3    0    0  0.81193592524E+01  0.29155624039E+01 -0.15471629642E+02  0.17714283018E+02  0.51100000000E-03 0.  1.
         12    1    3    3    0    0 -0.95726790550E+00  0.19666278843E+02  0.18821168564E+02  0.27238121658E+02  0.00000000000E+00 0. -1.
</event>
<event>
 7    1  0.6953847E-012  0.5930195E+02  0.7816164E-02  0.1266605E+00
        -11   -1    0    0    0    0  0.00000000000E+00  0.00000000000E+00  0.45593999997E+02  0.45594000000E+02  0.51100000000E-03 0.  1.
         11   -1    0    0    0    0 -0.00000000000E+00 -0.00000000000E+00 -0.45593999997E+02  0.45594000000E+02  0.51100000000E-03 0. -1.
    9900012    2    1    2    0    0 -0.24454803201E+02  0.13122452831E+02 -0.15699815899E+02  0.59301946824E+02  0.50000005099E+02 0.  0.
        -12    1    1    2    0    0  0.24454803201E+02 -0.13122452831E+02  0.15699815899E+02  0.31886053176E+02  0.00000000000E+00 0.  1.
         11    1    3    3    0    0  0.15497159515E+01  0.10567742143E+02  0.79043540792E+00  0.10709975813E+02  0.51100000000E-03 0. -1.
        -11    1    3    3    0    0  0.26749410572E+01  0.14340025625E+02 -0.68940884218E+01  0.16134438323E+02  0.51100000000E-03 0.  1.
        -12    1    3    3    0    0 -0.28679460210E+02 -0.11785314936E+02 -0.95961628850E+01  0.32457532688E+02  0.00000000000E+00 0.  1.
</event>
<event>
 7    1  0.6953847E-012  0.5930196E+02  0.7816164E-02  0.1266605E+00
        -11   -1    0    0    0    0  0.00000000000E+00  0.00000000000E+00  0.45593999997E+02  0.45594000000E+02  0.51100000000E-03 0.  1.
         11   -1    0    0    0    0 -0.00000000000E+00 -0.00000000000E+00 -0.45593999997E+02  0.45594000000E+02  0.51100000000E-03 0. -1.
    9900012    2    1    2    0    0  0.20351446049E+02 -0.98399855285E+01 -0.22488062348E+02  0.59301958859E+02  0.50000027048E+02 0.  0.
        -12    1    1    2    0    0 -0.20351446049E+02  0.98399855285E+01  0.22488062348E+02  0.31886041141E+02  0.00000000000E+00 0.  1.
         11    1    3    3    0    0  0.94226723145E+01  0.10318675060E+02 -0.15109904970E+02  0.20580841504E+02  0.51100000000E-03 0. -1.
        -11    1    3    3    0    0  0.63004677792E+00  0.60534654339E+01  0.50783218082E+01  0.79265853525E+01  0.51100000000E-03 0.  1.
         12    1    3    3    0    0  0.10298726957E+02 -0.26212126022E+02 -0.12456479186E+02  0.30794532002E+02  0.00000000000E+00 0. -1.
</event>
<event>
 7    1  0.6953847E-012  0.5930195E+02  0.7816164E-02  0.1266605E+00
        -11   -1    0    0    0    0  0.00000000000E+00  0.00000000000E+00  0.45593999997E+02  0.45594000000E+02  0.51100000000E-03 0. -1.
         11   -1    0    0    0    0 -0.00000000000E+00 -0.00000000000E+00 -0.45593999997E+02  0.45594000000E+02  0.51100000000E-03 0.  1.
    9900012    2    1    2    0    0 -0.24481774442E+02  0.16978308815E+02  0.11362208286E+02  0.59301952468E+02  0.50000015394E+02 0.  0.
        -12    1    1    2    0    0  0.24481774442E+02 -0.16978308815E+02 -0.11362208286E+02  0.31886047532E+02  0.00000000000E+00 0.  1.
         11    1    3    3    0    0  0.25014427171E+00  0.10810455882E+02  0.63248555916E+01  0.12527263351E+02  0.51100000000E-03 0. -1.
        -11    1    3    3    0    0 -0.16595303797E+02  0.15234166314E+02 -0.12237345570E+02  0.25636625329E+02  0.51100000000E-03 0.  1.
        -12    1    3    3    0    0 -0.81366149168E+01 -0.90663133811E+01  0.17274698265E+02  0.21138063789E+02  0.00000000000E+00 0.  1.
</event>
<event>
 7    1  0.6953847E-012  0.5930196E+02  0.7816164E-02  0.1266605E+00
        -11   -1    0    0    0    0  0.00000000000E+00  0.00000000000E+00  0.45593999997E+02  0.45594000000E+02  0.51100000000E-03 0.  1.
         11   -1    0    0    0    0 -0.00000000000E+00 -0.00000000000E+00 -0.45593999997E+02  0.45594000000E+02  0.51100000000E-03 0. -1.
    9900012    2    1    2    0    0 -0.12698442522E+02  0.19691618849E+02 -0.21626587981E+02  0.59301959119E+02  0.50000027522E+02 0.  0.
        -12    1    1    2    0    0  0.12698442522E+02 -0.19691618849E+02  0.21626587981E+02  0.31886040881E+02  0.00000000000E+00 0.  1.
         11    1    3    3    0    0 -0.38195092734E+01 -0.53507346127E+01 -0.10154124289E+01  0.66520729586E+01  0.51100000000E-03 0. -1.
        -11    1    3    3    0    0  0.55693009168E+01 -0.86388515896E+01  0.61614069166E+00  0.10296916971E+02  0.51100000000E-03 0.  1.
         12    1    3    3    0    0 -0.14448234165E+02  0.33681205051E+02 -0.21227316244E+02  0.42352969189E+02  0.00000000000E+00 0. -1.
</event>
<event>
 7    1  0.6953847E-012  0.5930199E+02  0.7816164E-02  0.1266605E+00
        -11   -1    0    0    0    0  0.00000000000E+00  0.00000000000E+00  0.45593999997E+02  0.45594000000E+02  0.51100000000E-03 0. -1.
         11   -1    0    0    0    0 -0.00000000000E+00 -0.00000000000E+00 -0.45593999997E+02  0.45594000000E+02  0.51100000000E-03 0.  1.
    9900012    2    1    2    0    0  0.26395899355E+02  0.15642536282E+02 -0.86767215096E+01  0.59301985193E+02  0.50000075076E+02 0.  0.
        -12    1    1    2    0    0 -0.26395899355E+02 -0.15642536282E+02  0.86767215096E+01  0.31886014807E+02  0.00000000000E+00 0.  1.
         11    1    3    3    0    0  0.24103382250E+01 -0.23931314842E+01  0.82005921999E+01  0.88761771811E+01  0.51100000000E-03 0. -1.
        -11    1    3    3    0    0  0.14479441700E+01 -0.10118547287E+01  0.10214951439E+02  0.10366562858E+02  0.51100000000E-03 0.  1.
         12    1    3    3    0    0  0.22537616961E+02  0.19047522495E+02 -0.27092265149E+02  0.40059245154E+02  0.00000000000E+00 0. -1.
</event>
<event>
 7    1  0.6953847E-012  0.5930195E+02  0.7816164E-02  0.1266605E+00
        -11   -1    0    0    0    0  0.00000000000E+00  0.00000000000E+00  0.45593999997E+02  0.45594000000E+02  0.51100000000E-03 0.  1.
         11   -1    0    0    0    0 -0.00000000000E+00 -0.00000000000E+00 -0.45593999997E+02  0.45594000000E+02  0.51100000000E-03 0. -1.
    9900012    2    1    2    0    0  0.29681209884E+02  0.41982859069E+01 -0.10868324961E+02  0.59301947999E+02  0.50000007242E+02 0.  0.
        -12    1    1    2    0    0 -0.29681209884E+02 -0.41982859069E+01  0.10868324961E+02  0.31886052001E+02  0.00000000000E+00 0.  1.
         11    1    3    3    0    0  0.18186904695E+02 -0.20851254887E+01  0.37079591508E+01  0.18677799978E+02  0.51100000000E-03 0. -1.
        -11    1    3    3    0    0  0.15978848125E+02  0.80804956420E+01  0.64636062108E+01  0.19036706720E+02  0.51100000000E-03 0.  1.
        -12    1    3    3    0    0 -0.44845429357E+01 -0.17970842464E+01 -0.21039890323E+02  0.21587441301E+02  0.00000000000E+00 0.  1.
</event>
<event>
 7    1  0.6953847E-012  0.5930156E+02  0.7816164E-02  0.1266606E+00
        -11   -1    0    0    0    0  0.00000000000E+00  0.00000000000E+00  0.45593999997E+02  0.45594000000E+02  0.51100000000E-03 0. -1.
         11   -1    0    0    0    0 -0.00000000000E+00 -0.00000000000E+00 -0.45593999997E+02  0.45594000000E+02  0.51100000000E-03 0.  1.
    9900012    2    1    2    0    0  0.96237558015E+01 -0.29564914529E+02  0.70741899002E+01  0.59301560726E+02  0.49999300945E+02 0.  0.
        -12    1    1    2    0    0 -0.96237558015E+01  0.29564914529E+02 -0.70741899002E+01  0.31886439274E+02  0.00000000000E+00 0.  1.
         11    1    3    3    0    0 -0.26153574991E+01 -0.22590009132E+02 -0.26746834413E+01  0.22897653574E+02  0.51100000000E-03 0. -1.
        -11    1    3    3    0    0 -0.46281267550E+01 -0.15498372164E+02  0.46409303559E+01  0.16827279395E+02  0.51100000000E-03 0.  1.
        -12    1    3    3    0    0  0.16867240056E+02  0.85234667671E+01  0.51079429857E+01  0.19576627758E+02  0.00000000000E+00 0.  1.
</event>
<event>
 7    1  0.6953847E-012  0.5930194E+02  0.7816164E-02  0.1266605E+00
        -11   -1    0    0    0    0  0.00000000000E+00  0.00000000000E+00  0.45593999997E+02  0.45594000000E+02  0.51100000000E-03 0.  1.
         11   -1    0    0    0    0 -0.00000000000E+00 -0.00000000000E+00 -0.45593999997E+02  0.45594000000E+02  0.51100000000E-03 0. -1.
    9900012    2    1    2    0    0  0.13087419536E+01  0.17578827613E+02 -0.26570520317E+02  0.59301944495E+02  0.50000000852E+02 0.  0.
        -12    1    1    2    0    0 -0.13087419536E+01 -0.17578827613E+02  0.26570520317E+02  0.31886055505E+02  0.00000000000E+00 0.  1.
         11    1    3    3    0    0  0.14813108080E+02  0.12322499983E+02 -0.17375767332E+02  0.25945895002E+02  0.51100000000E-03 0. -1.
        -11    1    3    3    0    0  0.23460885814E+00 -0.25482003618E+01  0.89424332811E+01  0.93013697727E+01  0.51100000000E-03 0.  1.
         12    1    3    3    0    0 -0.13738974984E+02  0.78045279924E+01 -0.18137186266E+02  0.24054679720E+02  0.00000000000E+00 0. -1.
</event>
<event>
 7    1  0.6953847E-012  0.5930196E+02  0.7816164E-02  0.1266605E+00
        -11   -1    0    0    0    0  0.00000000000E+00  0.00000000000E+00  0.45593999997E+02  0.45594000000E+02  0.51100000000E-03 0. -1.
         11   -1    0    0    0    0 -0.00000000000E+00 -0.00000000000E+00 -0.45593999997E+02  0.45594000000E+02  0.51100000000E-03 0.  1.
    9900012    2    1    2    0    0 -0.22173892719E+02  0.43740093604E+01  0.22492355893E+02  0.59301959954E+02  0.50000029046E+02 0.  0.
        -12    1    1    2    0    0  0.22173892719E+02 -0.43740093604E+01 -0.22492355893E+02  0.31886040046E+02  0.00000000000E+00 0.  1.
         11    1    3    3    0    0  0.89169181874E+01  0.47577304575E+01  0.24438355911E+01  0.10398065288E+02  0.51100000000E-03 0. -1.
        -11    1    3    3    0    0  0.54304192762E+01  0.43116218837E+01 -0.90519458450E-01  0.69345317662E+01  0.51100000000E-03 0.  1.
        -12    1    3    3    0    0 -0.36521230183E+02 -0.46953429808E+01  0.20139039760E+02  0.41969362900E+02  0.00000000000E+00 0.  1.
</event>
<event>
 7    1  0.6953847E-012  0.5930188E+02  0.7816164E-02  0.1266605E+00
        -11   -1    0    0    0    0  0.00000000000E+00  0.00000000000E+00  0.45593999997E+02  0.45594000000E+02  0.51100000000E-03 0.  1.
         11   -1    0    0    0    0 -0.00000000000E+00 -0.00000000000E+00 -0.45593999997E+02  0.45594000000E+02  0.51100000000E-03 0. -1.
    9900012    2    1    2    0    0  0.26530163074E+02 -0.37857428578E+01 -0.17278395575E+02  0.59301884599E+02  0.49999891616E+02 0.  0.
        -12    1    1    2    0    0 -0.26530163074E+02  0.37857428578E+01  0.17278395575E+02  0.31886115401E+02  0.00000000000E+00 0.  1.
         11    1    3    3    0    0 -0.23892396898E+01  0.28533907653E+01 -0.10312941319E+02  0.10963898215E+02  0.51100000000E-03 0. -1.
        -11    1    3    3    0    0 -0.24133324011E+01 -0.37446715537E+01 -0.15177572338E+02  0.15817883571E+02  0.51100000000E-03 0.  1.
        -12    1    3    3    0    0  0.31332735165E+02 -0.28944620694E+01  0.82121180821E+01  0.32520102813E+02  0.00000000000E+00 0.  1.
</event>
<event>
 7    1  0.6953847E-012  0.5930192E+02  0.7816164E-02  0.1266605E+00
        -11   -1    0    0    0    0  0.00000000000E+00  0.00000000000E+00  0.45593999997E+02  0.45594000000E+02  0.51100000000E-03 0. -1.
         11   -1    0    0    0    0 -0.00000000000E+00 -0.00000000000E+00 -0.45593999997E+02  0.45594000000E+02  0.51100000000E-03 0.  1.
    9900012    2    1    2    0    0 -0.53048209530E+00 -0.84946854448E+01  0.30729153607E+02  0.59301921949E+02  0.49999959733E+02 0.  0.
        -12    1    1    2    0    0  0.53048209530E+00  0.84946854448E+01 -0.30729153607E+02  0.31886078051E+02  0.00000000000E+00 0.  1.
         11    1    3    3    0    0  0.23929789219E+01  0.15227971587E+02  0.88248578819E+01  0.17762195350E+02  0.51100000000E-03 0. -1.
        -11    1    3    3    0    0  0.65207335504E+00 -0.82535489555E+01 -0.54497158240E+01  0.99118955223E+01  0.51100000000E-03 0.  1.
         12    1    3    3    0    0 -0.35755343723E+01 -0.15469108076E+02  0.27354011550E+02  0.31627831076E+02  0.00000000000E+00 0. -1.
</event>
<event>
 7    1  0.6953847E-012  0.5930195E+02  0.7816164E-02  0.1266605E+00
        -11   -1    0    0    0    0  0.00000000000E+00  0.00000000000E+00  0.45593999997E+02  0.45594000000E+02  0.51100000000E-03 0.  1.
         11   -1    0    0    0    0 -0.00000000000E+00 -0.00000000000E+00 -0.45593999997E+02  0.45594000000E+02  0.51100000000E-03 0. -1.
    9900012    2    1    2    0    0 -0.22386181576E+01  0.21520803526E+02 -0.23421442877E+02  0.59301946903E+02  0.50000005244E+02 0.  0.
        -12    1    1    2    0    0  0.22386181576E+01 -0.21520803526E+02  0.23421442877E+02  0.31886053097E+02  0.00000000000E+00 0.  1.
         11    1    3    3    0    0  0.39285802837E+01  0.62730187712E+01 -0.99165840103E+00  0.74677904493E+01  0.51100000000E-03 0. -1.
        -11    1    3    3    0    0  0.17815783810E+02  0.25022544163E+01 -0.25366198682E+01  0.18168595723E+02  0.51100000000E-03 0.  1.
         12    1    3    3    0    0 -0.23982982251E+02  0.12745530338E+02 -0.19893164608E+02  0.33665560731E+02  0.00000000000E+00 0. -1.
</event>
<event>
 7    1  0.6953847E-012  0.5930184E+02  0.7816164E-02  0.1266605E+00
        -11   -1    0    0    0    0  0.00000000000E+00  0.00000000000E+00  0.45593999997E+02  0.45594000000E+02  0.51100000000E-03 0. -1.
         11   -1    0    0    0    0 -0.00000000000E+00 -0.00000000000E+00 -0.45593999997E+02  0.45594000000E+02  0.51100000000E-03 0.  1.
    9900012    2    1    2    0    0  0.23140381662E+02  0.16860857850E+02  0.14034292546E+02  0.59301840649E+02  0.49999811462E+02 0.  0.
        -12    1    1    2    0    0 -0.23140381662E+02 -0.16860857850E+02 -0.14034292546E+02  0.31886159351E+02  0.00000000000E+00 0.  1.
         11    1    3    3    0    0 -0.79997501757E+01  0.46865517903E+01  0.48048834200E+01  0.10442541621E+02  0.51100000000E-03 0.  1.
        -11    1    3    3    0    0  0.34470809533E+02  0.91984218418E-01  0.11041168556E+02  0.36196029814E+02  0.51100000000E-03 0. -1.
         12    1    3    3    0    0 -0.33306776953E+01  0.12082321841E+02 -0.18117594298E+01  0.12663269215E+02  0.00000000000E+00 0. -1.
</event>
<event>
 7    1  0.6953847E-012  0.5930201E+02  0.7816164E-02  0.1266605E+00
        -11   -1    0    0    0    0  0.00000000000E+00  0.00000000000E+00  0.45593999997E+02  0.45594000000E+02  0.51100000000E-03 0.  1.
         11   -1    0    0    0    0 -0.00000000000E+00 -0.00000000000E+00 -0.45593999997E+02  0.45594000000E+02  0.51100000000E-03 0. -1.
    9900012    2    1    2    0    0  0.10316137309E+02  0.21590616307E+02 -0.21074601755E+02  0.59302011845E+02  0.50000123682E+02 0.  0.
        -12    1    1    2    0    0 -0.10316137309E+02 -0.21590616307E+02  0.21074601755E+02  0.31885988155E+02  0.00000000000E+00 0.  1.
         11    1    3    3    0    0 -0.13317042980E+02  0.35783249990E+01 -0.21603828430E+02  0.25629542459E+02  0.51100000000E-03 0. -1.
        -11    1    3    3    0    0 -0.19138245510E+01  0.27068465093E+01 -0.18504703204E+01  0.37965751810E+01  0.51100000000E-03 0.  1.
        -12    1    3    3    0    0  0.25547004840E+02  0.15305444798E+02  0.23796969954E+01  0.29875894205E+02  0.00000000000E+00 0.  1.
</event>
<event>
 7    1  0.6953847E-012  0.5930194E+02  0.7816164E-02  0.1266605E+00
        -11   -1    0    0    0    0  0.00000000000E+00  0.00000000000E+00  0.45593999997E+02  0.45594000000E+02  0.51100000000E-03 0.  1.
         11   -1    0    0    0    0 -0.00000000000E+00 -0.00000000000E+00 -0.45593999997E+02  0.45594000000E+02  0.51100000000E-03 0. -1.
    9900012    2    1    2    0    0 -0.31102863036E+02 -0.14041215679E+01  0.68819425112E+01  0.59301940677E+02  0.49999993889E+02 0.  0.
        -12    1    1    2    0    0  0.31102863036E+02  0.14041215679E+01 -0.68819425112E+01  0.31886059323E+02  0.00000000000E+00 0.  1.
         11    1    3    3    0    0 -0.24520992697E+02  0.43105425170E+01  0.33183365995E+01  0.25117149872E+02  0.51100000000E-03 0.  1.
        -11    1    3    3    0    0 -0.20000873232E+02 -0.45301642914E+01  0.27219088410E+01  0.20687341699E+02  0.51100000000E-03 0. -1.
        -12    1    3    3    0    0  0.13419002894E+02 -0.11844997935E+01  0.84169707071E+00  0.13497449106E+02  0.00000000000E+00 0.  1.
</event>
<event>
 7    1  0.6953847E-012  0.5930196E+02  0.7816164E-02  0.1266605E+00
        -11   -1    0    0    0    0  0.00000000000E+00  0.00000000000E+00  0.45593999997E+02  0.45594000000E+02  0.51100000000E-03 0.  1.
         11   -1    0    0    0    0 -0.00000000000E+00 -0.00000000000E+00 -0.45593999997E+02  0.45594000000E+02  0.51100000000E-03 0. -1.
    9900012    2    1    2    0    0 -0.78830067488E-01  0.21723392428E+02 -0.23341109954E+02  0.59301962199E+02  0.50000033141E+02 0.  0.
        -12    1    1    2    0    0  0.78830067488E-01 -0.21723392428E+02  0.23341109954E+02  0.31886037801E+02  0.00000000000E+00 0.  1.
         11    1    3    3    0    0 -0.82426628724E+01  0.32393922850E+01 -0.25560490594E+02  0.27051318512E+02  0.51100000000E-03 0. -1.
        -11    1    3    3    0    0 -0.35134598812E+01  0.18891075176E+02 -0.30101261573E+01  0.19449369691E+02  0.51100000000E-03 0.  1.
        -12    1    3    3    0    0  0.11677292686E+02 -0.40707503316E+00  0.52295067975E+01  0.12801273995E+02  0.00000000000E+00 0.  1.
</event>
<event>
 7    1  0.6953847E-012  0.5930195E+02  0.7816164E-02  0.1266605E+00
        -11   -1    0    0    0    0  0.00000000000E+00  0.00000000000E+00  0.45593999997E+02  0.45594000000E+02  0.51100000000E-03 0.  1.
         11   -1    0    0    0    0 -0.00000000000E+00 -0.00000000000E+00 -0.45593999997E+02  0.45594000000E+02  0.51100000000E-03 0. -1.
    9900012    2    1    2    0    0  0.18779338201E+02  0.25764396423E+02  0.50241116154E+00  0.59301951588E+02  0.50000013789E+02 0.  0.
        -12    1    1    2    0    0 -0.18779338201E+02 -0.25764396423E+02 -0.50241116154E+00  0.31886048412E+02  0.00000000000E+00 0.  1.
         11    1    3    3    0    0  0.51663331603E+01 -0.19255430987E+01 -0.46098195913E+01  0.71867344096E+01  0.51100000000E-03 0. -1.
        -11    1    3    3    0    0  0.15900201935E+02 -0.43517908408E+01 -0.68301030944E+01  0.17843901301E+02  0.51100000000E-03 0.  1.
         12    1    3    3    0    0 -0.22871968944E+01  0.32041730363E+02  0.11942333847E+02  0.34271315878E+02  0.00000000000E+00 0. -1.
</event>
<event>
 7    1  0.6953847E-012  0.5930191E+02  0.7816164E-02  0.1266605E+00
        -11   -1    0    0    0    0  0.00000000000E+00  0.00000000000E+00  0.45593999997E+02  0.45594000000E+02  0.51100000000E-03 0.  1.
         11   -1    0    0    0    0 -0.00000000000E+00 -0.00000000000E+00 -0.45593999997E+02  0.45594000000E+02  0.51100000000E-03 0. -1.
    9900012    2    1    2    0    0  0.91391494131E+01  0.14006358038E+02 -0.27148123649E+02  0.59301910005E+02  0.49999937951E+02 0.  0.
        -12    1    1    2    0    0 -0.91391494131E+01 -0.14006358038E+02  0.27148123649E+02  0.31886089995E+02  0.00000000000E+00 0.  1.
         11    1    3    3    0    0  0.14997072454E+02 -0.89988432405E+01 -0.61289454614E+01  0.18532547979E+02  0.51100000000E-03 0. -1.
        -11    1    3    3    0    0 -0.19487565584E+01  0.84323728611E+01  0.55028869809E+01  0.10255941184E+02  0.51100000000E-03 0.  1.
         12    1    3    3    0    0 -0.39091664826E+01  0.14572828418E+02 -0.26522065169E+02  0.30513420842E+02  0.00000000000E+00 0. -1.
</event>
<event>
 7    1  0.6953847E-012  0.5930194E+02  0.7816164E-02  0.1266605E+00
        -11   -1    0    0    0    0  0.00000000000E+00  0.00000000000E+00  0.45593999997E+02  0.45594000000E+02  0.51100000000E-03 0. -1.
         11   -1    0    0    0    0 -0.00000000000E+00 -0.00000000000E+00 -0.45593999997E+02  0.45594000000E+02  0.51100000000E-03 0.  1.
    9900012    2    1    2    0    0  0.26332153950E+02  0.16321338703E+02 -0.75466734313E+01  0.59301941784E+02  0.49999995908E+02 0.  0.
        -12    1    1    2    0    0 -0.26332153950E+02 -0.16321338703E+02  0.75466734313E+01  0.31886058216E+02  0.00000000000E+00 0.  1.
         11    1    3    3    0    0  0.15997677768E+02  0.24554315013E+01 -0.14363620439E+02  0.21639510859E+02  0.51100000000E-03 0. -1.
        -11    1    3    3    0    0 -0.33720020952E+01  0.40110462472E+01 -0.11569889299E+02  0.12701229420E+02  0.51100000000E-03 0.  1.
         12    1    3    3    0    0  0.13706478277E+02  0.98548609541E+01  0.18386836307E+02  0.24961201505E+02  0.00000000000E+00 0. -1.
</event>
<event>
 7    1  0.6953847E-012  0.5930227E+02  0.7816164E-02  0.1266604E+00
        -11   -1    0    0    0    0  0.00000000000E+00  0.00000000000E+00  0.45593999997E+02  0.45594000000E+02  0.51100000000E-03 0. -1.
         11   -1    0    0    0    0 -0.00000000000E+00 -0.00000000000E+00 -0.45593999997E+02  0.45594000000E+02  0.51100000000E-03 0.  1.
    9900012    2    1    2    0    0  0.31879135862E+02  0.20782444868E+00 -0.61399042099E+00  0.59302274690E+02  0.50000603046E+02 0.  0.
        -12    1    1    2    0    0 -0.31879135862E+02 -0.20782444868E+00  0.61399042099E+00  0.31885725310E+02  0.00000000000E+00 0.  1.
         11    1    3    3    0    0  0.35519206473E+02  0.10055616285E+02  0.10203841138E+02  0.38299449364E+02  0.51100000000E-03 0. -1.
        -11    1    3    3    0    0 -0.12897688782E+01 -0.10115314023E+02 -0.27819853104E+00  0.10201003687E+02  0.51100000000E-03 0.  1.
        -12    1    3    3    0    0 -0.23503017336E+01  0.26752218679E+00 -0.10539633028E+02  0.10801821639E+02  0.00000000000E+00 0.  1.
</event>
<event>
 7    1  0.6953847E-012  0.5930196E+02  0.7816164E-02  0.1266605E+00
        -11   -1    0    0    0    0  0.00000000000E+00  0.00000000000E+00  0.45593999997E+02  0.45594000000E+02  0.51100000000E-03 0. -1.
         11   -1    0    0    0    0 -0.00000000000E+00 -0.00000000000E+00 -0.45593999997E+02  0.45594000000E+02  0.51100000000E-03 0.  1.
    9900012    2    1    2    0    0  0.15711185783E+02 -0.25649480110E+02 -0.10582158176E+02  0.59301964494E+02  0.50000037326E+02 0.  0.
        -12    1    1    2    0    0 -0.15711185783E+02  0.25649480110E+02  0.10582158176E+02  0.31886035506E+02  0.00000000000E+00 0.  1.
         11    1    3    3    0    0 -0.51775240029E+01  0.89018327854E+01  0.27615259249E+01  0.10661866977E+02  0.51100000000E-03 0. -1.
        -11    1    3    3    0    0  0.43610208212E+01 -0.35770991274E+01 -0.12283006924E+02  0.13516153304E+02  0.51100000000E-03 0.  1.
         12    1    3    3    0    0  0.16527688964E+02 -0.30974213768E+02 -0.10606771765E+01  0.35123944214E+02  0.00000000000E+00 0. -1.
</event>
<event>
 7    1  0.6953847E-012  0.5930188E+02  0.7816164E-02  0.1266605E+00
        -11   -1    0    0    0    0  0.00000000000E+00  0.00000000000E+00  0.45593999997E+02  0.45594000000E+02  0.51100000000E-03 0. -1.
         11   -1    0    0    0    0 -0.00000000000E+00 -0.00000000000E+00 -0.45593999997E+02  0.45594000000E+02  0.51100000000E-03 0.  1.
    9900012    2    1    2    0    0 -0.19418544934E+01 -0.31824229955E+02 -0.41526019243E+00  0.59301876809E+02  0.49999877410E+02 0.  0.
        -12    1    1    2    0    0  0.19418544934E+01  0.31824229955E+02  0.41526019243E+00  0.31886123191E+02  0.00000000000E+00 0.  1.
         11    1    3    3    0    0  0.35450494228E+01 -0.19996665478E+02 -0.10358534351E+02  0.22797658647E+02  0.51100000000E-03 0. -1.
        -11    1    3    3    0    0 -0.23860369747E+01 -0.20315835538E+02 -0.30455538943E+01  0.20680951256E+02  0.51100000000E-03 0.  1.
        -12    1    3    3    0    0 -0.31008669414E+01  0.84882710607E+01  0.12988828053E+02  0.15823266906E+02  0.00000000000E+00 0.  1.
</event>
<event>
 7    1  0.6953847E-012  0.5930196E+02  0.7816164E-02  0.1266605E+00
        -11   -1    0    0    0    0  0.00000000000E+00  0.00000000000E+00  0.45593999997E+02  0.45594000000E+02  0.51100000000E-03 0. -1.
         11   -1    0    0    0    0 -0.00000000000E+00 -0.00000000000E+00 -0.45593999997E+02  0.45594000000E+02  0.51100000000E-03 0.  1.
    9900012    2    1    2    0    0 -0.28207462863E+02  0.14105130483E+02  0.47014719197E+01  0.59301960652E+02  0.50000030318E+02 0.  0.
        -12    1    1    2    0    0  0.28207462863E+02 -0.14105130483E+02 -0.47014719197E+01  0.31886039348E+02  0.00000000000E+00 0.  1.
         11    1    3    3    0    0 -0.17771291123E+02  0.10712976554E+02  0.69292535454E+01  0.21876956136E+02  0.51100000000E-03 0. -1.
        -11    1    3    3    0    0  0.43938581368E+01  0.46678681617E+01  0.14004077840E+02  0.15401596635E+02  0.51100000000E-03 0.  1.
         12    1    3    3    0    0 -0.14830029877E+02 -0.12757142326E+01 -0.16231859466E+02  0.22023407881E+02  0.00000000000E+00 0. -1.
</event>
<event>
 7    1  0.6953847E-012  0.5930194E+02  0.7816164E-02  0.1266605E+00
        -11   -1    0    0    0    0  0.00000000000E+00  0.00000000000E+00  0.45593999997E+02  0.45594000000E+02  0.51100000000E-03 0. -1.
         11   -1    0    0    0    0 -0.00000000000E+00 -0.00000000000E+00 -0.45593999997E+02  0.45594000000E+02  0.51100000000E-03 0.  1.
    9900012    2    1    2    0    0  0.20967765421E+02  0.10140347682E+02  0.21777209529E+02  0.59301942033E+02  0.49999996361E+02 0.  0.
        -12    1    1    2    0    0 -0.20967765421E+02 -0.10140347682E+02 -0.21777209529E+02  0.31886057967E+02  0.00000000000E+00 0.  1.
         11    1    3    3    0    0  0.10230737188E+02 -0.55773520855E+01  0.18509032878E+02  0.21871422863E+02  0.51100000000E-03 0. -1.
        -11    1    3    3    0    0 -0.10459105563E+02  0.11234990320E+02  0.35862439579E+01  0.15763218030E+02  0.51100000000E-03 0.  1.
         12    1    3    3    0    0  0.21196133795E+02  0.44827094467E+01 -0.31806730755E+00  0.21667301139E+02  0.00000000000E+00 0. -1.
</event>
<event>
 7    1  0.6953847E-012  0.5930195E+02  0.7816164E-02  0.1266605E+00
        -11   -1    0    0    0    0  0.00000000000E+00  0.00000000000E+00  0.45593999997E+02  0.45594000000E+02  0.51100000000E-03 0.  1.
         11   -1    0    0    0    0 -0.00000000000E+00 -0.00000000000E+00 -0.45593999997E+02  0.45594000000E+02  0.51100000000E-03 0. -1.
    9900012    2    1    2    0    0 -0.27131976042E+02  0.96341976064E+01 -0.13702500903E+02  0.59301946333E+02  0.50000004205E+02 0.  0.
        -12    1    1    2    0    0  0.27131976042E+02 -0.96341976064E+01  0.13702500903E+02  0.31886053667E+02  0.00000000000E+00 0.  1.
         11    1    3    3    0    0 -0.27396010179E+02 -0.65303734939E+00 -0.21067135186E+02  0.34565763650E+02  0.51100000000E-03 0. -1.
        -11    1    3    3    0    0 -0.10261354890E+02  0.70049081621E+01  0.53549153940E+01  0.13529200334E+02  0.51100000000E-03 0.  1.
        -12    1    3    3    0    0  0.10525389027E+02  0.32823267937E+01  0.20097188897E+01  0.11206982349E+02  0.00000000000E+00 0.  1.
</event>
<event>
 7    1  0.6953847E-012  0.5930196E+02  0.7816164E-02  0.1266605E+00
        -11   -1    0    0    0    0  0.00000000000E+00  0.00000000000E+00  0.45593999997E+02  0.45594000000E+02  0.51100000000E-03 0.  1.
         11   -1    0    0    0    0 -0.00000000000E+00 -0.00000000000E+00 -0.45593999997E+02  0.45594000000E+02  0.51100000000E-03 0. -1.
    9900012    2    1    2    0    0  0.12868380078E+02 -0.86188964114E+01 -0.27871826186E+02  0.59301964246E+02  0.50000036873E+02 0.  0.
        -12    1    1    2    0    0 -0.12868380078E+02  0.86188964114E+01  0.27871826186E+02  0.31886035754E+02  0.00000000000E+00 0.  1.
         11    1    3    3    0    0  0.11619625746E+02  0.78142822323E+01 -0.16399697521E+02  0.21564526156E+02  0.51100000000E-03 0. -1.
        -11    1    3    3    0    0  0.31721905809E+01  0.87825406389E+01 -0.78325808772E+01  0.12187909444E+02  0.51100000000E-03 0.  1.
        -12    1    3    3    0    0 -0.19234362484E+01 -0.25215719283E+02 -0.36395477876E+01  0.25549528646E+02  0.00000000000E+00 0.  1.
</event>
<event>
 7    1  0.6953847E-012  0.5930199E+02  0.7816164E-02  0.1266605E+00
        -11   -1    0    0    0    0  0.00000000000E+00  0.00000000000E+00  0.45593999997E+02  0.45594000000E+02  0.51100000000E-03 0.  1.
         11   -1    0    0    0    0 -0.00000000000E+00 -0.00000000000E+00 -0.45593999997E+02  0.45594000000E+02  0.51100000000E-03 0. -1.
    9900012    2    1    2    0    0 -0.90175448389E+01 -0.19702130134E+02 -0.23392897847E+02  0.59301988703E+02  0.50000081478E+02 0.  0.
        -12    1    1    2    0    0  0.90175448389E+01  0.19702130134E+02  0.23392897847E+02  0.31886011297E+02  0.00000000000E+00 0.  1.
         11    1    3    3    0    0 -0.12423427228E+01  0.30028592821E+00  0.62194432701E+01  0.63494142982E+01  0.51100000000E-03 0. -1.
        -11    1    3    3    0    0  0.97979765436E+01  0.47537906189E+01 -0.51742192558E+00  0.10902595806E+02  0.51100000000E-03 0.  1.
         12    1    3    3    0    0 -0.17573178660E+02 -0.24756206681E+02 -0.29094919192E+02  0.42049978599E+02  0.00000000000E+00 0. -1.
</event>
<event>
 7    1  0.6953847E-012  0.5930193E+02  0.7816164E-02  0.1266605E+00
        -11   -1    0    0    0    0  0.00000000000E+00  0.00000000000E+00  0.45593999997E+02  0.45594000000E+02  0.51100000000E-03 0. -1.
         11   -1    0    0    0    0 -0.00000000000E+00 -0.00000000000E+00 -0.45593999997E+02  0.45594000000E+02  0.51100000000E-03 0.  1.
    9900012    2    1    2    0    0 -0.22732674468E+00 -0.31348977827E+02 -0.58233707658E+01  0.59301925684E+02  0.49999966545E+02 0.  0.
        -12    1    1    2    0    0  0.22732674468E+00  0.31348977827E+02  0.58233707658E+01  0.31886074316E+02  0.00000000000E+00 0.  1.
         11    1    3    3    0    0  0.25683238506E+01 -0.64493293541E+00  0.12816841263E+02  0.13087537817E+02  0.51100000000E-03 0. -1.
        -11    1    3    3    0    0 -0.53656590998E+01 -0.29081270766E+02 -0.23746908920E+01  0.29667318113E+02  0.51100000000E-03 0.  1.
        -12    1    3    3    0    0  0.25700085046E+01 -0.16227741255E+01 -0.16265521137E+02  0.16547069754E+02  0.00000000000E+00 0.  1.
</event>
<event>
 7    1  0.6953847E-012  0.5930192E+02  0.7816164E-02  0.1266605E+00
        -11   -1    0    0    0    0  0.00000000000E+00  0.00000000000E+00  0.45593999997E+02  0.45594000000E+02  0.51100000000E-03 0.  1.
         11   -1    0    0    0    0 -0.00000000000E+00 -0.00000000000E+00 -0.45593999997E+02  0.45594000000E+02  0.51100000000E-03 0. -1.
    9900012    2    1    2    0    0 -0.24868299721E+02 -0.22346843580E+01 -0.19831686579E+02  0.59301922509E+02  0.49999960755E+02 0.  0.
        -12    1    1    2    0    0  0.24868299721E+02  0.22346843580E+01  0.19831686579E+02  0.31886077491E+02  0.00000000000E+00 0.  1.
         11    1    3    3    0    0  0.59882937584E+00  0.12956386758E+01  0.25157369559E+01  0.28924399548E+01  0.51100000000E-03 0. -1.
        -11    1    3    3    0    0 -0.36124487391E+01 -0.22455726593E+02 -0.77936891906E+01  0.24042691908E+02  0.51100000000E-03 0.  1.
         12    1    3    3    0    0 -0.21854680357E+02  0.18925403559E+02 -0.14553734345E+02  0.32366790647E+02  0.00000000000E+00 0. -1.
</event>
<event>
 7    1  0.6953847E-012  0.5930194E+02  0.7816164E-02  0.1266605E+00
        -11   -1    0    0    0    0  0.00000000000E+00  0.00000000000E+00  0.45593999997E+02  0.45594000000E+02  0.51100000000E-03 0.  1.
         11   -1    0    0    0    0 -0.00000000000E+00 -0.00000000000E+00 -0.45593999997E+02  0.45594000000E+02  0.51100000000E-03 0. -1.
    9900012    2    1    2    0    0  0.24872406224E+02 -0.15010713661E+02 -0.13143911948E+02  0.59301944469E+02  0.50000000805E+02 0.  0.
        -12    1    1    2    0    0 -0.24872406224E+02  0.15010713661E+02  0.13143911948E+02  0.31886055531E+02  0.00000000000E+00 0.  1.
         11    1    3    3    0    0  0.78656131275E+01 -0.15327753893E+02  0.93797171282E+01  0.19615988452E+02  0.51100000000E-03 0. -1.
        -11    1    3    3    0    0  0.15016510334E+02 -0.12322058840E+02 -0.10282824138E+02  0.21978744031E+02  0.51100000000E-03 0.  1.
        -12    1    3    3    0    0  0.19902827633E+01  0.12639099071E+02 -0.12240804938E+02  0.17707211987E+02  0.00000000000E+00 0.  1.
</event>
<event>
 7    1  0.6953847E-012  0.5930193E+02  0.7816164E-02  0.1266605E+00
        -11   -1    0    0    0    0  0.00000000000E+00  0.00000000000E+00  0.45593999997E+02  0.45594000000E+02  0.51100000000E-03 0.  1.
         11   -1    0    0    0    0 -0.00000000000E+00 -0.00000000000E+00 -0.45593999997E+02  0.45594000000E+02  0.51100000000E-03 0. -1.
    9900012    2    1    2    0    0  0.46203461838E+01  0.28113008445E+02 -0.14318949360E+02  0.59301934808E+02  0.49999983185E+02 0.  0.
        -12    1    1    2    0    0 -0.46203461838E+01 -0.28113008445E+02  0.14318949360E+02  0.31886065192E+02  0.00000000000E+00 0.  1.
         11    1    3    3    0    0 -0.18228081428E+02  0.12211391196E+02 -0.79508332537E+01  0.23336597378E+02  0.51100000000E-03 0. -1.
        -11    1    3    3    0    0  0.16697817859E+02  0.94843993903E+01 -0.14386257740E+02  0.23994486139E+02  0.51100000000E-03 0.  1.
        -12    1    3    3    0    0  0.61506097531E+01  0.64172178584E+01  0.80181416337E+01  0.11970851291E+02  0.00000000000E+00 0.  1.
</event>
<event>
 7    1  0.6953847E-012  0.5930164E+02  0.7816164E-02  0.1266606E+00
        -11   -1    0    0    0    0  0.00000000000E+00  0.00000000000E+00  0.45593999997E+02  0.45594000000E+02  0.51100000000E-03 0.  1.
         11   -1    0    0    0    0 -0.00000000000E+00 -0.00000000000E+00 -0.45593999997E+02  0.45594000000E+02  0.51100000000E-03 0. -1.
    9900012    2    1    2    0    0 -0.26501810794E+02 -0.16381846545E+02 -0.67844619256E+01  0.59301642490E+02  0.49999450065E+02 0.  0.
        -12    1    1    2    0    0  0.26501810794E+02  0.16381846545E+02  0.67844619256E+01  0.31886357510E+02  0.00000000000E+00 0.  1.
         11    1    3    3    0    0 -0.92774958051E+01 -0.18571023924E+02 -0.11540637097E+02  0.23751656003E+02  0.51100000000E-03 0. -1.
        -11    1    3    3    0    0 -0.74658176311E+01 -0.13850778008E+02 -0.13858668041E+01  0.15795667488E+02  0.51100000000E-03 0.  1.
        -12    1    3    3    0    0 -0.97584973584E+01  0.16039955387E+02  0.61420419760E+01  0.19754319000E+02  0.00000000000E+00 0.  1.
</event>
<event>
 7    1  0.6953847E-012  0.5930194E+02  0.7816164E-02  0.1266605E+00
        -11   -1    0    0    0    0  0.00000000000E+00  0.00000000000E+00  0.45593999997E+02  0.45594000000E+02  0.51100000000E-03 0. -1.
         11   -1    0    0    0    0 -0.00000000000E+00 -0.00000000000E+00 -0.45593999997E+02  0.45594000000E+02  0.51100000000E-03 0.  1.
    9900012    2    1    2    0    0 -0.22597292987E+02  0.31536827277E+01  0.22274146122E+02  0.59301937989E+02  0.49999988988E+02 0.  0.
        -12    1    1    2    0    0  0.22597292987E+02 -0.31536827277E+01 -0.22274146122E+02  0.31886062011E+02  0.00000000000E+00 0.  1.
         11    1    3    3    0    0 -0.21226048928E+02  0.12899714355E+02  0.27557520242E+02  0.37099389559E+02  0.51100000000E-03 0. -1.
        -11    1    3    3    0    0 -0.74031680962E+01  0.12504501356E+01 -0.60422827336E+01  0.96374117011E+01  0.51100000000E-03 0.  1.
         12    1    3    3    0    0  0.60319240371E+01 -0.10996481763E+02  0.75890861413E+00  0.12565136730E+02  0.00000000000E+00 0. -1.
</event>
<event>
 7    1  0.6953847E-012  0.5930194E+02  0.7816164E-02  0.1266605E+00
        -11   -1    0    0    0    0  0.00000000000E+00  0.00000000000E+00  0.45593999997E+02  0.45594000000E+02  0.51100000000E-03 0.  1.
         11   -1    0    0    0    0 -0.00000000000E+00 -0.00000000000E+00 -0.45593999997E+02  0.45594000000E+02  0.51100000000E-03 0. -1.
    9900012    2    1    2    0    0 -0.99656210828E+01 -0.21783889095E+02 -0.21044459533E+02  0.59301941844E+02  0.49999996017E+02 0.  0.
        -12    1    1    2    0    0  0.99656210828E+01  0.21783889095E+02  0.21044459533E+02  0.31886058156E+02  0.00000000000E+00 0.  1.
         11    1    3    3    0    0 -0.64042750091E+01 -0.77894601534E+01 -0.24005937263E+02  0.26037961748E+02  0.51100000000E-03 0. -1.
        -11    1    3    3    0    0 -0.13092146515E+02  0.58486692417E+00 -0.51104425555E+01  0.14066378108E+02  0.51100000000E-03 0.  1.
         12    1    3    3    0    0  0.95308004413E+01 -0.14579295866E+02  0.80719202852E+01  0.19197601988E+02  0.00000000000E+00 0. -1.
</event>
<event>
 7    1  0.6953847E-012  0.5930201E+02  0.7816164E-02  0.1266605E+00
        -11   -1    0    0    0    0  0.00000000000E+00  0.00000000000E+00  0.45593999997E+02  0.45594000000E+02  0.51100000000E-03 0.  1.
         11   -1    0    0    0    0 -0.00000000000E+00 -0.00000000000E+00 -0.45593999997E+02  0.45594000000E+02  0.51100000000E-03 0. -1.
    9900012    2    1    2    0    0  0.24997362138E+02 -0.15340575085E+02  0.12510595614E+02  0.59302009967E+02  0.50000120257E+02 0.  0.
        -12    1    1    2    0    0 -0.24997362138E+02  0.15340575085E+02 -0.12510595614E+02  0.31885990033E+02  0.00000000000E+00 0.  1.
         11    1    3    3    0    0  0.84173375102E+01  0.65326057632E+01  0.10756991658E+02  0.15140653176E+02  0.51100000000E-03 0. -1.
        -11    1    3    3    0    0 -0.10282668041E+02 -0.15358715106E+01 -0.35250097316E+00  0.10402712172E+02  0.51100000000E-03 0.  1.
        -12    1    3    3    0    0  0.26862692669E+02 -0.20337309337E+02  0.21061049291E+01  0.33758644618E+02  0.00000000000E+00 0.  1.
</event>
<event>
 7    1  0.6953847E-012  0.5930196E+02  0.7816164E-02  0.1266605E+00
        -11   -1    0    0    0    0  0.00000000000E+00  0.00000000000E+00  0.45593999997E+02  0.45594000000E+02  0.51100000000E-03 0.  1.
         11   -1    0    0    0    0 -0.00000000000E+00 -0.00000000000E+00 -0.45593999997E+02  0.45594000000E+02  0.51100000000E-03 0. -1.
    9900012    2    1    2    0    0  0.92487449627E+01  0.24847642602E+02 -0.17713686384E+02  0.59301963690E+02  0.50000035859E+02 0.  0.
        -12    1    1    2    0    0 -0.92487449627E+01 -0.24847642602E+02  0.17713686384E+02  0.31886036310E+02  0.00000000000E+00 0.  1.
         11    1    3    3    0    0  0.11845745239E+02  0.26500285342E+02 -0.18627358967E+02  0.34490075468E+02  0.51100000000E-03 0. -1.
        -11    1    3    3    0    0 -0.31287193480E+00  0.10214392815E+02 -0.49782246677E+01  0.11367252550E+02  0.51100000000E-03 0.  1.
        -12    1    3    3    0    0 -0.22841283420E+01 -0.11867035555E+02  0.58918972508E+01  0.13444635672E+02  0.00000000000E+00 0.  1.
</event>
<event>
 7    1  0.6953847E-012  0.5930195E+02  0.7816164E-02  0.1266605E+00
        -11   -1    0    0    0    0  0.00000000000E+00  0.00000000000E+00  0.45593999997E+02  0.45594000000E+02  0.51100000000E-03 0. -1.
         11   -1    0    0    0    0 -0.00000000000E+00 -0.00000000000E+00 -0.45593999997E+02  0.45594000000E+02  0.51100000000E-03 0.  1.
    9900012    2    1    2    0    0  0.93898535692E+01 -0.26141956185E+02  0.15657226964E+02  0.59301953217E+02  0.50000016759E+02 0.  0.
        -12    1    1    2    0    0 -0.93898535692E+01  0.26141956185E+02 -0.15657226964E+02  0.31886046783E+02  0.00000000000E+00 0.  1.
         11    1    3    3    0    0  0.64457996824E+01 -0.78796632280E+01  0.23675528104E+02  0.25771458193E+02  0.51100000000E-03 0. -1.
        -11    1    3    3    0    0 -0.57292848837E+01 -0.99872662316E+01  0.76342262475E+01  0.13814905093E+02  0.51100000000E-03 0.  1.
         12    1    3    3    0    0  0.86733387705E+01 -0.82750267256E+01 -0.15652527387E+02  0.19715589931E+02  0.00000000000E+00 0. -1.
</event>
<event>
 7    1  0.6953847E-012  0.5930196E+02  0.7816164E-02  0.1266605E+00
        -11   -1    0    0    0    0  0.00000000000E+00  0.00000000000E+00  0.45593999997E+02  0.45594000000E+02  0.51100000000E-03 0.  1.
         11   -1    0    0    0    0 -0.00000000000E+00 -0.00000000000E+00 -0.45593999997E+02  0.45594000000E+02  0.51100000000E-03 0. -1.
    9900012    2    1    2    0    0 -0.29039791179E+02 -0.13102398079E+02 -0.13181380999E+01  0.59301956106E+02  0.50000022028E+02 0.  0.
        -12    1    1    2    0    0  0.29039791179E+02  0.13102398079E+02  0.13181380999E+01  0.31886043894E+02  0.00000000000E+00 0.  1.
         11    1    3    3    0    0 -0.11096025572E+02  0.15602073382E+02 -0.76883998106E+01  0.20631480054E+02  0.51100000000E-03 0. -1.
        -11    1    3    3    0    0  0.88484509804E+00  0.19404242838E+01  0.78418593053E+00  0.22722555058E+01  0.51100000000E-03 0.  1.
        -12    1    3    3    0    0 -0.18828610705E+02 -0.30644895745E+02  0.55860757802E+01  0.36398220546E+02  0.00000000000E+00 0.  1.
</event>
<event>
 7    1  0.6953847E-012  0.5930196E+02  0.7816164E-02  0.1266605E+00
        -11   -1    0    0    0    0  0.00000000000E+00  0.00000000000E+00  0.45593999997E+02  0.45594000000E+02  0.51100000000E-03 0.  1.
         11   -1    0    0    0    0 -0.00000000000E+00 -0.00000000000E+00 -0.45593999997E+02  0.45594000000E+02  0.51100000000E-03 0. -1.
    9900012    2    1    2    0    0  0.27154174348E+02  0.10788205966E+01 -0.16679518094E+02  0.59301962895E+02  0.50000034410E+02 0.  0.
        -12    1    1    2    0    0 -0.27154174348E+02 -0.10788205966E+01  0.16679518094E+02  0.31886037105E+02  0.00000000000E+00 0.  1.
         11    1    3    3    0    0 -0.57232334022E+01 -0.58079657958E-01 -0.16765888445E+01  0.59640359017E+01  0.51100000000E-03 0. -1.
        -11    1    3    3    0    0  0.14131866214E+02 -0.18900214381E+02 -0.49301709843E+01  0.24108801973E+02  0.51100000000E-03 0.  1.
        -12    1    3    3    0    0  0.18745541536E+02  0.20037114636E+02 -0.10072758265E+02  0.29229125021E+02  0.00000000000E+00 0.  1.
</event>
<event>
 7    1  0.6953847E-012  0.5930202E+02  0.7816164E-02  0.1266605E+00
        -11   -1    0    0    0    0  0.00000000000E+00  0.00000000000E+00  0.45593999997E+02  0.45594000000E+02  0.51100000000E-03 0.  1.
         11   -1    0    0    0    0 -0.00000000000E+00 -0.00000000000E+00 -0.45593999997E+02  0.45594000000E+02  0.51100000000E-03 0. -1.
    9900012    2    1    2    0    0 -0.28288917112E+02 -0.13893316481E+02 -0.48403466571E+01  0.59302015148E+02  0.50000129707E+02 0.  0.
        -12    1    1    2    0    0  0.28288917112E+02  0.13893316481E+02  0.48403466571E+01  0.31885984852E+02  0.00000000000E+00 0.  1.
         11    1    3    3    0    0 -0.95360265341E+00 -0.10129076178E+02  0.62206391727E+01  0.11924927430E+02  0.51100000000E-03 0. -1.
        -11    1    3    3    0    0 -0.12338251715E+01 -0.16147906901E+02  0.63922453635E+00  0.16207585573E+02  0.51100000000E-03 0.  1.
         12    1    3    3    0    0 -0.26101489287E+02  0.12383666597E+02 -0.11700210366E+02  0.31169502146E+02  0.00000000000E+00 0. -1.
</event>
<event>
 7    1  0.6953847E-012  0.5930194E+02  0.7816164E-02  0.1266605E+00
        -11   -1    0    0    0    0  0.00000000000E+00  0.00000000000E+00  0.45593999997E+02  0.45594000000E+02  0.51100000000E-03 0. -1.
         11   -1    0    0    0    0 -0.00000000000E+00 -0.00000000000E+00 -0.45593999997E+02  0.45594000000E+02  0.51100000000E-03 0.  1.
    9900012    2    1    2    0    0 -0.22653350424E+02  0.18866258833E+02  0.12149529136E+02  0.59301936178E+02  0.49999985685E+02 0.  0.
        -12    1    1    2    0    0  0.22653350424E+02 -0.18866258833E+02 -0.12149529136E+02  0.31886063822E+02  0.00000000000E+00 0.  1.
         11    1    3    3    0    0  0.35637613267E+01  0.88020446211E+01 -0.21219869956E+01  0.97303244230E+01  0.51100000000E-03 0. -1.
        -11    1    3    3    0    0 -0.25439150088E+02 -0.83148228213E+01  0.80831637106E+00  0.26775735496E+02  0.51100000000E-03 0.  1.
         12    1    3    3    0    0 -0.77796166288E+00  0.18379037033E+02  0.13463199761E+02  0.22795876259E+02  0.00000000000E+00 0. -1.
</event>
<event>
 7    1  0.6953847E-012  0.5930192E+02  0.7816164E-02  0.1266605E+00
        -11   -1    0    0    0    0  0.00000000000E+00  0.00000000000E+00  0.45593999997E+02  0.45594000000E+02  0.51100000000E-03 0.  1.
         11   -1    0    0    0    0 -0.00000000000E+00 -0.00000000000E+00 -0.45593999997E+02  0.45594000000E+02  0.51100000000E-03 0. -1.
    9900012    2    1    2    0    0 -0.12769151039E+02 -0.20724122606E+02 -0.20595669815E+02  0.59301920103E+02  0.49999956368E+02 0.  0.
        -12    1    1    2    0    0  0.12769151039E+02  0.20724122606E+02  0.20595669815E+02  0.31886079897E+02  0.00000000000E+00 0.  1.
         11    1    3    3    0    0  0.25922689480E+01  0.54527715435E+01  0.25217134676E+01  0.65430585262E+01  0.51100000000E-03 0. -1.
        -11    1    3    3    0    0  0.10907480726E+02 -0.12721855414E+02 -0.29577392797E+01  0.17016667208E+02  0.51100000000E-03 0.  1.
         12    1    3    3    0    0 -0.26268900712E+02 -0.13455038736E+02 -0.20159644003E+02  0.35742194370E+02  0.00000000000E+00 0. -1.
</event>
<event>
 7    1  0.6953847E-012  0.5930190E+02  0.7816164E-02  0.1266605E+00
        -11   -1    0    0    0    0  0.00000000000E+00  0.00000000000E+00  0.45593999997E+02  0.45594000000E+02  0.51100000000E-03 0.  1.
         11   -1    0    0    0    0 -0.00000000000E+00 -0.00000000000E+00 -0.45593999997E+02  0.45594000000E+02  0.51100000000E-03 0. -1.
    9900012    2    1    2    0    0  0.20564003200E+02  0.91303200045E+01 -0.22593852932E+02  0.59301903323E+02  0.49999925765E+02 0.  0.
        -12    1    1    2    0    0 -0.20564003200E+02 -0.91303200045E+01  0.22593852932E+02  0.31886096677E+02  0.00000000000E+00 0.  1.
         11    1    3    3    0    0 -0.51711069856E+01 -0.34837244165E+01 -0.16684262433E+02  0.17811268805E+02  0.51100000000E-03 0. -1.
        -11    1    3    3    0    0 -0.98934495490E+00 -0.60588924125E+01  0.41053276472E+01  0.73853027059E+01  0.51100000000E-03 0.  1.
        -12    1    3    3    0    0  0.26724455140E+02  0.18672936833E+02 -0.10014918146E+02  0.34105331812E+02  0.00000000000E+00 0.  1.
</event>
<event>
 7    1  0.6953847E-012  0.5930178E+02  0.7816164E-02  0.1266605E+00
        -11   -1    0    0    0    0  0.00000000000E+00  0.00000000000E+00  0.45593999997E+02  0.45594000000E+02  0.51100000000E-03 0.  1.
         11   -1    0    0    0    0 -0.00000000000E+00 -0.00000000000E+00 -0.45593999997E+02  0.45594000000E+02  0.51100000000E-03 0. -1.
    9900012    2    1    2    0    0  0.30110236064E+02 -0.56053925132E+00  0.10478103584E+02  0.59301777665E+02  0.49999696593E+02 0.  0.
        -12    1    1    2    0    0 -0.30110236064E+02  0.56053925132E+00 -0.10478103584E+02  0.31886222335E+02  0.00000000000E+00 0.  1.
         11    1    3    3    0    0  0.12627718921E+02  0.15213630507E+02  0.86069353007E+01  0.21563700376E+02  0.51100000000E-03 0. -1.
        -11    1    3    3    0    0 -0.55096321958E+01 -0.14069675570E+01  0.81221479314E+01  0.99148823453E+01  0.51100000000E-03 0.  1.
         12    1    3    3    0    0  0.22992149339E+02 -0.14367202201E+02 -0.62509796479E+01  0.27823194944E+02  0.00000000000E+00 0. -1.
</event>
<event>
 7    1  0.6953847E-012  0.5930195E+02  0.7816164E-02  0.1266605E+00
        -11   -1    0    0    0    0  0.00000000000E+00  0.00000000000E+00  0.45593999997E+02  0.45594000000E+02  0.51100000000E-03 0.  1.
         11   -1    0    0    0    0 -0.00000000000E+00 -0.00000000000E+00 -0.45593999997E+02  0.45594000000E+02  0.51100000000E-03 0. -1.
    9900012    2    1    2    0    0  0.27968001861E+02 -0.84839005189E+01 -0.12748904798E+02  0.59301948666E+02  0.50000008460E+02 0.  0.
        -12    1    1    2    0    0 -0.27968001861E+02  0.84839005189E+01  0.12748904798E+02  0.31886051334E+02  0.00000000000E+00 0.  1.
         11    1    3    3    0    0  0.26105369510E+02 -0.16171530497E+02  0.11567422622E+01  0.30730225654E+02  0.51100000000E-03 0. -1.
        -11    1    3    3    0    0  0.11274143838E+02  0.51158614307E+01 -0.10387795754E+01  0.12424066192E+02  0.51100000000E-03 0.  1.
         12    1    3    3    0    0 -0.94115114870E+01  0.25717685475E+01 -0.12866867484E+02  0.16147656820E+02  0.00000000000E+00 0. -1.
</event>
<event>
 7    1  0.6953847E-012  0.5930192E+02  0.7816164E-02  0.1266605E+00
        -11   -1    0    0    0    0  0.00000000000E+00  0.00000000000E+00  0.45593999997E+02  0.45594000000E+02  0.51100000000E-03 0.  1.
         11   -1    0    0    0    0 -0.00000000000E+00 -0.00000000000E+00 -0.45593999997E+02  0.45594000000E+02  0.51100000000E-03 0. -1.
    9900012    2    1    2    0    0  0.56613384931E+01  0.18793109119E+02 -0.25129468979E+02  0.59301922865E+02  0.49999961404E+02 0.  0.
        -12    1    1    2    0    0 -0.56613384931E+01 -0.18793109119E+02  0.25129468979E+02  0.31886077135E+02  0.00000000000E+00 0.  1.
         11    1    3    3    0    0 -0.17040537394E+01 -0.56583557100E+01 -0.64343338552E+01  0.87362143352E+01  0.51100000000E-03 0. -1.
        -11    1    3    3    0    0 -0.26730613035E+01 -0.10371397269E+02 -0.50494447791E+01  0.11840947212E+02  0.51100000000E-03 0.  1.
         12    1    3    3    0    0  0.10038453536E+02  0.34822862099E+02 -0.13645690344E+02  0.38724761318E+02  0.00000000000E+00 0. -1.
</event>
<event>
 7    1  0.6953847E-012  0.5930193E+02  0.7816164E-02  0.1266605E+00
        -11   -1    0    0    0    0  0.00000000000E+00  0.00000000000E+00  0.45593999997E+02  0.45594000000E+02  0.51100000000E-03 0.  1.
         11   -1    0    0    0    0 -0.00000000000E+00 -0.00000000000E+00 -0.45593999997E+02  0.45594000000E+02  0.51100000000E-03 0. -1.
    9900012    2    1    2    0    0  0.16837046920E+01 -0.10867887876E+02 -0.29929513100E+02  0.59301927762E+02  0.49999970335E+02 0.  0.
        -12    1    1    2    0    0 -0.16837046920E+01  0.10867887876E+02  0.29929513100E+02  0.31886072238E+02  0.00000000000E+00 0.  1.
         11    1    3    3    0    0  0.41971391680E+01 -0.86635866360E+00  0.71828427423E+01  0.83641965933E+01  0.51100000000E-03 0. -1.
        -11    1    3    3    0    0  0.55859738366E+01  0.26901395012E+01  0.38486152067E+01  0.72973826479E+01  0.51100000000E-03 0.  1.
         12    1    3    3    0    0 -0.80994083126E+01 -0.12691668714E+02 -0.40960971049E+02  0.43640348521E+02  0.00000000000E+00 0. -1.
</event>
<event>
 7    1  0.6953847E-012  0.5930194E+02  0.7816164E-02  0.1266605E+00
        -11   -1    0    0    0    0  0.00000000000E+00  0.00000000000E+00  0.45593999997E+02  0.45594000000E+02  0.51100000000E-03 0.  1.
         11   -1    0    0    0    0 -0.00000000000E+00 -0.00000000000E+00 -0.45593999997E+02  0.45594000000E+02  0.51100000000E-03 0. -1.
    9900012    2    1    2    0    0 -0.88722677419E+01  0.55742772739E+01 -0.30115299982E+02  0.59301937292E+02  0.49999987716E+02 0.  0.
        -12    1    1    2    0    0  0.88722677419E+01 -0.55742772739E+01  0.30115299982E+02  0.31886062708E+02  0.00000000000E+00 0.  1.
         11    1    3    3    0    0 -0.16226500331E+02 -0.29118733942E+01 -0.32694354599E+02  0.36615558749E+02  0.51100000000E-03 0. -1.
        -11    1    3    3    0    0 -0.90999480610E+00 -0.26315274586E+01 -0.58442485009E+01  0.64736595612E+01  0.51100000000E-03 0.  1.
        -12    1    3    3    0    0  0.82642273951E+01  0.11117678127E+02  0.84233031173E+01  0.16212718981E+02  0.00000000000E+00 0.  1.
</event>
<event>
 7    1  0.6953847E-012  0.5930190E+02  0.7816164E-02  0.1266605E+00
        -11   -1    0    0    0    0  0.00000000000E+00  0.00000000000E+00  0.45593999997E+02  0.45594000000E+02  0.51100000000E-03 0.  1.
         11   -1    0    0    0    0 -0.00000000000E+00 -0.00000000000E+00 -0.45593999997E+02  0.45594000000E+02  0.51100000000E-03 0. -1.
    9900012    2    1    2    0    0 -0.22954923956E+02  0.15033416525E+02 -0.16241656666E+02  0.59301897111E+02  0.49999914434E+02 0.  0.
        -12    1    1    2    0    0  0.22954923956E+02 -0.15033416525E+02  0.16241656666E+02  0.31886102889E+02  0.00000000000E+00 0.  1.
         11    1    3    3    0    0  0.43291946462E+01 -0.11327975321E+01 -0.43301422081E+01  0.62269806759E+01  0.51100000000E-03 0. -1.
        -11    1    3    3    0    0  0.74505465170E+01  0.12149371643E+02 -0.11158671206E+02  0.18100657946E+02  0.51100000000E-03 0.  1.
         12    1    3    3    0    0 -0.34734665119E+02  0.40168424142E+01 -0.75284325175E+00  0.34974258489E+02  0.00000000000E+00 0. -1.
</event>
<event>
 7    1  0.6953847E-012  0.5930194E+02  0.7816164E-02  0.1266605E+00
        -11   -1    0    0    0    0  0.00000000000E+00  0.00000000000E+00  0.45593999997E+02  0.45594000000E+02  0.51100000000E-03 0.  1.
         11   -1    0    0    0    0 -0.00000000000E+00 -0.00000000000E+00 -0.45593999997E+02  0.45594000000E+02  0.51100000000E-03 0. -1.
    9900012    2    1    2    0    0 -0.23204526761E+02 -0.32012970802E+01 -0.21633832441E+02  0.59301936096E+02  0.49999985534E+02 0.  0.
        -12    1    1    2    0    0  0.23204526761E+02  0.32012970802E+01  0.21633832441E+02  0.31886063904E+02  0.00000000000E+00 0.  1.
         11    1    3    3    0    0  0.52449690428E+00  0.11634306944E+02  0.11457698708E+01  0.11702349505E+02  0.51100000000E-03 0. -1.
        -11    1    3    3    0    0 -0.10284049356E+02  0.94945651052E+01 -0.75577203125E+01  0.15906840487E+02  0.51100000000E-03 0.  1.
         12    1    3    3    0    0 -0.13444974309E+02 -0.24330169129E+02 -0.15221882000E+02  0.31692746104E+02  0.00000000000E+00 0. -1.
</event>
<event>
 7    1  0.6953847E-012  0.5930189E+02  0.7816164E-02  0.1266605E+00
        -11   -1    0    0    0    0  0.00000000000E+00  0.00000000000E+00  0.45593999997E+02  0.45594000000E+02  0.51100000000E-03 0.  1.
         11   -1    0    0    0    0 -0.00000000000E+00 -0.00000000000E+00 -0.45593999997E+02  0.45594000000E+02  0.51100000000E-03 0. -1.
    9900012    2    1    2    0    0  0.48653666111E-01  0.11831764581E+02 -0.29609648805E+02  0.59301885113E+02  0.49999892553E+02 0.  0.
        -12    1    1    2    0    0 -0.48653666111E-01 -0.11831764581E+02  0.29609648805E+02  0.31886114887E+02  0.00000000000E+00 0.  1.
         11    1    3    3    0    0  0.25776981665E+01  0.93217046057E+00 -0.18414925011E+02  0.18617812251E+02  0.51100000000E-03 0. -1.
        -11    1    3    3    0    0  0.14086273627E+02 -0.26523851577E+01 -0.12753629428E+02  0.19186279356E+02  0.51100000000E-03 0.  1.
        -12    1    3    3    0    0 -0.16615318127E+02  0.13551979278E+02  0.15589056336E+01  0.21497793505E+02  0.00000000000E+00 0.  1.
</event>
<event>
 7    1  0.6953847E-012  0.5930216E+02  0.7816164E-02  0.1266604E+00
        -11   -1    0    0    0    0  0.00000000000E+00  0.00000000000E+00  0.45593999997E+02  0.45594000000E+02  0.51100000000E-03 0.  1.
         11   -1    0    0    0    0 -0.00000000000E+00 -0.00000000000E+00 -0.45593999997E+02  0.45594000000E+02  0.51100000000E-03 0. -1.
    9900012    2    1    2    0    0 -0.31338549704E+02 -0.40704717798E+01  0.42465699788E+01  0.59302159966E+02  0.50000393818E+02 0.  0.
        -12    1    1    2    0    0  0.31338549704E+02  0.40704717798E+01 -0.42465699788E+01  0.31885840034E+02  0.00000000000E+00 0.  1.
         11    1    3    3    0    0 -0.29010026375E+02  0.57583580347E+01  0.44216378419E+01  0.29904701954E+02  0.51100000000E-03 0. -1.
        -11    1    3    3    0    0 -0.76046034964E+01  0.58112170308E+01 -0.66634485027E+01  0.11661980275E+02  0.51100000000E-03 0.  1.
        -12    1    3    3    0    0  0.52760801666E+01 -0.15640046845E+02  0.64883806396E+01  0.17735477737E+02  0.00000000000E+00 0.  1.
</event>
<event>
 7    1  0.6953847E-012  0.5930196E+02  0.7816164E-02  0.1266605E+00
        -11   -1    0    0    0    0  0.00000000000E+00  0.00000000000E+00  0.45593999997E+02  0.45594000000E+02  0.51100000000E-03 0. -1.
         11   -1    0    0    0    0 -0.00000000000E+00 -0.00000000000E+00 -0.45593999997E+02  0.45594000000E+02  0.51100000000E-03 0.  1.
    9900012    2    1    2    0    0  0.30027934426E+02  0.10650782245E+02  0.12663585404E+01  0.59301958034E+02  0.50000025544E+02 0.  0.
        -12    1    1    2    0    0 -0.30027934426E+02 -0.10650782245E+02 -0.12663585404E+01  0.31886041966E+02  0.00000000000E+00 0.  1.
         11    1    3    3    0    0  0.31341933133E+02 -0.76156832768E+01  0.76574127251E+01  0.33150435506E+02  0.51100000000E-03 0. -1.
        -11    1    3    3    0    0  0.67341494455E+01  0.17280248499E+01 -0.13739409935E+01  0.70867871952E+01  0.51100000000E-03 0.  1.
        -12    1    3    3    0    0 -0.80481481531E+01  0.16538440672E+02 -0.50171131911E+01  0.19064735333E+02  0.00000000000E+00 0.  1.
</event>
<event>
 7    1  0.6953847E-012  0.5930217E+02  0.7816164E-02  0.1266604E+00
        -11   -1    0    0    0    0  0.00000000000E+00  0.00000000000E+00  0.45593999997E+02  0.45594000000E+02  0.51100000000E-03 0.  1.
         11   -1    0    0    0    0 -0.00000000000E+00 -0.00000000000E+00 -0.45593999997E+02  0.45594000000E+02  0.51100000000E-03 0. -1.
    9900012    2    1    2    0    0 -0.24860349660E+02  0.19928844670E+02 -0.12289657228E+01  0.59302169419E+02  0.50000411058E+02 0.  0.
        -12    1    1    2    0    0  0.24860349660E+02 -0.19928844670E+02  0.12289657228E+01  0.31885830581E+02  0.00000000000E+00 0.  1.
         11    1    3    3    0    0 -0.17291878519E+02  0.57002328376E+01 -0.99498327442E+01  0.20748515345E+02  0.51100000000E-03 0. -1.
        -11    1    3    3    0    0 -0.61539719956E+01  0.23282065502E+02 -0.23343852250E+01  0.24194530374E+02  0.51100000000E-03 0.  1.
        -12    1    3    3    0    0 -0.14144991453E+01 -0.90534536704E+01  0.11055252246E+02  0.14359123700E+02  0.00000000000E+00 0.  1.
</event>
<event>
 7    1  0.6953847E-012  0.5930191E+02  0.7816164E-02  0.1266605E+00
        -11   -1    0    0    0    0  0.00000000000E+00  0.00000000000E+00  0.45593999997E+02  0.45594000000E+02  0.51100000000E-03 0. -1.
         11   -1    0    0    0    0 -0.00000000000E+00 -0.00000000000E+00 -0.45593999997E+02  0.45594000000E+02  0.51100000000E-03 0.  1.
    9900012    2    1    2    0    0 -0.27459079747E+02  0.53203357152E+01  0.15310650440E+02  0.59301905075E+02  0.49999928960E+02 0.  0.
        -12    1    1    2    0    0  0.27459079747E+02 -0.53203357152E+01 -0.15310650440E+02  0.31886094925E+02  0.00000000000E+00 0.  1.
         11    1    3    3    0    0 -0.47755184491E+01 -0.11837856837E+02  0.11234963387E+02  0.17004847354E+02  0.51100000000E-03 0. -1.
        -11    1    3    3    0    0 -0.91510218984E+01 -0.88818487820E+01  0.13822003987E+01  0.12827272421E+02  0.51100000000E-03 0.  1.
         12    1    3    3    0    0 -0.13532539399E+02  0.26040041334E+02  0.26934866536E+01  0.29469785300E+02  0.00000000000E+00 0. -1.
</event>
<event>
 7    1  0.6953847E-012  0.5930196E+02  0.7816164E-02  0.1266605E+00
        -11   -1    0    0    0    0  0.00000000000E+00  0.00000000000E+00  0.45593999997E+02  0.45594000000E+02  0.51100000000E-03 0.  1.
         11   -1    0    0    0    0 -0.00000000000E+00 -0.00000000000E+00 -0.45593999997E+02  0.45594000000E+02  0.51100000000E-03 0. -1.
    9900012    2    1    2    0    0 -0.14158626445E+02 -0.16460477699E+02 -0.23351784367E+02  0.59301955058E+02  0.50000020117E+02 0.  0.
        -12    1    1    2    0    0  0.14158626445E+02  0.16460477699E+02  0.23351784367E+02  0.31886044942E+02  0.00000000000E+00 0.  1.
         11    1    3    3    0    0 -0.71998500744E+01 -0.90253996814E+01 -0.25120408272E+02  0.27646529484E+02  0.51100000000E-03 0. -1.
        -11    1    3    3    0    0  0.52018574610E+01  0.14257999646E+01  0.12205097120E+02  0.13343785916E+02  0.51100000000E-03 0.  1.
         12    1    3    3    0    0 -0.12160633832E+02 -0.88608779820E+01 -0.10436473216E+02  0.18311639659E+02  0.00000000000E+00 0. -1.
</event>
<event>
 7    1  0.6953847E-012  0.5930196E+02  0.7816164E-02  0.1266605E+00
        -11   -1    0    0    0    0  0.00000000000E+00  0.00000000000E+00  0.45593999997E+02  0.45594000000E+02  0.51100000000E-03 0. -1.
         11   -1    0    0    0    0 -0.00000000000E+00 -0.00000000000E+00 -0.45593999997E+02  0.45594000000E+02  0.51100000000E-03 0.  1.
    9900012    2    1    2    0    0  0.16297784789E+02 -0.22321867310E+02 -0.15900818148E+02  0.59301959684E+02  0.50000028554E+02 0.  0.
        -12    1    1    2    0    0 -0.16297784789E+02  0.22321867310E+02  0.15900818148E+02  0.31886040316E+02  0.00000000000E+00 0.  1.
         11    1    3    3    0    0  0.21020063633E+01  0.20809338037E+01  0.11230010651E+02  0.11613003735E+02  0.51100000000E-03 0. -1.
        -11    1    3    3    0    0 -0.68029762207E+01 -0.80724378062E+01 -0.13465651531E+01  0.10642273045E+02  0.51100000000E-03 0.  1.
         12    1    3    3    0    0  0.20998754647E+02 -0.16330363307E+02 -0.25784263646E+02  0.37046682905E+02  0.00000000000E+00 0. -1.
</event>
<event>
 7    1  0.6953847E-012  0.5930167E+02  0.7816164E-02  0.1266606E+00
        -11   -1    0    0    0    0  0.00000000000E+00  0.00000000000E+00  0.45593999997E+02  0.45594000000E+02  0.51100000000E-03 0. -1.
         11   -1    0    0    0    0 -0.00000000000E+00 -0.00000000000E+00 -0.45593999997E+02  0.45594000000E+02  0.51100000000E-03 0.  1.
    9900012    2    1    2    0    0  0.19239973221E+02  0.12219915610E+01  0.25398189990E+02  0.59301672402E+02  0.49999504617E+02 0.  0.
        -12    1    1    2    0    0 -0.19239973221E+02 -0.12219915610E+01 -0.25398189990E+02  0.31886327598E+02  0.00000000000E+00 0.  1.
         11    1    3    3    0    0  0.33979655041E+02  0.26038248833E+01  0.16152103128E+02  0.37713224424E+02  0.51100000000E-03 0. -1.
        -11    1    3    3    0    0 -0.10278384953E+00 -0.20571449712E+01 -0.21862582369E+01  0.30036869497E+01  0.51100000000E-03 0.  1.
        -12    1    3    3    0    0 -0.14636897970E+02  0.67531164887E+00  0.11432345099E+02  0.18584761028E+02  0.00000000000E+00 0.  1.
</event>
<event>
 7    1  0.6953847E-012  0.5930193E+02  0.7816164E-02  0.1266605E+00
        -11   -1    0    0    0    0  0.00000000000E+00  0.00000000000E+00  0.45593999997E+02  0.45594000000E+02  0.51100000000E-03 0. -1.
         11   -1    0    0    0    0 -0.00000000000E+00 -0.00000000000E+00 -0.45593999997E+02  0.45594000000E+02  0.51100000000E-03 0.  1.
    9900012    2    1    2    0    0  0.11717149711E+02 -0.22333382663E+02  0.19510245245E+02  0.59301933324E+02  0.49999980480E+02 0.  0.
        -12    1    1    2    0    0 -0.11717149711E+02  0.22333382663E+02 -0.19510245245E+02  0.31886066676E+02  0.00000000000E+00 0.  1.
         11    1    3    3    0    0 -0.81133551603E+01 -0.43260817594E+01  0.53992691811E+01  0.10662721196E+02  0.51100000000E-03 0. -1.
        -11    1    3    3    0    0  0.94801523867E+01 -0.25876547170E+02 -0.23547287880E+01  0.27658881587E+02  0.51100000000E-03 0.  1.
         12    1    3    3    0    0  0.10350352484E+02  0.78692462665E+01  0.16465704852E+02  0.20980330542E+02  0.00000000000E+00 0. -1.
</event>
<event>
 7    1  0.6953847E-012  0.5930194E+02  0.7816164E-02  0.1266605E+00
        -11   -1    0    0    0    0  0.00000000000E+00  0.00000000000E+00  0.45593999997E+02  0.45594000000E+02  0.51100000000E-03 0. -1.
         11   -1    0    0    0    0 -0.00000000000E+00 -0.00000000000E+00 -0.45593999997E+02  0.45594000000E+02  0.51100000000E-03 0.  1.
    9900012    2    1    2    0    0 -0.13600032373E+02  0.27073788368E+02  0.99383160215E+01  0.59301936861E+02  0.49999986930E+02 0.  0.
        -12    1    1    2    0    0  0.13600032373E+02 -0.27073788368E+02 -0.99383160215E+01  0.31886063139E+02  0.00000000000E+00 0.  1.
         11    1    3    3    0    0 -0.99432317543E+01 -0.41796314852E+00 -0.15371779110E+02  0.18312131066E+02  0.51100000000E-03 0.  1.
        -11    1    3    3    0    0 -0.24762522519E+00  0.21411430118E+02  0.89528594091E+01  0.23209143668E+02  0.51100000000E-03 0. -1.
        -12    1    3    3    0    0 -0.34091753940E+01  0.60803213985E+01  0.16357235723E+02  0.17780662127E+02  0.00000000000E+00 0.  1.
</event>
<event>
 7    1  0.6953847E-012  0.5930194E+02  0.7816164E-02  0.1266605E+00
        -11   -1    0    0    0    0  0.00000000000E+00  0.00000000000E+00  0.45593999997E+02  0.45594000000E+02  0.51100000000E-03 0.  1.
         11   -1    0    0    0    0 -0.00000000000E+00 -0.00000000000E+00 -0.45593999997E+02  0.45594000000E+02  0.51100000000E-03 0. -1.
    9900012    2    1    2    0    0  0.79556526320E+01  0.29300032015E+02 -0.97435254777E+01  0.59301943900E+02  0.49999999767E+02 0.  0.
        -12    1    1    2    0    0 -0.79556526320E+01 -0.29300032015E+02  0.97435254777E+01  0.31886056100E+02  0.00000000000E+00 0.  1.
         11    1    3    3    0    0  0.39902629325E+01 -0.10635372826E+01 -0.21986052323E+02  0.22370511994E+02  0.51100000000E-03 0. -1.
        -11    1    3    3    0    0  0.84800168673E+01  0.73504162599E+01  0.22814303460E+01  0.11451822123E+02  0.51100000000E-03 0.  1.
        -12    1    3    3    0    0 -0.45146271678E+01  0.23013153038E+02  0.99610964997E+01  0.25479609783E+02  0.00000000000E+00 0.  1.
</event>
<event>
 7    1  0.6953847E-012  0.5930193E+02  0.7816164E-02  0.1266605E+00
        -11   -1    0    0    0    0  0.00000000000E+00  0.00000000000E+00  0.45593999997E+02  0.45594000000E+02  0.51100000000E-03 0. -1.
         11   -1    0    0    0    0 -0.00000000000E+00 -0.00000000000E+00 -0.45593999997E+02  0.45594000000E+02  0.51100000000E-03 0.  1.
    9900012    2    1    2    0    0 -0.17940576125E+02  0.26353035097E+02  0.61227656606E+00  0.59301927600E+02  0.49999970039E+02 0.  0.
        -12    1    1    2    0    0  0.17940576125E+02 -0.26353035097E+02 -0.61227656606E+00  0.31886072400E+02  0.00000000000E+00 0.  1.
         11    1    3    3    0    0  0.72134408112E+01  0.21074215883E+02 -0.83910475921E+00  0.22290365643E+02  0.51100000000E-03 0. -1.
        -11    1    3    3    0    0  0.12709116594E+01  0.82299235950E+01 -0.49164296886E+01  0.96704777529E+01  0.51100000000E-03 0.  1.
         12    1    3    3    0    0 -0.26424928596E+02 -0.29511043812E+01  0.63678110138E+01  0.27341084204E+02  0.00000000000E+00 0. -1.
</event>
<event>
 7    1  0.6953847E-012  0.5930174E+02  0.7816164E-02  0.1266605E+00
        -11   -1    0    0    0    0  0.00000000000E+00  0.00000000000E+00  0.45593999997E+02  0.45594000000E+02  0.51100000000E-03 0. -1.
         11   -1    0    0    0    0 -0.00000000000E+00 -0.00000000000E+00 -0.45593999997E+02  0.45594000000E+02  0.51100000000E-03 0.  1.
    9900012    2    1    2    0    0  0.15419139387E+02 -0.20393271543E+02  0.19055132266E+02  0.59301741998E+02  0.49999631546E+02 0.  0.
        -12    1    1    2    0    0 -0.15419139387E+02  0.20393271543E+02 -0.19055132266E+02  0.31886258002E+02  0.00000000000E+00 0.  1.
         11    1    3    3    0    0 -0.71888752354E+01 -0.12350294221E+02  0.13708242841E+02  0.19802161916E+02  0.51100000000E-03 0. -1.
        -11    1    3    3    0    0 -0.56706390322E+01 -0.80796219174E+01 -0.24405772146E+01  0.10168227710E+02  0.51100000000E-03 0.  1.
         12    1    3    3    0    0  0.28278653654E+02  0.36644595054E-01  0.77874666399E+01  0.29331352372E+02  0.00000000000E+00 0. -1.
</event>
<event>
 7    1  0.6953847E-012  0.5930193E+02  0.7816164E-02  0.1266605E+00
        -11   -1    0    0    0    0  0.00000000000E+00  0.00000000000E+00  0.45593999997E+02  0.45594000000E+02  0.51100000000E-03 0.  1.
         11   -1    0    0    0    0 -0.00000000000E+00 -0.00000000000E+00 -0.45593999997E+02  0.45594000000E+02  0.51100000000E-03 0. -1.
    9900012    2    1    2    0    0  0.30395847277E+01  0.20636808874E+02 -0.24116476178E+02  0.59301931270E+02  0.49999976734E+02 0.  0.
        -12    1    1    2    0    0 -0.30395847277E+01 -0.20636808874E+02  0.24116476178E+02  0.31886068730E+02  0.00000000000E+00 0.  1.
         11    1    3    3    0    0  0.41547661790E+01  0.18882614486E+02  0.64092343684E+01  0.20368934613E+02  0.51100000000E-03 0. -1.
        -11    1    3    3    0    0 -0.81037258902E+01 -0.52674555625E+01 -0.37220293982E+01  0.10357121439E+02  0.51100000000E-03 0.  1.
        -12    1    3    3    0    0  0.69885444389E+01  0.70216499503E+01 -0.26803681148E+02  0.28575875218E+02  0.00000000000E+00 0.  1.
</event>
<event>
 7    1  0.6953847E-012  0.5930193E+02  0.7816164E-02  0.1266605E+00
        -11   -1    0    0    0    0  0.00000000000E+00  0.00000000000E+00  0.45593999997E+02  0.45594000000E+02  0.51100000000E-03 0. -1.
         11   -1    0    0    0    0 -0.00000000000E+00 -0.00000000000E+00 -0.45593999997E+02  0.45594000000E+02  0.51100000000E-03 0.  1.
    9900012    2    1    2    0    0 -0.10162110933E+02 -0.77253754034E+00  0.30213507683E+02  0.59301931578E+02  0.49999977296E+02 0.  0.
        -12    1    1    2    0    0  0.10162110933E+02  0.77253754034E+00 -0.30213507683E+02  0.31886068422E+02  0.00000000000E+00 0.  1.
         11    1    3    3    0    0 -0.11502498263E+02 -0.41135608388E+01  0.22383878467E+02  0.25500330675E+02  0.51100000000E-03 0. -1.
        -11    1    3    3    0    0 -0.15494285832E+02  0.28838184629E+01  0.59910166000E+01  0.16860651901E+02  0.51100000000E-03 0.  1.
        -12    1    3    3    0    0  0.16834673162E+02  0.45720483557E+00  0.18386126162E+01  0.16940949002E+02  0.00000000000E+00 0.  1.
</event>
<event>
 7    1  0.6953847E-012  0.5930206E+02  0.7816164E-02  0.1266604E+00
        -11   -1    0    0    0    0  0.00000000000E+00  0.00000000000E+00  0.45593999997E+02  0.45594000000E+02  0.51100000000E-03 0.  1.
         11   -1    0    0    0    0 -0.00000000000E+00 -0.00000000000E+00 -0.45593999997E+02  0.45594000000E+02  0.51100000000E-03 0. -1.
    9900012    2    1    2    0    0  0.24601026023E+02 -0.17586998732E+02 -0.10109405512E+02  0.59302061319E+02  0.50000213910E+02 0.  0.
        -12    1    1    2    0    0 -0.24601026023E+02  0.17586998732E+02  0.10109405512E+02  0.31885938681E+02  0.00000000000E+00 0.  1.
         11    1    3    3    0    0  0.22888432267E+01 -0.12436851082E+02 -0.18064725314E+02  0.22051040091E+02  0.51100000000E-03 0.  1.
        -11    1    3    3    0    0  0.26644077680E+02  0.16802502573E+01  0.12187418657E+01  0.26724809604E+02  0.51100000000E-03 0. -1.
        -12    1    3    3    0    0 -0.43318948838E+01 -0.68303979076E+01  0.67365779369E+01  0.10526211624E+02  0.00000000000E+00 0.  1.
</event>
<event>
 7    1  0.6953847E-012  0.5930190E+02  0.7816164E-02  0.1266605E+00
        -11   -1    0    0    0    0  0.00000000000E+00  0.00000000000E+00  0.45593999997E+02  0.45594000000E+02  0.51100000000E-03 0.  1.
         11   -1    0    0    0    0 -0.00000000000E+00 -0.00000000000E+00 -0.45593999997E+02  0.45594000000E+02  0.51100000000E-03 0. -1.
    9900012    2    1    2    0    0 -0.17190524876E+02  0.26848913774E+02  0.58762700987E+00  0.59301896101E+02  0.49999912592E+02 0.  0.
        -12    1    1    2    0    0  0.17190524876E+02 -0.26848913774E+02 -0.58762700987E+00  0.31886103899E+02  0.00000000000E+00 0.  1.
         11    1    3    3    0    0  0.42908221845E+01  0.28698692098E+01 -0.49933688268E+01  0.71819939294E+01  0.51100000000E-03 0. -1.
        -11    1    3    3    0    0 -0.25784741796E+02  0.38834654306E+01  0.14364539080E+02  0.29770357682E+02  0.51100000000E-03 0.  1.
         12    1    3    3    0    0  0.43033947360E+01  0.20095579134E+02 -0.87835432430E+01  0.22349544490E+02  0.00000000000E+00 0. -1.
</event>
<event>
 7    1  0.6953847E-012  0.5930191E+02  0.7816164E-02  0.1266605E+00
        -11   -1    0    0    0    0  0.00000000000E+00  0.00000000000E+00  0.45593999997E+02  0.45594000000E+02  0.51100000000E-03 0. -1.
         11   -1    0    0    0    0 -0.00000000000E+00 -0.00000000000E+00 -0.45593999997E+02  0.45594000000E+02  0.51100000000E-03 0.  1.
    9900012    2    1    2    0    0 -0.26439239359E+02  0.81806350115E+01 -0.15835620292E+02  0.59301905270E+02  0.49999929315E+02 0.  0.
        -12    1    1    2    0    0  0.26439239359E+02 -0.81806350115E+01  0.15835620292E+02  0.31886094730E+02  0.00000000000E+00 0.  1.
         11    1    3    3    0    0 -0.24585873165E+02  0.13789525521E+02 -0.12514443454E+02  0.30841975757E+02  0.51100000000E-03 0. -1.
        -11    1    3    3    0    0 -0.13523577297E+02  0.25415268207E+01 -0.35969717237E+01  0.14222682846E+02  0.51100000000E-03 0.  1.
        -12    1    3    3    0    0  0.11670211103E+02 -0.81504173299E+01  0.27579488603E+00  0.14237246667E+02  0.00000000000E+00 0.  1.
</event>
<event>
 7    1  0.6953847E-012  0.5930191E+02  0.7816164E-02  0.1266605E+00
        -11   -1    0    0    0    0  0.00000000000E+00  0.00000000000E+00  0.45593999997E+02  0.45594000000E+02  0.51100000000E-03 0.  1.
         11   -1    0    0    0    0 -0.00000000000E+00 -0.00000000000E+00 -0.45593999997E+02  0.45594000000E+02  0.51100000000E-03 0. -1.
    9900012    2    1    2    0    0  0.25999407070E+02  0.18037225398E+02  0.39258360288E+01  0.59301908101E+02  0.49999934478E+02 0.  0.
        -12    1    1    2    0    0 -0.25999407070E+02 -0.18037225398E+02 -0.39258360288E+01  0.31886091899E+02  0.00000000000E+00 0.  1.
         11    1    3    3    0    0  0.14356023266E+02 -0.97979934903E+01  0.33822415480E+01  0.17706937584E+02  0.51100000000E-03 0. -1.
        -11    1    3    3    0    0  0.12526177810E+02  0.23061418870E+02  0.12220169937E+02  0.28949382107E+02  0.51100000000E-03 0.  1.
        -12    1    3    3    0    0 -0.88279400535E+00  0.47738000184E+01 -0.11676575456E+02  0.12645588411E+02  0.00000000000E+00 0.  1.
</event>
<event>
 7    1  0.6953847E-012  0.5930195E+02  0.7816164E-02  0.1266605E+00
        -11   -1    0    0    0    0  0.00000000000E+00  0.00000000000E+00  0.45593999997E+02  0.45594000000E+02  0.51100000000E-03 0. -1.
         11   -1    0    0    0    0 -0.00000000000E+00 -0.00000000000E+00 -0.45593999997E+02  0.45594000000E+02  0.51100000000E-03 0.  1.
    9900012    2    1    2    0    0  0.30299044449E+02  0.99016062233E+01  0.80410978661E+00  0.59301945166E+02  0.50000002076E+02 0.  0.
        -12    1    1    2    0    0 -0.30299044449E+02 -0.99016062233E+01 -0.80410978661E+00  0.31886054834E+02  0.00000000000E+00 0.  1.
         11    1    3    3    0    0  0.75190571746E+01  0.15173139645E+02  0.38640057417E+01  0.17369252376E+02  0.51100000000E-03 0. -1.
        -11    1    3    3    0    0  0.66229332519E+01  0.86387286548E+01 -0.14188375041E+02  0.17882976939E+02  0.51100000000E-03 0.  1.
        -12    1    3    3    0    0  0.16157054023E+02 -0.13910262076E+02  0.11128479086E+02  0.24049715851E+02  0.00000000000E+00 0.  1.
</event>
<event>
 7    1  0.6953847E-012  0.5930185E+02  0.7816164E-02  0.1266605E+00
        -11   -1    0    0    0    0  0.00000000000E+00  0.00000000000E+00  0.45593999997E+02  0.45594000000E+02  0.51100000000E-03 0. -1.
         11   -1    0    0    0    0 -0.00000000000E+00 -0.00000000000E+00 -0.45593999997E+02  0.45594000000E+02  0.51100000000E-03 0.  1.
    9900012    2    1    2    0    0  0.64703798426E+01  0.15560192881E+02  0.27069193933E+02  0.59301848179E+02  0.49999825194E+02 0.  0.
        -12    1    1    2    0    0 -0.64703798426E+01 -0.15560192881E+02 -0.27069193933E+02  0.31886151821E+02  0.00000000000E+00 0.  1.
         11    1    3    3    0    0 -0.24195793709E+01 -0.57505826225E+01  0.22194091312E+02  0.23054310969E+02  0.51100000000E-03 0. -1.
        -11    1    3    3    0    0 -0.16465314174E+00  0.23961505695E+02  0.94550286349E+01  0.25760016161E+02  0.51100000000E-03 0.  1.
         12    1    3    3    0    0  0.90546123552E+01 -0.26507301917E+01 -0.45799260143E+01  0.10487521049E+02  0.00000000000E+00 0. -1.
</event>
<event>
 7    1  0.6953847E-012  0.5930199E+02  0.7816164E-02  0.1266605E+00
        -11   -1    0    0    0    0  0.00000000000E+00  0.00000000000E+00  0.45593999997E+02  0.45594000000E+02  0.51100000000E-03 0. -1.
         11   -1    0    0    0    0 -0.00000000000E+00 -0.00000000000E+00 -0.45593999997E+02  0.45594000000E+02  0.51100000000E-03 0.  1.
    9900012    2    1    2    0    0 -0.29688624781E+02  0.29243938530E+00 -0.11628324476E+02  0.59301985945E+02  0.50000076448E+02 0.  0.
        -12    1    1    2    0    0  0.29688624781E+02 -0.29243938530E+00  0.11628324476E+02  0.31886014055E+02  0.00000000000E+00 0.  1.
         11    1    3    3    0    0 -0.12548312013E+02  0.75151736885E+01  0.59813209431E+01  0.15802346992E+02  0.51100000000E-03 0. -1.
        -11    1    3    3    0    0 -0.13459763672E+02  0.87529680407E+01  0.38341095788E+01  0.16506970775E+02  0.51100000000E-03 0.  1.
        -12    1    3    3    0    0 -0.36805490954E+01 -0.15975702344E+02 -0.21443754998E+02  0.26992668179E+02  0.00000000000E+00 0.  1.
</event>
<event>
 7    1  0.6953847E-012  0.5930193E+02  0.7816164E-02  0.1266605E+00
        -11   -1    0    0    0    0  0.00000000000E+00  0.00000000000E+00  0.45593999997E+02  0.45594000000E+02  0.51100000000E-03 0.  1.
         11   -1    0    0    0    0 -0.00000000000E+00 -0.00000000000E+00 -0.45593999997E+02  0.45594000000E+02  0.51100000000E-03 0. -1.
    9900012    2    1    2    0    0  0.25505792107E+02 -0.56263964107E+01 -0.18289880453E+02  0.59301929459E+02  0.49999973430E+02 0.  0.
        -12    1    1    2    0    0 -0.25505792107E+02  0.56263964107E+01  0.18289880453E+02  0.31886070541E+02  0.00000000000E+00 0.  1.
         11    1    3    3    0    0  0.10123027545E+02  0.13259141374E+02 -0.76903484677E+01  0.18369049417E+02  0.51100000000E-03 0. -1.
        -11    1    3    3    0    0  0.78790925147E+01  0.72511640798E+01  0.21148368111E+01  0.10914761306E+02  0.51100000000E-03 0.  1.
        -12    1    3    3    0    0  0.75036720476E+01 -0.26136701865E+02 -0.12714368796E+02  0.30018118736E+02  0.00000000000E+00 0.  1.
</event>
<event>
 7    1  0.6953847E-012  0.5930194E+02  0.7816164E-02  0.1266605E+00
        -11   -1    0    0    0    0  0.00000000000E+00  0.00000000000E+00  0.45593999997E+02  0.45594000000E+02  0.51100000000E-03 0. -1.
         11   -1    0    0    0    0 -0.00000000000E+00 -0.00000000000E+00 -0.45593999997E+02  0.45594000000E+02  0.51100000000E-03 0.  1.
    9900012    2    1    2    0    0  0.82364972233E+01  0.30710651471E+02  0.23951032616E+01  0.59301944742E+02  0.50000001303E+02 0.  0.
        -12    1    1    2    0    0 -0.82364972233E+01 -0.30710651471E+02 -0.23951032616E+01  0.31886055258E+02  0.00000000000E+00 0.  1.
         11    1    3    3    0    0 -0.23042448901E+01  0.16662181957E+02  0.11359717280E+02  0.20297315808E+02  0.51100000000E-03 0. -1.
        -11    1    3    3    0    0  0.19406279690E+02  0.12097165476E+02 -0.15667568773E+02  0.27720350205E+02  0.51100000000E-03 0.  1.
         12    1    3    3    0    0 -0.88655375770E+01  0.19513040377E+01  0.67029547549E+01  0.11284278728E+02  0.00000000000E+00 0. -1.
</event>
<event>
 7    1  0.6953847E-012  0.5930194E+02  0.7816164E-02  0.1266605E+00
        -11   -1    0    0    0    0  0.00000000000E+00  0.00000000000E+00  0.45593999997E+02  0.45594000000E+02  0.51100000000E-03 0. -1.
         11   -1    0    0    0    0 -0.00000000000E+00 -0.00000000000E+00 -0.45593999997E+02  0.45594000000E+02  0.51100000000E-03 0.  1.
    9900012    2    1    2    0    0  0.43319682388E+01  0.28920976217E+02  0.12709529361E+02  0.59301937986E+02  0.49999988981E+02 0.  0.
        -12    1    1    2    0    0 -0.43319682388E+01 -0.28920976217E+02 -0.12709529361E+02  0.31886062014E+02  0.00000000000E+00 0.  1.
         11    1    3    3    0    0  0.98626655131E+00 -0.49021493117E+01  0.75081676656E+01  0.90208852969E+01  0.51100000000E-03 0. -1.
        -11    1    3    3    0    0  0.16919429101E+02  0.28367142924E+02  0.10597793965E+02  0.34688256168E+02  0.51100000000E-03 0.  1.
        -12    1    3    3    0    0 -0.13573727414E+02  0.54559826045E+01 -0.53964322698E+01  0.15592796520E+02  0.00000000000E+00 0.  1.
</event>
<event>
 7    1  0.6953847E-012  0.5930192E+02  0.7816164E-02  0.1266605E+00
        -11   -1    0    0    0    0  0.00000000000E+00  0.00000000000E+00  0.45593999997E+02  0.45594000000E+02  0.51100000000E-03 0. -1.
         11   -1    0    0    0    0 -0.00000000000E+00 -0.00000000000E+00 -0.45593999997E+02  0.45594000000E+02  0.51100000000E-03 0.  1.
    9900012    2    1    2    0    0  0.16051400382E+02  0.12641339432E+02  0.24480018608E+02  0.59301917959E+02  0.49999952457E+02 0.  0.
        -12    1    1    2    0    0 -0.16051400382E+02 -0.12641339432E+02 -0.24480018608E+02  0.31886082041E+02  0.00000000000E+00 0.  1.
         11    1    3    3    0    0  0.15792964891E+02 -0.46750608504E+00  0.22132195968E+02  0.27193205045E+02  0.51100000000E-03 0. -1.
        -11    1    3    3    0    0  0.11644815193E+02 -0.15287330203E+01 -0.41532335646E+01  0.12457451378E+02  0.51100000000E-03 0.  1.
         12    1    3    3    0    0 -0.11386379703E+02  0.14637578538E+02  0.65010562047E+01  0.19651261536E+02  0.00000000000E+00 0. -1.
</event>
<event>
 7    1  0.6953847E-012  0.5930199E+02  0.7816164E-02  0.1266605E+00
        -11   -1    0    0    0    0  0.00000000000E+00  0.00000000000E+00  0.45593999997E+02  0.45594000000E+02  0.51100000000E-03 0. -1.
         11   -1    0    0    0    0 -0.00000000000E+00 -0.00000000000E+00 -0.45593999997E+02  0.45594000000E+02  0.51100000000E-03 0.  1.
    9900012    2    1    2    0    0  0.92941762877E+01 -0.99180500263E+01  0.28843862345E+02  0.59301987014E+02  0.50000078397E+02 0.  0.
        -12    1    1    2    0    0 -0.92941762877E+01  0.99180500263E+01 -0.28843862345E+02  0.31886012986E+02  0.00000000000E+00 0.  1.
         11    1    3    3    0    0 -0.42901288955E+01 -0.52408109384E+01  0.31771964487E+02  0.32485828184E+02  0.51100000000E-03 0. -1.
        -11    1    3    3    0    0 -0.47640696120E+01  0.36534930069E+01  0.14914355173E+01  0.61861741475E+01  0.51100000000E-03 0.  1.
        -12    1    3    3    0    0  0.18348374795E+02 -0.83307320948E+01 -0.44195376593E+01  0.20629984682E+02  0.00000000000E+00 0.  1.
</event>
<event>
 7    1  0.6953847E-012  0.5930189E+02  0.7816164E-02  0.1266605E+00
        -11   -1    0    0    0    0  0.00000000000E+00  0.00000000000E+00  0.45593999997E+02  0.45594000000E+02  0.51100000000E-03 0. -1.
         11   -1    0    0    0    0 -0.00000000000E+00 -0.00000000000E+00 -0.45593999997E+02  0.45594000000E+02  0.51100000000E-03 0.  1.
    9900012    2    1    2    0    0  0.19196767869E+02  0.21245430437E+02  0.14029970540E+02  0.59301885712E+02  0.49999893645E+02 0.  0.
        -12    1    1    2    0    0 -0.19196767869E+02 -0.21245430437E+02 -0.14029970540E+02  0.31886114288E+02  0.00000000000E+00 0.  1.
         11    1    3    3    0    0  0.65054758352E+01 -0.23534112429E+01  0.18366196644E+01  0.71577183776E+01  0.51100000000E-03 0. -1.
        -11    1    3    3    0    0 -0.82515477354E+01 -0.79092896199E+01 -0.22467383540E+01  0.11648722497E+02  0.51100000000E-03 0.  1.
         12    1    3    3    0    0  0.20942839769E+02  0.31508131300E+02  0.14440089230E+02  0.40495444837E+02  0.00000000000E+00 0. -1.
</event>
<event>
 7    1  0.6953847E-012  0.5930195E+02  0.7816164E-02  0.1266605E+00
        -11   -1    0    0    0    0  0.00000000000E+00  0.00000000000E+00  0.45593999997E+02  0.45594000000E+02  0.51100000000E-03 0.  1.
         11   -1    0    0    0    0 -0.00000000000E+00 -0.00000000000E+00 -0.45593999997E+02  0.45594000000E+02  0.51100000000E-03 0. -1.
    9900012    2    1    2    0    0  0.53515595858E+01 -0.26561166606E+02 -0.16810276382E+02  0.59301950488E+02  0.50000011781E+02 0.  0.
        -12    1    1    2    0    0 -0.53515595858E+01  0.26561166606E+02  0.16810276382E+02  0.31886049512E+02  0.00000000000E+00 0.  1.
         11    1    3    3    0    0  0.13046392125E+02 -0.85109527235E+01 -0.22652624221E+02  0.27491563217E+02  0.51100000000E-03 0. -1.
        -11    1    3    3    0    0  0.24083418207E+00 -0.14455739638E+02  0.13818021814E+02  0.19999103397E+02  0.51100000000E-03 0.  1.
         12    1    3    3    0    0 -0.79356667208E+01 -0.35944742444E+01 -0.79756739744E+01  0.11811283874E+02  0.00000000000E+00 0. -1.
</event>
<event>
 7    1  0.6953847E-012  0.5930191E+02  0.7816164E-02  0.1266605E+00
        -11   -1    0    0    0    0  0.00000000000E+00  0.00000000000E+00  0.45593999997E+02  0.45594000000E+02  0.51100000000E-03 0.  1.
         11   -1    0    0    0    0 -0.00000000000E+00 -0.00000000000E+00 -0.45593999997E+02  0.45594000000E+02  0.51100000000E-03 0. -1.
    9900012    2    1    2    0    0  0.43650463717E+01 -0.11493901639E+02 -0.29420386468E+02  0.59301912993E+02  0.49999943400E+02 0.  0.
        -12    1    1    2    0    0 -0.43650463717E+01  0.11493901639E+02  0.29420386468E+02  0.31886087007E+02  0.00000000000E+00 0.  1.
         11    1    3    3    0    0  0.12487745709E+02  0.40274468442E+01 -0.65127378236E+01  0.14648545156E+02  0.51100000000E-03 0. -1.
        -11    1    3    3    0    0 -0.12564370452E+02  0.63860023461E+00  0.37832047764E+01  0.13137117406E+02  0.51100000000E-03 0.  1.
         12    1    3    3    0    0  0.44416711146E+01 -0.16159948718E+02 -0.26690853420E+02  0.31516250430E+02  0.00000000000E+00 0. -1.
</event>
<event>
 7    1  0.6953847E-012  0.5930195E+02  0.7816164E-02  0.1266605E+00
        -11   -1    0    0    0    0  0.00000000000E+00  0.00000000000E+00  0.45593999997E+02  0.45594000000E+02  0.51100000000E-03 0. -1.
         11   -1    0    0    0    0 -0.00000000000E+00 -0.00000000000E+00 -0.45593999997E+02  0.45594000000E+02  0.51100000000E-03 0.  1.
    9900012    2    1    2    0    0 -0.24744903261E+02 -0.50611906057E+01  0.19462635234E+02  0.59301951985E+02  0.50000014512E+02 0.  0.
        -12    1    1    2    0    0  0.24744903261E+02  0.50611906057E+01 -0.19462635234E+02  0.31886048015E+02  0.00000000000E+00 0.  1.
         11    1    3    3    0    0 -0.71409639769E+01  0.84484977797E+01 -0.76357463765E+00  0.11088441177E+02  0.51100000000E-03 0. -1.
        -11    1    3    3    0    0 -0.56437401846E+01 -0.11786683280E+02 -0.94793925376E+01  0.16144243220E+02  0.51100000000E-03 0.  1.
        -12    1    3    3    0    0 -0.11960199100E+02 -0.17230051055E+01  0.29705602409E+02  0.32069267588E+02  0.00000000000E+00 0.  1.
</event>
<event>
 7    1  0.6953847E-012  0.5930192E+02  0.7816164E-02  0.1266605E+00
        -11   -1    0    0    0    0  0.00000000000E+00  0.00000000000E+00  0.45593999997E+02  0.45594000000E+02  0.51100000000E-03 0. -1.
         11   -1    0    0    0    0 -0.00000000000E+00 -0.00000000000E+00 -0.45593999997E+02  0.45594000000E+02  0.51100000000E-03 0.  1.
    9900012    2    1    2    0    0  0.12804257189E+02  0.28883970739E+02 -0.42998887194E+01  0.59301924500E+02  0.49999964386E+02 0.  0.
        -12    1    1    2    0    0 -0.12804257189E+02 -0.28883970739E+02  0.42998887194E+01  0.31886075500E+02  0.00000000000E+00 0.  1.
         11    1    3    3    0    0  0.19030886292E+02  0.13170543701E+02  0.10618751769E+02  0.25463616079E+02  0.51100000000E-03 0. -1.
        -11    1    3    3    0    0  0.59171958445E+01  0.11558903391E+02  0.14182860729E+01  0.13062656311E+02  0.51100000000E-03 0.  1.
        -12    1    3    3    0    0 -0.12143824948E+02  0.41545236472E+01 -0.16336926561E+02  0.20775652109E+02  0.00000000000E+00 0.  1.
</event>
<event>
 7    1  0.6953847E-012  0.5930195E+02  0.7816164E-02  0.1266605E+00
        -11   -1    0    0    0    0  0.00000000000E+00  0.00000000000E+00  0.45593999997E+02  0.45594000000E+02  0.51100000000E-03 0. -1.
         11   -1    0    0    0    0 -0.00000000000E+00 -0.00000000000E+00 -0.45593999997E+02  0.45594000000E+02  0.51100000000E-03 0.  1.
    9900012    2    1    2    0    0 -0.19466129407E+02  0.24795129518E+02  0.47949204009E+01  0.59301954407E+02  0.50000018930E+02 0.  0.
        -12    1    1    2    0    0  0.19466129407E+02 -0.24795129518E+02 -0.47949204009E+01  0.31886045593E+02  0.00000000000E+00 0.  1.
         11    1    3    3    0    0 -0.40439482317E+01  0.20340012568E+02  0.13389827384E+02  0.24685159635E+02  0.51100000000E-03 0. -1.
        -11    1    3    3    0    0 -0.15097581055E+01 -0.54983426027E+01  0.86282446327E+01  0.10342037837E+02  0.51100000000E-03 0.  1.
        -12    1    3    3    0    0 -0.13912423070E+02  0.99534595526E+01 -0.17223151615E+02  0.24274756936E+02  0.00000000000E+00 0.  1.
</event>
<event>
 7    1  0.6953847E-012  0.5930198E+02  0.7816164E-02  0.1266605E+00
        -11   -1    0    0    0    0  0.00000000000E+00  0.00000000000E+00  0.45593999997E+02  0.45594000000E+02  0.51100000000E-03 0.  1.
         11   -1    0    0    0    0 -0.00000000000E+00 -0.00000000000E+00 -0.45593999997E+02  0.45594000000E+02  0.51100000000E-03 0. -1.
    9900012    2    1    2    0    0  0.12877914200E+02 -0.22917877423E+02 -0.18045734526E+02  0.59301979328E+02  0.50000064379E+02 0.  0.
        -12    1    1    2    0    0 -0.12877914200E+02  0.22917877423E+02  0.18045734526E+02  0.31886020672E+02  0.00000000000E+00 0.  1.
         11    1    3    3    0    0  0.48751287409E+01 -0.16115940015E+02 -0.24095356673E+02  0.29395180154E+02  0.51100000000E-03 0. -1.
        -11    1    3    3    0    0  0.14463798589E+02 -0.13631095369E+02  0.36972088627E+01  0.20215775627E+02  0.51100000000E-03 0.  1.
         12    1    3    3    0    0 -0.64610131300E+01  0.68291579611E+01  0.23524132846E+01  0.96910235468E+01  0.00000000000E+00 0. -1.
</event>
<event>
 7    1  0.6953847E-012  0.5930192E+02  0.7816164E-02  0.1266605E+00
        -11   -1    0    0    0    0  0.00000000000E+00  0.00000000000E+00  0.45593999997E+02  0.45594000000E+02  0.51100000000E-03 0.  1.
         11   -1    0    0    0    0 -0.00000000000E+00 -0.00000000000E+00 -0.45593999997E+02  0.45594000000E+02  0.51100000000E-03 0. -1.
    9900012    2    1    2    0    0  0.11041289864E+02 -0.29913310734E+02  0.75101312694E-01  0.59301923396E+02  0.49999962374E+02 0.  0.
        -12    1    1    2    0    0 -0.11041289864E+02  0.29913310734E+02 -0.75101312694E-01  0.31886076604E+02  0.00000000000E+00 0.  1.
         11    1    3    3    0    0 -0.67982940278E+01 -0.43645285433E+01 -0.83794450254E+00  0.81220725399E+01  0.51100000000E-03 0. -1.
        -11    1    3    3    0    0 -0.82849994290E+01 -0.20667519192E+02 -0.71849145479E+01  0.23396806671E+02  0.51100000000E-03 0.  1.
        -12    1    3    3    0    0  0.26124583321E+02 -0.48812629995E+01  0.80979603631E+01  0.27783044186E+02  0.00000000000E+00 0.  1.
</event>
<event>
 7    1  0.6953847E-012  0.5930193E+02  0.7816164E-02  0.1266605E+00
        -11   -1    0    0    0    0  0.00000000000E+00  0.00000000000E+00  0.45593999997E+02  0.45594000000E+02  0.51100000000E-03 0.  1.
         11   -1    0    0    0    0 -0.00000000000E+00 -0.00000000000E+00 -0.45593999997E+02  0.45594000000E+02  0.51100000000E-03 0. -1.
    9900012    2    1    2    0    0  0.21486648006E+02 -0.90168354110E+01 -0.21765610088E+02  0.59301934926E+02  0.49999983401E+02 0.  0.
        -12    1    1    2    0    0 -0.21486648006E+02  0.90168354110E+01  0.21765610088E+02  0.31886065074E+02  0.00000000000E+00 0.  1.
         11    1    3    3    0    0  0.17293414918E+02  0.13660198543E+01  0.81222941839E+01  0.19154630585E+02  0.51100000000E-03 0. -1.
        -11    1    3    3    0    0 -0.44449034091E+01 -0.97118321608E+01 -0.18991719891E+01  0.10848212053E+02  0.51100000000E-03 0.  1.
        -12    1    3    3    0    0  0.86381364972E+01 -0.67102310442E+00 -0.27988732283E+02  0.29299092289E+02  0.00000000000E+00 0.  1.
</event>
<event>
 7    1  0.6953847E-012  0.5930194E+02  0.7816164E-02  0.1266605E+00
        -11   -1    0    0    0    0  0.00000000000E+00  0.00000000000E+00  0.45593999997E+02  0.45594000000E+02  0.51100000000E-03 0.  1.
         11   -1    0    0    0    0 -0.00000000000E+00 -0.00000000000E+00 -0.45593999997E+02  0.45594000000E+02  0.51100000000E-03 0. -1.
    9900012    2    1    2    0    0 -0.25027281540E+01  0.28495682865E+02 -0.14087352405E+02  0.59301935835E+02  0.49999985059E+02 0.  0.
        -12    1    1    2    0    0  0.25027281540E+01 -0.28495682865E+02  0.14087352405E+02  0.31886064165E+02  0.00000000000E+00 0.  1.
         11    1    3    3    0    0 -0.93224307209E+01 -0.19999992609E+01 -0.58827419001E+00  0.95526843543E+01  0.51100000000E-03 0.  1.
        -11    1    3    3    0    0 -0.13276362175E+02  0.48062328853E+01 -0.91972357824E+01  0.16850840141E+02  0.51100000000E-03 0. -1.
        -12    1    3    3    0    0  0.20096064742E+02  0.25689449241E+02 -0.43018424322E+01  0.32898411340E+02  0.00000000000E+00 0.  1.
</event>
<event>
 7    1  0.6953847E-012  0.5930194E+02  0.7816164E-02  0.1266605E+00
        -11   -1    0    0    0    0  0.00000000000E+00  0.00000000000E+00  0.45593999997E+02  0.45594000000E+02  0.51100000000E-03 0. -1.
         11   -1    0    0    0    0 -0.00000000000E+00 -0.00000000000E+00 -0.45593999997E+02  0.45594000000E+02  0.51100000000E-03 0.  1.
    9900012    2    1    2    0    0 -0.34712166938E+01  0.28419473847E+02 -0.14035843856E+02  0.59301941106E+02  0.49999994671E+02 0.  0.
        -12    1    1    2    0    0  0.34712166938E+01 -0.28419473847E+02  0.14035843856E+02  0.31886058894E+02  0.00000000000E+00 0.  1.
         11    1    3    3    0    0  0.12002485769E+02  0.77718273641E+01  0.11025548476E+02  0.18056125960E+02  0.51100000000E-03 0. -1.
        -11    1    3    3    0    0 -0.19222780541E+01  0.52689750913E-01  0.32056694048E+01  0.37382142423E+01  0.51100000000E-03 0.  1.
        -12    1    3    3    0    0 -0.13551424409E+02  0.20594956732E+02 -0.28267061737E+02  0.37507600903E+02  0.00000000000E+00 0.  1.
</event>
<event>
 7    1  0.6953847E-012  0.5930194E+02  0.7816164E-02  0.1266605E+00
        -11   -1    0    0    0    0  0.00000000000E+00  0.00000000000E+00  0.45593999997E+02  0.45594000000E+02  0.51100000000E-03 0.  1.
         11   -1    0    0    0    0 -0.00000000000E+00 -0.00000000000E+00 -0.45593999997E+02  0.45594000000E+02  0.51100000000E-03 0. -1.
    9900012    2    1    2    0    0 -0.20953972400E+02 -0.16315421276E+02 -0.17648193472E+02  0.59301942489E+02  0.49999997194E+02 0.  0.
        -12    1    1    2    0    0  0.20953972400E+02  0.16315421276E+02  0.17648193472E+02  0.31886057511E+02  0.00000000000E+00 0.  1.
         11    1    3    3    0    0 -0.29039148892E+02 -0.75983709128E+01 -0.13978349575E+02  0.33111956541E+02  0.51100000000E-03 0. -1.
        -11    1    3    3    0    0 -0.20387157093E+01 -0.67965179317E+00 -0.11082518719E+02  0.11288955209E+02  0.51100000000E-03 0.  1.
         12    1    3    3    0    0  0.10123892201E+02 -0.80373985696E+01  0.74126748217E+01  0.14901030739E+02  0.00000000000E+00 0. -1.
</event>
<event>
 7    1  0.6953847E-012  0.5930197E+02  0.7816164E-02  0.1266605E+00
        -11   -1    0    0    0    0  0.00000000000E+00  0.00000000000E+00  0.45593999997E+02  0.45594000000E+02  0.51100000000E-03 0.  1.
         11   -1    0    0    0    0 -0.00000000000E+00 -0.00000000000E+00 -0.45593999997E+02  0.45594000000E+02  0.51100000000E-03 0. -1.
    9900012    2    1    2    0    0  0.25697816619E+02 -0.14871716604E+02 -0.11626391014E+02  0.59301973253E+02  0.50000053299E+02 0.  0.
        -12    1    1    2    0    0 -0.25697816619E+02  0.14871716604E+02  0.11626391014E+02  0.31886026747E+02  0.00000000000E+00 0.  1.
         11    1    3    3    0    0  0.25280467385E+02  0.68701258227E+01 -0.15327673176E+02  0.30351906452E+02  0.51100000000E-03 0. -1.
        -11    1    3    3    0    0  0.49065460970E+01 -0.96721200705E+01 -0.63914722198E+01  0.12588686137E+02  0.51100000000E-03 0.  1.
        -12    1    3    3    0    0 -0.44891968625E+01 -0.12069722356E+02  0.10092754382E+02  0.16361380664E+02  0.00000000000E+00 0.  1.
</event>
<event>
 7    1  0.6953847E-012  0.5930193E+02  0.7816164E-02  0.1266605E+00
        -11   -1    0    0    0    0  0.00000000000E+00  0.00000000000E+00  0.45593999997E+02  0.45594000000E+02  0.51100000000E-03 0.  1.
         11   -1    0    0    0    0 -0.00000000000E+00 -0.00000000000E+00 -0.45593999997E+02  0.45594000000E+02  0.51100000000E-03 0. -1.
    9900012    2    1    2    0    0 -0.21158157166E+01  0.13357061537E+01 -0.31787747414E+02  0.59301926665E+02  0.49999968334E+02 0.  0.
        -12    1    1    2    0    0  0.21158157166E+01 -0.13357061537E+01  0.31787747414E+02  0.31886073335E+02  0.00000000000E+00 0.  1.
         11    1    3    3    0    0  0.53698091364E+01  0.75792200689E+00 -0.23345242717E+02  0.23966844884E+02  0.51100000000E-03 0. -1.
        -11    1    3    3    0    0  0.26393560490E+01 -0.12108327437E+01 -0.19801805157E+02  0.20013590483E+02  0.51100000000E-03 0.  1.
        -12    1    3    3    0    0 -0.10124980902E+02  0.17886168905E+01  0.11359300460E+02  0.15321491298E+02  0.00000000000E+00 0.  1.
</event>
<event>
 7    1  0.6953847E-012  0.5930195E+02  0.7816164E-02  0.1266605E+00
        -11   -1    0    0    0    0  0.00000000000E+00  0.00000000000E+00  0.45593999997E+02  0.45594000000E+02  0.51100000000E-03 0.  1.
         11   -1    0    0    0    0 -0.00000000000E+00 -0.00000000000E+00 -0.45593999997E+02  0.45594000000E+02  0.51100000000E-03 0. -1.
    9900012    2    1    2    0    0 -0.21986899289E+01 -0.31365737998E+02 -0.52987208486E+01  0.59301949756E+02  0.50000010447E+02 0.  0.
        -12    1    1    2    0    0  0.21986899289E+01  0.31365737998E+02  0.52987208486E+01  0.31886050244E+02  0.00000000000E+00 0.  1.
         11    1    3    3    0    0 -0.69188266706E+01 -0.19772067591E+01  0.13804877248E+02  0.15567727681E+02  0.51100000000E-03 0. -1.
        -11    1    3    3    0    0  0.20817185109E+01 -0.56602864391E+01  0.64039544981E+01  0.87967623593E+01  0.51100000000E-03 0.  1.
         12    1    3    3    0    0  0.26384182308E+01 -0.23728244799E+02 -0.25507552594E+02  0.34937459716E+02  0.00000000000E+00 0. -1.
</event>
<event>
 7    1  0.6953847E-012  0.5930158E+02  0.7816164E-02  0.1266606E+00
        -11   -1    0    0    0    0  0.00000000000E+00  0.00000000000E+00  0.45593999997E+02  0.45594000000E+02  0.51100000000E-03 0.  1.
         11   -1    0    0    0    0 -0.00000000000E+00 -0.00000000000E+00 -0.45593999997E+02  0.45594000000E+02  0.51100000000E-03 0. -1.
    9900012    2    1    2    0    0  0.16908430610E+02 -0.23847351325E+01 -0.26928825445E+02  0.59301582403E+02  0.49999340479E+02 0.  0.
        -12    1    1    2    0    0 -0.16908430610E+02  0.23847351325E+01  0.26928825445E+02  0.31886417597E+02  0.00000000000E+00 0.  1.
         11    1    3    3    0    0  0.34548341515E+01 -0.43681302926E+01  0.32751097873E+01  0.64608657041E+01  0.51100000000E-03 0. -1.
        -11    1    3    3    0    0 -0.25429112864E+01  0.15548830807E+00  0.95849244636E+01  0.99177291584E+01  0.51100000000E-03 0.  1.
         12    1    3    3    0    0  0.15996507745E+02  0.18279068520E+01 -0.39788859696E+02  0.42922987540E+02  0.00000000000E+00 0. -1.
</event>
<event>
 7    1  0.6953847E-012  0.5930200E+02  0.7816164E-02  0.1266605E+00
        -11   -1    0    0    0    0  0.00000000000E+00  0.00000000000E+00  0.45593999997E+02  0.45594000000E+02  0.51100000000E-03 0.  1.
         11   -1    0    0    0    0 -0.00000000000E+00 -0.00000000000E+00 -0.45593999997E+02  0.45594000000E+02  0.51100000000E-03 0. -1.
    9900012    2    1    2    0    0 -0.13077750836E+02 -0.28731777685E+02 -0.44916057276E+01  0.59301997775E+02  0.50000098022E+02 0.  0.
        -12    1    1    2    0    0  0.13077750836E+02  0.28731777685E+02  0.44916057276E+01  0.31886002225E+02  0.00000000000E+00 0.  1.
         11    1    3    3    0    0 -0.41308267782E+00  0.79193736375E+01 -0.39470534694E+01  0.88581232471E+01  0.51100000000E-03 0. -1.
        -11    1    3    3    0    0  0.64811534522E+01 -0.85005209524E+01  0.10168790579E+02  0.14753593076E+02  0.51100000000E-03 0.  1.
         12    1    3    3    0    0 -0.19145821611E+02 -0.28150630370E+02 -0.10713342838E+02  0.35690281452E+02  0.00000000000E+00 0. -1.
</event>
<event>
 7    1  0.6953847E-012  0.5930191E+02  0.7816164E-02  0.1266605E+00
        -11   -1    0    0    0    0  0.00000000000E+00  0.00000000000E+00  0.45593999997E+02  0.45594000000E+02  0.51100000000E-03 0.  1.
         11   -1    0    0    0    0 -0.00000000000E+00 -0.00000000000E+00 -0.45593999997E+02  0.45594000000E+02  0.51100000000E-03 0. -1.
    9900012    2    1    2    0    0  0.17825224645E+02  0.12568363854E+01 -0.26408412221E+02  0.59301913577E+02  0.49999944465E+02 0.  0.
        -12    1    1    2    0    0 -0.17825224645E+02 -0.12568363854E+01  0.26408412221E+02  0.31886086423E+02  0.00000000000E+00 0.  1.
         11    1    3    3    0    0  0.25106292818E+02 -0.57904088653E+01 -0.26616774739E+02  0.37044668600E+02  0.51100000000E-03 0. -1.
        -11    1    3    3    0    0  0.83277273007E+00  0.39063361339E+01 -0.88424574533E+01  0.97026814069E+01  0.51100000000E-03 0.  1.
        -12    1    3    3    0    0 -0.81138409030E+01  0.31409091168E+01  0.90508199718E+01  0.12554563570E+02  0.00000000000E+00 0.  1.
</event>
<event>
 7    1  0.6953847E-012  0.5930195E+02  0.7816164E-02  0.1266605E+00
        -11   -1    0    0    0    0  0.00000000000E+00  0.00000000000E+00  0.45593999997E+02  0.45594000000E+02  0.51100000000E-03 0.  1.
         11   -1    0    0    0    0 -0.00000000000E+00 -0.00000000000E+00 -0.45593999997E+02  0.45594000000E+02  0.51100000000E-03 0. -1.
    9900012    2    1    2    0    0 -0.29419013632E+02 -0.11686792459E+02 -0.38289025844E+01  0.59301953270E+02  0.50000016856E+02 0.  0.
        -12    1    1    2    0    0  0.29419013632E+02  0.11686792459E+02  0.38289025844E+01  0.31886046730E+02  0.00000000000E+00 0.  1.
         11    1    3    3    0    0 -0.11859599697E+02 -0.10738383386E+02  0.18701501601E+01  0.16107775905E+02  0.51100000000E-03 0. -1.
        -11    1    3    3    0    0 -0.22169074210E+02 -0.13971306949E+02  0.37299368096E+01  0.26468428326E+02  0.51100000000E-03 0.  1.
         12    1    3    3    0    0  0.46096602750E+01  0.13022897875E+02 -0.94289895542E+01  0.16725749040E+02  0.00000000000E+00 0. -1.
</event>
<event>
 7    1  0.6953847E-012  0.5930195E+02  0.7816164E-02  0.1266605E+00
        -11   -1    0    0    0    0  0.00000000000E+00  0.00000000000E+00  0.45593999997E+02  0.45594000000E+02  0.51100000000E-03 0. -1.
         11   -1    0    0    0    0 -0.00000000000E+00 -0.00000000000E+00 -0.45593999997E+02  0.45594000000E+02  0.51100000000E-03 0.  1.
    9900012    2    1    2    0    0  0.19901060493E+02  0.41122417171E+01  0.24571481782E+02  0.59301945718E+02  0.50000003083E+02 0.  0.
        -12    1    1    2    0    0 -0.19901060493E+02 -0.41122417171E+01 -0.24571481782E+02  0.31886054282E+02  0.00000000000E+00 0.  1.
         11    1    3    3    0    0  0.16960849067E+02  0.18084338433E+02  0.32552182100E+02  0.40918922974E+02  0.51100000000E-03 0. -1.
        -11    1    3    3    0    0  0.18652095288E+00 -0.29066775499E+01  0.17454000439E+01  0.33955833106E+01  0.51100000000E-03 0.  1.
        -12    1    3    3    0    0  0.27536904731E+01 -0.11065419166E+02 -0.97261003612E+01  0.14987439434E+02  0.00000000000E+00 0.  1.
</event>
<event>
 7    1  0.6953847E-012  0.5930195E+02  0.7816164E-02  0.1266605E+00
        -11   -1    0    0    0    0  0.00000000000E+00  0.00000000000E+00  0.45593999997E+02  0.45594000000E+02  0.51100000000E-03 0.  1.
         11   -1    0    0    0    0 -0.00000000000E+00 -0.00000000000E+00 -0.45593999997E+02  0.45594000000E+02  0.51100000000E-03 0. -1.
    9900012    2    1    2    0    0 -0.13460377887E+02 -0.25270141910E+02  0.14034180933E+02  0.59301951648E+02  0.50000013898E+02 0.  0.
        -12    1    1    2    0    0  0.13460377887E+02  0.25270141910E+02 -0.14034180933E+02  0.31886048352E+02  0.00000000000E+00 0.  1.
         11    1    3    3    0    0 -0.21237271670E+02 -0.16769121792E+02  0.32132795502E+01  0.27249776501E+02  0.51100000000E-03 0. -1.
        -11    1    3    3    0    0 -0.91077827248E+01  0.10788120757E+01  0.84933776056E+01  0.12500120202E+02  0.51100000000E-03 0.  1.
        -12    1    3    3    0    0  0.16884676508E+02 -0.95798321937E+01  0.23275237776E+01  0.19552054945E+02  0.00000000000E+00 0.  1.
</event>
<event>
 7    1  0.6953847E-012  0.5930198E+02  0.7816164E-02  0.1266605E+00
        -11   -1    0    0    0    0  0.00000000000E+00  0.00000000000E+00  0.45593999997E+02  0.45594000000E+02  0.51100000000E-03 0. -1.
         11   -1    0    0    0    0 -0.00000000000E+00 -0.00000000000E+00 -0.45593999997E+02  0.45594000000E+02  0.51100000000E-03 0.  1.
    9900012    2    1    2    0    0 -0.26186150794E+02  0.11670093215E+02  0.13957523625E+02  0.59301983711E+02  0.50000072373E+02 0.  0.
        -12    1    1    2    0    0  0.26186150794E+02 -0.11670093215E+02 -0.13957523625E+02  0.31886016289E+02  0.00000000000E+00 0.  1.
         11    1    3    3    0    0 -0.31891609669E+00 -0.17538151723E+01  0.21710373891E+01  0.28090885962E+01  0.51100000000E-03 0. -1.
        -11    1    3    3    0    0  0.81924036360E+01  0.19065600470E+01  0.18127362869E+02  0.19983786763E+02  0.51100000000E-03 0.  1.
         12    1    3    3    0    0 -0.34059638333E+02  0.11517348341E+02 -0.63408766330E+01  0.36509108352E+02  0.00000000000E+00 0. -1.
</event>
<event>
 7    1  0.6953847E-012  0.5930193E+02  0.7816164E-02  0.1266605E+00
        -11   -1    0    0    0    0  0.00000000000E+00  0.00000000000E+00  0.45593999997E+02  0.45594000000E+02  0.51100000000E-03 0.  1.
         11   -1    0    0    0    0 -0.00000000000E+00 -0.00000000000E+00 -0.45593999997E+02  0.45594000000E+02  0.51100000000E-03 0. -1.
    9900012    2    1    2    0    0  0.23914932580E+02 -0.14630147720E+02 -0.15190657336E+02  0.59301932620E+02  0.49999979195E+02 0.  0.
        -12    1    1    2    0    0 -0.23914932580E+02  0.14630147720E+02  0.15190657336E+02  0.31886067380E+02  0.00000000000E+00 0.  1.
         11    1    3    3    0    0  0.51157456024E+01 -0.18566492125E+02 -0.12888486878E+02  0.23173229753E+02  0.51100000000E-03 0. -1.
        -11    1    3    3    0    0 -0.13776465114E+01  0.71256305879E+00  0.11414153534E+02  0.11519051922E+02  0.51100000000E-03 0.  1.
         12    1    3    3    0    0  0.20176833489E+02  0.32237813455E+01 -0.13716323992E+02  0.24609650946E+02  0.00000000000E+00 0. -1.
</event>
<event>
 7    1  0.6953847E-012  0.5930196E+02  0.7816164E-02  0.1266605E+00
        -11   -1    0    0    0    0  0.00000000000E+00  0.00000000000E+00  0.45593999997E+02  0.45594000000E+02  0.51100000000E-03 0. -1.
         11   -1    0    0    0    0 -0.00000000000E+00 -0.00000000000E+00 -0.45593999997E+02  0.45594000000E+02  0.51100000000E-03 0.  1.
    9900012    2    1    2    0    0 -0.18569559350E+01  0.25832218302E+02  0.18600201976E+02  0.59301963851E+02  0.50000036153E+02 0.  0.
        -12    1    1    2    0    0  0.18569559350E+01 -0.25832218302E+02 -0.18600201976E+02  0.31886036149E+02  0.00000000000E+00 0.  1.
         11    1    3    3    0    0 -0.12789534954E+00  0.21980208514E+02  0.12638889387E+02  0.25355225275E+02  0.51100000000E-03 0. -1.
        -11    1    3    3    0    0  0.11573966471E+01  0.17153341957E+02  0.98202640806E+01  0.19799350852E+02  0.51100000000E-03 0.  1.
        -12    1    3    3    0    0 -0.28864572325E+01 -0.13301332169E+02 -0.38589514913E+01  0.14147387725E+02  0.00000000000E+00 0.  1.
</event>
<event>
 7    1  0.6953847E-012  0.5930200E+02  0.7816164E-02  0.1266605E+00
        -11   -1    0    0    0    0  0.00000000000E+00  0.00000000000E+00  0.45593999997E+02  0.45594000000E+02  0.51100000000E-03 0. -1.
         11   -1    0    0    0    0 -0.00000000000E+00 -0.00000000000E+00 -0.45593999997E+02  0.45594000000E+02  0.51100000000E-03 0.  1.
    9900012    2    1    2    0    0 -0.17569153049E+02 -0.19973488642E+02  0.17581281766E+02  0.59302002197E+02  0.50000106087E+02 0.  0.
        -12    1    1    2    0    0  0.17569153049E+02  0.19973488642E+02 -0.17581281766E+02  0.31885997803E+02  0.00000000000E+00 0.  1.
         11    1    3    3    0    0  0.49329342034E+01  0.75193178855E+01  0.52108951034E+01  0.10393623495E+02  0.51100000000E-03 0. -1.
        -11    1    3    3    0    0 -0.54399865447E+01  0.28603219827E+01 -0.67951500236E+01  0.91623664823E+01  0.51100000000E-03 0.  1.
        -12    1    3    3    0    0 -0.17062100707E+02 -0.30353128510E+02  0.19165536686E+02  0.39746012219E+02  0.00000000000E+00 0.  1.
</event>
<event>
 7    1  0.6953847E-012  0.5930195E+02  0.7816164E-02  0.1266605E+00
        -11   -1    0    0    0    0  0.00000000000E+00  0.00000000000E+00  0.45593999997E+02  0.45594000000E+02  0.51100000000E-03 0. -1.
         11   -1    0    0    0    0 -0.00000000000E+00 -0.00000000000E+00 -0.45593999997E+02  0.45594000000E+02  0.51100000000E-03 0.  1.
    9900012    2    1    2    0    0 -0.20184709527E+02 -0.18618869865E+02  0.16206032954E+02  0.59301947910E+02  0.50000007081E+02 0.  0.
        -12    1    1    2    0    0  0.20184709527E+02  0.18618869865E+02 -0.16206032954E+02  0.31886052090E+02  0.00000000000E+00 0.  1.
         11    1    3    3    0    0  0.53358078356E+01  0.25264748852E+01  0.15509810021E+02  0.16595424904E+02  0.51100000000E-03 0. -1.
        -11    1    3    3    0    0 -0.15488241171E+02  0.25390494043E+01  0.53211988146E+01  0.16572493582E+02  0.51100000000E-03 0.  1.
         12    1    3    3    0    0 -0.10032276192E+02 -0.23684394154E+02 -0.46249758812E+01  0.26134029424E+02  0.00000000000E+00 0. -1.
</event>
<event>
 7    1  0.6953847E-012  0.5930194E+02  0.7816164E-02  0.1266605E+00
        -11   -1    0    0    0    0  0.00000000000E+00  0.00000000000E+00  0.45593999997E+02  0.45594000000E+02  0.51100000000E-03 0. -1.
         11   -1    0    0    0    0 -0.00000000000E+00 -0.00000000000E+00 -0.45593999997E+02  0.45594000000E+02  0.51100000000E-03 0.  1.
    9900012    2    1    2    0    0 -0.24285186440E+02 -0.16188062857E+02  0.12841231137E+02  0.59301939149E+02  0.49999991102E+02 0.  0.
        -12    1    1    2    0    0  0.24285186440E+02  0.16188062857E+02 -0.12841231137E+02  0.31886060851E+02  0.00000000000E+00 0.  1.
         11    1    3    3    0    0 -0.12728861475E+02 -0.10359465384E+02  0.39778058582E+01  0.16886840355E+02  0.51100000000E-03 0. -1.
        -11    1    3    3    0    0 -0.10688841487E+02 -0.21139028606E+02  0.12313145290E+02  0.26696880154E+02  0.51100000000E-03 0.  1.
         12    1    3    3    0    0 -0.86748347808E+00  0.15310431133E+02 -0.34497200113E+01  0.15718218640E+02  0.00000000000E+00 0. -1.
</event>
<event>
 7    1  0.6953847E-012  0.5930193E+02  0.7816164E-02  0.1266605E+00
        -11   -1    0    0    0    0  0.00000000000E+00  0.00000000000E+00  0.45593999997E+02  0.45594000000E+02  0.51100000000E-03 0.  1.
         11   -1    0    0    0    0 -0.00000000000E+00 -0.00000000000E+00 -0.45593999997E+02  0.45594000000E+02  0.51100000000E-03 0. -1.
    9900012    2    1    2    0    0  0.23638896069E+02  0.11219718377E+02 -0.18222017298E+02  0.59301930907E+02  0.49999976070E+02 0.  0.
        -12    1    1    2    0    0 -0.23638896069E+02 -0.11219718377E+02  0.18222017298E+02  0.31886069093E+02  0.00000000000E+00 0.  1.
         11    1    3    3    0    0  0.83226923569E-01  0.42118257138E+01 -0.17848528272E+02  0.18338930293E+02  0.51100000000E-03 0. -1.
        -11    1    3    3    0    0  0.11346493088E+02  0.17261116530E+02  0.89295185647E+01  0.22503896359E+02  0.51100000000E-03 0.  1.
         12    1    3    3    0    0  0.12209176058E+02 -0.10253223866E+02 -0.93030075903E+01  0.18459104255E+02  0.00000000000E+00 0. -1.
</event>
<event>
 7    1  0.6953847E-012  0.5930193E+02  0.7816164E-02  0.1266605E+00
        -11   -1    0    0    0    0  0.00000000000E+00  0.00000000000E+00  0.45593999997E+02  0.45594000000E+02  0.51100000000E-03 0. -1.
         11   -1    0    0    0    0 -0.00000000000E+00 -0.00000000000E+00 -0.45593999997E+02  0.45594000000E+02  0.51100000000E-03 0.  1.
    9900012    2    1    2    0    0  0.28381778704E+02  0.14446713611E+02 -0.15774351109E+01  0.59301934108E+02  0.49999981908E+02 0.  0.
        -12    1    1    2    0    0 -0.28381778704E+02 -0.14446713611E+02  0.15774351109E+01  0.31886065892E+02  0.00000000000E+00 0.  1.
         11    1    3    3    0    0  0.55700574882E+01  0.38990763458E+01  0.34465095841E+01  0.76227793715E+01  0.51100000000E-03 0. -1.
        -11    1    3    3    0    0  0.34085521763E+02  0.82660427597E+01  0.61893952484E+01  0.35615430232E+02  0.51100000000E-03 0.  1.
        -12    1    3    3    0    0 -0.11273800547E+02  0.22815945052E+01 -0.11213339943E+02  0.16063724505E+02  0.00000000000E+00 0.  1.
</event>
<event>
 7    1  0.6953847E-012  0.5930192E+02  0.7816164E-02  0.1266605E+00
        -11   -1    0    0    0    0  0.00000000000E+00  0.00000000000E+00  0.45593999997E+02  0.45594000000E+02  0.51100000000E-03 0.  1.
         11   -1    0    0    0    0 -0.00000000000E+00 -0.00000000000E+00 -0.45593999997E+02  0.45594000000E+02  0.51100000000E-03 0. -1.
    9900012    2    1    2    0    0  0.10091557966E+02 -0.26573978243E+02 -0.14446670708E+02  0.59301919081E+02  0.49999954503E+02 0.  0.
        -12    1    1    2    0    0 -0.10091557966E+02  0.26573978243E+02  0.14446670708E+02  0.31886080919E+02  0.00000000000E+00 0.  1.
         11    1    3    3    0    0  0.23425044588E+01 -0.18851761225E+01 -0.13718161131E+02  0.14043830005E+02  0.51100000000E-03 0. -1.
        -11    1    3    3    0    0  0.61923609410E+00  0.82427214863E+01  0.68341822253E+01  0.10725295231E+02  0.51100000000E-03 0.  1.
         12    1    3    3    0    0  0.71298174133E+01 -0.32931523607E+02 -0.75626918027E+01  0.34532793845E+02  0.00000000000E+00 0. -1.
</event>
<event>
 7    1  0.6953847E-012  0.5930194E+02  0.7816164E-02  0.1266605E+00
        -11   -1    0    0    0    0  0.00000000000E+00  0.00000000000E+00  0.45593999997E+02  0.45594000000E+02  0.51100000000E-03 0. -1.
         11   -1    0    0    0    0 -0.00000000000E+00 -0.00000000000E+00 -0.45593999997E+02  0.45594000000E+02  0.51100000000E-03 0.  1.
    9900012    2    1    2    0    0  0.28381143117E+02  0.14325456193E+02 -0.24521478494E+01  0.59301937075E+02  0.49999987320E+02 0.  0.
        -12    1    1    2    0    0 -0.28381143117E+02 -0.14325456193E+02  0.24521478494E+01  0.31886062925E+02  0.00000000000E+00 0.  1.
         11    1    3    3    0    0  0.35299678873E+02  0.10152992001E+02  0.66943891568E+01  0.37335846335E+02  0.51100000000E-03 0. -1.
        -11    1    3    3    0    0  0.46057033803E+01  0.34174904565E+01 -0.86852435551E+01  0.10407939302E+02  0.51100000000E-03 0.  1.
        -12    1    3    3    0    0 -0.11524239136E+02  0.75497373526E+00 -0.46129345103E+00  0.11558151438E+02  0.00000000000E+00 0.  1.
</event>
<event>
 7    1  0.6953847E-012  0.5930198E+02  0.7816164E-02  0.1266605E+00
        -11   -1    0    0    0    0  0.00000000000E+00  0.00000000000E+00  0.45593999997E+02  0.45594000000E+02  0.51100000000E-03 0. -1.
         11   -1    0    0    0    0 -0.00000000000E+00 -0.00000000000E+00 -0.45593999997E+02  0.45594000000E+02  0.51100000000E-03 0.  1.
    9900012    2    1    2    0    0 -0.31080014179E+02  0.11568234457E+01  0.70294258997E+01  0.59301978763E+02  0.50000063348E+02 0.  0.
        -12    1    1    2    0    0  0.31080014179E+02 -0.11568234457E+01 -0.70294258997E+01  0.31886021237E+02  0.00000000000E+00 0.  1.
         11    1    3    3    0    0 -0.47433058896E+01  0.12855637520E+02  0.80938627257E+01  0.15914678159E+02  0.51100000000E-03 0. -1.
        -11    1    3    3    0    0 -0.22482736149E+00  0.95386529513E+01 -0.18553478372E+01  0.97200186896E+01  0.51100000000E-03 0.  1.
        -12    1    3    3    0    0 -0.26111880928E+02 -0.21237467026E+02  0.79091101118E+00  0.33667281914E+02  0.00000000000E+00 0.  1.
</event>
<event>
 7    1  0.6953847E-012  0.5930194E+02  0.7816164E-02  0.1266605E+00
        -11   -1    0    0    0    0  0.00000000000E+00  0.00000000000E+00  0.45593999997E+02  0.45594000000E+02  0.51100000000E-03 0. -1.
         11   -1    0    0    0    0 -0.00000000000E+00 -0.00000000000E+00 -0.45593999997E+02  0.45594000000E+02  0.51100000000E-03 0.  1.
    9900012    2    1    2    0    0 -0.25960350215E+02 -0.15072436434E+02  0.10751868107E+02  0.59301940489E+02  0.49999993546E+02 0.  0.
        -12    1    1    2    0    0  0.25960350215E+02  0.15072436434E+02 -0.10751868107E+02  0.31886059511E+02  0.00000000000E+00 0.  1.
         11    1    3    3    0    0  0.71397261395E+01 -0.13957570983E+01  0.27484625793E+01  0.77767521521E+01  0.51100000000E-03 0.  1.
        -11    1    3    3    0    0 -0.57386030075E+01 -0.12427900256E+01  0.18718693581E+02  0.19617991262E+02  0.51100000000E-03 0. -1.
         12    1    3    3    0    0 -0.27361473347E+02 -0.12433889310E+02 -0.10715288053E+02  0.31907197075E+02  0.00000000000E+00 0. -1.
</event>
<event>
 7    1  0.6953847E-012  0.5930219E+02  0.7816164E-02  0.1266604E+00
        -11   -1    0    0    0    0  0.00000000000E+00  0.00000000000E+00  0.45593999997E+02  0.45594000000E+02  0.51100000000E-03 0.  1.
         11   -1    0    0    0    0 -0.00000000000E+00 -0.00000000000E+00 -0.45593999997E+02  0.45594000000E+02  0.51100000000E-03 0. -1.
    9900012    2    1    2    0    0 -0.24830700172E+02 -0.14027606867E+02 -0.14260705382E+02  0.59302185859E+02  0.50000441040E+02 0.  0.
        -12    1    1    2    0    0  0.24830700172E+02  0.14027606867E+02  0.14260705382E+02  0.31885814141E+02  0.00000000000E+00 0.  1.
         11    1    3    3    0    0  0.91638879930E+00  0.57480375224E+00  0.13170078045E+02  0.13214428620E+02  0.51100000000E-03 0. -1.
        -11    1    3    3    0    0 -0.17626589911E+01 -0.84873185006E+01  0.60461785204E+00  0.86894824390E+01  0.51100000000E-03 0.  1.
         12    1    3    3    0    0 -0.23984429980E+02 -0.61150921187E+01 -0.28035401279E+02  0.37398274800E+02  0.00000000000E+00 0. -1.
</event>
<event>
 7    1  0.6953847E-012  0.5930195E+02  0.7816164E-02  0.1266605E+00
        -11   -1    0    0    0    0  0.00000000000E+00  0.00000000000E+00  0.45593999997E+02  0.45594000000E+02  0.51100000000E-03 0.  1.
         11   -1    0    0    0    0 -0.00000000000E+00 -0.00000000000E+00 -0.45593999997E+02  0.45594000000E+02  0.51100000000E-03 0. -1.
    9900012    2    1    2    0    0 -0.20808390381E+02 -0.23946036268E+02 -0.32121989310E+01  0.59301953127E+02  0.50000016596E+02 0.  0.
        -12    1    1    2    0    0  0.20808390381E+02  0.23946036268E+02  0.32121989310E+01  0.31886046873E+02  0.00000000000E+00 0.  1.
         11    1    3    3    0    0  0.46738119173E+01 -0.18452842842E+02 -0.30195969579E+01  0.19273554235E+02  0.51100000000E-03 0. -1.
        -11    1    3    3    0    0  0.27501868452E+01  0.59515022968E+01 -0.61479778610E+01  0.89878551008E+01  0.51100000000E-03 0.  1.
         12    1    3    3    0    0 -0.28232389143E+02 -0.11444695722E+02  0.59553758879E+01  0.31040543792E+02  0.00000000000E+00 0. -1.
</event>
<event>
 7    1  0.6953847E-012  0.5930192E+02  0.7816164E-02  0.1266605E+00
        -11   -1    0    0    0    0  0.00000000000E+00  0.00000000000E+00  0.45593999997E+02  0.45594000000E+02  0.51100000000E-03 0.  1.
         11   -1    0    0    0    0 -0.00000000000E+00 -0.00000000000E+00 -0.45593999997E+02  0.45594000000E+02  0.51100000000E-03 0. -1.
    9900012    2    1    2    0    0 -0.56393287818E+01 -0.31316895512E+02 -0.20425887938E+01  0.59301919297E+02  0.49999954897E+02 0.  0.
        -12    1    1    2    0    0  0.56393287818E+01  0.31316895512E+02  0.20425887938E+01  0.31886080703E+02  0.00000000000E+00 0.  1.
         11    1    3    3    0    0 -0.11276644600E+02 -0.11944742828E+02 -0.52683551139E+01  0.17250946656E+02  0.51100000000E-03 0. -1.
        -11    1    3    3    0    0  0.80847918459E+01 -0.11361108520E+02 -0.15913799455E+02  0.21158630848E+02  0.51100000000E-03 0.  1.
         12    1    3    3    0    0 -0.24474760277E+01 -0.80110441636E+01  0.19139565775E+02  0.20892341792E+02  0.00000000000E+00 0. -1.
</event>
<event>
 7    1  0.6953847E-012  0.5930195E+02  0.7816164E-02  0.1266605E+00
        -11   -1    0    0    0    0  0.00000000000E+00  0.00000000000E+00  0.45593999997E+02  0.45594000000E+02  0.51100000000E-03 0.  1.
         11   -1    0    0    0    0 -0.00000000000E+00 -0.00000000000E+00 -0.45593999997E+02  0.45594000000E+02  0.51100000000E-03 0. -1.
    9900012    2    1    2    0    0  0.17184423866E+02 -0.50698650963E+01 -0.26376353875E+02  0.59301952904E+02  0.50000016188E+02 0.  0.
        -12    1    1    2    0    0 -0.17184423866E+02  0.50698650963E+01  0.26376353875E+02  0.31886047096E+02  0.00000000000E+00 0.  1.
         11    1    3    3    0    0  0.18816527288E+02  0.18463733298E+02 -0.21400036823E+02  0.33954863021E+02  0.51100000000E-03 0. -1.
        -11    1    3    3    0    0 -0.10203267579E+01 -0.57496535574E+01  0.20881419053E+01  0.62016062113E+01  0.51100000000E-03 0.  1.
        -12    1    3    3    0    0 -0.61177666381E+00 -0.17783944837E+02 -0.70644589571E+01  0.19145483672E+02  0.00000000000E+00 0.  1.
</event>
<event>
 7    1  0.6953847E-012  0.5930194E+02  0.7816164E-02  0.1266605E+00
        -11   -1    0    0    0    0  0.00000000000E+00  0.00000000000E+00  0.45593999997E+02  0.45594000000E+02  0.51100000000E-03 0.  1.
         11   -1    0    0    0    0 -0.00000000000E+00 -0.00000000000E+00 -0.45593999997E+02  0.45594000000E+02  0.51100000000E-03 0. -1.
    9900012    2    1    2    0    0 -0.12619193615E+01 -0.29404600405E+02 -0.12267754191E+02  0.59301941003E+02  0.49999994484E+02 0.  0.
        -12    1    1    2    0    0  0.12619193615E+01  0.29404600405E+02  0.12267754191E+02  0.31886058997E+02  0.00000000000E+00 0.  1.
         11    1    3    3    0    0  0.99081620023E+01  0.12903715457E+01 -0.79577363872E+01  0.12773499977E+02  0.51100000000E-03 0. -1.
        -11    1    3    3    0    0 -0.15609106240E+00  0.58709617032E+01  0.44250641313E+01  0.73534854707E+01  0.51100000000E-03 0.  1.
         12    1    3    3    0    0 -0.11013990301E+02 -0.36565933654E+02 -0.87350819348E+01  0.39174955555E+02  0.00000000000E+00 0. -1.
</event>
<event>
 7    1  0.6953847E-012  0.5930194E+02  0.7816164E-02  0.1266605E+00
        -11   -1    0    0    0    0  0.00000000000E+00  0.00000000000E+00  0.45593999997E+02  0.45594000000E+02  0.51100000000E-03 0. -1.
         11   -1    0    0    0    0 -0.00000000000E+00 -0.00000000000E+00 -0.45593999997E+02  0.45594000000E+02  0.51100000000E-03 0.  1.
    9900012    2    1    2    0    0  0.29599383958E+02  0.11286873872E+02  0.36336705106E+01  0.59301943269E+02  0.49999998617E+02 0.  0.
        -12    1    1    2    0    0 -0.29599383958E+02 -0.11286873872E+02 -0.36336705106E+01  0.31886056731E+02  0.00000000000E+00 0.  1.
         11    1    3    3    0    0  0.19612027482E+02 -0.24223869941E+00 -0.87399377909E+01  0.21472699281E+02  0.51100000000E-03 0. -1.
        -11    1    3    3    0    0  0.18867811340E+02  0.14789839546E+02  0.24171823077E+01  0.24095153644E+02  0.51100000000E-03 0.  1.
         12    1    3    3    0    0 -0.88804548652E+01 -0.32607269747E+01  0.99564259939E+01  0.13734090344E+02  0.00000000000E+00 0. -1.
</event>
<event>
 7    1  0.6953847E-012  0.5930192E+02  0.7816164E-02  0.1266605E+00
        -11   -1    0    0    0    0  0.00000000000E+00  0.00000000000E+00  0.45593999997E+02  0.45594000000E+02  0.51100000000E-03 0. -1.
         11   -1    0    0    0    0 -0.00000000000E+00 -0.00000000000E+00 -0.45593999997E+02  0.45594000000E+02  0.51100000000E-03 0.  1.
    9900012    2    1    2    0    0  0.11608609967E+01 -0.12788780681E+02  0.29185978437E+02  0.59301923934E+02  0.49999963354E+02 0.  0.
        -12    1    1    2    0    0 -0.11608609967E+01  0.12788780681E+02 -0.29185978437E+02  0.31886076066E+02  0.00000000000E+00 0.  1.
         11    1    3    3    0    0 -0.12049266912E+02 -0.13767413656E+01 -0.51382065316E+00  0.12138544469E+02  0.51100000000E-03 0. -1.
        -11    1    3    3    0    0  0.18984061493E+02 -0.14641540714E+02  0.92954615146E+01  0.25713321650E+02  0.51100000000E-03 0.  1.
         12    1    3    3    0    0 -0.57739335845E+01  0.32295013988E+01  0.20404337576E+02  0.21450057814E+02  0.00000000000E+00 0. -1.
</event>
<event>
 7    1  0.6953847E-012  0.5930196E+02  0.7816164E-02  0.1266605E+00
        -11   -1    0    0    0    0  0.00000000000E+00  0.00000000000E+00  0.45593999997E+02  0.45594000000E+02  0.51100000000E-03 0.  1.
         11   -1    0    0    0    0 -0.00000000000E+00 -0.00000000000E+00 -0.45593999997E+02  0.45594000000E+02  0.51100000000E-03 0. -1.
    9900012    2    1    2    0    0 -0.29543537243E+02  0.71080610050E+01 -0.96630516729E+01  0.59301957729E+02  0.50000024988E+02 0.  0.
        -12    1    1    2    0    0  0.29543537243E+02 -0.71080610050E+01  0.96630516729E+01  0.31886042271E+02  0.00000000000E+00 0.  1.
         11    1    3    3    0    0 -0.16992208783E+02  0.47495646732E+01 -0.15343517003E+02  0.23381981058E+02  0.51100000000E-03 0. -1.
        -11    1    3    3    0    0  0.28139262162E+01 -0.11331409611E+02 -0.50386905476E+01  0.12716423523E+02  0.51100000000E-03 0.  1.
        -12    1    3    3    0    0 -0.15365254676E+02  0.13689905943E+02  0.10719155878E+02  0.23203553148E+02  0.00000000000E+00 0.  1.
</event>
<event>
 7    1  0.6953847E-012  0.5930194E+02  0.7816164E-02  0.1266605E+00
        -11   -1    0    0    0    0  0.00000000000E+00  0.00000000000E+00  0.45593999997E+02  0.45594000000E+02  0.51100000000E-03 0.  1.
         11   -1    0    0    0    0 -0.00000000000E+00 -0.00000000000E+00 -0.45593999997E+02  0.45594000000E+02  0.51100000000E-03 0. -1.
    9900012    2    1    2    0    0 -0.28651495254E+02  0.25261431921E+01 -0.13763405717E+02  0.59301938521E+02  0.49999989957E+02 0.  0.
        -12    1    1    2    0    0  0.28651495254E+02 -0.25261431921E+01  0.13763405717E+02  0.31886061479E+02  0.00000000000E+00 0.  1.
         11    1    3    3    0    0 -0.11431845068E+02 -0.34425524780E+01 -0.50450050133E+01  0.12961108173E+02  0.51100000000E-03 0. -1.
        -11    1    3    3    0    0 -0.27807607242E+00 -0.71689908284E+01 -0.20611391555E+02  0.21824326287E+02  0.51100000000E-03 0.  1.
         12    1    3    3    0    0 -0.16941574114E+02  0.13137686498E+02  0.11892990851E+02  0.24516504061E+02  0.00000000000E+00 0. -1.
</event>
<event>
 7    1  0.6953847E-012  0.5930194E+02  0.7816164E-02  0.1266605E+00
        -11   -1    0    0    0    0  0.00000000000E+00  0.00000000000E+00  0.45593999997E+02  0.45594000000E+02  0.51100000000E-03 0.  1.
         11   -1    0    0    0    0 -0.00000000000E+00 -0.00000000000E+00 -0.45593999997E+02  0.45594000000E+02  0.51100000000E-03 0. -1.
    9900012    2    1    2    0    0 -0.71236095396E+01  0.12500230357E+02 -0.28455569313E+02  0.59301937264E+02  0.49999987665E+02 0.  0.
        -12    1    1    2    0    0  0.71236095396E+01 -0.12500230357E+02  0.28455569313E+02  0.31886062736E+02  0.00000000000E+00 0.  1.
         11    1    3    3    0    0  0.20705517309E+01 -0.12250526371E+01  0.22817848903E+01  0.33157926626E+01  0.51100000000E-03 0. -1.
        -11    1    3    3    0    0  0.82901082652E+01 -0.12649967202E+02 -0.90853957484E+01  0.17643468520E+02  0.51100000000E-03 0.  1.
         12    1    3    3    0    0 -0.17484269536E+02  0.26375250196E+02 -0.21651958455E+02  0.38342676081E+02  0.00000000000E+00 0. -1.
</event>
<event>
 7    1  0.6953847E-012  0.5930195E+02  0.7816164E-02  0.1266605E+00
        -11   -1    0    0    0    0  0.00000000000E+00  0.00000000000E+00  0.45593999997E+02  0.45594000000E+02  0.51100000000E-03 0.  1.
         11   -1    0    0    0    0 -0.00000000000E+00 -0.00000000000E+00 -0.45593999997E+02  0.45594000000E+02  0.51100000000E-03 0. -1.
    9900012    2    1    2    0    0  0.23460991302E+01 -0.31192729055E+02 -0.61829946000E+01  0.59301953690E+02  0.50000017623E+02 0.  0.
        -12    1    1    2    0    0 -0.23460991302E+01  0.31192729055E+02  0.61829946000E+01  0.31886046310E+02  0.00000000000E+00 0.  1.
         11    1    3    3    0    0  0.68843878242E+01 -0.20195079586E+01  0.43522467688E+01  0.83913801193E+01  0.51100000000E-03 0. -1.
        -11    1    3    3    0    0 -0.53421863134E+01  0.92307657606E+01  0.12322443366E+01  0.10736126746E+02  0.51100000000E-03 0.  1.
         12    1    3    3    0    0  0.80389761931E+00 -0.38403986857E+02 -0.11767485705E+02  0.40174446825E+02  0.00000000000E+00 0. -1.
</event>
<event>
 7    1  0.6953847E-012  0.5930193E+02  0.7816164E-02  0.1266605E+00
        -11   -1    0    0    0    0  0.00000000000E+00  0.00000000000E+00  0.45593999997E+02  0.45594000000E+02  0.51100000000E-03 0.  1.
         11   -1    0    0    0    0 -0.00000000000E+00 -0.00000000000E+00 -0.45593999997E+02  0.45594000000E+02  0.51100000000E-03 0. -1.
    9900012    2    1    2    0    0  0.19569201369E+01  0.31574630266E+02  0.39918507395E+01  0.59301926470E+02  0.49999967979E+02 0.  0.
        -12    1    1    2    0    0 -0.19569201369E+01 -0.31574630266E+02 -0.39918507395E+01  0.31886073530E+02  0.00000000000E+00 0.  1.
         11    1    3    3    0    0  0.36052305897E+01  0.21262830296E+02 -0.17195189374E+01  0.21634749489E+02  0.51100000000E-03 0. -1.
        -11    1    3    3    0    0 -0.45124586272E+01  0.22226848602E+02  0.98581638737E+01  0.24730112755E+02  0.51100000000E-03 0.  1.
        -12    1    3    3    0    0  0.28641481744E+01 -0.11915048633E+02 -0.41467941968E+01  0.12937064226E+02  0.00000000000E+00 0.  1.
</event>
<event>
 7    1  0.6953847E-012  0.5930195E+02  0.7816164E-02  0.1266605E+00
        -11   -1    0    0    0    0  0.00000000000E+00  0.00000000000E+00  0.45593999997E+02  0.45594000000E+02  0.51100000000E-03 0.  1.
         11   -1    0    0    0    0 -0.00000000000E+00 -0.00000000000E+00 -0.45593999997E+02  0.45594000000E+02  0.51100000000E-03 0. -1.
    9900012    2    1    2    0    0  0.81689226850E+01 -0.13619455313E+02 -0.27649582860E+02  0.59301948297E+02  0.50000007786E+02 0.  0.
        -12    1    1    2    0    0 -0.81689226850E+01  0.13619455313E+02  0.27649582860E+02  0.31886051703E+02  0.00000000000E+00 0.  1.
         11    1    3    3    0    0 -0.15211299248E+01 -0.14420837426E+02 -0.34131647983E+02  0.37084279453E+02  0.51100000000E-03 0. -1.
        -11    1    3    3    0    0  0.73381406983E+01  0.29068929179E+01 -0.56338065136E+01  0.96973249630E+01  0.51100000000E-03 0.  1.
        -12    1    3    3    0    0  0.23519119114E+01 -0.21055108055E+01  0.12115871636E+02  0.12520343881E+02  0.00000000000E+00 0.  1.
</event>
<event>
 7    1  0.6953847E-012  0.5930195E+02  0.7816164E-02  0.1266605E+00
        -11   -1    0    0    0    0  0.00000000000E+00  0.00000000000E+00  0.45593999997E+02  0.45594000000E+02  0.51100000000E-03 0.  1.
         11   -1    0    0    0    0 -0.00000000000E+00 -0.00000000000E+00 -0.45593999997E+02  0.45594000000E+02  0.51100000000E-03 0. -1.
    9900012    2    1    2    0    0  0.79263191058E+01 -0.27357548725E+02 -0.14333815057E+02  0.59301948804E+02  0.50000008710E+02 0.  0.
        -12    1    1    2    0    0 -0.79263191058E+01  0.27357548725E+02  0.14333815057E+02  0.31886051196E+02  0.00000000000E+00 0.  1.
         11    1    3    3    0    0  0.21028971480E+02 -0.44498957580E+01 -0.20394320047E+02  0.29630178943E+02  0.51100000000E-03 0. -1.
        -11    1    3    3    0    0 -0.41963841868E+01 -0.13068883977E+01 -0.21674293977E+01  0.49005456821E+01  0.51100000000E-03 0.  1.
        -12    1    3    3    0    0 -0.89062681872E+01 -0.21600764570E+02  0.82279343878E+01  0.24771224179E+02  0.00000000000E+00 0.  1.
</event>
<event>
 7    1  0.6953847E-012  0.5930196E+02  0.7816164E-02  0.1266605E+00
        -11   -1    0    0    0    0  0.00000000000E+00  0.00000000000E+00  0.45593999997E+02  0.45594000000E+02  0.51100000000E-03 0.  1.
         11   -1    0    0    0    0 -0.00000000000E+00 -0.00000000000E+00 -0.45593999997E+02  0.45594000000E+02  0.51100000000E-03 0. -1.
    9900012    2    1    2    0    0  0.76000349951E+00  0.31590247897E+02 -0.42659144683E+01  0.59301962401E+02  0.50000033508E+02 0.  0.
        -12    1    1    2    0    0 -0.76000349951E+00 -0.31590247897E+02  0.42659144683E+01  0.31886037599E+02  0.00000000000E+00 0.  1.
         11    1    3    3    0    0  0.15687316852E+02  0.20783211757E+02  0.10481536293E+02  0.28069492413E+02  0.51100000000E-03 0. -1.
        -11    1    3    3    0    0 -0.74201927592E+01  0.74415622387E+00  0.41578730788E+01  0.85382046046E+01  0.51100000000E-03 0.  1.
        -12    1    3    3    0    0 -0.75071205938E+01  0.10062879916E+02 -0.18905323840E+02  0.22694265384E+02  0.00000000000E+00 0.  1.
</event>
<event>
 7    1  0.6953847E-012  0.5930194E+02  0.7816164E-02  0.1266605E+00
        -11   -1    0    0    0    0  0.00000000000E+00  0.00000000000E+00  0.45593999997E+02  0.45594000000E+02  0.51100000000E-03 0. -1.
         11   -1    0    0    0    0 -0.00000000000E+00 -0.00000000000E+00 -0.45593999997E+02  0.45594000000E+02  0.51100000000E-03 0.  1.
    9900012    2    1    2    0    0  0.23745197400E+02  0.12360703621E+02  0.17323378558E+02  0.59301939751E+02  0.49999992200E+02 0.  0.
        -12    1    1    2    0    0 -0.23745197400E+02 -0.12360703621E+02 -0.17323378558E+02  0.31886060249E+02  0.00000000000E+00 0.  1.
         11    1    3    3    0    0  0.49997742980E+01 -0.98442864816E+01  0.14359883929E+02  0.18113916917E+02  0.51100000000E-03 0. -1.
        -11    1    3    3    0    0  0.24095982084E+02  0.12702158328E+02  0.90448758360E+01  0.28701410382E+02  0.51100000000E-03 0.  1.
         12    1    3    3    0    0 -0.53505589822E+01  0.95028317740E+01 -0.60813812062E+01  0.12486612452E+02  0.00000000000E+00 0. -1.
</event>
<event>
 7    1  0.6953847E-012  0.5930195E+02  0.7816164E-02  0.1266605E+00
        -11   -1    0    0    0    0  0.00000000000E+00  0.00000000000E+00  0.45593999997E+02  0.45594000000E+02  0.51100000000E-03 0. -1.
         11   -1    0    0    0    0 -0.00000000000E+00 -0.00000000000E+00 -0.45593999997E+02  0.45594000000E+02  0.51100000000E-03 0.  1.
    9900012    2    1    2    0    0  0.23568682949E+02 -0.21342335836E+02 -0.23962544383E+01  0.59301950539E+02  0.50000011875E+02 0.  0.
        -12    1    1    2    0    0 -0.23568682949E+02  0.21342335836E+02  0.23962544383E+01  0.31886049461E+02  0.00000000000E+00 0.  1.
         11    1    3    3    0    0  0.12769532160E+02  0.38396510572E+01  0.11004506137E+02  0.17288812203E+02  0.51100000000E-03 0. -1.
        -11    1    3    3    0    0  0.11676744224E+02 -0.15299807575E+02  0.60527310314E+01  0.20175877198E+02  0.51100000000E-03 0.  1.
        -12    1    3    3    0    0 -0.87759343424E+00 -0.98821793182E+01 -0.19453491607E+02  0.21837261138E+02  0.00000000000E+00 0.  1.
</event>
<event>
 7    1  0.6953847E-012  0.5930193E+02  0.7816164E-02  0.1266605E+00
        -11   -1    0    0    0    0  0.00000000000E+00  0.00000000000E+00  0.45593999997E+02  0.45594000000E+02  0.51100000000E-03 0. -1.
         11   -1    0    0    0    0 -0.00000000000E+00 -0.00000000000E+00 -0.45593999997E+02  0.45594000000E+02  0.51100000000E-03 0.  1.
    9900012    2    1    2    0    0  0.12295216774E+02 -0.13671393838E+02  0.26050758781E+02  0.59301930972E+02  0.49999976190E+02 0.  0.
        -12    1    1    2    0    0 -0.12295216774E+02  0.13671393838E+02 -0.26050758781E+02  0.31886069028E+02  0.00000000000E+00 0.  1.
         11    1    3    3    0    0  0.14801797129E+02 -0.27580716891E+01  0.13318719832E+02  0.20101951545E+02  0.51100000000E-03 0. -1.
        -11    1    3    3    0    0  0.76686469229E+01 -0.20926895262E+02  0.10888666082E+02  0.24805365150E+02  0.51100000000E-03 0.  1.
        -12    1    3    3    0    0 -0.10175227277E+02  0.10013573113E+02  0.18433728667E+01  0.14394614277E+02  0.00000000000E+00 0.  1.
</event>
<event>
 7    1  0.6953847E-012  0.5930185E+02  0.7816164E-02  0.1266605E+00
        -11   -1    0    0    0    0  0.00000000000E+00  0.00000000000E+00  0.45593999997E+02  0.45594000000E+02  0.51100000000E-03 0.  1.
         11   -1    0    0    0    0 -0.00000000000E+00 -0.00000000000E+00 -0.45593999997E+02  0.45594000000E+02  0.51100000000E-03 0. -1.
    9900012    2    1    2    0    0  0.19741056360E+02  0.25040299470E+02  0.20674437741E-01  0.59301853617E+02  0.49999835112E+02 0.  0.
        -12    1    1    2    0    0 -0.19741056360E+02 -0.25040299470E+02 -0.20674437741E-01  0.31886146383E+02  0.00000000000E+00 0.  1.
         11    1    3    3    0    0  0.90087437877E+00  0.24789105295E+01 -0.19689352414E+02  0.19865225164E+02  0.51100000000E-03 0. -1.
        -11    1    3    3    0    0 -0.58985865624E+00  0.75632000067E+01  0.11060082504E+02  0.13411761734E+02  0.51100000000E-03 0.  1.
        -12    1    3    3    0    0  0.19430040637E+02  0.14998188934E+02  0.86499443486E+01  0.26024866718E+02  0.00000000000E+00 0.  1.
</event>
<event>
 7    1  0.6953847E-012  0.5930192E+02  0.7816164E-02  0.1266605E+00
        -11   -1    0    0    0    0  0.00000000000E+00  0.00000000000E+00  0.45593999997E+02  0.45594000000E+02  0.51100000000E-03 0. -1.
         11   -1    0    0    0    0 -0.00000000000E+00 -0.00000000000E+00 -0.45593999997E+02  0.45594000000E+02  0.51100000000E-03 0.  1.
    9900012    2    1    2    0    0 -0.17804412833E+02 -0.11897716709E+02  0.23625611080E+02  0.59301917172E+02  0.49999951021E+02 0.  0.
        -12    1    1    2    0    0  0.17804412833E+02  0.11897716709E+02 -0.23625611080E+02  0.31886082828E+02  0.00000000000E+00 0.  1.
         11    1    3    3    0    0  0.45245376338E+01 -0.23525709629E+01  0.10864833485E+02  0.12002109725E+02  0.51100000000E-03 0. -1.
        -11    1    3    3    0    0  0.37814227574E+01 -0.87736413234E+01 -0.91325293298E+01  0.13216619551E+02  0.51100000000E-03 0.  1.
         12    1    3    3    0    0 -0.26110373225E+02 -0.77150442264E+00  0.21893306925E+02  0.34083187895E+02  0.00000000000E+00 0. -1.
</event>
<event>
 7    1  0.6953847E-012  0.5930196E+02  0.7816164E-02  0.1266605E+00
        -11   -1    0    0    0    0  0.00000000000E+00  0.00000000000E+00  0.45593999997E+02  0.45594000000E+02  0.51100000000E-03 0. -1.
         11   -1    0    0    0    0 -0.00000000000E+00 -0.00000000000E+00 -0.45593999997E+02  0.45594000000E+02  0.51100000000E-03 0.  1.
    9900012    2    1    2    0    0 -0.14607041025E+02 -0.22067196675E+02  0.17787437405E+02  0.59301956877E+02  0.50000023434E+02 0.  0.
        -12    1    1    2    0    0  0.14607041025E+02  0.22067196675E+02 -0.17787437405E+02  0.31886043123E+02  0.00000000000E+00 0.  1.
         11    1    3    3    0    0  0.73168179495E+01 -0.63852742090E+01  0.88374424191E+01  0.13130420420E+02  0.51100000000E-03 0. -1.
        -11    1    3    3    0    0 -0.21253971520E+01 -0.88854123512E+01 -0.12968355339E+02  0.15863357342E+02  0.51100000000E-03 0.  1.
        -12    1    3    3    0    0 -0.19798461823E+02 -0.67965101146E+01  0.21918350325E+02  0.30308179115E+02  0.00000000000E+00 0.  1.
</event>
<event>
 7    1  0.6953847E-012  0.5930193E+02  0.7816164E-02  0.1266605E+00
        -11   -1    0    0    0    0  0.00000000000E+00  0.00000000000E+00  0.45593999997E+02  0.45594000000E+02  0.51100000000E-03 0.  1.
         11   -1    0    0    0    0 -0.00000000000E+00 -0.00000000000E+00 -0.45593999997E+02  0.45594000000E+02  0.51100000000E-03 0. -1.
    9900012    2    1    2    0    0 -0.97590218430E+00 -0.18690367876E+02 -0.25815482425E+02  0.59301931423E+02  0.49999977012E+02 0.  0.
        -12    1    1    2    0    0  0.97590218430E+00  0.18690367876E+02  0.25815482425E+02  0.31886068577E+02  0.00000000000E+00 0.  1.
         11    1    3    3    0    0  0.76650513182E+01 -0.20836624300E+02  0.16483170566E+01  0.22262858606E+02  0.51100000000E-03 0. -1.
        -11    1    3    3    0    0  0.46606588105E+01  0.33051222956E+01  0.81036388203E+00  0.57708113658E+01  0.51100000000E-03 0.  1.
         12    1    3    3    0    0 -0.13301612313E+02 -0.11588658716E+01 -0.28274163364E+02  0.31268261451E+02  0.00000000000E+00 0. -1.
</event>
<event>
 7    1  0.6953847E-012  0.5930197E+02  0.7816164E-02  0.1266605E+00
        -11   -1    0    0    0    0  0.00000000000E+00  0.00000000000E+00  0.45593999997E+02  0.45594000000E+02  0.51100000000E-03 0.  1.
         11   -1    0    0    0    0 -0.00000000000E+00 -0.00000000000E+00 -0.45593999997E+02  0.45594000000E+02  0.51100000000E-03 0. -1.
    9900012    2    1    2    0    0  0.29251299221E+02  0.12562750578E+02 -0.18049771623E+01  0.59301966211E+02  0.50000040458E+02 0.  0.
        -12    1    1    2    0    0 -0.29251299221E+02 -0.12562750578E+02  0.18049771623E+01  0.31886033789E+02  0.00000000000E+00 0.  1.
         11    1    3    3    0    0  0.20401072602E+02 -0.13261306462E+02  0.61629842750E+00  0.24340210278E+02  0.51100000000E-03 0. -1.
        -11    1    3    3    0    0  0.71179137180E+01 -0.88649404580E+00  0.27829534371E+01  0.76938545271E+01  0.51100000000E-03 0.  1.
         12    1    3    3    0    0  0.17323129015E+01  0.26710551086E+02 -0.52042290269E+01  0.27267901406E+02  0.00000000000E+00 0. -1.
</event>
<event>
 7    1  0.6953847E-012  0.5930192E+02  0.7816164E-02  0.1266605E+00
        -11   -1    0    0    0    0  0.00000000000E+00  0.00000000000E+00  0.45593999997E+02  0.45594000000E+02  0.51100000000E-03 0.  1.
         11   -1    0    0    0    0 -0.00000000000E+00 -0.00000000000E+00 -0.45593999997E+02  0.45594000000E+02  0.51100000000E-03 0. -1.
    9900012    2    1    2    0    0  0.86632159493E+01 -0.17137552106E+02 -0.25455349205E+02  0.59301924576E+02  0.49999964525E+02 0.  0.
        -12    1    1    2    0    0 -0.86632159493E+01  0.17137552106E+02  0.25455349205E+02  0.31886075424E+02  0.00000000000E+00 0.  1.
         11    1    3    3    0    0  0.42403896988E+01  0.86914202981E+01 -0.66837693857E+01  0.11755614193E+02  0.51100000000E-03 0. -1.
        -11    1    3    3    0    0  0.40585459785E+00  0.14944272075E+01  0.85554114963E+01  0.86944290650E+01  0.51100000000E-03 0.  1.
         12    1    3    3    0    0  0.40169716526E+01 -0.27323399612E+02 -0.27326991316E+02  0.38851881318E+02  0.00000000000E+00 0. -1.
</event>
<event>
 7    1  0.6953847E-012  0.5930198E+02  0.7816164E-02  0.1266605E+00
        -11   -1    0    0    0    0  0.00000000000E+00  0.00000000000E+00  0.45593999997E+02  0.45594000000E+02  0.51100000000E-03 0. -1.
         11   -1    0    0    0    0 -0.00000000000E+00 -0.00000000000E+00 -0.45593999997E+02  0.45594000000E+02  0.51100000000E-03 0.  1.
    9900012    2    1    2    0    0 -0.21117849002E+02  0.97474693549E+01  0.21811493944E+02  0.59301984674E+02  0.50000074129E+02 0.  0.
        -12    1    1    2    0    0  0.21117849002E+02 -0.97474693549E+01 -0.21811493944E+02  0.31886015326E+02  0.00000000000E+00 0.  1.
         11    1    3    3    0    0 -0.62089208564E+01 -0.41455276293E+01 -0.50471342826E+01  0.90116403754E+01  0.51100000000E-03 0. -1.
        -11    1    3    3    0    0 -0.14737053161E+02  0.36478826177E+01 -0.56546310925E+01  0.16200698643E+02  0.51100000000E-03 0.  1.
        -12    1    3    3    0    0 -0.17187498455E+00  0.10245114367E+02  0.32513259319E+02  0.34089645656E+02  0.00000000000E+00 0.  1.
</event>
<event>
 7    1  0.6953847E-012  0.5930192E+02  0.7816164E-02  0.1266605E+00
        -11   -1    0    0    0    0  0.00000000000E+00  0.00000000000E+00  0.45593999997E+02  0.45594000000E+02  0.51100000000E-03 0.  1.
         11   -1    0    0    0    0 -0.00000000000E+00 -0.00000000000E+00 -0.45593999997E+02  0.45594000000E+02  0.51100000000E-03 0. -1.
    9900012    2    1    2    0    0  0.18092365598E+02  0.24215939229E+01 -0.26144301133E+02  0.59301916958E+02  0.49999950631E+02 0.  0.
        -12    1    1    2    0    0 -0.18092365598E+02 -0.24215939229E+01  0.26144301133E+02  0.31886083042E+02  0.00000000000E+00 0.  1.
         11    1    3    3    0    0  0.12220801939E+02  0.17935598788E+02 -0.33060018388E+01  0.21953663756E+02  0.51100000000E-03 0. -1.
        -11    1    3    3    0    0  0.28488058663E+01 -0.50068929219E+00  0.48844824978E+01  0.56766675227E+01  0.51100000000E-03 0.  1.
         12    1    3    3    0    0  0.30227577925E+01 -0.15013315573E+02 -0.27722781792E+02  0.31671585679E+02  0.00000000000E+00 0. -1.
</event>
<event>
 7    1  0.6953847E-012  0.5930194E+02  0.7816164E-02  0.1266605E+00
        -11   -1    0    0    0    0  0.00000000000E+00  0.00000000000E+00  0.45593999997E+02  0.45594000000E+02  0.51100000000E-03 0. -1.
         11   -1    0    0    0    0 -0.00000000000E+00 -0.00000000000E+00 -0.45593999997E+02  0.45594000000E+02  0.51100000000E-03 0.  1.
    9900012    2    1    2    0    0  0.23963892666E+01 -0.31072657182E+02  0.67430219809E+01  0.59301936409E+02  0.49999986106E+02 0.  0.
        -12    1    1    2    0    0 -0.23963892666E+01  0.31072657182E+02 -0.67430219809E+01  0.31886063591E+02  0.00000000000E+00 0.  1.
         11    1    3    3    0    0 -0.73634822950E+01 -0.27860636680E+02  0.11473942005E+02  0.31017532028E+02  0.51100000000E-03 0. -1.
        -11    1    3    3    0    0  0.54017036431E+01 -0.14666314968E+02 -0.25255495374E+01  0.15832169710E+02  0.51100000000E-03 0.  1.
        -12    1    3    3    0    0  0.43581679185E+01  0.11454294466E+02 -0.22053704863E+01  0.12452234671E+02  0.00000000000E+00 0.  1.
</event>
<event>
 7    1  0.6953847E-012  0.5930184E+02  0.7816164E-02  0.1266605E+00
        -11   -1    0    0    0    0  0.00000000000E+00  0.00000000000E+00  0.45593999997E+02  0.45594000000E+02  0.51100000000E-03 0. -1.
         11   -1    0    0    0    0 -0.00000000000E+00 -0.00000000000E+00 -0.45593999997E+02  0.45594000000E+02  0.51100000000E-03 0.  1.
    9900012    2    1    2    0    0  0.38497732222E+01 -0.13731677920E+01  0.31623101796E+02  0.59301844527E+02  0.49999818535E+02 0.  0.
        -12    1    1    2    0    0 -0.38497732222E+01  0.13731677920E+01 -0.31623101796E+02  0.31886155473E+02  0.00000000000E+00 0.  1.
         11    1    3    3    0    0  0.64256380178E+01  0.43472508881E+01 -0.60568858740E+01  0.98424225154E+01  0.51100000000E-03 0. -1.
        -11    1    3    3    0    0 -0.14176448654E+01 -0.13038741537E+01 -0.56089071590E+01  0.59304000331E+01  0.51100000000E-03 0.  1.
         12    1    3    3    0    0 -0.11582199302E+01 -0.44165445264E+01  0.43288894829E+02  0.43529021979E+02  0.00000000000E+00 0. -1.
</event>
<event>
 7    1  0.6953847E-012  0.5930191E+02  0.7816164E-02  0.1266605E+00
        -11   -1    0    0    0    0  0.00000000000E+00  0.00000000000E+00  0.45593999997E+02  0.45594000000E+02  0.51100000000E-03 0.  1.
         11   -1    0    0    0    0 -0.00000000000E+00 -0.00000000000E+00 -0.45593999997E+02  0.45594000000E+02  0.51100000000E-03 0. -1.
    9900012    2    1    2    0    0  0.18499129250E+02  0.25357333411E+02  0.56134094798E+01  0.59301913588E+02  0.49999944485E+02 0.  0.
        -12    1    1    2    0    0 -0.18499129250E+02 -0.25357333411E+02 -0.56134094798E+01  0.31886086412E+02  0.00000000000E+00 0.  1.
         11    1    3    3    0    0 -0.41654404652E+01  0.13131476009E+02  0.57309901344E+01  0.14920817827E+02  0.51100000000E-03 0. -1.
        -11    1    3    3    0    0  0.19208312166E+02  0.20118699629E+02  0.11345588602E+02  0.30040700924E+02  0.51100000000E-03 0.  1.
        -12    1    3    3    0    0  0.34562575491E+01 -0.78928422276E+01 -0.11463169256E+02  0.14340394837E+02  0.00000000000E+00 0.  1.
</event>
<event>
 7    1  0.6953847E-012  0.5930198E+02  0.7816164E-02  0.1266605E+00
        -11   -1    0    0    0    0  0.00000000000E+00  0.00000000000E+00  0.45593999997E+02  0.45594000000E+02  0.51100000000E-03 0.  1.
         11   -1    0    0    0    0 -0.00000000000E+00 -0.00000000000E+00 -0.45593999997E+02  0.45594000000E+02  0.51100000000E-03 0. -1.
    9900012    2    1    2    0    0  0.11788763685E+02  0.25795516824E+02 -0.14571708829E+02  0.59301978994E+02  0.50000063769E+02 0.  0.
        -12    1    1    2    0    0 -0.11788763685E+02 -0.25795516824E+02  0.14571708829E+02  0.31886021006E+02  0.00000000000E+00 0.  1.
         11    1    3    3    0    0  0.36785009139E+01 -0.94767656526E+01 -0.53863039110E-01  0.10165793510E+02  0.51100000000E-03 0.  1.
        -11    1    3    3    0    0  0.14263107064E+02  0.38490401194E+01 -0.64208027408E+01  0.16108322106E+02  0.51100000000E-03 0. -1.
         12    1    3    3    0    0 -0.61528442933E+01  0.31423242357E+02 -0.80970430488E+01  0.33027863377E+02  0.00000000000E+00 0. -1.
</event>
<event>
 7    1  0.6953847E-012  0.5930193E+02  0.7816164E-02  0.1266605E+00
        -11   -1    0    0    0    0  0.00000000000E+00  0.00000000000E+00  0.45593999997E+02  0.45594000000E+02  0.51100000000E-03 0.  1.
         11   -1    0    0    0    0 -0.00000000000E+00 -0.00000000000E+00 -0.45593999997E+02  0.45594000000E+02  0.51100000000E-03 0. -1.
    9900012    2    1    2    0    0  0.11885850518E+02 -0.25479946132E+02 -0.15040618286E+02  0.59301932575E+02  0.49999979112E+02 0.  0.
        -12    1    1    2    0    0 -0.11885850518E+02  0.25479946132E+02  0.15040618286E+02  0.31886067425E+02  0.00000000000E+00 0.  1.
         11    1    3    3    0    0  0.37865780540E+00  0.30041283247E+00 -0.20027072294E+01  0.20602102104E+01  0.51100000000E-03 0. -1.
        -11    1    3    3    0    0  0.17279329848E+02  0.59510232491E+01  0.66588481028E+01  0.19450711453E+02  0.51100000000E-03 0.  1.
         12    1    3    3    0    0 -0.57721371355E+01 -0.31731382213E+02 -0.19696759160E+02  0.37791010911E+02  0.00000000000E+00 0. -1.
</event>
<event>
 7    1  0.6953847E-012  0.5930193E+02  0.7816164E-02  0.1266605E+00
        -11   -1    0    0    0    0  0.00000000000E+00  0.00000000000E+00  0.45593999997E+02  0.45594000000E+02  0.51100000000E-03 0. -1.
         11   -1    0    0    0    0 -0.00000000000E+00 -0.00000000000E+00 -0.45593999997E+02  0.45594000000E+02  0.51100000000E-03 0.  1.
    9900012    2    1    2    0    0  0.31620738658E+02 -0.36616295281E+01 -0.18554753508E+01  0.59301930426E+02  0.49999975194E+02 0.  0.
        -12    1    1    2    0    0 -0.31620738658E+02  0.36616295281E+01  0.18554753508E+01  0.31886069574E+02  0.00000000000E+00 0.  1.
         11    1    3    3    0    0  0.15164630429E+02  0.14753503111E+02  0.49672782624E+01  0.21732595880E+02  0.51100000000E-03 0. -1.
        -11    1    3    3    0    0  0.36266544160E+01 -0.82432907091E+01  0.10433006385E+02  0.13782310636E+02  0.51100000000E-03 0.  1.
         12    1    3    3    0    0  0.12829453813E+02 -0.10171841930E+02 -0.17255759998E+02  0.23787023910E+02  0.00000000000E+00 0. -1.
</event>
<event>
 7    1  0.6953847E-012  0.5930195E+02  0.7816164E-02  0.1266605E+00
        -11   -1    0    0    0    0  0.00000000000E+00  0.00000000000E+00  0.45593999997E+02  0.45594000000E+02  0.51100000000E-03 0.  1.
         11   -1    0    0    0    0 -0.00000000000E+00 -0.00000000000E+00 -0.45593999997E+02  0.45594000000E+02  0.51100000000E-03 0. -1.
    9900012    2    1    2    0    0 -0.26821969800E+02  0.99235801853E+01 -0.14100517630E+02  0.59301951247E+02  0.50000013165E+02 0.  0.
        -12    1    1    2    0    0  0.26821969800E+02 -0.99235801853E+01  0.14100517630E+02  0.31886048753E+02  0.00000000000E+00 0.  1.
         11    1    3    3    0    0 -0.98274027426E+01 -0.81099736232E+01 -0.21794492836E+01  0.12926697810E+02  0.51100000000E-03 0. -1.
        -11    1    3    3    0    0 -0.42555746630E+01 -0.33728446077E+01  0.11163008026E+02  0.12413651555E+02  0.51100000000E-03 0.  1.
         12    1    3    3    0    0 -0.12738992395E+02  0.21406398416E+02 -0.23084076373E+02  0.33961601882E+02  0.00000000000E+00 0. -1.
</event>
<event>
 7    1  0.6953847E-012  0.5930188E+02  0.7816164E-02  0.1266605E+00
        -11   -1    0    0    0    0  0.00000000000E+00  0.00000000000E+00  0.45593999997E+02  0.45594000000E+02  0.51100000000E-03 0.  1.
         11   -1    0    0    0    0 -0.00000000000E+00 -0.00000000000E+00 -0.45593999997E+02  0.45594000000E+02  0.51100000000E-03 0. -1.
    9900012    2    1    2    0    0  0.29989930376E+02 -0.20529080083E+01 -0.10635507778E+02  0.59301884197E+02  0.49999890884E+02 0.  0.
        -12    1    1    2    0    0 -0.29989930376E+02  0.20529080083E+01  0.10635507778E+02  0.31886115803E+02  0.00000000000E+00 0.  1.
         11    1    3    3    0    0 -0.28380040346E+01  0.53110642181E+01  0.37496728812E+01  0.70937801634E+01  0.51100000000E-03 0. -1.
        -11    1    3    3    0    0  0.39236295273E+01  0.11633997280E+02  0.41574224468E+01  0.12962597079E+02  0.51100000000E-03 0.  1.
         12    1    3    3    0    0  0.28904304884E+02 -0.18997969506E+02 -0.18542603106E+02  0.39245506955E+02  0.00000000000E+00 0. -1.
</event>
<event>
 7    1  0.6953847E-012  0.5930195E+02  0.7816164E-02  0.1266605E+00
        -11   -1    0    0    0    0  0.00000000000E+00  0.00000000000E+00  0.45593999997E+02  0.45594000000E+02  0.51100000000E-03 0.  1.
         11   -1    0    0    0    0 -0.00000000000E+00 -0.00000000000E+00 -0.45593999997E+02  0.45594000000E+02  0.51100000000E-03 0. -1.
    9900012    2    1    2    0    0  0.13537874959E+02 -0.89412984238E+01 -0.27449936904E+02  0.59301954276E+02  0.50000018691E+02 0.  0.
        -12    1    1    2    0    0 -0.13537874959E+02  0.89412984238E+01  0.27449936904E+02  0.31886045724E+02  0.00000000000E+00 0.  1.
         11    1    3    3    0    0 -0.36548338248E+01 -0.73852368377E+00  0.36269122974E+01  0.52017036241E+01  0.51100000000E-03 0. -1.
        -11    1    3    3    0    0  0.31399130997E+01  0.18129552619E+00  0.96815646368E+01  0.10179617695E+02  0.51100000000E-03 0.  1.
         12    1    3    3    0    0  0.14052795684E+02 -0.83840702662E+01 -0.40758413838E+02  0.43920632957E+02  0.00000000000E+00 0. -1.
</event>
<event>
 7    1  0.6953847E-012  0.5930166E+02  0.7816164E-02  0.1266606E+00
        -11   -1    0    0    0    0  0.00000000000E+00  0.00000000000E+00  0.45593999997E+02  0.45594000000E+02  0.51100000000E-03 0.  1.
         11   -1    0    0    0    0 -0.00000000000E+00 -0.00000000000E+00 -0.45593999997E+02  0.45594000000E+02  0.51100000000E-03 0. -1.
    9900012    2    1    2    0    0 -0.52325592018E+01 -0.16030184084E+02 -0.27062744446E+02  0.59301661005E+02  0.49999483831E+02 0.  0.
        -12    1    1    2    0    0  0.52325592018E+01  0.16030184084E+02  0.27062744446E+02  0.31886338995E+02  0.00000000000E+00 0.  1.
         11    1    3    3    0    0  0.39689282195E+01 -0.16017393416E+02 -0.23329013660E+02  0.28575376841E+02  0.51100000000E-03 0. -1.
        -11    1    3    3    0    0  0.59365139051E+01 -0.97886064715E+01  0.23883592352E+01  0.11694583109E+02  0.51100000000E-03 0.  1.
        -12    1    3    3    0    0 -0.15138001326E+02  0.97758158032E+01 -0.61220900219E+01  0.19031701054E+02  0.00000000000E+00 0.  1.
</event>
<event>
 7    1  0.6953847E-012  0.5930195E+02  0.7816164E-02  0.1266605E+00
        -11   -1    0    0    0    0  0.00000000000E+00  0.00000000000E+00  0.45593999997E+02  0.45594000000E+02  0.51100000000E-03 0. -1.
         11   -1    0    0    0    0 -0.00000000000E+00 -0.00000000000E+00 -0.45593999997E+02  0.45594000000E+02  0.51100000000E-03 0.  1.
    9900012    2    1    2    0    0 -0.11404419514E+02  0.29593499859E+02  0.32991258536E+01  0.59301948978E+02  0.50000009028E+02 0.  0.
        -12    1    1    2    0    0  0.11404419514E+02 -0.29593499859E+02 -0.32991258536E+01  0.31886051022E+02  0.00000000000E+00 0.  1.
         11    1    3    3    0    0  0.20032535898E+01  0.10468875048E+02  0.11951082808E+02  0.16013705076E+02  0.51100000000E-03 0. -1.
        -11    1    3    3    0    0 -0.46500833404E+00  0.11058764098E+02  0.12829268888E+02  0.16944103299E+02  0.51100000000E-03 0.  1.
        -12    1    3    3    0    0 -0.12942664770E+02  0.80658607134E+01 -0.21481225843E+02  0.26344140603E+02  0.00000000000E+00 0.  1.
</event>
<event>
 7    1  0.6953847E-012  0.5930197E+02  0.7816164E-02  0.1266605E+00
        -11   -1    0    0    0    0  0.00000000000E+00  0.00000000000E+00  0.45593999997E+02  0.45594000000E+02  0.51100000000E-03 0.  1.
         11   -1    0    0    0    0 -0.00000000000E+00 -0.00000000000E+00 -0.45593999997E+02  0.45594000000E+02  0.51100000000E-03 0. -1.
    9900012    2    1    2    0    0 -0.31017584139E+02  0.71123710060E+01  0.20106755884E+01  0.59301966012E+02  0.50000040095E+02 0.  0.
        -12    1    1    2    0    0  0.31017584139E+02 -0.71123710060E+01 -0.20106755884E+01  0.31886033988E+02  0.00000000000E+00 0.  1.
         11    1    3    3    0    0 -0.23951619987E+02 -0.36989684484E+01  0.18860994871E+01  0.24308842817E+02  0.51100000000E-03 0. -1.
        -11    1    3    3    0    0 -0.16169779758E+02 -0.39730751231E+01 -0.40490459580E+01  0.17135981932E+02  0.51100000000E-03 0.  1.
        -12    1    3    3    0    0  0.91038156059E+01  0.14784414577E+02  0.41736220593E+01  0.17857141263E+02  0.00000000000E+00 0.  1.
</event>
<event>
 7    1  0.6953847E-012  0.5930193E+02  0.7816164E-02  0.1266605E+00
        -11   -1    0    0    0    0  0.00000000000E+00  0.00000000000E+00  0.45593999997E+02  0.45594000000E+02  0.51100000000E-03 0.  1.
         11   -1    0    0    0    0 -0.00000000000E+00 -0.00000000000E+00 -0.45593999997E+02  0.45594000000E+02  0.51100000000E-03 0. -1.
    9900012    2    1    2    0    0 -0.28303420286E+02 -0.14384703053E+02 -0.29527056745E+01  0.59301925412E+02  0.49999966050E+02 0.  0.
        -12    1    1    2    0    0  0.28303420286E+02  0.14384703053E+02  0.29527056745E+01  0.31886074588E+02  0.00000000000E+00 0.  1.
         11    1    3    3    0    0 -0.22373196825E+01 -0.17966659423E+02 -0.12825477270E+01  0.18150795551E+02  0.51100000000E-03 0. -1.
        -11    1    3    3    0    0 -0.13860833649E+02  0.70000956100E+01  0.14061485636E+02  0.20948733292E+02  0.51100000000E-03 0.  1.
         12    1    3    3    0    0 -0.12205266955E+02 -0.34181392396E+01 -0.15731643583E+02  0.20202396569E+02  0.00000000000E+00 0. -1.
</event>
<event>
 7    1  0.6953847E-012  0.5930213E+02  0.7816164E-02  0.1266604E+00
        -11   -1    0    0    0    0  0.00000000000E+00  0.00000000000E+00  0.45593999997E+02  0.45594000000E+02  0.51100000000E-03 0.  1.
         11   -1    0    0    0    0 -0.00000000000E+00 -0.00000000000E+00 -0.45593999997E+02  0.45594000000E+02  0.51100000000E-03 0. -1.
    9900012    2    1    2    0    0  0.25978273336E+00 -0.55834115268E+01 -0.31392145314E+02  0.59302129167E+02  0.50000337649E+02 0.  0.
        -12    1    1    2    0    0 -0.25978273336E+00  0.55834115268E+01  0.31392145314E+02  0.31885870833E+02  0.00000000000E+00 0.  1.
         11    1    3    3    0    0 -0.95683730056E+01  0.68824017087E+01 -0.18579875300E+02  0.22003022103E+02  0.51100000000E-03 0. -1.
        -11    1    3    3    0    0 -0.82625276230E+01 -0.14207748685E+02 -0.89662607763E+01  0.18722267972E+02  0.51100000000E-03 0.  1.
        -12    1    3    3    0    0  0.18090683362E+02  0.17419354498E+01 -0.38460092379E+01  0.18576839093E+02  0.00000000000E+00 0.  1.
</event>
<event>
 7    1  0.6953847E-012  0.5930196E+02  0.7816164E-02  0.1266605E+00
        -11   -1    0    0    0    0  0.00000000000E+00  0.00000000000E+00  0.45593999997E+02  0.45594000000E+02  0.51100000000E-03 0.  1.
         11   -1    0    0    0    0 -0.00000000000E+00 -0.00000000000E+00 -0.45593999997E+02  0.45594000000E+02  0.51100000000E-03 0. -1.
    9900012    2    1    2    0    0 -0.30510777990E+02 -0.84937718906E+01 -0.36970000230E+01  0.59301960050E+02  0.50000029221E+02 0.  0.
        -12    1    1    2    0    0  0.30510777990E+02  0.84937718906E+01  0.36970000230E+01  0.31886039950E+02  0.00000000000E+00 0.  1.
         11    1    3    3    0    0 -0.93354173138E+01 -0.23382706560E+02  0.11852280051E+02  0.27827639591E+02  0.51100000000E-03 0.  1.
        -11    1    3    3    0    0 -0.17578713935E+01  0.42846859412E+00 -0.45225902920E+01  0.48710902663E+01  0.51100000000E-03 0. -1.
        -12    1    3    3    0    0 -0.19417489283E+02  0.14460466076E+02 -0.11026689782E+02  0.26603230193E+02  0.00000000000E+00 0.  1.
</event>
<event>
 7    1  0.6953847E-012  0.5930196E+02  0.7816164E-02  0.1266605E+00
        -11   -1    0    0    0    0  0.00000000000E+00  0.00000000000E+00  0.45593999997E+02  0.45594000000E+02  0.51100000000E-03 0.  1.
         11   -1    0    0    0    0 -0.00000000000E+00 -0.00000000000E+00 -0.45593999997E+02  0.45594000000E+02  0.51100000000E-03 0. -1.
    9900012    2    1    2    0    0  0.10982498991E+01 -0.84297666164E+01 -0.30731948574E+02  0.59301956326E+02  0.50000022429E+02 0.  0.
        -12    1    1    2    0    0 -0.10982498991E+01  0.84297666164E+01  0.30731948574E+02  0.31886043674E+02  0.00000000000E+00 0.  1.
         11    1    3    3    0    0  0.14076241622E+01  0.25856783815E+01 -0.17949144497E+02  0.18188978171E+02  0.51100000000E-03 0. -1.
        -11    1    3    3    0    0  0.23340864263E+01  0.42743692340E+01  0.11390613021E+02  0.12388069141E+02  0.51100000000E-03 0.  1.
         12    1    3    3    0    0 -0.26434606894E+01 -0.15289814232E+02 -0.24173417098E+02  0.28724909014E+02  0.00000000000E+00 0. -1.
</event>
<event>
 7    1  0.6953847E-012  0.5930197E+02  0.7816164E-02  0.1266605E+00
        -11   -1    0    0    0    0  0.00000000000E+00  0.00000000000E+00  0.45593999997E+02  0.45594000000E+02  0.51100000000E-03 0.  1.
         11   -1    0    0    0    0 -0.00000000000E+00 -0.00000000000E+00 -0.45593999997E+02  0.45594000000E+02  0.51100000000E-03 0. -1.
    9900012    2    1    2    0    0  0.49895975501E+01  0.23766890141E+02 -0.20662955050E+02  0.59301970738E+02  0.50000048714E+02 0.  0.
        -12    1    1    2    0    0 -0.49895975501E+01 -0.23766890141E+02  0.20662955050E+02  0.31886029262E+02  0.00000000000E+00 0.  1.
         11    1    3    3    0    0 -0.11830947863E+02  0.23529912805E+02 -0.23453536993E+02  0.35266081745E+02  0.51100000000E-03 0. -1.
        -11    1    3    3    0    0  0.54134225991E+00  0.28037627316E+01 -0.50377626924E+01  0.57907849298E+01  0.51100000000E-03 0.  1.
        -12    1    3    3    0    0  0.16279203153E+02 -0.25667853951E+01  0.78283446355E+01  0.18245104063E+02  0.00000000000E+00 0.  1.
</event>
<event>
 7    1  0.6953847E-012  0.5930197E+02  0.7816164E-02  0.1266605E+00
        -11   -1    0    0    0    0  0.00000000000E+00  0.00000000000E+00  0.45593999997E+02  0.45594000000E+02  0.51100000000E-03 0.  1.
         11   -1    0    0    0    0 -0.00000000000E+00 -0.00000000000E+00 -0.45593999997E+02  0.45594000000E+02  0.51100000000E-03 0. -1.
    9900012    2    1    2    0    0  0.47386384505E+01 -0.31453944139E+02  0.22166897716E+01  0.59301968422E+02  0.50000044490E+02 0.  0.
        -12    1    1    2    0    0 -0.47386384505E+01  0.31453944139E+02 -0.22166897716E+01  0.31886031578E+02  0.00000000000E+00 0.  1.
         11    1    3    3    0    0 -0.10994848272E+02  0.68611414916E+01  0.75809893801E+01  0.15014438096E+02  0.51100000000E-03 0. -1.
        -11    1    3    3    0    0  0.83496614853E+00 -0.61801123487E+00  0.27582165902E+01  0.29473488723E+01  0.51100000000E-03 0.  1.
         12    1    3    3    0    0  0.14898520574E+02 -0.37697074395E+02 -0.81225161987E+01  0.41340181454E+02  0.00000000000E+00 0. -1.
</event>
<event>
 7    1  0.6953847E-012  0.5930198E+02  0.7816164E-02  0.1266605E+00
        -11   -1    0    0    0    0  0.00000000000E+00  0.00000000000E+00  0.45593999997E+02  0.45594000000E+02  0.51100000000E-03 0.  1.
         11   -1    0    0    0    0 -0.00000000000E+00 -0.00000000000E+00 -0.45593999997E+02  0.45594000000E+02  0.51100000000E-03 0. -1.
    9900012    2    1    2    0    0  0.14906095621E+02 -0.68757864520E+01 -0.27335878363E+02  0.59301978425E+02  0.50000062733E+02 0.  0.
        -12    1    1    2    0    0 -0.14906095621E+02  0.68757864520E+01  0.27335878363E+02  0.31886021575E+02  0.00000000000E+00 0.  1.
         11    1    3    3    0    0  0.94210097916E+00  0.36798524073E+01  0.32747232130E+01  0.50152447974E+01  0.51100000000E-03 0. -1.
        -11    1    3    3    0    0 -0.11274106664E+02 -0.15165540535E+02 -0.16010712079E+02  0.24767761350E+02  0.51100000000E-03 0.  1.
         12    1    3    3    0    0  0.25238101306E+02  0.46099016754E+01 -0.14599889497E+02  0.29518972277E+02  0.00000000000E+00 0. -1.
</event>
<event>
 7    1  0.6953847E-012  0.5930196E+02  0.7816164E-02  0.1266605E+00
        -11   -1    0    0    0    0  0.00000000000E+00  0.00000000000E+00  0.45593999997E+02  0.45594000000E+02  0.51100000000E-03 0.  1.
         11   -1    0    0    0    0 -0.00000000000E+00 -0.00000000000E+00 -0.45593999997E+02  0.45594000000E+02  0.51100000000E-03 0. -1.
    9900012    2    1    2    0    0 -0.27979747877E+02  0.86057750578E+01 -0.12640950470E+02  0.59301964116E+02  0.50000036636E+02 0.  0.
        -12    1    1    2    0    0  0.27979747877E+02 -0.86057750578E+01  0.12640950470E+02  0.31886035884E+02  0.00000000000E+00 0.  1.
         11    1    3    3    0    0 -0.61343079279E+00  0.11279859668E+02  0.74145549224E+01  0.13512481505E+02  0.51100000000E-03 0. -1.
        -11    1    3    3    0    0 -0.17641568748E+02  0.20403388492E+01  0.50445016514E+01  0.18461715188E+02  0.51100000000E-03 0.  1.
         12    1    3    3    0    0 -0.97247483361E+01 -0.47144234591E+01 -0.25100007043E+02  0.27327767423E+02  0.00000000000E+00 0. -1.
</event>
<event>
 7    1  0.6953847E-012  0.5930195E+02  0.7816164E-02  0.1266605E+00
        -11   -1    0    0    0    0  0.00000000000E+00  0.00000000000E+00  0.45593999997E+02  0.45594000000E+02  0.51100000000E-03 0. -1.
         11   -1    0    0    0    0 -0.00000000000E+00 -0.00000000000E+00 -0.45593999997E+02  0.45594000000E+02  0.51100000000E-03 0.  1.
    9900012    2    1    2    0    0 -0.22936485771E+02  0.50813917217E+01  0.21559615669E+02  0.59301953693E+02  0.50000017627E+02 0.  0.
        -12    1    1    2    0    0  0.22936485771E+02 -0.50813917217E+01 -0.21559615669E+02  0.31886046307E+02  0.00000000000E+00 0.  1.
         11    1    3    3    0    0  0.16819929812E+01 -0.44958199268E+01 -0.50957268378E+01  0.70005663678E+01  0.51100000000E-03 0. -1.
        -11    1    3    3    0    0  0.90475572245E+00  0.16184280182E+02  0.22316088160E+01  0.16362444380E+02  0.51100000000E-03 0.  1.
         12    1    3    3    0    0 -0.25523234474E+02 -0.66070685331E+01  0.24423733690E+02  0.35938942945E+02  0.00000000000E+00 0. -1.
</event>
<event>
 7    1  0.6953847E-012  0.5930194E+02  0.7816164E-02  0.1266605E+00
        -11   -1    0    0    0    0  0.00000000000E+00  0.00000000000E+00  0.45593999997E+02  0.45594000000E+02  0.51100000000E-03 0.  1.
         11   -1    0    0    0    0 -0.00000000000E+00 -0.00000000000E+00 -0.45593999997E+02  0.45594000000E+02  0.51100000000E-03 0. -1.
    9900012    2    1    2    0    0 -0.37808902126E+01 -0.18176190477E+02 -0.25923957337E+02  0.59301943564E+02  0.49999999154E+02 0.  0.
        -12    1    1    2    0    0  0.37808902126E+01  0.18176190477E+02  0.25923957337E+02  0.31886056436E+02  0.00000000000E+00 0.  1.
         11    1    3    3    0    0 -0.20606286817E+02 -0.22215716431E+02 -0.17072678767E+02  0.34779785414E+02  0.51100000000E-03 0. -1.
        -11    1    3    3    0    0 -0.33370264158E+00  0.35542642855E+01 -0.61976894566E+01  0.71523078042E+01  0.51100000000E-03 0.  1.
        -12    1    3    3    0    0  0.17159099246E+02  0.48526166798E+00 -0.26535891132E+01  0.17369850345E+02  0.00000000000E+00 0.  1.
</event>
<event>
 7    1  0.6953847E-012  0.5930195E+02  0.7816164E-02  0.1266605E+00
        -11   -1    0    0    0    0  0.00000000000E+00  0.00000000000E+00  0.45593999997E+02  0.45594000000E+02  0.51100000000E-03 0.  1.
         11   -1    0    0    0    0 -0.00000000000E+00 -0.00000000000E+00 -0.45593999997E+02  0.45594000000E+02  0.51100000000E-03 0. -1.
    9900012    2    1    2    0    0  0.32373834640E+01 -0.20092093281E+02 -0.24546837644E+02  0.59301951289E+02  0.50000013242E+02 0.  0.
        -12    1    1    2    0    0 -0.32373834640E+01  0.20092093281E+02  0.24546837644E+02  0.31886048711E+02  0.00000000000E+00 0.  1.
         11    1    3    3    0    0 -0.64202544228E+00 -0.30740680735E+02 -0.21479671524E+02  0.37507038509E+02  0.51100000000E-03 0.  1.
        -11    1    3    3    0    0  0.32891661911E+01 -0.78812774651E+00 -0.84789449146E+01  0.91286508699E+01  0.51100000000E-03 0. -1.
        -12    1    3    3    0    0  0.59024271513E+00  0.11436715200E+02  0.54117787947E+01  0.12666261909E+02  0.00000000000E+00 0.  1.
</event>
<event>
 7    1  0.6953847E-012  0.5930193E+02  0.7816164E-02  0.1266605E+00
        -11   -1    0    0    0    0  0.00000000000E+00  0.00000000000E+00  0.45593999997E+02  0.45594000000E+02  0.51100000000E-03 0.  1.
         11   -1    0    0    0    0 -0.00000000000E+00 -0.00000000000E+00 -0.45593999997E+02  0.45594000000E+02  0.51100000000E-03 0. -1.
    9900012    2    1    2    0    0  0.11544404231E+02  0.14556686844E+02 -0.25914308073E+02  0.59301925236E+02  0.49999965728E+02 0.  0.
        -12    1    1    2    0    0 -0.11544404231E+02 -0.14556686844E+02  0.25914308073E+02  0.31886074764E+02  0.00000000000E+00 0.  1.
         11    1    3    3    0    0 -0.12280005819E+02  0.10013132785E+01  0.42107362769E+01  0.13020425164E+02  0.51100000000E-03 0. -1.
        -11    1    3    3    0    0  0.81585467081E+00  0.56866223158E+01  0.19177498757E+01  0.60564888387E+01  0.51100000000E-03 0.  1.
        -12    1    3    3    0    0  0.23008555380E+02  0.78687512499E+01 -0.32042794226E+02  0.40225011233E+02  0.00000000000E+00 0.  1.
</event>
<event>
 7    1  0.6953847E-012  0.5930192E+02  0.7816164E-02  0.1266605E+00
        -11   -1    0    0    0    0  0.00000000000E+00  0.00000000000E+00  0.45593999997E+02  0.45594000000E+02  0.51100000000E-03 0.  1.
         11   -1    0    0    0    0 -0.00000000000E+00 -0.00000000000E+00 -0.45593999997E+02  0.45594000000E+02  0.51100000000E-03 0. -1.
    9900012    2    1    2    0    0  0.14474457277E+02 -0.15153042649E+02 -0.24033251590E+02  0.59301924717E+02  0.49999964782E+02 0.  0.
        -12    1    1    2    0    0 -0.14474457277E+02  0.15153042649E+02  0.24033251590E+02  0.31886075283E+02  0.00000000000E+00 0.  1.
         11    1    3    3    0    0  0.10723448781E+01  0.65274134681E+01 -0.16338690541E+02  0.17626963975E+02  0.51100000000E-03 0. -1.
        -11    1    3    3    0    0  0.17269753439E+02  0.69397462508E+00  0.11150239241E+01  0.17319620759E+02  0.51100000000E-03 0.  1.
         12    1    3    3    0    0 -0.38676410402E+01 -0.22374430742E+02 -0.88095849723E+01  0.24355339982E+02  0.00000000000E+00 0. -1.
</event>
<event>
 7    1  0.6953847E-012  0.5930199E+02  0.7816164E-02  0.1266605E+00
        -11   -1    0    0    0    0  0.00000000000E+00  0.00000000000E+00  0.45593999997E+02  0.45594000000E+02  0.51100000000E-03 0.  1.
         11   -1    0    0    0    0 -0.00000000000E+00 -0.00000000000E+00 -0.45593999997E+02  0.45594000000E+02  0.51100000000E-03 0. -1.
    9900012    2    1    2    0    0 -0.19494053611E+02 -0.24289291258E+02  0.68359274398E+01  0.59301988961E+02  0.50000081948E+02 0.  0.
        -12    1    1    2    0    0  0.19494053611E+02  0.24289291258E+02 -0.68359274398E+01  0.31886011039E+02  0.00000000000E+00 0.  1.
         11    1    3    3    0    0 -0.14736051705E+01  0.47193229786E+01  0.78033868300E-01  0.49446548029E+01  0.51100000000E-03 0. -1.
        -11    1    3    3    0    0 -0.26060141287E+02 -0.37526101700E+01  0.88338771678E+01  0.27771395951E+02  0.51100000000E-03 0.  1.
         12    1    3    3    0    0  0.80396928467E+01 -0.25256004066E+02 -0.20759835963E+01  0.26585938207E+02  0.00000000000E+00 0. -1.
</event>
<event>
 7    1  0.6953847E-012  0.5930193E+02  0.7816164E-02  0.1266605E+00
        -11   -1    0    0    0    0  0.00000000000E+00  0.00000000000E+00  0.45593999997E+02  0.45594000000E+02  0.51100000000E-03 0.  1.
         11   -1    0    0    0    0 -0.00000000000E+00 -0.00000000000E+00 -0.45593999997E+02  0.45594000000E+02  0.51100000000E-03 0. -1.
    9900012    2    1    2    0    0  0.30615892445E+02  0.88155941584E+01 -0.12937096380E+01  0.59301933212E+02  0.49999980275E+02 0.  0.
        -12    1    1    2    0    0 -0.30615892445E+02 -0.88155941584E+01  0.12937096380E+01  0.31886066788E+02  0.00000000000E+00 0.  1.
         11    1    3    3    0    0  0.15309672501E+02 -0.34672599641E+01 -0.96920468421E+01  0.18448407411E+02  0.51100000000E-03 0. -1.
        -11    1    3    3    0    0  0.11154431042E+02 -0.97569711620E+01  0.10742936592E+02  0.18303838532E+02  0.51100000000E-03 0.  1.
         12    1    3    3    0    0  0.41517889023E+01  0.22039825284E+02 -0.23445993878E+01  0.22549687269E+02  0.00000000000E+00 0. -1.
</event>
<event>
 7    1  0.6953847E-012  0.5930194E+02  0.7816164E-02  0.1266605E+00
        -11   -1    0    0    0    0  0.00000000000E+00  0.00000000000E+00  0.45593999997E+02  0.45594000000E+02  0.51100000000E-03 0. -1.
         11   -1    0    0    0    0 -0.00000000000E+00 -0.00000000000E+00 -0.45593999997E+02  0.45594000000E+02  0.51100000000E-03 0.  1.
    9900012    2    1    2    0    0 -0.29452290805E+02  0.95742928008E+00 -0.12180600569E+02  0.59301935101E+02  0.49999983721E+02 0.  0.
        -12    1    1    2    0    0  0.29452290805E+02 -0.95742928008E+00  0.12180600569E+02  0.31886064899E+02  0.00000000000E+00 0.  1.
         11    1    3    3    0    0 -0.22824990323E+02 -0.67771262958E+00  0.85114343957E+01  0.24369735193E+02  0.51100000000E-03 0. -1.
        -11    1    3    3    0    0 -0.15030658358E+02 -0.65176834182E+01 -0.13117377435E+02  0.20987293271E+02  0.51100000000E-03 0.  1.
        -12    1    3    3    0    0  0.84033578761E+01  0.81528253279E+01 -0.75746575306E+01  0.13944906637E+02  0.00000000000E+00 0.  1.
</event>
<event>
 7    1  0.6953847E-012  0.5930216E+02  0.7816164E-02  0.1266604E+00
        -11   -1    0    0    0    0  0.00000000000E+00  0.00000000000E+00  0.45593999997E+02  0.45594000000E+02  0.51100000000E-03 0.  1.
         11   -1    0    0    0    0 -0.00000000000E+00 -0.00000000000E+00 -0.45593999997E+02  0.45594000000E+02  0.51100000000E-03 0. -1.
    9900012    2    1    2    0    0 -0.10985212370E+02  0.97398863599E+00 -0.29917936777E+02  0.59302164812E+02  0.50000402656E+02 0.  0.
        -12    1    1    2    0    0  0.10985212370E+02 -0.97398863599E+00  0.29917936777E+02  0.31885835188E+02  0.00000000000E+00 0.  1.
         11    1    3    3    0    0 -0.86834644894E+01 -0.12700264750E+02 -0.14302713081E+02  0.21006353372E+02  0.51100000000E-03 0. -1.
        -11    1    3    3    0    0 -0.10782391159E+02 -0.66450004523E+01 -0.80832496799E+01  0.15025142787E+02  0.51100000000E-03 0.  1.
        -12    1    3    3    0    0  0.84806432788E+01  0.20319253839E+02 -0.75319740161E+01  0.23270668653E+02  0.00000000000E+00 0.  1.
</event>
<event>
 7    1  0.6953847E-012  0.5930196E+02  0.7816164E-02  0.1266605E+00
        -11   -1    0    0    0    0  0.00000000000E+00  0.00000000000E+00  0.45593999997E+02  0.45594000000E+02  0.51100000000E-03 0.  1.
         11   -1    0    0    0    0 -0.00000000000E+00 -0.00000000000E+00 -0.45593999997E+02  0.45594000000E+02  0.51100000000E-03 0. -1.
    9900012    2    1    2    0    0  0.24599781540E+02 -0.19274087641E+02 -0.63308552437E+01  0.59301961765E+02  0.50000032349E+02 0.  0.
        -12    1    1    2    0    0 -0.24599781540E+02  0.19274087641E+02  0.63308552437E+01  0.31886038235E+02  0.00000000000E+00 0.  1.
         11    1    3    3    0    0 -0.25544536007E+01  0.27303941310E+01 -0.15065853179E+01  0.40311394035E+01  0.51100000000E-03 0. -1.
        -11    1    3    3    0    0 -0.10519335664E+02 -0.25958808392E+00 -0.52729676386E+01  0.11769791704E+02  0.51100000000E-03 0.  1.
         12    1    3    3    0    0  0.37673570804E+02 -0.21744893688E+02  0.44869771283E+00  0.43501030658E+02  0.00000000000E+00 0. -1.
</event>
<event>
 7    1  0.6953847E-012  0.5930194E+02  0.7816164E-02  0.1266605E+00
        -11   -1    0    0    0    0  0.00000000000E+00  0.00000000000E+00  0.45593999997E+02  0.45594000000E+02  0.51100000000E-03 0.  1.
         11   -1    0    0    0    0 -0.00000000000E+00 -0.00000000000E+00 -0.45593999997E+02  0.45594000000E+02  0.51100000000E-03 0. -1.
    9900012    2    1    2    0    0  0.27689948096E+02  0.14369260971E+02 -0.65963800765E+01  0.59301935387E+02  0.49999984241E+02 0.  0.
        -12    1    1    2    0    0 -0.27689948096E+02 -0.14369260971E+02  0.65963800765E+01  0.31886064613E+02  0.00000000000E+00 0.  1.
         11    1    3    3    0    0  0.96434178315E+01 -0.29687598519E+01 -0.72267031911E+00  0.10115893197E+02  0.51100000000E-03 0. -1.
        -11    1    3    3    0    0  0.11301034756E+02 -0.97007147319E+01  0.91971382808E+01  0.17504416748E+02  0.51100000000E-03 0.  1.
         12    1    3    3    0    0  0.67454955090E+01  0.27038735554E+02 -0.15070848038E+02  0.31681625442E+02  0.00000000000E+00 0. -1.
</event>
<event>
 7    1  0.6953847E-012  0.5930194E+02  0.7816164E-02  0.1266605E+00
        -11   -1    0    0    0    0  0.00000000000E+00  0.00000000000E+00  0.45593999997E+02  0.45594000000E+02  0.51100000000E-03 0.  1.
         11   -1    0    0    0    0 -0.00000000000E+00 -0.00000000000E+00 -0.45593999997E+02  0.45594000000E+02  0.51100000000E-03 0. -1.
    9900012    2    1    2    0    0 -0.79388877145E+01 -0.46054867605E+01 -0.30536603433E+02  0.59301943554E+02  0.49999999136E+02 0.  0.
        -12    1    1    2    0    0  0.79388877145E+01  0.46054867605E+01  0.30536603433E+02  0.31886056446E+02  0.00000000000E+00 0.  1.
         11    1    3    3    0    0 -0.29412678466E+01 -0.16994679721E+02 -0.54420400099E+01  0.18085518933E+02  0.51100000000E-03 0. -1.
        -11    1    3    3    0    0 -0.11254606764E+01 -0.95934241004E+01 -0.11749662929E+02  0.15210359198E+02  0.51100000000E-03 0.  1.
        -12    1    3    3    0    0 -0.38721591916E+01  0.21982617060E+02 -0.13344900494E+02  0.26006065424E+02  0.00000000000E+00 0.  1.
</event>
<event>
 7    1  0.6953847E-012  0.5930194E+02  0.7816164E-02  0.1266605E+00
        -11   -1    0    0    0    0  0.00000000000E+00  0.00000000000E+00  0.45593999997E+02  0.45594000000E+02  0.51100000000E-03 0.  1.
         11   -1    0    0    0    0 -0.00000000000E+00 -0.00000000000E+00 -0.45593999997E+02  0.45594000000E+02  0.51100000000E-03 0. -1.
    9900012    2    1    2    0    0 -0.15788776303E+01 -0.26178411826E+02 -0.18136119848E+02  0.59301938100E+02  0.49999989190E+02 0.  0.
        -12    1    1    2    0    0  0.15788776303E+01  0.26178411826E+02  0.18136119848E+02  0.31886061900E+02  0.00000000000E+00 0.  1.
         11    1    3    3    0    0  0.68970413338E+01 -0.54521240540E+01 -0.47895833052E+01  0.10011740326E+02  0.51100000000E-03 0. -1.
        -11    1    3    3    0    0  0.34088351007E+01 -0.47680917180E+01  0.14169364692E+02  0.15333810727E+02  0.51100000000E-03 0.  1.
        -12    1    3    3    0    0 -0.11884754065E+02 -0.15958196054E+02 -0.27515901235E+02  0.33956387047E+02  0.00000000000E+00 0.  1.
</event>
<event>
 7    1  0.6953847E-012  0.5930198E+02  0.7816164E-02  0.1266605E+00
        -11   -1    0    0    0    0  0.00000000000E+00  0.00000000000E+00  0.45593999997E+02  0.45594000000E+02  0.51100000000E-03 0. -1.
         11   -1    0    0    0    0 -0.00000000000E+00 -0.00000000000E+00 -0.45593999997E+02  0.45594000000E+02  0.51100000000E-03 0.  1.
    9900012    2    1    2    0    0 -0.23386299001E+01 -0.21495542010E+02  0.23434820475E+02  0.59301979132E+02  0.50000064022E+02 0.  0.
        -12    1    1    2    0    0  0.23386299001E+01  0.21495542010E+02 -0.23434820475E+02  0.31886020868E+02  0.00000000000E+00 0.  1.
         11    1    3    3    0    0 -0.29460333568E+01  0.14242701977E+02  0.17547008796E+02  0.22791033107E+02  0.51100000000E-03 0. -1.
        -11    1    3    3    0    0 -0.51785687615E+00 -0.13844184195E+01  0.10196151451E+01  0.17956629444E+01  0.51100000000E-03 0.  1.
        -12    1    3    3    0    0  0.11252603329E+01 -0.34353825567E+02  0.48681965346E+01  0.34715283081E+02  0.00000000000E+00 0.  1.
</event>
<event>
 7    1  0.6953847E-012  0.5930194E+02  0.7816164E-02  0.1266605E+00
        -11   -1    0    0    0    0  0.00000000000E+00  0.00000000000E+00  0.45593999997E+02  0.45594000000E+02  0.51100000000E-03 0. -1.
         11   -1    0    0    0    0 -0.00000000000E+00 -0.00000000000E+00 -0.45593999997E+02  0.45594000000E+02  0.51100000000E-03 0.  1.
    9900012    2    1    2    0    0  0.95609793339E+01 -0.55060747278E+01  0.29916406177E+02  0.59301944376E+02  0.50000000635E+02 0.  0.
        -12    1    1    2    0    0 -0.95609793339E+01  0.55060747278E+01 -0.29916406177E+02  0.31886055624E+02  0.00000000000E+00 0.  1.
         11    1    3    3    0    0 -0.50978681763E+00 -0.15471070868E+01  0.10725177026E+02  0.10848172447E+02  0.51100000000E-03 0. -1.
        -11    1    3    3    0    0 -0.10001289533E+01  0.64390711835E+01  0.29426022001E+02  0.30138889606E+02  0.51100000000E-03 0.  1.
        -12    1    3    3    0    0  0.11070895105E+02 -0.10398038825E+02 -0.10234792850E+02  0.18314882323E+02  0.00000000000E+00 0.  1.
</event>
<event>
 7    1  0.6953847E-012  0.5930195E+02  0.7816164E-02  0.1266605E+00
        -11   -1    0    0    0    0  0.00000000000E+00  0.00000000000E+00  0.45593999997E+02  0.45594000000E+02  0.51100000000E-03 0.  1.
         11   -1    0    0    0    0 -0.00000000000E+00 -0.00000000000E+00 -0.45593999997E+02  0.45594000000E+02  0.51100000000E-03 0. -1.
    9900012    2    1    2    0    0 -0.19191494040E+02 -0.22741418107E+02  0.11455764879E+02  0.59301951484E+02  0.50000013599E+02 0.  0.
        -12    1    1    2    0    0  0.19191494040E+02  0.22741418107E+02 -0.11455764879E+02  0.31886048516E+02  0.00000000000E+00 0.  1.
         11    1    3    3    0    0  0.34477902344E+01 -0.12869560939E+02 -0.11787018674E+02  0.17788947854E+02  0.51100000000E-03 0. -1.
        -11    1    3    3    0    0 -0.19447005443E+01 -0.12971561310E+02  0.11904079243E+02  0.17712999913E+02  0.51100000000E-03 0.  1.
         12    1    3    3    0    0 -0.20694583730E+02  0.30997041421E+01  0.11338704310E+02  0.23800003717E+02  0.00000000000E+00 0. -1.
</event>
<event>
 7    1  0.6953847E-012  0.5930194E+02  0.7816164E-02  0.1266605E+00
        -11   -1    0    0    0    0  0.00000000000E+00  0.00000000000E+00  0.45593999997E+02  0.45594000000E+02  0.51100000000E-03 0. -1.
         11   -1    0    0    0    0 -0.00000000000E+00 -0.00000000000E+00 -0.45593999997E+02  0.45594000000E+02  0.51100000000E-03 0.  1.
    9900012    2    1    2    0    0  0.25471915234E+02  0.11369780002E+02  0.15447669741E+02  0.59301939355E+02  0.49999991479E+02 0.  0.
        -12    1    1    2    0    0 -0.25471915234E+02 -0.11369780002E+02 -0.15447669741E+02  0.31886060645E+02  0.00000000000E+00 0.  1.
         11    1    3    3    0    0  0.73086921432E+01 -0.60011510483E+01  0.19339327475E+01  0.96525069739E+01  0.51100000000E-03 0. -1.
        -11    1    3    3    0    0  0.66121980864E+01 -0.13329163556E+02  0.27798146358E+01  0.15136549617E+02  0.51100000000E-03 0.  1.
         12    1    3    3    0    0  0.11551025005E+02  0.30700094607E+02  0.10733922358E+02  0.34512882764E+02  0.00000000000E+00 0. -1.
</event>
<event>
 7    1  0.6953847E-012  0.5930191E+02  0.7816164E-02  0.1266605E+00
        -11   -1    0    0    0    0  0.00000000000E+00  0.00000000000E+00  0.45593999997E+02  0.45594000000E+02  0.51100000000E-03 0. -1.
         11   -1    0    0    0    0 -0.00000000000E+00 -0.00000000000E+00 -0.45593999997E+02  0.45594000000E+02  0.51100000000E-03 0.  1.
    9900012    2    1    2    0    0  0.61139562703E+01  0.96075866428E+01  0.29783157499E+02  0.59301911294E+02  0.49999940302E+02 0.  0.
        -12    1    1    2    0    0 -0.61139562703E+01 -0.96075866428E+01 -0.29783157499E+02  0.31886088706E+02  0.00000000000E+00 0.  1.
         11    1    3    3    0    0 -0.35807273775E+01  0.19179114768E+02 -0.17764468008E+01  0.19591217812E+02  0.51100000000E-03 0. -1.
        -11    1    3    3    0    0 -0.13069174668E+01  0.44459494125E+01  0.16956535271E+01  0.49345456314E+01  0.51100000000E-03 0.  1.
         12    1    3    3    0    0  0.11001601115E+02 -0.14017477538E+02  0.29863950772E+02  0.34776147851E+02  0.00000000000E+00 0. -1.
</event>
<event>
 7    1  0.6953847E-012  0.5930194E+02  0.7816164E-02  0.1266605E+00
        -11   -1    0    0    0    0  0.00000000000E+00  0.00000000000E+00  0.45593999997E+02  0.45594000000E+02  0.51100000000E-03 0.  1.
         11   -1    0    0    0    0 -0.00000000000E+00 -0.00000000000E+00 -0.45593999997E+02  0.45594000000E+02  0.51100000000E-03 0. -1.
    9900012    2    1    2    0    0  0.24472426824E+02 -0.19502804851E+02 -0.61206256385E+01  0.59301935176E+02  0.49999983857E+02 0.  0.
        -12    1    1    2    0    0 -0.24472426824E+02  0.19502804851E+02  0.61206256385E+01  0.31886064824E+02  0.00000000000E+00 0.  1.
         11    1    3    3    0    0 -0.16174843464E+01  0.59335690108E+01 -0.39258423234E+01  0.72962822743E+01  0.51100000000E-03 0. -1.
        -11    1    3    3    0    0  0.72300303236E+01  0.90642408273E+01 -0.49135365674E+01  0.12592721791E+02  0.51100000000E-03 0.  1.
         12    1    3    3    0    0  0.18859880847E+02 -0.34500614689E+02  0.27187532524E+01  0.39412931111E+02  0.00000000000E+00 0. -1.
</event>
<event>
 7    1  0.6953847E-012  0.5930193E+02  0.7816164E-02  0.1266605E+00
        -11   -1    0    0    0    0  0.00000000000E+00  0.00000000000E+00  0.45593999997E+02  0.45594000000E+02  0.51100000000E-03 0.  1.
         11   -1    0    0    0    0 -0.00000000000E+00 -0.00000000000E+00 -0.45593999997E+02  0.45594000000E+02  0.51100000000E-03 0. -1.
    9900012    2    1    2    0    0  0.24431001831E+02 -0.19754200068E+02 -0.54423462084E+01  0.59301930894E+02  0.49999976047E+02 0.  0.
        -12    1    1    2    0    0 -0.24431001831E+02  0.19754200068E+02  0.54423462084E+01  0.31886069106E+02  0.00000000000E+00 0.  1.
         11    1    3    3    0    0 -0.11238049001E+02  0.36117260022E+01 -0.25863583966E+00  0.11806998044E+02  0.51100000000E-03 0.  1.
        -11    1    3    3    0    0  0.86495494615E+01  0.16670626966E+01  0.37814938938E+01  0.95861097559E+01  0.51100000000E-03 0. -1.
         12    1    3    3    0    0  0.27019501370E+02 -0.25032988766E+02 -0.89652042626E+01  0.37908823094E+02  0.00000000000E+00 0. -1.
</event>
<event>
 7    1  0.6953847E-012  0.5930194E+02  0.7816164E-02  0.1266605E+00
        -11   -1    0    0    0    0  0.00000000000E+00  0.00000000000E+00  0.45593999997E+02  0.45594000000E+02  0.51100000000E-03 0. -1.
         11   -1    0    0    0    0 -0.00000000000E+00 -0.00000000000E+00 -0.45593999997E+02  0.45594000000E+02  0.51100000000E-03 0.  1.
    9900012    2    1    2    0    0 -0.70848334646E+01 -0.26453620801E+02 -0.16331923167E+02  0.59301942968E+02  0.49999998067E+02 0.  0.
        -12    1    1    2    0    0  0.70848334646E+01  0.26453620801E+02  0.16331923167E+02  0.31886057032E+02  0.00000000000E+00 0.  1.
         11    1    3    3    0    0  0.18494055478E+01 -0.25934873446E+02 -0.12312342164E+02  0.28768589318E+02  0.51100000000E-03 0. -1.
        -11    1    3    3    0    0 -0.45374934229E+01 -0.14089947874E+02  0.22103988653E+01  0.14966674349E+02  0.51100000000E-03 0.  1.
        -12    1    3    3    0    0 -0.43967455895E+01  0.13571200519E+02 -0.62299798676E+01  0.15566679301E+02  0.00000000000E+00 0.  1.
</event>
<event>
 7    1  0.6953847E-012  0.5930195E+02  0.7816164E-02  0.1266605E+00
        -11   -1    0    0    0    0  0.00000000000E+00  0.00000000000E+00  0.45593999997E+02  0.45594000000E+02  0.51100000000E-03 0.  1.
         11   -1    0    0    0    0 -0.00000000000E+00 -0.00000000000E+00 -0.45593999997E+02  0.45594000000E+02  0.51100000000E-03 0. -1.
    9900012    2    1    2    0    0  0.24568370997E+02 -0.20097946933E+02  0.30311762318E+01  0.59301947348E+02  0.50000006055E+02 0.  0.
        -12    1    1    2    0    0 -0.24568370997E+02  0.20097946933E+02 -0.30311762318E+01  0.31886052652E+02  0.00000000000E+00 0.  1.
         11    1    3    3    0    0 -0.34898222575E+01 -0.18944772827E+01 -0.23904183458E+01  0.46348682498E+01  0.51100000000E-03 0. -1.
        -11    1    3    3    0    0 -0.91143766961E+01  0.47660036914E+01 -0.16029199585E+01  0.10409419119E+02  0.51100000000E-03 0.  1.
         12    1    3    3    0    0  0.37172569951E+02 -0.22969473342E+02  0.70245145362E+01  0.44257659979E+02  0.00000000000E+00 0. -1.
</event>
<event>
 7    1  0.6953847E-012  0.5930194E+02  0.7816164E-02  0.1266605E+00
        -11   -1    0    0    0    0  0.00000000000E+00  0.00000000000E+00  0.45593999997E+02  0.45594000000E+02  0.51100000000E-03 0.  1.
         11   -1    0    0    0    0 -0.00000000000E+00 -0.00000000000E+00 -0.45593999997E+02  0.45594000000E+02  0.51100000000E-03 0. -1.
    9900012    2    1    2    0    0  0.16172288895E+02 -0.27465703116E+02  0.90160485128E+00  0.59301942435E+02  0.49999997094E+02 0.  0.
        -12    1    1    2    0    0 -0.16172288895E+02  0.27465703116E+02 -0.90160485128E+00  0.31886057565E+02  0.00000000000E+00 0.  1.
         11    1    3    3    0    0  0.24240975504E+02 -0.57611575541E+01  0.56115788327E+01  0.25540274999E+02  0.51100000000E-03 0. -1.
        -11    1    3    3    0    0  0.72162384222E+01 -0.75416473579E+00 -0.27319168476E+01  0.77528208633E+01  0.51100000000E-03 0.  1.
         12    1    3    3    0    0 -0.15284925032E+02 -0.20950380826E+02 -0.19780571338E+01  0.26008846572E+02  0.00000000000E+00 0. -1.
</event>
<event>
 7    1  0.6953847E-012  0.5930194E+02  0.7816164E-02  0.1266605E+00
        -11   -1    0    0    0    0  0.00000000000E+00  0.00000000000E+00  0.45593999997E+02  0.45594000000E+02  0.51100000000E-03 0.  1.
         11   -1    0    0    0    0 -0.00000000000E+00 -0.00000000000E+00 -0.45593999997E+02  0.45594000000E+02  0.51100000000E-03 0. -1.
    9900012    2    1    2    0    0 -0.13044824397E+02  0.77779222756E+01 -0.28036711239E+02  0.59301941988E+02  0.49999996279E+02 0.  0.
        -12    1    1    2    0    0  0.13044824397E+02 -0.77779222756E+01  0.28036711239E+02  0.31886058012E+02  0.00000000000E+00 0.  1.
         11    1    3    3    0    0  0.29354147417E+01  0.76576472446E+01  0.25601475586E+01  0.85913082131E+01  0.51100000000E-03 0.  1.
        -11    1    3    3    0    0 -0.11163937862E+02  0.17178480707E+02 -0.80061369592E+01  0.21996180061E+02  0.51100000000E-03 0. -1.
         12    1    3    3    0    0 -0.48163012762E+01 -0.17058205676E+02 -0.22590721838E+02  0.28714453713E+02  0.00000000000E+00 0. -1.
</event>
<event>
 7    1  0.6953847E-012  0.5930197E+02  0.7816164E-02  0.1266605E+00
        -11   -1    0    0    0    0  0.00000000000E+00  0.00000000000E+00  0.45593999997E+02  0.45594000000E+02  0.51100000000E-03 0.  1.
         11   -1    0    0    0    0 -0.00000000000E+00 -0.00000000000E+00 -0.45593999997E+02  0.45594000000E+02  0.51100000000E-03 0. -1.
    9900012    2    1    2    0    0  0.84219959928E+01  0.29056945390E+02 -0.10073867425E+02  0.59301970194E+02  0.50000047721E+02 0.  0.
        -12    1    1    2    0    0 -0.84219959928E+01 -0.29056945390E+02  0.10073867425E+02  0.31886029806E+02  0.00000000000E+00 0.  1.
         11    1    3    3    0    0  0.75368825206E+01  0.26570924122E+02  0.43714520374E+01  0.27962979097E+02  0.51100000000E-03 0. -1.
        -11    1    3    3    0    0 -0.96639389293E+01  0.38502513884E+01  0.30704837062E+01  0.10846382892E+02  0.51100000000E-03 0.  1.
         12    1    3    3    0    0  0.10549052401E+02 -0.13642301204E+01 -0.17515803169E+02  0.20492608205E+02  0.00000000000E+00 0. -1.
</event>
<event>
 7    1  0.6953847E-012  0.5930189E+02  0.7816164E-02  0.1266605E+00
        -11   -1    0    0    0    0  0.00000000000E+00  0.00000000000E+00  0.45593999997E+02  0.45594000000E+02  0.51100000000E-03 0.  1.
         11   -1    0    0    0    0 -0.00000000000E+00 -0.00000000000E+00 -0.45593999997E+02  0.45594000000E+02  0.51100000000E-03 0. -1.
    9900012    2    1    2    0    0  0.39668644662E+00  0.23145513953E+02 -0.21928331753E+02  0.59301891586E+02  0.49999904359E+02 0.  0.
        -12    1    1    2    0    0 -0.39668644662E+00 -0.23145513953E+02  0.21928331753E+02  0.31886108414E+02  0.00000000000E+00 0.  1.
         11    1    3    3    0    0 -0.70669117652E+00  0.15063179775E+02 -0.13802286290E+02  0.20442649154E+02  0.51100000000E-03 0. -1.
        -11    1    3    3    0    0 -0.12047298510E+00 -0.54889519778E+01 -0.20027981722E+02  0.20766876502E+02  0.51100000000E-03 0.  1.
         12    1    3    3    0    0  0.12238506082E+01  0.13571286156E+02  0.11901936258E+02  0.18092365930E+02  0.00000000000E+00 0. -1.
</event>
<event>
 7    1  0.6953847E-012  0.5930194E+02  0.7816164E-02  0.1266605E+00
        -11   -1    0    0    0    0  0.00000000000E+00  0.00000000000E+00  0.45593999997E+02  0.45594000000E+02  0.51100000000E-03 0.  1.
         11   -1    0    0    0    0 -0.00000000000E+00 -0.00000000000E+00 -0.45593999997E+02  0.45594000000E+02  0.51100000000E-03 0. -1.
    9900012    2    1    2    0    0 -0.21881299699E+02  0.81923288608E+01 -0.21698281410E+02  0.59301938078E+02  0.49999989150E+02 0.  0.
        -12    1    1    2    0    0  0.21881299699E+02 -0.81923288608E+01  0.21698281410E+02  0.31886061922E+02  0.00000000000E+00 0.  1.
         11    1    3    3    0    0  0.26639945066E+01 -0.21525128908E+01  0.51598577814E+01  0.61930857464E+01  0.51100000000E-03 0. -1.
        -11    1    3    3    0    0  0.47651729952E+00  0.54748828011E+01  0.81338007574E+01  0.98163193430E+01  0.51100000000E-03 0.  1.
         12    1    3    3    0    0 -0.25021811506E+02  0.48699589505E+01 -0.34991939949E+02  0.43292532989E+02  0.00000000000E+00 0. -1.
</event>
<event>
 7    1  0.6953847E-012  0.5930201E+02  0.7816164E-02  0.1266605E+00
        -11   -1    0    0    0    0  0.00000000000E+00  0.00000000000E+00  0.45593999997E+02  0.45594000000E+02  0.51100000000E-03 0.  1.
         11   -1    0    0    0    0 -0.00000000000E+00 -0.00000000000E+00 -0.45593999997E+02  0.45594000000E+02  0.51100000000E-03 0. -1.
    9900012    2    1    2    0    0  0.27328740041E+02  0.58259786445E+01 -0.15359493075E+02  0.59302014255E+02  0.50000128077E+02 0.  0.
        -12    1    1    2    0    0 -0.27328740041E+02 -0.58259786445E+01  0.15359493075E+02  0.31885985745E+02  0.00000000000E+00 0.  1.
         11    1    3    3    0    0  0.17253821308E+02 -0.53402590097E+01 -0.95524359178E+01  0.20431880683E+02  0.51100000000E-03 0. -1.
        -11    1    3    3    0    0  0.17344626331E+02 -0.65839028284E+01  0.83651080976E+00  0.18571041694E+02  0.51100000000E-03 0.  1.
        -12    1    3    3    0    0 -0.72697075978E+01  0.17750140483E+02 -0.66435679670E+01  0.20299091877E+02  0.00000000000E+00 0.  1.
</event>
<event>
 7    1  0.6953847E-012  0.5930195E+02  0.7816164E-02  0.1266605E+00
        -11   -1    0    0    0    0  0.00000000000E+00  0.00000000000E+00  0.45593999997E+02  0.45594000000E+02  0.51100000000E-03 0.  1.
         11   -1    0    0    0    0 -0.00000000000E+00 -0.00000000000E+00 -0.45593999997E+02  0.45594000000E+02  0.51100000000E-03 0. -1.
    9900012    2    1    2    0    0 -0.14356472157E+02  0.16820107116E+02 -0.22971634643E+02  0.59301948279E+02  0.50000007754E+02 0.  0.
        -12    1    1    2    0    0  0.14356472157E+02 -0.16820107116E+02  0.22971634643E+02  0.31886051721E+02  0.00000000000E+00 0.  1.
         11    1    3    3    0    0  0.75879526022E+01  0.38107600049E+01  0.46986291152E+01  0.97044336430E+01  0.51100000000E-03 0. -1.
        -11    1    3    3    0    0 -0.71120589371E+00 -0.58520346138E+01  0.39493481348E+01  0.70957363181E+01  0.51100000000E-03 0.  1.
         12    1    3    3    0    0 -0.21233218865E+02  0.18861381725E+02 -0.31619611893E+02  0.42501778318E+02  0.00000000000E+00 0. -1.
</event>
<event>
 7    1  0.6953847E-012  0.5930207E+02  0.7816164E-02  0.1266604E+00
        -11   -1    0    0    0    0  0.00000000000E+00  0.00000000000E+00  0.45593999997E+02  0.45594000000E+02  0.51100000000E-03 0. -1.
         11   -1    0    0    0    0 -0.00000000000E+00 -0.00000000000E+00 -0.45593999997E+02  0.45594000000E+02  0.51100000000E-03 0.  1.
    9900012    2    1    2    0    0 -0.23176716811E+02  0.21972678005E+01  0.21788176979E+02  0.59302065107E+02  0.50000220819E+02 0.  0.
        -12    1    1    2    0    0  0.23176716811E+02 -0.21972678005E+01 -0.21788176979E+02  0.31885934893E+02  0.00000000000E+00 0.  1.
         11    1    3    3    0    0 -0.64649086699E+01  0.58689966332E+01 -0.20728746546E+01  0.89742395325E+01  0.51100000000E-03 0. -1.
        -11    1    3    3    0    0  0.10214861788E+02  0.91726926071E+01  0.33738222629E+01  0.14137339492E+02  0.51100000000E-03 0.  1.
         12    1    3    3    0    0 -0.26926669928E+02 -0.12844421440E+02  0.20487229371E+02  0.36190486082E+02  0.00000000000E+00 0. -1.
</event>
<event>
 7    1  0.6953847E-012  0.5930193E+02  0.7816164E-02  0.1266605E+00
        -11   -1    0    0    0    0  0.00000000000E+00  0.00000000000E+00  0.45593999997E+02  0.45594000000E+02  0.51100000000E-03 0. -1.
         11   -1    0    0    0    0 -0.00000000000E+00 -0.00000000000E+00 -0.45593999997E+02  0.45594000000E+02  0.51100000000E-03 0.  1.
    9900012    2    1    2    0    0 -0.17896275739E+02  0.11289842933E+02  0.23853384125E+02  0.59301934501E+02  0.49999982625E+02 0.  0.
        -12    1    1    2    0    0  0.17896275739E+02 -0.11289842933E+02 -0.23853384125E+02  0.31886065499E+02  0.00000000000E+00 0.  1.
         11    1    3    3    0    0  0.91573808829E+01  0.72128078454E+01  0.13302960910E+02  0.17687594265E+02  0.51100000000E-03 0. -1.
        -11    1    3    3    0    0  0.36836159344E+01 -0.18644477040E+01  0.94230372539E+01  0.10287799713E+02  0.51100000000E-03 0.  1.
         12    1    3    3    0    0 -0.30737272557E+02  0.59414827915E+01  0.11273859610E+01  0.31326540522E+02  0.00000000000E+00 0. -1.
</event>
<event>
 7    1  0.6953847E-012  0.5930198E+02  0.7816164E-02  0.1266605E+00
        -11   -1    0    0    0    0  0.00000000000E+00  0.00000000000E+00  0.45593999997E+02  0.45594000000E+02  0.51100000000E-03 0.  1.
         11   -1    0    0    0    0 -0.00000000000E+00 -0.00000000000E+00 -0.45593999997E+02  0.45594000000E+02  0.51100000000E-03 0. -1.
    9900012    2    1    2    0    0  0.17629351795E+02 -0.25764122025E+02  0.64911064374E+01  0.59301976554E+02  0.50000059321E+02 0.  0.
        -12    1    1    2    0    0 -0.17629351795E+02  0.25764122025E+02 -0.64911064374E+01  0.31886023446E+02  0.00000000000E+00 0.  1.
         11    1    3    3    0    0  0.14583610050E+02 -0.12558785504E+02  0.63823784031E+01  0.20276575889E+02  0.51100000000E-03 0. -1.
        -11    1    3    3    0    0 -0.17846029779E+01 -0.42959141952E+01  0.17930200994E+02  0.18523816953E+02  0.51100000000E-03 0.  1.
         12    1    3    3    0    0  0.48303447223E+01 -0.89094223255E+01 -0.17821472959E+02  0.20501583713E+02  0.00000000000E+00 0. -1.
</event>
<event>
 7    1  0.6953847E-012  0.5930197E+02  0.7816164E-02  0.1266605E+00
        -11   -1    0    0    0    0  0.00000000000E+00  0.00000000000E+00  0.45593999997E+02  0.45594000000E+02  0.51100000000E-03 0. -1.
         11   -1    0    0    0    0 -0.00000000000E+00 -0.00000000000E+00 -0.45593999997E+02  0.45594000000E+02  0.51100000000E-03 0.  1.
    9900012    2    1    2    0    0 -0.20626058805E+02 -0.16894840385E+02  0.17488540086E+02  0.59301969081E+02  0.50000045691E+02 0.  0.
        -12    1    1    2    0    0  0.20626058805E+02  0.16894840385E+02 -0.17488540086E+02  0.31886030919E+02  0.00000000000E+00 0.  1.
         11    1    3    3    0    0 -0.14416026689E+02 -0.22677930877E+01  0.15813816928E+02  0.21518399501E+02  0.51100000000E-03 0. -1.
        -11    1    3    3    0    0  0.11237143612E+01 -0.46061790689E+01  0.17235244871E+02  0.17875493996E+02  0.51100000000E-03 0.  1.
        -12    1    3    3    0    0 -0.73337464765E+01 -0.10020868228E+02 -0.15560521713E+02  0.19908075583E+02  0.00000000000E+00 0.  1.
</event>
<event>
 7    1  0.6953847E-012  0.5930195E+02  0.7816164E-02  0.1266605E+00
        -11   -1    0    0    0    0  0.00000000000E+00  0.00000000000E+00  0.45593999997E+02  0.45594000000E+02  0.51100000000E-03 0. -1.
         11   -1    0    0    0    0 -0.00000000000E+00 -0.00000000000E+00 -0.45593999997E+02  0.45594000000E+02  0.51100000000E-03 0.  1.
    9900012    2    1    2    0    0 -0.23898015690E+02  0.13678807765E+02  0.16077782684E+02  0.59301952395E+02  0.50000015260E+02 0.  0.
        -12    1    1    2    0    0  0.23898015690E+02 -0.13678807765E+02 -0.16077782684E+02  0.31886047605E+02  0.00000000000E+00 0.  1.
         11    1    3    3    0    0  0.22631479813E+01  0.88671669722E+01  0.11923316710E+02  0.15030434809E+02  0.51100000000E-03 0. -1.
        -11    1    3    3    0    0  0.84959953675E+01 -0.14557782999E+01 -0.99768878535E+00  0.86773619792E+01  0.51100000000E-03 0.  1.
        -12    1    3    3    0    0 -0.34657159039E+02  0.62674190930E+01  0.51521547589E+01  0.35594155608E+02  0.00000000000E+00 0.  1.
</event>
<event>
 7    1  0.6953847E-012  0.5930194E+02  0.7816164E-02  0.1266605E+00
        -11   -1    0    0    0    0  0.00000000000E+00  0.00000000000E+00  0.45593999997E+02  0.45594000000E+02  0.51100000000E-03 0.  1.
         11   -1    0    0    0    0 -0.00000000000E+00 -0.00000000000E+00 -0.45593999997E+02  0.45594000000E+02  0.51100000000E-03 0. -1.
    9900012    2    1    2    0    0  0.94506521881E+01  0.29079199908E+02  0.90446828530E+01  0.59301937496E+02  0.49999988088E+02 0.  0.
        -12    1    1    2    0    0 -0.94506521881E+01 -0.29079199908E+02 -0.90446828530E+01  0.31886062504E+02  0.00000000000E+00 0.  1.
         11    1    3    3    0    0  0.18541594857E+02  0.28820067296E+02  0.18432743901E+02  0.38912119793E+02  0.51100000000E-03 0.  1.
        -11    1    3    3    0    0 -0.11105965042E+02  0.88272452987E-01 -0.33259418461E+00  0.11111294735E+02  0.51100000000E-03 0. -1.
        -12    1    3    3    0    0  0.20150223736E+01  0.17086015876E+00 -0.90554668630E+01  0.92785229679E+01  0.00000000000E+00 0.  1.
</event>
<event>
 7    1  0.6953847E-012  0.5930196E+02  0.7816164E-02  0.1266605E+00
        -11   -1    0    0    0    0  0.00000000000E+00  0.00000000000E+00  0.45593999997E+02  0.45594000000E+02  0.51100000000E-03 0. -1.
         11   -1    0    0    0    0 -0.00000000000E+00 -0.00000000000E+00 -0.45593999997E+02  0.45594000000E+02  0.51100000000E-03 0.  1.
    9900012    2    1    2    0    0 -0.29739056721E+02  0.10706468223E+02 -0.42047218766E+01  0.59301958500E+02  0.50000026395E+02 0.  0.
        -12    1    1    2    0    0  0.29739056721E+02 -0.10706468223E+02  0.42047218766E+01  0.31886041500E+02  0.00000000000E+00 0.  1.
         11    1    3    3    0    0 -0.17902717874E+02  0.86132971471E+00 -0.14165474014E+02  0.22845346363E+02  0.51100000000E-03 0. -1.
        -11    1    3    3    0    0  0.92972845357E+01  0.53624815923E+01 -0.31501659625E+01  0.11185671836E+02  0.51100000000E-03 0.  1.
         12    1    3    3    0    0 -0.21133623382E+02  0.44826569162E+01  0.13110918100E+02  0.25270940301E+02  0.00000000000E+00 0. -1.
</event>
<event>
 7    1  0.6953847E-012  0.5930191E+02  0.7816164E-02  0.1266605E+00
        -11   -1    0    0    0    0  0.00000000000E+00  0.00000000000E+00  0.45593999997E+02  0.45594000000E+02  0.51100000000E-03 0.  1.
         11   -1    0    0    0    0 -0.00000000000E+00 -0.00000000000E+00 -0.45593999997E+02  0.45594000000E+02  0.51100000000E-03 0. -1.
    9900012    2    1    2    0    0  0.19002698662E+02  0.15436204947E+01 -0.25558507557E+02  0.59301911666E+02  0.49999940980E+02 0.  0.
        -12    1    1    2    0    0 -0.19002698662E+02 -0.15436204947E+01  0.25558507557E+02  0.31886088334E+02  0.00000000000E+00 0.  1.
         11    1    3    3    0    0 -0.43878907667E+01 -0.28328463133E+01 -0.27146203516E+01  0.58862354293E+01  0.51100000000E-03 0. -1.
        -11    1    3    3    0    0 -0.92428025160E+01  0.26198226020E-01  0.48107340682E+01  0.10419848714E+02  0.51100000000E-03 0.  1.
        -12    1    3    3    0    0  0.32633391945E+02  0.43502685820E+01 -0.27654621274E+02  0.42995827523E+02  0.00000000000E+00 0.  1.
</event>
<event>
 7    1  0.6953847E-012  0.5930173E+02  0.7816164E-02  0.1266605E+00
        -11   -1    0    0    0    0  0.00000000000E+00  0.00000000000E+00  0.45593999997E+02  0.45594000000E+02  0.51100000000E-03 0. -1.
         11   -1    0    0    0    0 -0.00000000000E+00 -0.00000000000E+00 -0.45593999997E+02  0.45594000000E+02  0.51100000000E-03 0.  1.
    9900012    2    1    2    0    0 -0.23758208597E+02  0.12679720998E+02  0.17073554674E+02  0.59301732273E+02  0.49999613809E+02 0.  0.
        -12    1    1    2    0    0  0.23758208597E+02 -0.12679720998E+02 -0.17073554674E+02  0.31886267727E+02  0.00000000000E+00 0.  1.
         11    1    3    3    0    0 -0.11654410396E+02  0.13717016621E+02  0.23093452736E+02  0.29279504542E+02  0.51100000000E-03 0. -1.
        -11    1    3    3    0    0  0.78384050694E+01 -0.94450434057E+00  0.25779685034E+01  0.83053358961E+01  0.51100000000E-03 0.  1.
        -12    1    3    3    0    0 -0.19942203271E+02 -0.92791281736E-01 -0.85978665657E+01  0.21716891835E+02  0.00000000000E+00 0.  1.
</event>
<event>
 7    1  0.6953847E-012  0.5930195E+02  0.7816164E-02  0.1266605E+00
        -11   -1    0    0    0    0  0.00000000000E+00  0.00000000000E+00  0.45593999997E+02  0.45594000000E+02  0.51100000000E-03 0. -1.
         11   -1    0    0    0    0 -0.00000000000E+00 -0.00000000000E+00 -0.45593999997E+02  0.45594000000E+02  0.51100000000E-03 0.  1.
    9900012    2    1    2    0    0 -0.79050286945E+01 -0.27153722196E+02  0.14727723782E+02  0.59301953591E+02  0.50000017442E+02 0.  0.
        -12    1    1    2    0    0  0.79050286945E+01  0.27153722196E+02 -0.14727723782E+02  0.31886046409E+02  0.00000000000E+00 0.  1.
         11    1    3    3    0    0  0.22084730319E+01 -0.30294274221E+01  0.10250525338E+02  0.10914579864E+02  0.51100000000E-03 0. -1.
        -11    1    3    3    0    0  0.12109469432E+02  0.36019826391E+01  0.16653366160E+01  0.12743110890E+02  0.51100000000E-03 0.  1.
        -12    1    3    3    0    0 -0.22222971158E+02 -0.27726277413E+02  0.28118618286E+01  0.35644262838E+02  0.00000000000E+00 0.  1.
</event>
<event>
 7    1  0.6953847E-012  0.5930195E+02  0.7816164E-02  0.1266605E+00
        -11   -1    0    0    0    0  0.00000000000E+00  0.00000000000E+00  0.45593999997E+02  0.45594000000E+02  0.51100000000E-03 0.  1.
         11   -1    0    0    0    0 -0.00000000000E+00 -0.00000000000E+00 -0.45593999997E+02  0.45594000000E+02  0.51100000000E-03 0. -1.
    9900012    2    1    2    0    0 -0.21282978043E+02 -0.12193562329E+02 -0.20373310437E+02  0.59301954544E+02  0.50000019179E+02 0.  0.
        -12    1    1    2    0    0  0.21282978043E+02  0.12193562329E+02  0.20373310437E+02  0.31886045456E+02  0.00000000000E+00 0.  1.
         11    1    3    3    0    0 -0.11627352000E+02 -0.14897944005E+02 -0.14593804292E+02  0.23877252231E+02  0.51100000000E-03 0. -1.
        -11    1    3    3    0    0  0.51737435995E+01  0.70929905238E+00 -0.16311333926E+02  0.17126889463E+02  0.51100000000E-03 0.  1.
         12    1    3    3    0    0 -0.14829369643E+02  0.19950826229E+01  0.10531827781E+02  0.18297812850E+02  0.00000000000E+00 0. -1.
</event>
<event>
 7    1  0.6953847E-012  0.5930194E+02  0.7816164E-02  0.1266605E+00
        -11   -1    0    0    0    0  0.00000000000E+00  0.00000000000E+00  0.45593999997E+02  0.45594000000E+02  0.51100000000E-03 0.  1.
         11   -1    0    0    0    0 -0.00000000000E+00 -0.00000000000E+00 -0.45593999997E+02  0.45594000000E+02  0.51100000000E-03 0. -1.
    9900012    2    1    2    0    0  0.14914464319E+02 -0.25753992713E+02 -0.11446017166E+02  0.59301941988E+02  0.49999996280E+02 0.  0.
        -12    1    1    2    0    0 -0.14914464319E+02  0.25753992713E+02  0.11446017166E+02  0.31886058012E+02  0.00000000000E+00 0.  1.
         11    1    3    3    0    0 -0.15594754961E+01  0.65195289323E+01  0.14616411263E+01  0.68609486491E+01  0.51100000000E-03 0. -1.
        -11    1    3    3    0    0  0.59036216339E+01 -0.52752278434E+01  0.11892994863E+02  0.14287200715E+02  0.51100000000E-03 0.  1.
         12    1    3    3    0    0  0.10570318181E+02 -0.26998293802E+02 -0.24800653155E+02  0.38153792624E+02  0.00000000000E+00 0. -1.
</event>
<event>
 7    1  0.6953847E-012  0.5930182E+02  0.7816164E-02  0.1266605E+00
        -11   -1    0    0    0    0  0.00000000000E+00  0.00000000000E+00  0.45593999997E+02  0.45594000000E+02  0.51100000000E-03 0.  1.
         11   -1    0    0    0    0 -0.00000000000E+00 -0.00000000000E+00 -0.45593999997E+02  0.45594000000E+02  0.51100000000E-03 0. -1.
    9900012    2    1    2    0    0 -0.60627809518E+00 -0.17476183674E+02 -0.26663531645E+02  0.59301819784E+02  0.49999773409E+02 0.  0.
        -12    1    1    2    0    0  0.60627809518E+00  0.17476183674E+02  0.26663531645E+02  0.31886180216E+02  0.00000000000E+00 0.  1.
         11    1    3    3    0    0 -0.18742260721E+02 -0.37044136318E+01 -0.78605869147E+01  0.20658747401E+02  0.51100000000E-03 0. -1.
        -11    1    3    3    0    0 -0.54291523040E+01 -0.21491807600E+00  0.25926026022E+00  0.54395864423E+01  0.51100000000E-03 0.  1.
         12    1    3    3    0    0  0.23565134930E+02 -0.13556851967E+02 -0.19062204991E+02  0.33203485941E+02  0.00000000000E+00 0. -1.
</event>
<event>
 7    1  0.6953847E-012  0.5930204E+02  0.7816164E-02  0.1266604E+00
        -11   -1    0    0    0    0  0.00000000000E+00  0.00000000000E+00  0.45593999997E+02  0.45594000000E+02  0.51100000000E-03 0. -1.
         11   -1    0    0    0    0 -0.00000000000E+00 -0.00000000000E+00 -0.45593999997E+02  0.45594000000E+02  0.51100000000E-03 0.  1.
    9900012    2    1    2    0    0  0.20092287130E+02 -0.11174670338E+02  0.22093918057E+02  0.59302039542E+02  0.50000174194E+02 0.  0.
        -12    1    1    2    0    0 -0.20092287130E+02  0.11174670338E+02 -0.22093918057E+02  0.31885960458E+02  0.00000000000E+00 0.  1.
         11    1    3    3    0    0 -0.48651914661E+01  0.92240599121E+01  0.19720026887E+02  0.22307685446E+02  0.51100000000E-03 0. -1.
        -11    1    3    3    0    0  0.91816358674E+01 -0.21468647795E+01  0.78344059321E+01  0.12259256998E+02  0.51100000000E-03 0.  1.
        -12    1    3    3    0    0  0.15775842728E+02 -0.18251865470E+02 -0.54605147625E+01  0.24735097097E+02  0.00000000000E+00 0.  1.
</event>
<event>
 7    1  0.6953847E-012  0.5930195E+02  0.7816164E-02  0.1266605E+00
        -11   -1    0    0    0    0  0.00000000000E+00  0.00000000000E+00  0.45593999997E+02  0.45594000000E+02  0.51100000000E-03 0.  1.
         11   -1    0    0    0    0 -0.00000000000E+00 -0.00000000000E+00 -0.45593999997E+02  0.45594000000E+02  0.51100000000E-03 0. -1.
    9900012    2    1    2    0    0  0.34217593839E+01 -0.10248553847E+02 -0.29999649476E+02  0.59301948787E+02  0.50000008681E+02 0.  0.
        -12    1    1    2    0    0 -0.34217593839E+01  0.10248553847E+02  0.29999649476E+02  0.31886051213E+02  0.00000000000E+00 0.  1.
         11    1    3    3    0    0  0.19232225160E+02 -0.13265585726E+01 -0.29594954178E+02  0.35319959730E+02  0.51100000000E-03 0. -1.
        -11    1    3    3    0    0  0.18420575066E+01  0.13614217151E+01  0.24501521637E+01  0.33540856922E+01  0.51100000000E-03 0.  1.
        -12    1    3    3    0    0 -0.17652523283E+02 -0.10283416989E+02 -0.28548474622E+01  0.20627903366E+02  0.00000000000E+00 0.  1.
</event>
<event>
 7    1  0.6953847E-012  0.5930193E+02  0.7816164E-02  0.1266605E+00
        -11   -1    0    0    0    0  0.00000000000E+00  0.00000000000E+00  0.45593999997E+02  0.45594000000E+02  0.51100000000E-03 0. -1.
         11   -1    0    0    0    0 -0.00000000000E+00 -0.00000000000E+00 -0.45593999997E+02  0.45594000000E+02  0.51100000000E-03 0.  1.
    9900012    2    1    2    0    0 -0.28280264719E+02  0.10573968592E+02  0.10253729099E+02  0.59301934944E+02  0.49999983433E+02 0.  0.
        -12    1    1    2    0    0  0.28280264719E+02 -0.10573968592E+02 -0.10253729099E+02  0.31886065056E+02  0.00000000000E+00 0.  1.
         11    1    3    3    0    0 -0.11794468072E+02 -0.65755957359E+01  0.21394632360E+02  0.25299767399E+02  0.51100000000E-03 0. -1.
        -11    1    3    3    0    0 -0.13230618777E+02 -0.10469481427E+01 -0.72081494594E+01  0.15103072288E+02  0.51100000000E-03 0.  1.
        -12    1    3    3    0    0 -0.32551778699E+01  0.18196512471E+02 -0.39327538013E+01  0.18899095257E+02  0.00000000000E+00 0.  1.
</event>
<event>
 7    1  0.7650852E-012  0.5930194E+02  0.7816164E-02  0.1266605E+00
        -11   -1    0    0    0    0  0.00000000000E+00  0.00000000000E+00  0.45593999997E+02  0.45594000000E+02  0.51100000000E-03 0.  1.
         11   -1    0    0    0    0 -0.00000000000E+00 -0.00000000000E+00 -0.45593999997E+02  0.45594000000E+02  0.51100000000E-03 0. -1.
    9900012    2    1    2    0    0  0.29607258654E+02  0.11685529119E+02 -0.18918886241E+01  0.59301943512E+02  0.49999999060E+02 0.  0.
        -12    1    1    2    0    0 -0.29607258654E+02 -0.11685529119E+02  0.18918886241E+01  0.31886056488E+02  0.00000000000E+00 0.  1.
         11    1    3    3    0    0  0.25457208591E+02  0.21247930658E+01 -0.20887542778E+01  0.25630979488E+02  0.51100000000E-03 0. -1.
        -11    1    3    3    0    0  0.86711553502E+01  0.20210833382E+01 -0.14224502367E+02  0.16781244913E+02  0.51100000000E-03 0.  1.
        -12    1    3    3    0    0 -0.45211052877E+01  0.75396527152E+01  0.14421368021E+02  0.16889719112E+02  0.00000000000E+00 0.  1.
</event>
<event>
 7    1  0.6953847E-012  0.5930201E+02  0.7816164E-02  0.1266605E+00
        -11   -1    0    0    0    0  0.00000000000E+00  0.00000000000E+00  0.45593999997E+02  0.45594000000E+02  0.51100000000E-03 0. -1.
         11   -1    0    0    0    0 -0.00000000000E+00 -0.00000000000E+00 -0.45593999997E+02  0.45594000000E+02  0.51100000000E-03 0.  1.
    9900012    2    1    2    0    0 -0.21913616431E+01 -0.27620290631E+01  0.31690464415E+02  0.59302009264E+02  0.50000118975E+02 0.  0.
        -12    1    1    2    0    0  0.21913616431E+01  0.27620290631E+01 -0.31690464415E+02  0.31885990736E+02  0.00000000000E+00 0.  1.
         11    1    3    3    0    0  0.77080646596E+01  0.10571469531E+02  0.49147363576E+01  0.13975867149E+02  0.51100000000E-03 0.  1.
        -11    1    3    3    0    0 -0.18402231829E+02  0.91820030051E-01  0.22105096186E+02  0.28762577159E+02  0.51100000000E-03 0. -1.
        -12    1    3    3    0    0  0.85028055261E+01 -0.13425318624E+02  0.46706318714E+01  0.16563564956E+02  0.00000000000E+00 0.  1.
</event>
<event>
 7    1  0.6953847E-012  0.5930194E+02  0.7816164E-02  0.1266605E+00
        -11   -1    0    0    0    0  0.00000000000E+00  0.00000000000E+00  0.45593999997E+02  0.45594000000E+02  0.51100000000E-03 0. -1.
         11   -1    0    0    0    0 -0.00000000000E+00 -0.00000000000E+00 -0.45593999997E+02  0.45594000000E+02  0.51100000000E-03 0.  1.
    9900012    2    1    2    0    0  0.86951603072E+01 -0.25067643321E+02  0.17684132925E+02  0.59301935462E+02  0.49999984378E+02 0.  0.
        -12    1    1    2    0    0 -0.86951603072E+01  0.25067643321E+02 -0.17684132925E+02  0.31886064538E+02  0.00000000000E+00 0.  1.
         11    1    3    3    0    0 -0.40663050529E+01 -0.33836490113E+02 -0.12108475673E+00  0.34080163757E+02  0.51100000000E-03 0. -1.
        -11    1    3    3    0    0  0.28000388052E+00 -0.10571241593E+01 -0.30175838190E+00  0.11344479025E+01  0.51100000000E-03 0.  1.
        -12    1    3    3    0    0  0.12481461480E+02  0.98259709508E+01  0.18106976063E+02  0.24087323802E+02  0.00000000000E+00 0.  1.
</event>
<event>
 7    1  0.6953847E-012  0.5930195E+02  0.7816164E-02  0.1266605E+00
        -11   -1    0    0    0    0  0.00000000000E+00  0.00000000000E+00  0.45593999997E+02  0.45594000000E+02  0.51100000000E-03 0.  1.
         11   -1    0    0    0    0 -0.00000000000E+00 -0.00000000000E+00 -0.45593999997E+02  0.45594000000E+02  0.51100000000E-03 0. -1.
    9900012    2    1    2    0    0  0.19587621212E+02 -0.17811801152E+02 -0.17770345960E+02  0.59301947241E+02  0.50000005860E+02 0.  0.
        -12    1    1    2    0    0 -0.19587621212E+02  0.17811801152E+02  0.17770345960E+02  0.31886052759E+02  0.00000000000E+00 0.  1.
         11    1    3    3    0    0 -0.15093509522E+02 -0.16180970839E+01 -0.10820165189E+02  0.18641572971E+02  0.51100000000E-03 0. -1.
        -11    1    3    3    0    0  0.11454266755E+02 -0.15496459656E+01  0.21032867244E+01  0.11748423078E+02  0.51100000000E-03 0.  1.
        -12    1    3    3    0    0  0.23226863979E+02 -0.14644058102E+02 -0.90534674955E+01  0.28911951192E+02  0.00000000000E+00 0.  1.
</event>
<event>
 7    1  0.6953847E-012  0.5930196E+02  0.7816164E-02  0.1266605E+00
        -11   -1    0    0    0    0  0.00000000000E+00  0.00000000000E+00  0.45593999997E+02  0.45594000000E+02  0.51100000000E-03 0.  1.
         11   -1    0    0    0    0 -0.00000000000E+00 -0.00000000000E+00 -0.45593999997E+02  0.45594000000E+02  0.51100000000E-03 0. -1.
    9900012    2    1    2    0    0  0.11725790465E+02  0.29310612369E+02  0.44847853577E+01  0.59301961375E+02  0.50000031638E+02 0.  0.
        -12    1    1    2    0    0 -0.11725790465E+02 -0.29310612369E+02 -0.44847853577E+01  0.31886038625E+02  0.00000000000E+00 0.  1.
         11    1    3    3    0    0  0.53559167081E+01  0.23671167893E+01 -0.77534900272E+01  0.97162592360E+01  0.51100000000E-03 0. -1.
        -11    1    3    3    0    0 -0.11440841647E+02  0.71594651555E+01 -0.84047973925E+01  0.15899415661E+02  0.51100000000E-03 0.  1.
         12    1    3    3    0    0  0.17810715403E+02  0.19784030424E+02  0.20643072777E+02  0.33686286478E+02  0.00000000000E+00 0. -1.
</event>
<event>
 7    1  0.6953847E-012  0.5930195E+02  0.7816164E-02  0.1266605E+00
        -11   -1    0    0    0    0  0.00000000000E+00  0.00000000000E+00  0.45593999997E+02  0.45594000000E+02  0.51100000000E-03 0. -1.
         11   -1    0    0    0    0 -0.00000000000E+00 -0.00000000000E+00 -0.45593999997E+02  0.45594000000E+02  0.51100000000E-03 0.  1.
    9900012    2    1    2    0    0  0.61133105560E+01 -0.31294461410E+02 -0.63733452379E-01  0.59301953791E+02  0.50000017806E+02 0.  0.
        -12    1    1    2    0    0 -0.61133105560E+01  0.31294461410E+02  0.63733452379E-01  0.31886046209E+02  0.00000000000E+00 0.  1.
         11    1    3    3    0    0 -0.17952797732E+01 -0.98904286799E+01  0.72372013003E+01  0.12386310664E+02  0.51100000000E-03 0. -1.
        -11    1    3    3    0    0 -0.96159911175E+01 -0.32009651486E+01  0.11568266631E+02  0.15379800264E+02  0.51100000000E-03 0.  1.
        -12    1    3    3    0    0  0.17524581447E+02 -0.18203067581E+02 -0.18869201383E+02  0.31535842863E+02  0.00000000000E+00 0.  1.
</event>
<event>
 7    1  0.6953847E-012  0.5930194E+02  0.7816164E-02  0.1266605E+00
        -11   -1    0    0    0    0  0.00000000000E+00  0.00000000000E+00  0.45593999997E+02  0.45594000000E+02  0.51100000000E-03 0.  1.
         11   -1    0    0    0    0 -0.00000000000E+00 -0.00000000000E+00 -0.45593999997E+02  0.45594000000E+02  0.51100000000E-03 0. -1.
    9900012    2    1    2    0    0 -0.29760165260E+02 -0.92081755671E+01  0.68016745868E+01  0.59301941749E+02  0.49999995844E+02 0.  0.
        -12    1    1    2    0    0  0.29760165260E+02  0.92081755671E+01 -0.68016745868E+01  0.31886058251E+02  0.00000000000E+00 0.  1.
         11    1    3    3    0    0  0.48356060546E+01 -0.65123687002E+01 -0.12713512496E+01  0.82103816150E+01  0.51100000000E-03 0. -1.
        -11    1    3    3    0    0 -0.67679379372E+00 -0.10879797885E+02 -0.71357477975E+01  0.13028697124E+02  0.51100000000E-03 0.  1.
        -12    1    3    3    0    0 -0.33918977521E+02  0.81839910179E+01  0.15208773634E+02  0.38062863010E+02  0.00000000000E+00 0.  1.
</event>
<event>
 7    1  0.6953847E-012  0.5930193E+02  0.7816164E-02  0.1266605E+00
        -11   -1    0    0    0    0  0.00000000000E+00  0.00000000000E+00  0.45593999997E+02  0.45594000000E+02  0.51100000000E-03 0. -1.
         11   -1    0    0    0    0 -0.00000000000E+00 -0.00000000000E+00 -0.45593999997E+02  0.45594000000E+02  0.51100000000E-03 0.  1.
    9900012    2    1    2    0    0 -0.82057812543E+01 -0.30239547121E+02  0.59123717027E+01  0.59301934153E+02  0.49999981991E+02 0.  0.
        -12    1    1    2    0    0  0.82057812543E+01  0.30239547121E+02 -0.59123717027E+01  0.31886065847E+02  0.00000000000E+00 0.  1.
         11    1    3    3    0    0  0.86622906704E+01 -0.13377088138E+02  0.81902472687E+01  0.17918200727E+02  0.51100000000E-03 0. -1.
        -11    1    3    3    0    0 -0.11138241889E+02 -0.27257142948E+02 -0.12881503989E+01  0.29473235414E+02  0.51100000000E-03 0.  1.
         12    1    3    3    0    0 -0.57298300360E+01  0.10394683965E+02 -0.98972516719E+00  0.11910498012E+02  0.00000000000E+00 0. -1.
</event>
<event>
 7    1  0.6953847E-012  0.5930196E+02  0.7816164E-02  0.1266605E+00
        -11   -1    0    0    0    0  0.00000000000E+00  0.00000000000E+00  0.45593999997E+02  0.45594000000E+02  0.51100000000E-03 0.  1.
         11   -1    0    0    0    0 -0.00000000000E+00 -0.00000000000E+00 -0.45593999997E+02  0.45594000000E+02  0.51100000000E-03 0. -1.
    9900012    2    1    2    0    0  0.20095329088E+02 -0.22045432768E+02 -0.11264819460E+02  0.59301960507E+02  0.50000030054E+02 0.  0.
        -12    1    1    2    0    0 -0.20095329088E+02  0.22045432768E+02  0.11264819460E+02  0.31886039493E+02  0.00000000000E+00 0.  1.
         11    1    3    3    0    0 -0.35622323185E+01 -0.50996489348E+01  0.17127340946E+01  0.64520831278E+01  0.51100000000E-03 0. -1.
        -11    1    3    3    0    0  0.42951342215E+01  0.58364744946E+01  0.11914728859E+02  0.13945371151E+02  0.51100000000E-03 0.  1.
         12    1    3    3    0    0  0.19362427185E+02 -0.22782258328E+02 -0.24892282413E+02  0.38904506227E+02  0.00000000000E+00 0. -1.
</event>
<event>
 7    1  0.6953847E-012  0.5930201E+02  0.7816164E-02  0.1266605E+00
        -11   -1    0    0    0    0  0.00000000000E+00  0.00000000000E+00  0.45593999997E+02  0.45594000000E+02  0.51100000000E-03 0. -1.
         11   -1    0    0    0    0 -0.00000000000E+00 -0.00000000000E+00 -0.45593999997E+02  0.45594000000E+02  0.51100000000E-03 0.  1.
    9900012    2    1    2    0    0 -0.13410124189E+01  0.26744751751E+02  0.17310014133E+02  0.59302005428E+02  0.50000111980E+02 0.  0.
        -12    1    1    2    0    0  0.13410124189E+01 -0.26744751751E+02 -0.17310014133E+02  0.31885994572E+02  0.00000000000E+00 0.  1.
         11    1    3    3    0    0  0.80709767437E+00 -0.39171624733E+01  0.12649774856E+02  0.13266965466E+02  0.51100000000E-03 0. -1.
        -11    1    3    3    0    0 -0.66260374232E+01 -0.26470874018E+01 -0.74456594580E+01  0.10312579147E+02  0.51100000000E-03 0.  1.
        -12    1    3    3    0    0  0.44779273300E+01  0.33309001626E+02  0.12105898735E+02  0.35722460815E+02  0.00000000000E+00 0.  1.
</event>
<event>
 7    1  0.6953847E-012  0.5930193E+02  0.7816164E-02  0.1266605E+00
        -11   -1    0    0    0    0  0.00000000000E+00  0.00000000000E+00  0.45593999997E+02  0.45594000000E+02  0.51100000000E-03 0.  1.
         11   -1    0    0    0    0 -0.00000000000E+00 -0.00000000000E+00 -0.45593999997E+02  0.45594000000E+02  0.51100000000E-03 0. -1.
    9900012    2    1    2    0    0  0.25013591500E+02 -0.53550667524E+01 -0.19035878459E+02  0.59301934574E+02  0.49999982758E+02 0.  0.
        -12    1    1    2    0    0 -0.25013591500E+02  0.53550667524E+01  0.19035878459E+02  0.31886065426E+02  0.00000000000E+00 0.  1.
         11    1    3    3    0    0  0.18467165242E+02 -0.36684058547E+01  0.47537897629E+01  0.19418854523E+02  0.51100000000E-03 0. -1.
        -11    1    3    3    0    0  0.92492643496E+01  0.12731322049E+02 -0.60388091673E+01  0.16855345400E+02  0.51100000000E-03 0.  1.
         12    1    3    3    0    0 -0.27028380915E+01 -0.14417982947E+02 -0.17750859054E+02  0.23027734651E+02  0.00000000000E+00 0. -1.
</event>
<event>
 7    1  0.6953847E-012  0.5930205E+02  0.7816164E-02  0.1266604E+00
        -11   -1    0    0    0    0  0.00000000000E+00  0.00000000000E+00  0.45593999997E+02  0.45594000000E+02  0.51100000000E-03 0.  1.
         11   -1    0    0    0    0 -0.00000000000E+00 -0.00000000000E+00 -0.45593999997E+02  0.45594000000E+02  0.51100000000E-03 0. -1.
    9900012    2    1    2    0    0  0.12727911588E+02 -0.26094415243E+02  0.13183160651E+02  0.59302047528E+02  0.50000188760E+02 0.  0.
        -12    1    1    2    0    0 -0.12727911588E+02  0.26094415243E+02 -0.13183160651E+02  0.31885952472E+02  0.00000000000E+00 0.  1.
         11    1    3    3    0    0  0.26808067335E+00 -0.19137059051E+01  0.90912743375E+01  0.92943750129E+01  0.51100000000E-03 0.  1.
        -11    1    3    3    0    0 -0.65935905841E+00 -0.12957907561E+02  0.21741160999E+02  0.25318376815E+02  0.51100000000E-03 0. -1.
         12    1    3    3    0    0  0.13119189973E+02 -0.11222801777E+02 -0.17649274685E+02  0.24689295700E+02  0.00000000000E+00 0. -1.
</event>
<event>
 7    1  0.6953847E-012  0.5930182E+02  0.7816164E-02  0.1266605E+00
        -11   -1    0    0    0    0  0.00000000000E+00  0.00000000000E+00  0.45593999997E+02  0.45594000000E+02  0.51100000000E-03 0.  1.
         11   -1    0    0    0    0 -0.00000000000E+00 -0.00000000000E+00 -0.45593999997E+02  0.45594000000E+02  0.51100000000E-03 0. -1.
    9900012    2    1    2    0    0  0.20714523935E+02  0.16586633131E+01 -0.24184408820E+02  0.59301822810E+02  0.49999778928E+02 0.  0.
        -12    1    1    2    0    0 -0.20714523935E+02 -0.16586633131E+01  0.24184408820E+02  0.31886177190E+02  0.00000000000E+00 0.  1.
         11    1    3    3    0    0 -0.65748449620E+01 -0.95916283532E+01 -0.81740065694E+01  0.14214158589E+02  0.51100000000E-03 0. -1.
        -11    1    3    3    0    0  0.16141343626E+01  0.10910491280E+02  0.48074072925E+01  0.12031434447E+02  0.51100000000E-03 0.  1.
        -12    1    3    3    0    0  0.25675234534E+02  0.33980038587E+00 -0.20817809543E+02  0.33056229774E+02  0.00000000000E+00 0.  1.
</event>
<event>
 7    1  0.6953847E-012  0.5930173E+02  0.7816164E-02  0.1266605E+00
        -11   -1    0    0    0    0  0.00000000000E+00  0.00000000000E+00  0.45593999997E+02  0.45594000000E+02  0.51100000000E-03 0.  1.
         11   -1    0    0    0    0 -0.00000000000E+00 -0.00000000000E+00 -0.45593999997E+02  0.45594000000E+02  0.51100000000E-03 0. -1.
    9900012    2    1    2    0    0  0.62565042332E+01 -0.87185574863E+01 -0.30026269628E+02  0.59301734028E+02  0.49999617010E+02 0.  0.
        -12    1    1    2    0    0 -0.62565042332E+01  0.87185574863E+01  0.30026269628E+02  0.31886265972E+02  0.00000000000E+00 0.  1.
         11    1    3    3    0    0  0.36737336486E+01  0.40154557603E+01  0.79138457399E+00  0.54996812352E+01  0.51100000000E-03 0. -1.
        -11    1    3    3    0    0  0.35176775570E+01  0.76414155535E+01  0.69280512741E+01  0.10897852163E+02  0.51100000000E-03 0.  1.
         12    1    3    3    0    0 -0.93490697240E+00 -0.20375428800E+02 -0.37745705476E+02  0.42904200630E+02  0.00000000000E+00 0. -1.
</event>
<event>
 7    1  0.6953847E-012  0.5930194E+02  0.7816164E-02  0.1266605E+00
        -11   -1    0    0    0    0  0.00000000000E+00  0.00000000000E+00  0.45593999997E+02  0.45594000000E+02  0.51100000000E-03 0. -1.
         11   -1    0    0    0    0 -0.00000000000E+00 -0.00000000000E+00 -0.45593999997E+02  0.45594000000E+02  0.51100000000E-03 0.  1.
    9900012    2    1    2    0    0 -0.76672539087E+01 -0.25095017027E+02  0.18115573444E+02  0.59301942494E+02  0.49999997202E+02 0.  0.
        -12    1    1    2    0    0  0.76672539087E+01  0.25095017027E+02 -0.18115573444E+02  0.31886057506E+02  0.00000000000E+00 0.  1.
         11    1    3    3    0    0 -0.10467234933E+02 -0.31862010269E+02  0.25193505369E+02  0.41945958310E+02  0.51100000000E-03 0. -1.
        -11    1    3    3    0    0  0.27268769335E+01  0.62364937089E+01  0.28748489737E+01  0.73888069723E+01  0.51100000000E-03 0.  1.
        -12    1    3    3    0    0  0.73104090543E-01  0.53049953285E+00 -0.99527808980E+01  0.99671772115E+01  0.00000000000E+00 0.  1.
</event>
<event>
 7    1  0.6953847E-012  0.5930194E+02  0.7816164E-02  0.1266605E+00
        -11   -1    0    0    0    0  0.00000000000E+00  0.00000000000E+00  0.45593999997E+02  0.45594000000E+02  0.51100000000E-03 0. -1.
         11   -1    0    0    0    0 -0.00000000000E+00 -0.00000000000E+00 -0.45593999997E+02  0.45594000000E+02  0.51100000000E-03 0.  1.
    9900012    2    1    2    0    0  0.27913340478E+02  0.12432462758E+02 -0.91104322475E+01  0.59301942191E+02  0.49999996650E+02 0.  0.
        -12    1    1    2    0    0 -0.27913340478E+02 -0.12432462758E+02  0.91104322475E+01  0.31886057809E+02  0.00000000000E+00 0.  1.
         11    1    3    3    0    0  0.30853159938E+01  0.79619522625E+01  0.58420036466E+01  0.10346055552E+02  0.51100000000E-03 0. -1.
        -11    1    3    3    0    0 -0.54155572255E+01 -0.89020949014E+01  0.36179232116E+01  0.11030182334E+02  0.51100000000E-03 0.  1.
         12    1    3    3    0    0  0.30243581710E+02  0.13372605397E+02 -0.18570359106E+02  0.37925704305E+02  0.00000000000E+00 0. -1.
</event>
<event>
 7    1  0.6953847E-012  0.5930190E+02  0.7816164E-02  0.1266605E+00
        -11   -1    0    0    0    0  0.00000000000E+00  0.00000000000E+00  0.45593999997E+02  0.45594000000E+02  0.51100000000E-03 0.  1.
         11   -1    0    0    0    0 -0.00000000000E+00 -0.00000000000E+00 -0.45593999997E+02  0.45594000000E+02  0.51100000000E-03 0. -1.
    9900012    2    1    2    0    0  0.22134770597E+02  0.15143922974E+02 -0.17246351408E+02  0.59301904138E+02  0.49999927251E+02 0.  0.
        -12    1    1    2    0    0 -0.22134770597E+02 -0.15143922974E+02  0.17246351408E+02  0.31886095862E+02  0.00000000000E+00 0.  1.
         11    1    3    3    0    0  0.32802537741E+01 -0.80745805251E+00  0.13005470685E+01  0.36198724104E+01  0.51100000000E-03 0. -1.
        -11    1    3    3    0    0  0.84712087146E+01  0.26267822591E+02  0.49096851946E+01  0.28033281822E+02  0.51100000000E-03 0.  1.
        -12    1    3    3    0    0  0.10383308108E+02 -0.10316441564E+02 -0.23456583671E+02  0.27648749906E+02  0.00000000000E+00 0.  1.
</event>
<event>
 7    1  0.6953847E-012  0.5930197E+02  0.7816164E-02  0.1266605E+00
        -11   -1    0    0    0    0  0.00000000000E+00  0.00000000000E+00  0.45593999997E+02  0.45594000000E+02  0.51100000000E-03 0.  1.
         11   -1    0    0    0    0 -0.00000000000E+00 -0.00000000000E+00 -0.45593999997E+02  0.45594000000E+02  0.51100000000E-03 0. -1.
    9900012    2    1    2    0    0  0.14250188611E+02  0.23613936654E+02  0.16001040502E+02  0.59301965802E+02  0.50000039710E+02 0.  0.
        -12    1    1    2    0    0 -0.14250188611E+02 -0.23613936654E+02 -0.16001040502E+02  0.31886034198E+02  0.00000000000E+00 0.  1.
         11    1    3    3    0    0  0.78045443548E+01  0.17091416790E+02 -0.47991504577E+01  0.19392248086E+02  0.51100000000E-03 0. -1.
        -11    1    3    3    0    0 -0.13411402439E+01 -0.78311513813E+01 -0.49915876718E+01  0.93830451804E+01  0.51100000000E-03 0.  1.
        -12    1    3    3    0    0  0.77867845003E+01  0.14353671246E+02  0.25791778631E+02  0.30526672535E+02  0.00000000000E+00 0.  1.
</event>
<event>
 7    1  0.6953847E-012  0.5930193E+02  0.7816164E-02  0.1266605E+00
        -11   -1    0    0    0    0  0.00000000000E+00  0.00000000000E+00  0.45593999997E+02  0.45594000000E+02  0.51100000000E-03 0. -1.
         11   -1    0    0    0    0 -0.00000000000E+00 -0.00000000000E+00 -0.45593999997E+02  0.45594000000E+02  0.51100000000E-03 0.  1.
    9900012    2    1    2    0    0 -0.18273289422E+02 -0.13781833621E+01  0.26094237423E+02  0.59301925887E+02  0.49999966915E+02 0.  0.
        -12    1    1    2    0    0  0.18273289422E+02  0.13781833621E+01 -0.26094237423E+02  0.31886074113E+02  0.00000000000E+00 0.  1.
         11    1    3    3    0    0 -0.37521785380E+01 -0.17671752349E+02  0.20729017355E+02  0.27496578617E+02  0.51100000000E-03 0. -1.
        -11    1    3    3    0    0 -0.80552944042E+00 -0.50920228142E+01  0.36985319801E+01  0.63448178137E+01  0.51100000000E-03 0.  1.
        -12    1    3    3    0    0 -0.13715581443E+02  0.21385591801E+02  0.16666880878E+01  0.25460529456E+02  0.00000000000E+00 0.  1.
</event>
<event>
 7    1  0.6953847E-012  0.5930194E+02  0.7816164E-02  0.1266605E+00
        -11   -1    0    0    0    0  0.00000000000E+00  0.00000000000E+00  0.45593999997E+02  0.45594000000E+02  0.51100000000E-03 0. -1.
         11   -1    0    0    0    0 -0.00000000000E+00 -0.00000000000E+00 -0.45593999997E+02  0.45594000000E+02  0.51100000000E-03 0.  1.
    9900012    2    1    2    0    0 -0.31295221534E+02  0.61050531175E+01  0.24130582513E+00  0.59301940461E+02  0.49999993495E+02 0.  0.
        -12    1    1    2    0    0  0.31295221534E+02 -0.61050531175E+01 -0.24130582513E+00  0.31886059539E+02  0.00000000000E+00 0.  1.
         11    1    3    3    0    0 -0.16089207427E+02 -0.98164852897E+01  0.91253626476E+01  0.20940349156E+02  0.51100000000E-03 0. -1.
        -11    1    3    3    0    0 -0.84241153881E+01  0.21421989851E+01 -0.18361364494E+02  0.20314882301E+02  0.51100000000E-03 0.  1.
         12    1    3    3    0    0 -0.67818987191E+01  0.13779339422E+02  0.94773076719E+01  0.18046709003E+02  0.00000000000E+00 0. -1.
</event>
<event>
 7    1  0.6953847E-012  0.5930194E+02  0.7816164E-02  0.1266605E+00
        -11   -1    0    0    0    0  0.00000000000E+00  0.00000000000E+00  0.45593999997E+02  0.45594000000E+02  0.51100000000E-03 0.  1.
         11   -1    0    0    0    0 -0.00000000000E+00 -0.00000000000E+00 -0.45593999997E+02  0.45594000000E+02  0.51100000000E-03 0. -1.
    9900012    2    1    2    0    0 -0.31059617297E+02  0.72109064654E+01 -0.15526059992E+00  0.59301935574E+02  0.49999984583E+02 0.  0.
        -12    1    1    2    0    0  0.31059617297E+02 -0.72109064654E+01  0.15526059992E+00  0.31886064426E+02  0.00000000000E+00 0.  1.
         11    1    3    3    0    0 -0.13809036867E+02  0.13570780411E+02 -0.26032619819E+01  0.19535417921E+02  0.51100000000E-03 0. -1.
        -11    1    3    3    0    0  0.62418422956E+01 -0.85528503239E+01 -0.86687272674E+01  0.13684249216E+02  0.51100000000E-03 0.  1.
         12    1    3    3    0    0 -0.23492422726E+02  0.21929763779E+01  0.11116728649E+02  0.26082268437E+02  0.00000000000E+00 0. -1.
</event>
<event>
 7    1  0.6953847E-012  0.5930194E+02  0.7816164E-02  0.1266605E+00
        -11   -1    0    0    0    0  0.00000000000E+00  0.00000000000E+00  0.45593999997E+02  0.45594000000E+02  0.51100000000E-03 0.  1.
         11   -1    0    0    0    0 -0.00000000000E+00 -0.00000000000E+00 -0.45593999997E+02  0.45594000000E+02  0.51100000000E-03 0. -1.
    9900012    2    1    2    0    0  0.27538380671E+02  0.50754420178E+01 -0.15251177018E+02  0.59301938435E+02  0.49999989800E+02 0.  0.
        -12    1    1    2    0    0 -0.27538380671E+02 -0.50754420178E+01  0.15251177018E+02  0.31886061565E+02  0.00000000000E+00 0.  1.
         11    1    3    3    0    0  0.82195733839E+01  0.26387778067E+01  0.88626330699E+01  0.12372178471E+02  0.51100000000E-03 0. -1.
        -11    1    3    3    0    0  0.60498222015E+00 -0.14333342727E+02 -0.44451188964E+01  0.15018981306E+02  0.51100000000E-03 0.  1.
         12    1    3    3    0    0  0.18713825067E+02  0.16770006938E+02 -0.19668691192E+02  0.31910778658E+02  0.00000000000E+00 0. -1.
</event>
<event>
 7    1  0.6953847E-012  0.5930201E+02  0.7816164E-02  0.1266605E+00
        -11   -1    0    0    0    0  0.00000000000E+00  0.00000000000E+00  0.45593999997E+02  0.45594000000E+02  0.51100000000E-03 0. -1.
         11   -1    0    0    0    0 -0.00000000000E+00 -0.00000000000E+00 -0.45593999997E+02  0.45594000000E+02  0.51100000000E-03 0.  1.
    9900012    2    1    2    0    0  0.19723357994E+02  0.15710519862E+02  0.19516275577E+02  0.59302010956E+02  0.50000122061E+02 0.  0.
        -12    1    1    2    0    0 -0.19723357994E+02 -0.15710519862E+02 -0.19516275577E+02  0.31885989044E+02  0.00000000000E+00 0.  1.
         11    1    3    3    0    0  0.13524535503E+02  0.10469418959E+02  0.15427710303E+02  0.23033367955E+02  0.51100000000E-03 0. -1.
        -11    1    3    3    0    0  0.20641555195E+02  0.47369913642E+01  0.50941306982E+01  0.21782172892E+02  0.51100000000E-03 0.  1.
         12    1    3    3    0    0 -0.14442732705E+02  0.50410953843E+00 -0.10055654233E+01  0.14486470109E+02  0.00000000000E+00 0. -1.
</event>
<event>
 7    1  0.6953847E-012  0.5930196E+02  0.7816164E-02  0.1266605E+00
        -11   -1    0    0    0    0  0.00000000000E+00  0.00000000000E+00  0.45593999997E+02  0.45594000000E+02  0.51100000000E-03 0. -1.
         11   -1    0    0    0    0 -0.00000000000E+00 -0.00000000000E+00 -0.45593999997E+02  0.45594000000E+02  0.51100000000E-03 0.  1.
    9900012    2    1    2    0    0  0.17517859585E+02 -0.11688201068E+02  0.23942225735E+02  0.59301958825E+02  0.50000026987E+02 0.  0.
        -12    1    1    2    0    0 -0.17517859585E+02  0.11688201068E+02 -0.23942225735E+02  0.31886041175E+02  0.00000000000E+00 0.  1.
         11    1    3    3    0    0  0.10420171577E+02 -0.69134907349E+00  0.16681903702E+02  0.19681053088E+02  0.51100000000E-03 0. -1.
        -11    1    3    3    0    0  0.17742006554E+02 -0.10922492552E+01 -0.71409399818E+01  0.19156326085E+02  0.51100000000E-03 0.  1.
        -12    1    3    3    0    0 -0.10644318546E+02 -0.99046027395E+01  0.14401262014E+02  0.20464579652E+02  0.00000000000E+00 0.  1.
</event>
<event>
 7    1  0.6953847E-012  0.5930195E+02  0.7816164E-02  0.1266605E+00
        -11   -1    0    0    0    0  0.00000000000E+00  0.00000000000E+00  0.45593999997E+02  0.45594000000E+02  0.51100000000E-03 0. -1.
         11   -1    0    0    0    0 -0.00000000000E+00 -0.00000000000E+00 -0.45593999997E+02  0.45594000000E+02  0.51100000000E-03 0.  1.
    9900012    2    1    2    0    0  0.26254157625E+02 -0.13485480767E+02  0.12065715505E+02  0.59301945450E+02  0.50000002593E+02 0.  0.
        -12    1    1    2    0    0 -0.26254157625E+02  0.13485480767E+02 -0.12065715505E+02  0.31886054550E+02  0.00000000000E+00 0.  1.
         11    1    3    3    0    0  0.14039889864E+02  0.55833875223E+01 -0.55151338505E+00  0.15119420984E+02  0.51100000000E-03 0.  1.
        -11    1    3    3    0    0  0.10323702275E+02  0.36610658402E+01  0.17699469103E+02  0.20814740895E+02  0.51100000000E-03 0. -1.
         12    1    3    3    0    0  0.18905654861E+01 -0.22729934130E+02 -0.50822402127E+01  0.23367783570E+02  0.00000000000E+00 0. -1.
</event>
<event>
 7    1  0.6953847E-012  0.5930197E+02  0.7816164E-02  0.1266605E+00
        -11   -1    0    0    0    0  0.00000000000E+00  0.00000000000E+00  0.45593999997E+02  0.45594000000E+02  0.51100000000E-03 0. -1.
         11   -1    0    0    0    0 -0.00000000000E+00 -0.00000000000E+00 -0.45593999997E+02  0.45594000000E+02  0.51100000000E-03 0.  1.
    9900012    2    1    2    0    0 -0.31610880716E+02  0.41196990310E+01 -0.70677284565E+00  0.59301965007E+02  0.50000038260E+02 0.  0.
        -12    1    1    2    0    0  0.31610880716E+02 -0.41196990310E+01  0.70677284565E+00  0.31886034993E+02  0.00000000000E+00 0.  1.
         11    1    3    3    0    0 -0.31037435323E+01 -0.12051568715E+02 -0.13547359002E+02  0.18395773118E+02  0.51100000000E-03 0. -1.
        -11    1    3    3    0    0 -0.86502036800E+01 -0.28143947516E+01 -0.25089416262E+01  0.94361872527E+01  0.51100000000E-03 0.  1.
         12    1    3    3    0    0 -0.19856933504E+02  0.18985662497E+02  0.15349527783E+02  0.31470004636E+02  0.00000000000E+00 0. -1.
</event>
<event>
 7    1  0.6953847E-012  0.5930191E+02  0.7816164E-02  0.1266605E+00
        -11   -1    0    0    0    0  0.00000000000E+00  0.00000000000E+00  0.45593999997E+02  0.45594000000E+02  0.51100000000E-03 0.  1.
         11   -1    0    0    0    0 -0.00000000000E+00 -0.00000000000E+00 -0.45593999997E+02  0.45594000000E+02  0.51100000000E-03 0. -1.
    9900012    2    1    2    0    0  0.79692769298E+01 -0.17474201068E+02 -0.25453208624E+02  0.59301907310E+02  0.49999933036E+02 0.  0.
        -12    1    1    2    0    0 -0.79692769298E+01  0.17474201068E+02  0.25453208624E+02  0.31886092690E+02  0.00000000000E+00 0.  1.
         11    1    3    3    0    0 -0.82388804706E+01 -0.81814872114E+01 -0.20390653572E+02  0.23464753094E+02  0.51100000000E-03 0. -1.
        -11    1    3    3    0    0  0.14176355545E+02 -0.17095960501E+02 -0.11961333166E+02  0.25225273306E+02  0.51100000000E-03 0.  1.
         12    1    3    3    0    0  0.20318018553E+01  0.78032466442E+01  0.68987781149E+01  0.10611880910E+02  0.00000000000E+00 0. -1.
</event>
<event>
 7    1  0.6953847E-012  0.5930195E+02  0.7816164E-02  0.1266605E+00
        -11   -1    0    0    0    0  0.00000000000E+00  0.00000000000E+00  0.45593999997E+02  0.45594000000E+02  0.51100000000E-03 0. -1.
         11   -1    0    0    0    0 -0.00000000000E+00 -0.00000000000E+00 -0.45593999997E+02  0.45594000000E+02  0.51100000000E-03 0.  1.
    9900012    2    1    2    0    0  0.12456121823E+01 -0.26358395710E+02  0.17899829484E+02  0.59301945530E+02  0.50000002740E+02 0.  0.
        -12    1    1    2    0    0 -0.12456121823E+01  0.26358395710E+02 -0.17899829484E+02  0.31886054470E+02  0.00000000000E+00 0.  1.
         11    1    3    3    0    0 -0.52444950005E+01  0.10177568039E+02  0.41712368709E+01  0.12185517482E+02  0.51100000000E-03 0. -1.
        -11    1    3    3    0    0 -0.57150413867E+01  0.69380702903E+00  0.56426643260E+00  0.57845884135E+01  0.51100000000E-03 0.  1.
         12    1    3    3    0    0  0.12205148570E+02 -0.37229770778E+02  0.13164326180E+02  0.41331839635E+02  0.00000000000E+00 0. -1.
</event>
<event>
 7    1  0.6953847E-012  0.5930189E+02  0.7816164E-02  0.1266605E+00
        -11   -1    0    0    0    0  0.00000000000E+00  0.00000000000E+00  0.45593999997E+02  0.45594000000E+02  0.51100000000E-03 0.  1.
         11   -1    0    0    0    0 -0.00000000000E+00 -0.00000000000E+00 -0.45593999997E+02  0.45594000000E+02  0.51100000000E-03 0. -1.
    9900012    2    1    2    0    0  0.27355972127E+02 -0.61997944812E+01 -0.15163675231E+02  0.59301894732E+02  0.49999910097E+02 0.  0.
        -12    1    1    2    0    0 -0.27355972127E+02  0.61997944812E+01  0.15163675231E+02  0.31886105268E+02  0.00000000000E+00 0.  1.
         11    1    3    3    0    0 -0.66784195583E+01  0.35639539838E+01 -0.88438073042E+01  0.11641133265E+02  0.51100000000E-03 0. -1.
        -11    1    3    3    0    0  0.20541873696E+02 -0.62941669773E+01 -0.19106098771E+02  0.28751141253E+02  0.51100000000E-03 0.  1.
        -12    1    3    3    0    0  0.13492517990E+02 -0.34695814877E+01  0.12786230845E+02  0.18909620214E+02  0.00000000000E+00 0.  1.
</event>
<event>
 7    1  0.6953847E-012  0.5930196E+02  0.7816164E-02  0.1266605E+00
        -11   -1    0    0    0    0  0.00000000000E+00  0.00000000000E+00  0.45593999997E+02  0.45594000000E+02  0.51100000000E-03 0.  1.
         11   -1    0    0    0    0 -0.00000000000E+00 -0.00000000000E+00 -0.45593999997E+02  0.45594000000E+02  0.51100000000E-03 0. -1.
    9900012    2    1    2    0    0 -0.59760682626E+01 -0.41993713959E+00 -0.31318206027E+02  0.59301956535E+02  0.50000022810E+02 0.  0.
        -12    1    1    2    0    0  0.59760682626E+01  0.41993713959E+00  0.31318206027E+02  0.31886043465E+02  0.00000000000E+00 0.  1.
         11    1    3    3    0    0 -0.14880746625E+01  0.74826916213E+01  0.32345765666E+00  0.76360765592E+01  0.51100000000E-03 0. -1.
        -11    1    3    3    0    0 -0.11465997391E+02 -0.16484045170E+02 -0.21814128626E+01  0.20197806903E+02  0.51100000000E-03 0.  1.
         12    1    3    3    0    0  0.69780037912E+01  0.85814164089E+01 -0.29460250821E+02  0.31468073073E+02  0.00000000000E+00 0. -1.
</event>
<event>
 7    1  0.6953847E-012  0.5930169E+02  0.7816164E-02  0.1266606E+00
        -11   -1    0    0    0    0  0.00000000000E+00  0.00000000000E+00  0.45593999997E+02  0.45594000000E+02  0.51100000000E-03 0.  1.
         11   -1    0    0    0    0 -0.00000000000E+00 -0.00000000000E+00 -0.45593999997E+02  0.45594000000E+02  0.51100000000E-03 0. -1.
    9900012    2    1    2    0    0 -0.24857759674E+02  0.71304913713E+01 -0.18654342339E+02  0.59301692417E+02  0.49999541120E+02 0.  0.
        -12    1    1    2    0    0  0.24857759674E+02 -0.71304913713E+01  0.18654342339E+02  0.31886307583E+02  0.00000000000E+00 0.  1.
         11    1    3    3    0    0 -0.88115822636E+01 -0.11904958660E+02  0.54666468896E+01  0.15787851379E+02  0.51100000000E-03 0. -1.
        -11    1    3    3    0    0 -0.56807944512E+01  0.11185363599E+02  0.34667921016E+01  0.13015468957E+02  0.51100000000E-03 0.  1.
         12    1    3    3    0    0 -0.10365382959E+02  0.78500864325E+01 -0.27587781330E+02  0.30498372081E+02  0.00000000000E+00 0. -1.
</event>
<event>
 7    1  0.6953847E-012  0.5930195E+02  0.7816164E-02  0.1266605E+00
        -11   -1    0    0    0    0  0.00000000000E+00  0.00000000000E+00  0.45593999997E+02  0.45594000000E+02  0.51100000000E-03 0.  1.
         11   -1    0    0    0    0 -0.00000000000E+00 -0.00000000000E+00 -0.45593999997E+02  0.45594000000E+02  0.51100000000E-03 0. -1.
    9900012    2    1    2    0    0 -0.64813568210E+01  0.29782111863E+02 -0.93668717785E+01  0.59301945679E+02  0.50000003011E+02 0.  0.
        -12    1    1    2    0    0  0.64813568210E+01 -0.29782111863E+02  0.93668717785E+01  0.31886054321E+02  0.00000000000E+00 0.  1.
         11    1    3    3    0    0  0.12977875553E+02  0.71002801471E+01 -0.12964863636E+02  0.19670458088E+02  0.51100000000E-03 0. -1.
        -11    1    3    3    0    0 -0.35498225586E+01  0.18146438470E+02 -0.72366086353E+01  0.19856056359E+02  0.51100000000E-03 0.  1.
        -12    1    3    3    0    0 -0.15909409815E+02  0.45353932460E+01  0.10834600493E+02  0.19775431232E+02  0.00000000000E+00 0.  1.
</event>
<event>
 7    1  0.6953847E-012  0.5930195E+02  0.7816164E-02  0.1266605E+00
        -11   -1    0    0    0    0  0.00000000000E+00  0.00000000000E+00  0.45593999997E+02  0.45594000000E+02  0.51100000000E-03 0.  1.
         11   -1    0    0    0    0 -0.00000000000E+00 -0.00000000000E+00 -0.45593999997E+02  0.45594000000E+02  0.51100000000E-03 0. -1.
    9900012    2    1    2    0    0 -0.94371694803E+01 -0.25891546814E+02 -0.16040198722E+02  0.59301947575E+02  0.50000006469E+02 0.  0.
        -12    1    1    2    0    0  0.94371694803E+01  0.25891546814E+02  0.16040198722E+02  0.31886052425E+02  0.00000000000E+00 0.  1.
         11    1    3    3    0    0  0.43227028440E+01  0.10544041065E+01 -0.29294803249E+01  0.53272303434E+01  0.51100000000E-03 0. -1.
        -11    1    3    3    0    0  0.27523362234E+00 -0.74061286745E+01  0.15146983099E+02  0.16862905821E+02  0.51100000000E-03 0.  1.
         12    1    3    3    0    0 -0.14035105947E+02 -0.19539822246E+02 -0.28257701496E+02  0.37111811410E+02  0.00000000000E+00 0. -1.
</event>
<event>
 7    1  0.6953847E-012  0.5930195E+02  0.7816164E-02  0.1266605E+00
        -11   -1    0    0    0    0  0.00000000000E+00  0.00000000000E+00  0.45593999997E+02  0.45594000000E+02  0.51100000000E-03 0.  1.
         11   -1    0    0    0    0 -0.00000000000E+00 -0.00000000000E+00 -0.45593999997E+02  0.45594000000E+02  0.51100000000E-03 0. -1.
    9900012    2    1    2    0    0 -0.14167176194E+02 -0.28564925168E+02 -0.23688717214E+00  0.59301953731E+02  0.50000017696E+02 0.  0.
        -12    1    1    2    0    0  0.14167176194E+02  0.28564925168E+02  0.23688717214E+00  0.31886046269E+02  0.00000000000E+00 0.  1.
         11    1    3    3    0    0  0.26012092358E+01  0.13206332288E+00  0.67922611244E+00  0.26916683642E+01  0.51100000000E-03 0. -1.
        -11    1    3    3    0    0  0.81829589529E+01  0.61276776379E+01 -0.82621715601E+01  0.13144304075E+02  0.51100000000E-03 0.  1.
         12    1    3    3    0    0 -0.24951344383E+02 -0.34824666129E+02  0.73460582755E+01  0.43465981292E+02  0.00000000000E+00 0. -1.
</event>
<event>
 7    1  0.6953847E-012  0.5930221E+02  0.7816164E-02  0.1266604E+00
        -11   -1    0    0    0    0  0.00000000000E+00  0.00000000000E+00  0.45593999997E+02  0.45594000000E+02  0.51100000000E-03 0.  1.
         11   -1    0    0    0    0 -0.00000000000E+00 -0.00000000000E+00 -0.45593999997E+02  0.45594000000E+02  0.51100000000E-03 0. -1.
    9900012    2    1    2    0    0 -0.53537499869E+01  0.14517401238E+02 -0.27879854078E+02  0.59302206282E+02  0.50000478286E+02 0.  0.
        -12    1    1    2    0    0  0.53537499869E+01 -0.14517401238E+02  0.27879854078E+02  0.31885793718E+02  0.00000000000E+00 0.  1.
         11    1    3    3    0    0 -0.21701861783E+01  0.41967060369E+01  0.14324418440E+01  0.49369970130E+01  0.51100000000E-03 0. -1.
        -11    1    3    3    0    0 -0.25274576269E+01  0.17079714257E+02  0.60970185850E+01  0.18310606681E+02  0.51100000000E-03 0.  1.
         12    1    3    3    0    0 -0.65610618162E+00 -0.67590190551E+01 -0.35409314507E+02  0.36054602588E+02  0.00000000000E+00 0. -1.
</event>
<event>
 7    1  0.6953847E-012  0.5930195E+02  0.7816164E-02  0.1266605E+00
        -11   -1    0    0    0    0  0.00000000000E+00  0.00000000000E+00  0.45593999997E+02  0.45594000000E+02  0.51100000000E-03 0. -1.
         11   -1    0    0    0    0 -0.00000000000E+00 -0.00000000000E+00 -0.45593999997E+02  0.45594000000E+02  0.51100000000E-03 0.  1.
    9900012    2    1    2    0    0 -0.17143216673E+02  0.19853325957E+02  0.18129418932E+02  0.59301948813E+02  0.50000008728E+02 0.  0.
        -12    1    1    2    0    0  0.17143216673E+02 -0.19853325957E+02 -0.18129418932E+02  0.31886051187E+02  0.00000000000E+00 0.  1.
         11    1    3    3    0    0 -0.12165593324E+02  0.10764646546E+02 -0.74564109984E+01  0.17873929098E+02  0.51100000000E-03 0. -1.
        -11    1    3    3    0    0 -0.14274785436E+02 -0.28714447346E+01  0.40783293447E+01  0.15121093367E+02  0.51100000000E-03 0.  1.
         12    1    3    3    0    0  0.92971620862E+01  0.11960124146E+02  0.21507500586E+02  0.26306926348E+02  0.00000000000E+00 0. -1.
</event>
<event>
 7    1  0.6953847E-012  0.5930193E+02  0.7816164E-02  0.1266605E+00
        -11   -1    0    0    0    0  0.00000000000E+00  0.00000000000E+00  0.45593999997E+02  0.45594000000E+02  0.51100000000E-03 0.  1.
         11   -1    0    0    0    0 -0.00000000000E+00 -0.00000000000E+00 -0.45593999997E+02  0.45594000000E+02  0.51100000000E-03 0. -1.
    9900012    2    1    2    0    0 -0.30322612429E+02 -0.64754367240E+01 -0.74383688363E+01  0.59301930373E+02  0.49999975098E+02 0.  0.
        -12    1    1    2    0    0  0.30322612429E+02  0.64754367240E+01  0.74383688363E+01  0.31886069627E+02  0.00000000000E+00 0.  1.
         11    1    3    3    0    0  0.41464854263E+00  0.15632757057E+01  0.46927328774E+00  0.16840374181E+01  0.51100000000E-03 0. -1.
        -11    1    3    3    0    0  0.11444006038E+02  0.53302658294E+01 -0.37717751449E+01  0.13175860352E+02  0.51100000000E-03 0.  1.
         12    1    3    3    0    0 -0.42181267010E+02 -0.13368978259E+02 -0.41358669791E+01  0.44442032603E+02  0.00000000000E+00 0. -1.
</event>
<event>
 7    1  0.6953847E-012  0.5930195E+02  0.7816164E-02  0.1266605E+00
        -11   -1    0    0    0    0  0.00000000000E+00  0.00000000000E+00  0.45593999997E+02  0.45594000000E+02  0.51100000000E-03 0. -1.
         11   -1    0    0    0    0 -0.00000000000E+00 -0.00000000000E+00 -0.45593999997E+02  0.45594000000E+02  0.51100000000E-03 0.  1.
    9900012    2    1    2    0    0  0.22984805727E+02 -0.82587522284E+01  0.20499076285E+02  0.59301946447E+02  0.50000004412E+02 0.  0.
        -12    1    1    2    0    0 -0.22984805727E+02  0.82587522284E+01 -0.20499076285E+02  0.31886053553E+02  0.00000000000E+00 0.  1.
         11    1    3    3    0    0 -0.47977253778E+01 -0.10108270359E+02 -0.16635235889E+01  0.11312055933E+02  0.51100000000E-03 0. -1.
        -11    1    3    3    0    0  0.25380258568E+02  0.95257232871E+01  0.30824327456E+01  0.27283663996E+02  0.51100000000E-03 0.  1.
         12    1    3    3    0    0  0.24022725360E+01 -0.76762051567E+01  0.19080167128E+02  0.20706226517E+02  0.00000000000E+00 0. -1.
</event>
<event>
 7    1  0.6953847E-012  0.5930197E+02  0.7816164E-02  0.1266605E+00
        -11   -1    0    0    0    0  0.00000000000E+00  0.00000000000E+00  0.45593999997E+02  0.45594000000E+02  0.51100000000E-03 0.  1.
         11   -1    0    0    0    0 -0.00000000000E+00 -0.00000000000E+00 -0.45593999997E+02  0.45594000000E+02  0.51100000000E-03 0. -1.
    9900012    2    1    2    0    0 -0.15038920283E+02 -0.94299117547E+01 -0.26488234476E+02  0.59301969758E+02  0.50000046925E+02 0.  0.
        -12    1    1    2    0    0  0.15038920283E+02  0.94299117547E+01  0.26488234476E+02  0.31886030242E+02  0.00000000000E+00 0.  1.
         11    1    3    3    0    0  0.38610978624E+01  0.32206278217E+01 -0.70846851521E+01  0.86875361429E+01  0.51100000000E-03 0. -1.
        -11    1    3    3    0    0 -0.54042289147E-01 -0.22279124231E+02 -0.57303996895E+00  0.22286558104E+02  0.51100000000E-03 0.  1.
         12    1    3    3    0    0 -0.18845975856E+02  0.96285846544E+01 -0.18830509355E+02  0.28327875511E+02  0.00000000000E+00 0. -1.
</event>
<event>
 7    1  0.6953847E-012  0.5930193E+02  0.7816164E-02  0.1266605E+00
        -11   -1    0    0    0    0  0.00000000000E+00  0.00000000000E+00  0.45593999997E+02  0.45594000000E+02  0.51100000000E-03 0.  1.
         11   -1    0    0    0    0 -0.00000000000E+00 -0.00000000000E+00 -0.45593999997E+02  0.45594000000E+02  0.51100000000E-03 0. -1.
    9900012    2    1    2    0    0 -0.89180930127E+01 -0.16989296997E+02 -0.25466696633E+02  0.59301933562E+02  0.49999980914E+02 0.  0.
        -12    1    1    2    0    0  0.89180930127E+01  0.16989296997E+02  0.25466696633E+02  0.31886066438E+02  0.00000000000E+00 0.  1.
         11    1    3    3    0    0  0.45983420503E+01  0.23732496746E+01 -0.28484864129E+01  0.59068552323E+01  0.51100000000E-03 0. -1.
        -11    1    3    3    0    0 -0.19073224259E+02  0.78257557588E+01 -0.94503984803E+01  0.22679073361E+02  0.51100000000E-03 0.  1.
         12    1    3    3    0    0  0.55567891957E+01 -0.27188302431E+02 -0.13167811740E+02  0.30716004969E+02  0.00000000000E+00 0. -1.
</event>
<event>
 7    1  0.6953847E-012  0.5930197E+02  0.7816164E-02  0.1266605E+00
        -11   -1    0    0    0    0  0.00000000000E+00  0.00000000000E+00  0.45593999997E+02  0.45594000000E+02  0.51100000000E-03 0.  1.
         11   -1    0    0    0    0 -0.00000000000E+00 -0.00000000000E+00 -0.45593999997E+02  0.45594000000E+02  0.51100000000E-03 0. -1.
    9900012    2    1    2    0    0 -0.23407437086E+02 -0.11394060933E+02 -0.18411579325E+02  0.59301968753E+02  0.50000045092E+02 0.  0.
        -12    1    1    2    0    0  0.23407437086E+02  0.11394060933E+02  0.18411579325E+02  0.31886031247E+02  0.00000000000E+00 0.  1.
         11    1    3    3    0    0  0.34332365851E-01 -0.11950584090E+02  0.32230114202E+01  0.12377618578E+02  0.51100000000E-03 0.  1.
        -11    1    3    3    0    0 -0.28948566898E+02  0.90915340413E+01 -0.11149868950E+02  0.32326383876E+02  0.51100000000E-03 0. -1.
         12    1    3    3    0    0  0.55067974461E+01 -0.85350108842E+01 -0.10484721796E+02  0.14597966298E+02  0.00000000000E+00 0. -1.
</event>
<event>
 7    1  0.6953847E-012  0.5930235E+02  0.7816164E-02  0.1266603E+00
        -11   -1    0    0    0    0  0.00000000000E+00  0.00000000000E+00  0.45593999997E+02  0.45594000000E+02  0.51100000000E-03 0.  1.
         11   -1    0    0    0    0 -0.00000000000E+00 -0.00000000000E+00 -0.45593999997E+02  0.45594000000E+02  0.51100000000E-03 0. -1.
    9900012    2    1    2    0    0 -0.90186057693E+00 -0.11482389748E+01 -0.31852203473E+02  0.59302350072E+02  0.50000740522E+02 0.  0.
        -12    1    1    2    0    0  0.90186057693E+00  0.11482389748E+01  0.31852203473E+02  0.31885649928E+02  0.00000000000E+00 0.  1.
         11    1    3    3    0    0  0.10733825951E+02  0.74697087965E+01 -0.20242146457E+02  0.24098880939E+02  0.51100000000E-03 0. -1.
        -11    1    3    3    0    0 -0.96923422643E+01  0.10043146469E+02 -0.19257737412E+01  0.14089531374E+02  0.51100000000E-03 0.  1.
        -12    1    3    3    0    0 -0.19433442636E+01 -0.18661094240E+02 -0.96842832749E+01  0.21113937760E+02  0.00000000000E+00 0.  1.
</event>
<event>
 7    1  0.6953847E-012  0.5930197E+02  0.7816164E-02  0.1266605E+00
        -11   -1    0    0    0    0  0.00000000000E+00  0.00000000000E+00  0.45593999997E+02  0.45594000000E+02  0.51100000000E-03 0.  1.
         11   -1    0    0    0    0 -0.00000000000E+00 -0.00000000000E+00 -0.45593999997E+02  0.45594000000E+02  0.51100000000E-03 0. -1.
    9900012    2    1    2    0    0  0.14853555818E+02  0.22103880911E+02 -0.17535939020E+02  0.59301971256E+02  0.50000049657E+02 0.  0.
        -12    1    1    2    0    0 -0.14853555818E+02 -0.22103880911E+02  0.17535939020E+02  0.31886028744E+02  0.00000000000E+00 0.  1.
         11    1    3    3    0    0 -0.21944527083E+01 -0.42130830306E+01 -0.21586466754E+02  0.22102968997E+02  0.51100000000E-03 0. -1.
        -11    1    3    3    0    0 -0.30835883924E+01 -0.33394301182E+00 -0.13186897694E+01  0.33703083358E+01  0.51100000000E-03 0.  1.
        -12    1    3    3    0    0  0.20131596919E+02  0.26650906953E+02  0.53692175031E+01  0.33828693923E+02  0.00000000000E+00 0.  1.
</event>
<event>
 7    1  0.6953847E-012  0.5930194E+02  0.7816164E-02  0.1266605E+00
        -11   -1    0    0    0    0  0.00000000000E+00  0.00000000000E+00  0.45593999997E+02  0.45594000000E+02  0.51100000000E-03 0.  1.
         11   -1    0    0    0    0 -0.00000000000E+00 -0.00000000000E+00 -0.45593999997E+02  0.45594000000E+02  0.51100000000E-03 0. -1.
    9900012    2    1    2    0    0  0.93886745985E+01 -0.32543516688E+01 -0.30298228433E+02  0.59301942519E+02  0.49999997249E+02 0.  0.
        -12    1    1    2    0    0 -0.93886745985E+01  0.32543516688E+01  0.30298228433E+02  0.31886057481E+02  0.00000000000E+00 0.  1.
         11    1    3    3    0    0 -0.58293479559E+01 -0.13099454599E+02 -0.61764464208E+00  0.14351254076E+02  0.51100000000E-03 0. -1.
        -11    1    3    3    0    0  0.16111640513E+02 -0.63330467771E+01 -0.12628694450E+02  0.21428400903E+02  0.51100000000E-03 0.  1.
         12    1    3    3    0    0 -0.89361795862E+00  0.16178149708E+02 -0.17051889341E+02  0.23522287540E+02  0.00000000000E+00 0. -1.
</event>
<event>
 7    1  0.6953847E-012  0.5930186E+02  0.7816164E-02  0.1266605E+00
        -11   -1    0    0    0    0  0.00000000000E+00  0.00000000000E+00  0.45593999997E+02  0.45594000000E+02  0.51100000000E-03 0. -1.
         11   -1    0    0    0    0 -0.00000000000E+00 -0.00000000000E+00 -0.45593999997E+02  0.45594000000E+02  0.51100000000E-03 0.  1.
    9900012    2    1    2    0    0 -0.21509159344E+02 -0.13963309543E+01  0.23497495800E+02  0.59301859050E+02  0.49999845021E+02 0.  0.
        -12    1    1    2    0    0  0.21509159344E+02  0.13963309543E+01 -0.23497495800E+02  0.31886140950E+02  0.00000000000E+00 0.  1.
         11    1    3    3    0    0 -0.29736782339E+01 -0.97584546197E+01  0.12802124606E+02  0.16369624110E+02  0.51100000000E-03 0. -1.
        -11    1    3    3    0    0 -0.28685556354E+02  0.31191925006E+01  0.12354323675E+02  0.31388211465E+02  0.51100000000E-03 0.  1.
        -12    1    3    3    0    0  0.10150075244E+02  0.52429311648E+01 -0.16589524819E+01  0.11544023476E+02  0.00000000000E+00 0.  1.
</event>
<event>
 7    1  0.6953847E-012  0.5930174E+02  0.7816164E-02  0.1266605E+00
        -11   -1    0    0    0    0  0.00000000000E+00  0.00000000000E+00  0.45593999997E+02  0.45594000000E+02  0.51100000000E-03 0.  1.
         11   -1    0    0    0    0 -0.00000000000E+00 -0.00000000000E+00 -0.45593999997E+02  0.45594000000E+02  0.51100000000E-03 0. -1.
    9900012    2    1    2    0    0 -0.11901201293E+02  0.91801771072E+01  0.28121510019E+02  0.59301740112E+02  0.49999628104E+02 0.  0.
        -12    1    1    2    0    0  0.11901201293E+02 -0.91801771072E+01 -0.28121510019E+02  0.31886259888E+02  0.00000000000E+00 0.  1.
         11    1    3    3    0    0  0.69070410356E+01 -0.35027563541E+01  0.16971976374E+02  0.18655414770E+02  0.51100000000E-03 0. -1.
        -11    1    3    3    0    0 -0.29499636291E+01 -0.55929412182E+01  0.14875988829E+02  0.16164105939E+02  0.51100000000E-03 0.  1.
         12    1    3    3    0    0 -0.15858278700E+02  0.18275874680E+02 -0.37264551850E+01  0.24482219402E+02  0.00000000000E+00 0. -1.
</event>
<event>
 7    1  0.6953847E-012  0.5930194E+02  0.7816164E-02  0.1266605E+00
        -11   -1    0    0    0    0  0.00000000000E+00  0.00000000000E+00  0.45593999997E+02  0.45594000000E+02  0.51100000000E-03 0.  1.
         11   -1    0    0    0    0 -0.00000000000E+00 -0.00000000000E+00 -0.45593999997E+02  0.45594000000E+02  0.51100000000E-03 0. -1.
    9900012    2    1    2    0    0  0.27399299976E+02  0.13399681684E+02  0.92977127539E+01  0.59301943943E+02  0.49999999846E+02 0.  0.
        -12    1    1    2    0    0 -0.27399299976E+02 -0.13399681684E+02 -0.92977127539E+01  0.31886056057E+02  0.00000000000E+00 0.  1.
         11    1    3    3    0    0  0.32175091004E+02 -0.78672516779E+00 -0.74394923987E+01  0.33033338690E+02  0.51100000000E-03 0. -1.
        -11    1    3    3    0    0 -0.19004240312E+01  0.50294555238E+01 -0.15674257216E+01  0.56003444553E+01  0.51100000000E-03 0.  1.
        -12    1    3    3    0    0 -0.28753669968E+01  0.91569513276E+01  0.18304630874E+02  0.20668260798E+02  0.00000000000E+00 0.  1.
</event>
<event>
 7    1  0.6953847E-012  0.5930192E+02  0.7816164E-02  0.1266605E+00
        -11   -1    0    0    0    0  0.00000000000E+00  0.00000000000E+00  0.45593999997E+02  0.45594000000E+02  0.51100000000E-03 0.  1.
         11   -1    0    0    0    0 -0.00000000000E+00 -0.00000000000E+00 -0.45593999997E+02  0.45594000000E+02  0.51100000000E-03 0. -1.
    9900012    2    1    2    0    0 -0.17116871472E+02 -0.24823421840E+02 -0.10369785650E+02  0.59301921293E+02  0.49999958538E+02 0.  0.
        -12    1    1    2    0    0  0.17116871472E+02  0.24823421840E+02  0.10369785650E+02  0.31886078707E+02  0.00000000000E+00 0.  1.
         11    1    3    3    0    0 -0.47081861842E+01 -0.56840937470E+01  0.14434039631E+02  0.16211645172E+02  0.51100000000E-03 0. -1.
        -11    1    3    3    0    0 -0.58022488304E+00 -0.55802434920E+01  0.54939100267E+01  0.78523134163E+01  0.51100000000E-03 0.  1.
         12    1    3    3    0    0 -0.11828460405E+02 -0.13559084601E+02 -0.30297735308E+02  0.35237962705E+02  0.00000000000E+00 0. -1.
</event>
<event>
 7    1  0.6953847E-012  0.5930225E+02  0.7816164E-02  0.1266604E+00
        -11   -1    0    0    0    0  0.00000000000E+00  0.00000000000E+00  0.45593999997E+02  0.45594000000E+02  0.51100000000E-03 0. -1.
         11   -1    0    0    0    0 -0.00000000000E+00 -0.00000000000E+00 -0.45593999997E+02  0.45594000000E+02  0.51100000000E-03 0.  1.
    9900012    2    1    2    0    0 -0.20125269763E+02  0.90708247596E+01  0.23008575285E+02  0.59302252690E+02  0.50000562923E+02 0.  0.
        -12    1    1    2    0    0  0.20125269763E+02 -0.90708247596E+01 -0.23008575285E+02  0.31885747310E+02  0.00000000000E+00 0.  1.
         11    1    3    3    0    0 -0.27825838641E+02 -0.61213443421E+01  0.98824201720E+01  0.30156431840E+02  0.51100000000E-03 0. -1.
        -11    1    3    3    0    0  0.21933487799E+01 -0.47076155587E+01  0.13103991530E+01  0.53562644931E+01  0.51100000000E-03 0.  1.
        -12    1    3    3    0    0  0.55072200984E+01  0.19899784660E+02  0.11815755960E+02  0.23789556357E+02  0.00000000000E+00 0.  1.
</event>
<event>
 7    1  0.6953847E-012  0.5930197E+02  0.7816164E-02  0.1266605E+00
        -11   -1    0    0    0    0  0.00000000000E+00  0.00000000000E+00  0.45593999997E+02  0.45594000000E+02  0.51100000000E-03 0.  1.
         11   -1    0    0    0    0 -0.00000000000E+00 -0.00000000000E+00 -0.45593999997E+02  0.45594000000E+02  0.51100000000E-03 0. -1.
    9900012    2    1    2    0    0  0.35156049878E+01  0.11306619110E+02 -0.29606080173E+02  0.59301967049E+02  0.50000041985E+02 0.  0.
        -12    1    1    2    0    0 -0.35156049878E+01 -0.11306619110E+02  0.29606080173E+02  0.31886032951E+02  0.00000000000E+00 0.  1.
         11    1    3    3    0    0  0.13179686228E+01 -0.72315785644E+01  0.39597770286E+01  0.83494074161E+01  0.51100000000E-03 0. -1.
        -11    1    3    3    0    0  0.55439176001E+01 -0.37731567637E+01  0.34969491060E+01  0.75630937870E+01  0.51100000000E-03 0.  1.
         12    1    3    3    0    0 -0.33462812350E+01  0.22311354438E+02 -0.37062806308E+02  0.43389465846E+02  0.00000000000E+00 0. -1.
</event>
<event>
 7    1  0.6953847E-012  0.5930195E+02  0.7816164E-02  0.1266605E+00
        -11   -1    0    0    0    0  0.00000000000E+00  0.00000000000E+00  0.45593999997E+02  0.45594000000E+02  0.51100000000E-03 0.  1.
         11   -1    0    0    0    0 -0.00000000000E+00 -0.00000000000E+00 -0.45593999997E+02  0.45594000000E+02  0.51100000000E-03 0. -1.
    9900012    2    1    2    0    0 -0.24666583559E+02 -0.19397958514E+02 -0.56567582341E+01  0.59301952068E+02  0.50000014664E+02 0.  0.
        -12    1    1    2    0    0  0.24666583559E+02  0.19397958514E+02  0.56567582341E+01  0.31886047932E+02  0.00000000000E+00 0.  1.
         11    1    3    3    0    0 -0.80002093861E+01 -0.81285520728E+01 -0.10685153149E+01  0.11455061513E+02  0.51100000000E-03 0. -1.
        -11    1    3    3    0    0 -0.21885955984E+02  0.51287535991E+01 -0.15649363889E+02  0.27389811485E+02  0.51100000000E-03 0.  1.
        -12    1    3    3    0    0  0.52195818108E+01 -0.16398160040E+02  0.11061120969E+02  0.20457079070E+02  0.00000000000E+00 0.  1.
</event>
<event>
 7    1  0.6953847E-012  0.5930194E+02  0.7816164E-02  0.1266605E+00
        -11   -1    0    0    0    0  0.00000000000E+00  0.00000000000E+00  0.45593999997E+02  0.45594000000E+02  0.51100000000E-03 0.  1.
         11   -1    0    0    0    0 -0.00000000000E+00 -0.00000000000E+00 -0.45593999997E+02  0.45594000000E+02  0.51100000000E-03 0. -1.
    9900012    2    1    2    0    0 -0.21927017785E+02  0.22917051789E+02 -0.32764556379E+01  0.59301944534E+02  0.50000000923E+02 0.  0.
        -12    1    1    2    0    0  0.21927017785E+02 -0.22917051789E+02  0.32764556379E+01  0.31886055466E+02  0.00000000000E+00 0.  1.
         11    1    3    3    0    0 -0.15083662008E+02  0.11522607134E+02 -0.67657137717E+01  0.20150985530E+02  0.51100000000E-03 0. -1.
        -11    1    3    3    0    0  0.58027937512E+01  0.13983670262E+02 -0.11760808747E+02  0.19171125996E+02  0.51100000000E-03 0.  1.
        -12    1    3    3    0    0 -0.12646149528E+02 -0.25892256060E+01  0.15250066881E+02  0.19979833007E+02  0.00000000000E+00 0.  1.
</event>
<event>
 7    1  0.6953847E-012  0.5930193E+02  0.7816164E-02  0.1266605E+00
        -11   -1    0    0    0    0  0.00000000000E+00  0.00000000000E+00  0.45593999997E+02  0.45594000000E+02  0.51100000000E-03 0.  1.
         11   -1    0    0    0    0 -0.00000000000E+00 -0.00000000000E+00 -0.45593999997E+02  0.45594000000E+02  0.51100000000E-03 0. -1.
    9900012    2    1    2    0    0  0.17563150289E+02  0.20774079605E+02  0.16634152683E+02  0.59301926755E+02  0.49999968499E+02 0.  0.
        -12    1    1    2    0    0 -0.17563150289E+02 -0.20774079605E+02 -0.16634152683E+02  0.31886073245E+02  0.00000000000E+00 0.  1.
         11    1    3    3    0    0  0.71009243588E+01  0.44408967996E+01 -0.17449712773E+02  0.19355546163E+02  0.51100000000E-03 0. -1.
        -11    1    3    3    0    0  0.62397489345E+01  0.14989867627E+02  0.24555573054E+02  0.29438185517E+02  0.51100000000E-03 0.  1.
        -12    1    3    3    0    0  0.42224769955E+01  0.13433151780E+01  0.95282924024E+01  0.10508195076E+02  0.00000000000E+00 0.  1.
</event>
<event>
 7    1  0.6953847E-012  0.5930202E+02  0.7816164E-02  0.1266604E+00
        -11   -1    0    0    0    0  0.00000000000E+00  0.00000000000E+00  0.45593999997E+02  0.45594000000E+02  0.51100000000E-03 0.  1.
         11   -1    0    0    0    0 -0.00000000000E+00 -0.00000000000E+00 -0.45593999997E+02  0.45594000000E+02  0.51100000000E-03 0. -1.
    9900012    2    1    2    0    0  0.22815736040E+01 -0.24117257923E+02 -0.20733255425E+02  0.59302022073E+02  0.50000142336E+02 0.  0.
        -12    1    1    2    0    0 -0.22815736040E+01  0.24117257923E+02  0.20733255425E+02  0.31885977927E+02  0.00000000000E+00 0.  1.
         11    1    3    3    0    0  0.55743256641E+00 -0.14842281456E+01  0.24517604377E+01  0.29197249458E+01  0.51100000000E-03 0. -1.
        -11    1    3    3    0    0 -0.50449127104E+01  0.78812445642E+01  0.79398853264E+01  0.12272201897E+02  0.51100000000E-03 0.  1.
         12    1    3    3    0    0  0.67690537480E+01 -0.30514274342E+02 -0.31124901189E+02  0.44110095231E+02  0.00000000000E+00 0. -1.
</event>
<event>
 7    1  0.6953847E-012  0.5930197E+02  0.7816164E-02  0.1266605E+00
        -11   -1    0    0    0    0  0.00000000000E+00  0.00000000000E+00  0.45593999997E+02  0.45594000000E+02  0.51100000000E-03 0. -1.
         11   -1    0    0    0    0 -0.00000000000E+00 -0.00000000000E+00 -0.45593999997E+02  0.45594000000E+02  0.51100000000E-03 0.  1.
    9900012    2    1    2    0    0 -0.21463739972E+02 -0.73358399194E+01  0.22410098878E+02  0.59301965241E+02  0.50000038689E+02 0.  0.
        -12    1    1    2    0    0  0.21463739972E+02  0.73358399194E+01 -0.22410098878E+02  0.31886034759E+02  0.00000000000E+00 0.  1.
         11    1    3    3    0    0 -0.17219979933E+02 -0.16988263039E+02  0.18407975736E+02  0.30397078165E+02  0.51100000000E-03 0. -1.
        -11    1    3    3    0    0 -0.26130200595E+01 -0.75216734817E+01  0.79021718346E+01  0.11218189059E+02  0.51100000000E-03 0.  1.
        -12    1    3    3    0    0 -0.16307399800E+01  0.17174096602E+02 -0.39000486929E+01  0.17686698018E+02  0.00000000000E+00 0.  1.
</event>
<event>
 7    1  0.6953847E-012  0.5930196E+02  0.7816164E-02  0.1266605E+00
        -11   -1    0    0    0    0  0.00000000000E+00  0.00000000000E+00  0.45593999997E+02  0.45594000000E+02  0.51100000000E-03 0. -1.
         11   -1    0    0    0    0 -0.00000000000E+00 -0.00000000000E+00 -0.45593999997E+02  0.45594000000E+02  0.51100000000E-03 0.  1.
    9900012    2    1    2    0    0 -0.40960863201E+01  0.31616694326E+02  0.57107447730E+00  0.59301962157E+02  0.50000033064E+02 0.  0.
        -12    1    1    2    0    0  0.40960863201E+01 -0.31616694326E+02 -0.57107447730E+00  0.31886037843E+02  0.00000000000E+00 0.  1.
         11    1    3    3    0    0  0.43047532767E+01  0.14230611064E+02 -0.10081057185E+01  0.14901592849E+02  0.51100000000E-03 0. -1.
        -11    1    3    3    0    0 -0.80603781336E+01  0.29552359871E+02  0.64279455144E+01  0.31299043969E+02  0.51100000000E-03 0.  1.
         12    1    3    3    0    0 -0.34046146320E+00 -0.12166276609E+02 -0.48487653187E+01  0.13101325339E+02  0.00000000000E+00 0. -1.
</event>
<event>
 7    1  0.6953847E-012  0.5930193E+02  0.7816164E-02  0.1266605E+00
        -11   -1    0    0    0    0  0.00000000000E+00  0.00000000000E+00  0.45593999997E+02  0.45594000000E+02  0.51100000000E-03 0. -1.
         11   -1    0    0    0    0 -0.00000000000E+00 -0.00000000000E+00 -0.45593999997E+02  0.45594000000E+02  0.51100000000E-03 0.  1.
    9900012    2    1    2    0    0  0.25496092233E+02  0.19146908269E+02 -0.25762658289E+00  0.59301934284E+02  0.49999982230E+02 0.  0.
        -12    1    1    2    0    0 -0.25496092233E+02 -0.19146908269E+02  0.25762658289E+00  0.31886065716E+02  0.00000000000E+00 0.  1.
         11    1    3    3    0    0  0.11104658828E+02  0.24489260127E+01  0.11748444486E+02  0.16350432239E+02  0.51100000000E-03 0. -1.
        -11    1    3    3    0    0 -0.18195515172E+01 -0.83079897177E+01  0.36886551750E+01  0.92703634305E+01  0.51100000000E-03 0.  1.
        -12    1    3    3    0    0  0.16210984922E+02  0.25005971974E+02 -0.15694726244E+02  0.33681138614E+02  0.00000000000E+00 0.  1.
</event>
<event>
 7    1  0.6953847E-012  0.5930195E+02  0.7816164E-02  0.1266605E+00
        -11   -1    0    0    0    0  0.00000000000E+00  0.00000000000E+00  0.45593999997E+02  0.45594000000E+02  0.51100000000E-03 0. -1.
         11   -1    0    0    0    0 -0.00000000000E+00 -0.00000000000E+00 -0.45593999997E+02  0.45594000000E+02  0.51100000000E-03 0.  1.
    9900012    2    1    2    0    0 -0.29263496299E+02  0.39363969435E+01  0.12036298455E+02  0.59301954196E+02  0.50000018544E+02 0.  0.
        -12    1    1    2    0    0  0.29263496299E+02 -0.39363969435E+01 -0.12036298455E+02  0.31886045804E+02  0.00000000000E+00 0.  1.
         11    1    3    3    0    0 -0.55391769154E+01  0.18706506728E+02 -0.56144853364E+01  0.20301190131E+02  0.51100000000E-03 0.  1.
        -11    1    3    3    0    0  0.30128618649E+01  0.66525444915E+00 -0.59089988971E+00  0.31415064920E+01  0.51100000000E-03 0. -1.
         12    1    3    3    0    0 -0.26737181248E+02 -0.15435364234E+02  0.18241683681E+02  0.35859257573E+02  0.00000000000E+00 0. -1.
</event>
<event>
 7    1  0.6953847E-012  0.5930198E+02  0.7816164E-02  0.1266605E+00
        -11   -1    0    0    0    0  0.00000000000E+00  0.00000000000E+00  0.45593999997E+02  0.45594000000E+02  0.51100000000E-03 0.  1.
         11   -1    0    0    0    0 -0.00000000000E+00 -0.00000000000E+00 -0.45593999997E+02  0.45594000000E+02  0.51100000000E-03 0. -1.
    9900012    2    1    2    0    0  0.28633806715E+02  0.92491132886E+01 -0.10548795135E+02  0.59301983278E+02  0.50000071582E+02 0.  0.
        -12    1    1    2    0    0 -0.28633806715E+02 -0.92491132886E+01  0.10548795135E+02  0.31886016722E+02  0.00000000000E+00 0.  1.
         11    1    3    3    0    0  0.12832675069E+02 -0.15810174196E+02 -0.11091187419E+02  0.23187358542E+02  0.51100000000E-03 0. -1.
        -11    1    3    3    0    0 -0.46401578220E+01  0.62475270038E+01 -0.24869937039E+01  0.81699324490E+01  0.51100000000E-03 0.  1.
         12    1    3    3    0    0  0.20441289468E+02  0.18811760481E+02  0.30293859875E+01  0.27944692287E+02  0.00000000000E+00 0. -1.
</event>
<event>
 7    1  0.6953847E-012  0.5930194E+02  0.7816164E-02  0.1266605E+00
        -11   -1    0    0    0    0  0.00000000000E+00  0.00000000000E+00  0.45593999997E+02  0.45594000000E+02  0.51100000000E-03 0. -1.
         11   -1    0    0    0    0 -0.00000000000E+00 -0.00000000000E+00 -0.45593999997E+02  0.45594000000E+02  0.51100000000E-03 0.  1.
    9900012    2    1    2    0    0  0.29722772620E+02 -0.11437872399E+02  0.15661875977E+01  0.59301935946E+02  0.49999985261E+02 0.  0.
        -12    1    1    2    0    0 -0.29722772620E+02  0.11437872399E+02 -0.15661875977E+01  0.31886064054E+02  0.00000000000E+00 0.  1.
         11    1    3    3    0    0 -0.36386861752E+01  0.39432524876E+01  0.30944553917E+01  0.61939431460E+01  0.51100000000E-03 0. -1.
        -11    1    3    3    0    0  0.12670755116E+00 -0.13302568635E+02 -0.12291244446E+02  0.18112125148E+02  0.51100000000E-03 0.  1.
         12    1    3    3    0    0  0.33234751244E+02 -0.20785562522E+01  0.10762976652E+02  0.34995867653E+02  0.00000000000E+00 0. -1.
</event>
<event>
 7    1  0.6953847E-012  0.5930194E+02  0.7816164E-02  0.1266605E+00
        -11   -1    0    0    0    0  0.00000000000E+00  0.00000000000E+00  0.45593999997E+02  0.45594000000E+02  0.51100000000E-03 0.  1.
         11   -1    0    0    0    0 -0.00000000000E+00 -0.00000000000E+00 -0.45593999997E+02  0.45594000000E+02  0.51100000000E-03 0. -1.
    9900012    2    1    2    0    0 -0.64665585247E+01 -0.98895554159E+00 -0.31207797307E+02  0.59301936822E+02  0.49999986858E+02 0.  0.
        -12    1    1    2    0    0  0.64665585247E+01  0.98895554159E+00  0.31207797307E+02  0.31886063178E+02  0.00000000000E+00 0.  1.
         11    1    3    3    0    0  0.16033413251E+02 -0.31910614021E+01 -0.10440302571E+02  0.19397245459E+02  0.51100000000E-03 0. -1.
        -11    1    3    3    0    0 -0.41344429260E+01  0.11058219284E+02 -0.15878268128E+01  0.11912137772E+02  0.51100000000E-03 0.  1.
         12    1    3    3    0    0 -0.18365528850E+02 -0.88561134234E+01 -0.19179667924E+02  0.27992553592E+02  0.00000000000E+00 0. -1.
</event>
<event>
 7    1  0.6953847E-012  0.5930211E+02  0.7816164E-02  0.1266604E+00
        -11   -1    0    0    0    0  0.00000000000E+00  0.00000000000E+00  0.45593999997E+02  0.45594000000E+02  0.51100000000E-03 0.  1.
         11   -1    0    0    0    0 -0.00000000000E+00 -0.00000000000E+00 -0.45593999997E+02  0.45594000000E+02  0.51100000000E-03 0. -1.
    9900012    2    1    2    0    0  0.18909713525E+02  0.25586961773E+02 -0.21072079311E+01  0.59302106510E+02  0.50000296329E+02 0.  0.
        -12    1    1    2    0    0 -0.18909713525E+02 -0.25586961773E+02  0.21072079311E+01  0.31885893490E+02  0.00000000000E+00 0.  1.
         11    1    3    3    0    0 -0.23493674318E+01  0.62138364543E+01 -0.68141893084E+01  0.95165365024E+01  0.51100000000E-03 0. -1.
        -11    1    3    3    0    0 -0.34273234579E+01  0.47093462415E+01 -0.14239581540E+02  0.15384738243E+02  0.51100000000E-03 0.  1.
         12    1    3    3    0    0  0.24686404415E+02  0.14663779077E+02  0.18946562917E+02  0.34400831765E+02  0.00000000000E+00 0. -1.
</event>
<event>
 7    1  0.6953847E-012  0.5930193E+02  0.7816164E-02  0.1266605E+00
        -11   -1    0    0    0    0  0.00000000000E+00  0.00000000000E+00  0.45593999997E+02  0.45594000000E+02  0.51100000000E-03 0.  1.
         11   -1    0    0    0    0 -0.00000000000E+00 -0.00000000000E+00 -0.45593999997E+02  0.45594000000E+02  0.51100000000E-03 0. -1.
    9900012    2    1    2    0    0 -0.28884904266E+02  0.90027527765E+01 -0.10066492357E+02  0.59301929054E+02  0.49999972692E+02 0.  0.
        -12    1    1    2    0    0  0.28884904266E+02 -0.90027527765E+01  0.10066492357E+02  0.31886070946E+02  0.00000000000E+00 0.  1.
         11    1    3    3    0    0  0.19510807239E+01 -0.38950534384E+01  0.15446940450E+01  0.46221463881E+01  0.51100000000E-03 0. -1.
        -11    1    3    3    0    0  0.97448668919E+01 -0.55735991802E+00  0.16881241612E+01  0.99056975657E+01  0.51100000000E-03 0.  1.
         12    1    3    3    0    0 -0.40580851881E+02  0.13455166133E+02 -0.13299310564E+02  0.44774085100E+02  0.00000000000E+00 0. -1.
</event>
<event>
 7    1  0.6953847E-012  0.5930194E+02  0.7816164E-02  0.1266605E+00
        -11   -1    0    0    0    0  0.00000000000E+00  0.00000000000E+00  0.45593999997E+02  0.45594000000E+02  0.51100000000E-03 0.  1.
         11   -1    0    0    0    0 -0.00000000000E+00 -0.00000000000E+00 -0.45593999997E+02  0.45594000000E+02  0.51100000000E-03 0. -1.
    9900012    2    1    2    0    0 -0.74362681219E+01  0.29883794736E+02 -0.82693053844E+01  0.59301942185E+02  0.49999996640E+02 0.  0.
        -12    1    1    2    0    0  0.74362681219E+01 -0.29883794736E+02  0.82693053844E+01  0.31886057815E+02  0.00000000000E+00 0.  1.
         11    1    3    3    0    0 -0.13063653403E+02  0.98756171048E+01 -0.77190906969E+01  0.18104452902E+02  0.51100000000E-03 0. -1.
        -11    1    3    3    0    0 -0.13685128507E+02  0.53778156774E+00 -0.13490401036E+01  0.13761971542E+02  0.51100000000E-03 0.  1.
        -12    1    3    3    0    0  0.19312513788E+02  0.19470396064E+02  0.79882541624E+00  0.27435517741E+02  0.00000000000E+00 0.  1.
</event>
<event>
 7    1  0.6953847E-012  0.5930179E+02  0.7816164E-02  0.1266605E+00
        -11   -1    0    0    0    0  0.00000000000E+00  0.00000000000E+00  0.45593999997E+02  0.45594000000E+02  0.51100000000E-03 0.  1.
         11   -1    0    0    0    0 -0.00000000000E+00 -0.00000000000E+00 -0.45593999997E+02  0.45594000000E+02  0.51100000000E-03 0. -1.
    9900012    2    1    2    0    0 -0.11659992332E+02 -0.99201601686E-01 -0.29677687502E+02  0.59301789852E+02  0.49999718820E+02 0.  0.
        -12    1    1    2    0    0  0.11659992332E+02  0.99201601686E-01  0.29677687502E+02  0.31886210148E+02  0.00000000000E+00 0.  1.
         11    1    3    3    0    0  0.89539126985E+01 -0.42712156509E+01 -0.78979149020E+01  0.12680413866E+02  0.51100000000E-03 0. -1.
        -11    1    3    3    0    0 -0.41471888703E+01 -0.13603562262E+02 -0.27525950852E+00  0.14224340048E+02  0.51100000000E-03 0.  1.
        -12    1    3    3    0    0 -0.16466716161E+02  0.17775576311E+02 -0.21504513091E+02  0.32397035938E+02  0.00000000000E+00 0.  1.
</event>
<event>
 7    1  0.6953847E-012  0.5930196E+02  0.7816164E-02  0.1266605E+00
        -11   -1    0    0    0    0  0.00000000000E+00  0.00000000000E+00  0.45593999997E+02  0.45594000000E+02  0.51100000000E-03 0. -1.
         11   -1    0    0    0    0 -0.00000000000E+00 -0.00000000000E+00 -0.45593999997E+02  0.45594000000E+02  0.51100000000E-03 0.  1.
    9900012    2    1    2    0    0 -0.18903431181E+01 -0.60668007884E+01  0.31246445885E+02  0.59301955257E+02  0.50000020479E+02 0.  0.
        -12    1    1    2    0    0  0.18903431181E+01  0.60668007884E+01 -0.31246445885E+02  0.31886044743E+02  0.00000000000E+00 0.  1.
         11    1    3    3    0    0 -0.49026246647E+01  0.85387610490E+00  0.16926002040E+02  0.17642402850E+02  0.51100000000E-03 0. -1.
        -11    1    3    3    0    0 -0.63590457350E+01  0.50761543479E+01 -0.10046500071E+02  0.12928146408E+02  0.51100000000E-03 0.  1.
         12    1    3    3    0    0  0.93713272815E+01 -0.11996831241E+02  0.24366943916E+02  0.28731405998E+02  0.00000000000E+00 0. -1.
</event>
<event>
 7    1  0.6953847E-012  0.5930191E+02  0.7816164E-02  0.1266605E+00
        -11   -1    0    0    0    0  0.00000000000E+00  0.00000000000E+00  0.45593999997E+02  0.45594000000E+02  0.51100000000E-03 0.  1.
         11   -1    0    0    0    0 -0.00000000000E+00 -0.00000000000E+00 -0.45593999997E+02  0.45594000000E+02  0.51100000000E-03 0. -1.
    9900012    2    1    2    0    0 -0.30093722544E+01 -0.17111014726E+02 -0.26737228050E+02  0.59301913534E+02  0.49999944387E+02 0.  0.
        -12    1    1    2    0    0  0.30093722544E+01  0.17111014726E+02  0.26737228050E+02  0.31886086466E+02  0.00000000000E+00 0.  1.
         11    1    3    3    0    0  0.18818767978E+01 -0.77353073491E+00 -0.16840271966E+00  0.20416096142E+01  0.51100000000E-03 0.  1.
        -11    1    3    3    0    0 -0.26761899030E+01  0.11898564547E+02  0.64189257458E+01  0.13781888066E+02  0.51100000000E-03 0. -1.
         12    1    3    3    0    0 -0.22150591491E+01 -0.28236048538E+02 -0.32987751076E+02  0.43478415854E+02  0.00000000000E+00 0. -1.
</event>
<event>
 7    1  0.6953847E-012  0.5930195E+02  0.7816164E-02  0.1266605E+00
        -11   -1    0    0    0    0  0.00000000000E+00  0.00000000000E+00  0.45593999997E+02  0.45594000000E+02  0.51100000000E-03 0.  1.
         11   -1    0    0    0    0 -0.00000000000E+00 -0.00000000000E+00 -0.45593999997E+02  0.45594000000E+02  0.51100000000E-03 0. -1.
    9900012    2    1    2    0    0  0.93578256783E+01 -0.11506167762E+02 -0.28226931242E+02  0.59301945912E+02  0.50000003436E+02 0.  0.
        -12    1    1    2    0    0 -0.93578256783E+01  0.11506167762E+02  0.28226931242E+02  0.31886054088E+02  0.00000000000E+00 0.  1.
         11    1    3    3    0    0  0.10999906386E+02 -0.19121922301E+01 -0.18821818481E+02  0.21884132855E+02  0.51100000000E-03 0. -1.
        -11    1    3    3    0    0  0.15613464641E+02 -0.10048919744E+02 -0.75971464426E+01  0.20061846885E+02  0.51100000000E-03 0.  1.
         12    1    3    3    0    0 -0.17255545349E+02  0.45494421267E+00 -0.18079663186E+01  0.17355966171E+02  0.00000000000E+00 0. -1.
</event>
<event>
 7    1  0.6953847E-012  0.5930195E+02  0.7816164E-02  0.1266605E+00
        -11   -1    0    0    0    0  0.00000000000E+00  0.00000000000E+00  0.45593999997E+02  0.45594000000E+02  0.51100000000E-03 0. -1.
         11   -1    0    0    0    0 -0.00000000000E+00 -0.00000000000E+00 -0.45593999997E+02  0.45594000000E+02  0.51100000000E-03 0.  1.
    9900012    2    1    2    0    0  0.81688210356E+01  0.29707595724E+02 -0.82127532621E+01  0.59301949806E+02  0.50000010539E+02 0.  0.
        -12    1    1    2    0    0 -0.81688210356E+01 -0.29707595724E+02  0.82127532621E+01  0.31886050194E+02  0.00000000000E+00 0.  1.
         11    1    3    3    0    0 -0.12387870268E+02 -0.24995015943E+01 -0.51975993449E+01  0.13664621371E+02  0.51100000000E-03 0.  1.
        -11    1    3    3    0    0  0.72191963554E+01 -0.29354147091E+01  0.90299521136E+00  0.78453079063E+01  0.51100000000E-03 0. -1.
        -12    1    3    3    0    0  0.13337494948E+02  0.35142512027E+02 -0.39181491286E+01  0.37792020529E+02  0.00000000000E+00 0.  1.
</event>
<event>
 7    1  0.6953847E-012  0.5930194E+02  0.7816164E-02  0.1266605E+00
        -11   -1    0    0    0    0  0.00000000000E+00  0.00000000000E+00  0.45593999997E+02  0.45594000000E+02  0.51100000000E-03 0.  1.
         11   -1    0    0    0    0 -0.00000000000E+00 -0.00000000000E+00 -0.45593999997E+02  0.45594000000E+02  0.51100000000E-03 0. -1.
    9900012    2    1    2    0    0 -0.17610548307E+02 -0.12567262222E+02 -0.23423348716E+02  0.59301941032E+02  0.49999994537E+02 0.  0.
        -12    1    1    2    0    0  0.17610548307E+02  0.12567262222E+02  0.23423348716E+02  0.31886058968E+02  0.00000000000E+00 0.  1.
         11    1    3    3    0    0 -0.11958942838E+02 -0.21583813357E+02 -0.71604385918E+01  0.25693368676E+02  0.51100000000E-03 0.  1.
        -11    1    3    3    0    0 -0.45267420991E+00 -0.97446274278E+01 -0.36705617253E+01  0.10422845163E+02  0.51100000000E-03 0. -1.
         12    1    3    3    0    0 -0.51989312590E+01  0.18761178563E+02 -0.12592348399E+02  0.23185727193E+02  0.00000000000E+00 0. -1.
</event>
<event>
 7    1  0.6953847E-012  0.5930197E+02  0.7816164E-02  0.1266605E+00
        -11   -1    0    0    0    0  0.00000000000E+00  0.00000000000E+00  0.45593999997E+02  0.45594000000E+02  0.51100000000E-03 0.  1.
         11   -1    0    0    0    0 -0.00000000000E+00 -0.00000000000E+00 -0.45593999997E+02  0.45594000000E+02  0.51100000000E-03 0. -1.
    9900012    2    1    2    0    0  0.84292711151E+01 -0.23659994361E+02 -0.19643601462E+02  0.59301968213E+02  0.50000044108E+02 0.  0.
        -12    1    1    2    0    0 -0.84292711151E+01  0.23659994361E+02  0.19643601462E+02  0.31886031787E+02  0.00000000000E+00 0.  1.
         11    1    3    3    0    0 -0.14819756613E+02 -0.44110499295E+01 -0.14208079515E+02  0.20998858810E+02  0.51100000000E-03 0. -1.
        -11    1    3    3    0    0 -0.37941432697E+01 -0.56616412886E+01  0.20678717493E+01  0.71222046492E+01  0.51100000000E-03 0.  1.
         12    1    3    3    0    0  0.27043170998E+02 -0.13587303143E+02 -0.75033936971E+01  0.31180904754E+02  0.00000000000E+00 0. -1.
</event>
<event>
 7    1  0.6953847E-012  0.5930194E+02  0.7816164E-02  0.1266605E+00
        -11   -1    0    0    0    0  0.00000000000E+00  0.00000000000E+00  0.45593999997E+02  0.45594000000E+02  0.51100000000E-03 0. -1.
         11   -1    0    0    0    0 -0.00000000000E+00 -0.00000000000E+00 -0.45593999997E+02  0.45594000000E+02  0.51100000000E-03 0.  1.
    9900012    2    1    2    0    0 -0.17565317695E+02  0.26287708866E+02  0.41396598099E+01  0.59301940249E+02  0.49999993108E+02 0.  0.
        -12    1    1    2    0    0  0.17565317695E+02 -0.26287708866E+02 -0.41396598099E+01  0.31886059751E+02  0.00000000000E+00 0.  1.
         11    1    3    3    0    0 -0.15295067223E+02  0.26496630244E+02  0.22792811892E+01  0.30679074606E+02  0.51100000000E-03 0. -1.
        -11    1    3    3    0    0 -0.74853182179E+01  0.72417817457E+01  0.11401029748E+02  0.15442048803E+02  0.51100000000E-03 0.  1.
        -12    1    3    3    0    0  0.52150677463E+01 -0.74507031241E+01 -0.95406511269E+01  0.13180816840E+02  0.00000000000E+00 0.  1.
</event>
<event>
 7    1  0.6953847E-012  0.5930196E+02  0.7816164E-02  0.1266605E+00
        -11   -1    0    0    0    0  0.00000000000E+00  0.00000000000E+00  0.45593999997E+02  0.45594000000E+02  0.51100000000E-03 0.  1.
         11   -1    0    0    0    0 -0.00000000000E+00 -0.00000000000E+00 -0.45593999997E+02  0.45594000000E+02  0.51100000000E-03 0. -1.
    9900012    2    1    2    0    0 -0.32003172826E+01 -0.27641397002E+02 -0.15570186316E+02  0.59301959781E+02  0.50000028730E+02 0.  0.
        -12    1    1    2    0    0  0.32003172826E+01  0.27641397002E+02  0.15570186316E+02  0.31886040219E+02  0.00000000000E+00 0.  1.
         11    1    3    3    0    0 -0.65340038091E+01 -0.61447737261E+01 -0.10647662283E+02  0.13922074640E+02  0.51100000000E-03 0. -1.
        -11    1    3    3    0    0  0.37840951803E+01  0.81736376636E+01 -0.11873182844E+02  0.14903026541E+02  0.51100000000E-03 0.  1.
        -12    1    3    3    0    0 -0.45040865388E+00 -0.29670260940E+02  0.69506588106E+01  0.30476858600E+02  0.00000000000E+00 0.  1.
</event>
<event>
 7    1  0.6953847E-012  0.5930196E+02  0.7816164E-02  0.1266605E+00
        -11   -1    0    0    0    0  0.00000000000E+00  0.00000000000E+00  0.45593999997E+02  0.45594000000E+02  0.51100000000E-03 0. -1.
         11   -1    0    0    0    0 -0.00000000000E+00 -0.00000000000E+00 -0.45593999997E+02  0.45594000000E+02  0.51100000000E-03 0.  1.
    9900012    2    1    2    0    0 -0.13378226995E+02  0.21572098672E+02  0.19297334971E+02  0.59301960176E+02  0.50000029451E+02 0.  0.
        -12    1    1    2    0    0  0.13378226995E+02 -0.21572098672E+02 -0.19297334971E+02  0.31886039824E+02  0.00000000000E+00 0.  1.
         11    1    3    3    0    0 -0.13158970049E+00  0.26782384338E+01  0.24223247874E+02  0.24371212829E+02  0.51100000000E-03 0. -1.
        -11    1    3    3    0    0 -0.10462917353E+02 -0.38739071333E+01  0.11112018940E+01  0.11212250707E+02  0.51100000000E-03 0.  1.
        -12    1    3    3    0    0 -0.27837199419E+01  0.22767767372E+02 -0.60371147967E+01  0.23718496640E+02  0.00000000000E+00 0.  1.
</event>
<event>
 7    1  0.6953847E-012  0.5930195E+02  0.7816164E-02  0.1266605E+00
        -11   -1    0    0    0    0  0.00000000000E+00  0.00000000000E+00  0.45593999997E+02  0.45594000000E+02  0.51100000000E-03 0.  1.
         11   -1    0    0    0    0 -0.00000000000E+00 -0.00000000000E+00 -0.45593999997E+02  0.45594000000E+02  0.51100000000E-03 0. -1.
    9900012    2    1    2    0    0 -0.12937640572E+02 -0.57994994148E+01 -0.28560520656E+02  0.59301951685E+02  0.50000013964E+02 0.  0.
        -12    1    1    2    0    0  0.12937640572E+02  0.57994994148E+01  0.28560520656E+02  0.31886048315E+02  0.00000000000E+00 0.  1.
         11    1    3    3    0    0 -0.95876052890E+01 -0.90969978294E+01 -0.27053143806E+02  0.30108971001E+02  0.51100000000E-03 0. -1.
        -11    1    3    3    0    0  0.10567040863E+02 -0.62497083248E+01 -0.58840221597E+00  0.12290948872E+02  0.51100000000E-03 0.  1.
         12    1    3    3    0    0 -0.13917076146E+02  0.95472067394E+01 -0.91897463391E+00  0.16902031812E+02  0.00000000000E+00 0. -1.
</event>
<event>
 7    1  0.6953847E-012  0.5930191E+02  0.7816164E-02  0.1266605E+00
        -11   -1    0    0    0    0  0.00000000000E+00  0.00000000000E+00  0.45593999997E+02  0.45594000000E+02  0.51100000000E-03 0.  1.
         11   -1    0    0    0    0 -0.00000000000E+00 -0.00000000000E+00 -0.45593999997E+02  0.45594000000E+02  0.51100000000E-03 0. -1.
    9900012    2    1    2    0    0  0.18180060773E+02  0.22685148807E+02 -0.13099317586E+02  0.59301910442E+02  0.49999938748E+02 0.  0.
        -12    1    1    2    0    0 -0.18180060773E+02 -0.22685148807E+02  0.13099317586E+02  0.31886089558E+02  0.00000000000E+00 0.  1.
         11    1    3    3    0    0  0.13959458156E+02  0.50008630660E+01 -0.11923009895E+02  0.19027171851E+02  0.51100000000E-03 0. -1.
        -11    1    3    3    0    0  0.23736608118E+01  0.22613790529E+02 -0.13799548872E+02  0.26597844594E+02  0.51100000000E-03 0.  1.
        -12    1    3    3    0    0  0.18469418045E+01 -0.49295047886E+01  0.12623241181E+02  0.13676893997E+02  0.00000000000E+00 0.  1.
</event>
<event>
 7    1  0.6953847E-012  0.5930198E+02  0.7816164E-02  0.1266605E+00
        -11   -1    0    0    0    0  0.00000000000E+00  0.00000000000E+00  0.45593999997E+02  0.45594000000E+02  0.51100000000E-03 0. -1.
         11   -1    0    0    0    0 -0.00000000000E+00 -0.00000000000E+00 -0.45593999997E+02  0.45594000000E+02  0.51100000000E-03 0.  1.
    9900012    2    1    2    0    0  0.31718175809E+02  0.28401559179E+01  0.16153153556E+01  0.59301977890E+02  0.50000061756E+02 0.  0.
        -12    1    1    2    0    0 -0.31718175809E+02 -0.28401559179E+01 -0.16153153556E+01  0.31886022110E+02  0.00000000000E+00 0.  1.
         11    1    3    3    0    0 -0.51265050248E+01  0.14710007267E+02 -0.45437151868E+01  0.16226851682E+02  0.51100000000E-03 0. -1.
        -11    1    3    3    0    0  0.55159643818E+01 -0.49977750876E+00 -0.54622494674E+01  0.77789337396E+01  0.51100000000E-03 0.  1.
        -12    1    3    3    0    0  0.31328716452E+02 -0.11370073840E+02  0.11621280010E+02  0.35296192468E+02  0.00000000000E+00 0.  1.
</event>
<event>
 7    1  0.6953847E-012  0.5930188E+02  0.7816164E-02  0.1266605E+00
        -11   -1    0    0    0    0  0.00000000000E+00  0.00000000000E+00  0.45593999997E+02  0.45594000000E+02  0.51100000000E-03 0.  1.
         11   -1    0    0    0    0 -0.00000000000E+00 -0.00000000000E+00 -0.45593999997E+02  0.45594000000E+02  0.51100000000E-03 0. -1.
    9900012    2    1    2    0    0  0.21069542265E+02  0.22032982215E+02 -0.93459546872E+01  0.59301877853E+02  0.49999879313E+02 0.  0.
        -12    1    1    2    0    0 -0.21069542265E+02 -0.22032982215E+02  0.93459546872E+01  0.31886122147E+02  0.00000000000E+00 0.  1.
         11    1    3    3    0    0  0.17246148098E+02  0.24954367596E+02 -0.10101245021E+02  0.31971631763E+02  0.51100000000E-03 0. -1.
        -11    1    3    3    0    0  0.14533319846E+02  0.30909970117E+01  0.19689517269E+01  0.14988276067E+02  0.51100000000E-03 0.  1.
         12    1    3    3    0    0 -0.10709925679E+02 -0.60123823929E+01 -0.12136613935E+01  0.12341970024E+02  0.00000000000E+00 0. -1.
</event>
<event>
 7    1  0.6953847E-012  0.5930182E+02  0.7816164E-02  0.1266605E+00
        -11   -1    0    0    0    0  0.00000000000E+00  0.00000000000E+00  0.45593999997E+02  0.45594000000E+02  0.51100000000E-03 0.  1.
         11   -1    0    0    0    0 -0.00000000000E+00 -0.00000000000E+00 -0.45593999997E+02  0.45594000000E+02  0.51100000000E-03 0. -1.
    9900012    2    1    2    0    0  0.16793569024E+02  0.32355122596E+01 -0.26911629794E+02  0.59301822457E+02  0.49999778284E+02 0.  0.
        -12    1    1    2    0    0 -0.16793569024E+02 -0.32355122596E+01  0.26911629794E+02  0.31886177543E+02  0.00000000000E+00 0.  1.
         11    1    3    3    0    0 -0.90793904020E+01 -0.29433840451E+01 -0.12781648147E+02  0.15952096079E+02  0.51100000000E-03 0. -1.
        -11    1    3    3    0    0  0.98243070967E+00  0.14622530818E+02 -0.41104790955E+01  0.15221025467E+02  0.51100000000E-03 0.  1.
         12    1    3    3    0    0  0.24890528716E+02 -0.84436345131E+01 -0.10019502552E+02  0.28128700911E+02  0.00000000000E+00 0. -1.
</event>
<event>
 7    1  0.6953847E-012  0.5930193E+02  0.7816164E-02  0.1266605E+00
        -11   -1    0    0    0    0  0.00000000000E+00  0.00000000000E+00  0.45593999997E+02  0.45594000000E+02  0.51100000000E-03 0. -1.
         11   -1    0    0    0    0 -0.00000000000E+00 -0.00000000000E+00 -0.45593999997E+02  0.45594000000E+02  0.51100000000E-03 0.  1.
    9900012    2    1    2    0    0  0.64485854356E+01  0.16576887012E+02  0.26464008522E+02  0.59301934326E+02  0.49999982306E+02 0.  0.
        -12    1    1    2    0    0 -0.64485854356E+01 -0.16576887012E+02 -0.26464008522E+02  0.31886065674E+02  0.00000000000E+00 0.  1.
         11    1    3    3    0    0  0.72883114698E+01  0.81902168975E+01  0.67174264011E+01  0.12857797425E+02  0.51100000000E-03 0. -1.
        -11    1    3    3    0    0  0.55702853576E+01  0.87095310115E+00  0.30978014852E+02  0.31486886837E+02  0.51100000000E-03 0.  1.
        -12    1    3    3    0    0 -0.64100113917E+01  0.75157170129E+01 -0.11231432731E+02  0.14957250063E+02  0.00000000000E+00 0.  1.
</event>
<event>
 7    1  0.6953847E-012  0.5930197E+02  0.7816164E-02  0.1266605E+00
        -11   -1    0    0    0    0  0.00000000000E+00  0.00000000000E+00  0.45593999997E+02  0.45594000000E+02  0.51100000000E-03 0. -1.
         11   -1    0    0    0    0 -0.00000000000E+00 -0.00000000000E+00 -0.45593999997E+02  0.45594000000E+02  0.51100000000E-03 0.  1.
    9900012    2    1    2    0    0  0.30578684093E+02 -0.90293951454E+01 -0.36478627300E+00  0.59301969100E+02  0.50000045725E+02 0.  0.
        -12    1    1    2    0    0 -0.30578684093E+02  0.90293951454E+01  0.36478627300E+00  0.31886030900E+02  0.00000000000E+00 0.  1.
         11    1    3    3    0    0  0.37557431888E+01 -0.75234244474E+01  0.20151884844E+01  0.86468784659E+01  0.51100000000E-03 0. -1.
        -11    1    3    3    0    0  0.13458392133E+02 -0.77251867550E+01 -0.21498297298E+02  0.26513838202E+02  0.51100000000E-03 0.  1.
        -12    1    3    3    0    0  0.13364548771E+02  0.62192160569E+01  0.19118322541E+02  0.24141252432E+02  0.00000000000E+00 0.  1.
</event>
<event>
 7    1  0.6953847E-012  0.5930195E+02  0.7816164E-02  0.1266605E+00
        -11   -1    0    0    0    0  0.00000000000E+00  0.00000000000E+00  0.45593999997E+02  0.45594000000E+02  0.51100000000E-03 0.  1.
         11   -1    0    0    0    0 -0.00000000000E+00 -0.00000000000E+00 -0.45593999997E+02  0.45594000000E+02  0.51100000000E-03 0. -1.
    9900012    2    1    2    0    0  0.14319209968E+02  0.21716641504E+02 -0.18440924878E+02  0.59301952853E+02  0.50000016096E+02 0.  0.
        -12    1    1    2    0    0 -0.14319209968E+02 -0.21716641504E+02  0.18440924878E+02  0.31886047147E+02  0.00000000000E+00 0.  1.
         11    1    3    3    0    0  0.12535406143E+01  0.18108519241E+02 -0.11550164861E+02  0.21515021305E+02  0.51100000000E-03 0. -1.
        -11    1    3    3    0    0  0.16022901339E+02  0.46535992411E+01  0.10763935219E+02  0.19855771324E+02  0.51100000000E-03 0.  1.
         12    1    3    3    0    0 -0.29572319853E+01 -0.10454769786E+01 -0.17654695235E+02  0.17931160224E+02  0.00000000000E+00 0. -1.
</event>
<event>
 7    1  0.6953847E-012  0.5930192E+02  0.7816164E-02  0.1266605E+00
        -11   -1    0    0    0    0  0.00000000000E+00  0.00000000000E+00  0.45593999997E+02  0.45594000000E+02  0.51100000000E-03 0. -1.
         11   -1    0    0    0    0 -0.00000000000E+00 -0.00000000000E+00 -0.45593999997E+02  0.45594000000E+02  0.51100000000E-03 0.  1.
    9900012    2    1    2    0    0 -0.29550449236E+02 -0.96002536769E+01  0.71643622741E+01  0.59301921415E+02  0.49999958760E+02 0.  0.
        -12    1    1    2    0    0  0.29550449236E+02  0.96002536769E+01 -0.71643622741E+01  0.31886078585E+02  0.00000000000E+00 0.  1.
         11    1    3    3    0    0 -0.17684765689E+02 -0.10658504631E+02 -0.31164032035E+01  0.20882208400E+02  0.51100000000E-03 0. -1.
        -11    1    3    3    0    0  0.96352206880E+00 -0.10718914437E+02 -0.78186294453E+01  0.13302423394E+02  0.51100000000E-03 0.  1.
         12    1    3    3    0    0 -0.12829205616E+02  0.11777165391E+02  0.18099394923E+02  0.25117289622E+02  0.00000000000E+00 0. -1.
</event>
<event>
 7    1  0.6953847E-012  0.5930162E+02  0.7816164E-02  0.1266606E+00
        -11   -1    0    0    0    0  0.00000000000E+00  0.00000000000E+00  0.45593999997E+02  0.45594000000E+02  0.51100000000E-03 0.  1.
         11   -1    0    0    0    0 -0.00000000000E+00 -0.00000000000E+00 -0.45593999997E+02  0.45594000000E+02  0.51100000000E-03 0. -1.
    9900012    2    1    2    0    0  0.15568235414E+02  0.27805011481E+02 -0.11191093382E+01  0.59301623237E+02  0.49999414951E+02 0.  0.
        -12    1    1    2    0    0 -0.15568235414E+02 -0.27805011481E+02  0.11191093382E+01  0.31886376763E+02  0.00000000000E+00 0.  1.
         11    1    3    3    0    0  0.15917546446E+02  0.11768935881E+02 -0.38777994638E+01  0.20172096211E+02  0.51100000000E-03 0. -1.
        -11    1    3    3    0    0  0.11417798680E+02 -0.13236110274E+01  0.11636181698E+02  0.16356001884E+02  0.51100000000E-03 0.  1.
         12    1    3    3    0    0 -0.11767109711E+02  0.17359686627E+02 -0.88774915726E+01  0.22773525142E+02  0.00000000000E+00 0. -1.
</event>
<event>
 7    1  0.6953847E-012  0.5930188E+02  0.7816164E-02  0.1266605E+00
        -11   -1    0    0    0    0  0.00000000000E+00  0.00000000000E+00  0.45593999997E+02  0.45594000000E+02  0.51100000000E-03 0.  1.
         11   -1    0    0    0    0 -0.00000000000E+00 -0.00000000000E+00 -0.45593999997E+02  0.45594000000E+02  0.51100000000E-03 0. -1.
    9900012    2    1    2    0    0 -0.20407152594E+02 -0.64036699923E+01 -0.23648799621E+02  0.59301880921E+02  0.49999884909E+02 0.  0.
        -12    1    1    2    0    0  0.20407152594E+02  0.64036699923E+01  0.23648799621E+02  0.31886119079E+02  0.00000000000E+00 0.  1.
         11    1    3    3    0    0 -0.46189653548E+01  0.65244869888E+01  0.38075699637E+01  0.88544542861E+01  0.51100000000E-03 0. -1.
        -11    1    3    3    0    0 -0.11619334908E+02 -0.11628281242E+02  0.53995161806E+01  0.17302619559E+02  0.51100000000E-03 0.  1.
        -12    1    3    3    0    0 -0.41688523315E+01 -0.12998757391E+01 -0.32855885766E+02  0.33144807077E+02  0.00000000000E+00 0.  1.
</event>
<event>
 7    1  0.6953847E-012  0.5930191E+02  0.7816164E-02  0.1266605E+00
        -11   -1    0    0    0    0  0.00000000000E+00  0.00000000000E+00  0.45593999997E+02  0.45594000000E+02  0.51100000000E-03 0.  1.
         11   -1    0    0    0    0 -0.00000000000E+00 -0.00000000000E+00 -0.45593999997E+02  0.45594000000E+02  0.51100000000E-03 0. -1.
    9900012    2    1    2    0    0  0.10840398832E+02  0.29742127552E+02 -0.38229095003E+01  0.59301905300E+02  0.49999929370E+02 0.  0.
        -12    1    1    2    0    0 -0.10840398832E+02 -0.29742127552E+02  0.38229095003E+01  0.31886094700E+02  0.00000000000E+00 0.  1.
         11    1    3    3    0    0  0.29505498613E+01  0.94636720732E+01  0.38720276087E+00  0.99205221553E+01  0.51100000000E-03 0. -1.
        -11    1    3    3    0    0  0.43280707011E+01  0.34296725292E+02 -0.48293824249E+01  0.34904448092E+02  0.51100000000E-03 0.  1.
        -12    1    3    3    0    0  0.35617782691E+01 -0.14018269813E+02  0.61927016375E+00  0.14476935053E+02  0.00000000000E+00 0.  1.
</event>
<event>
 7    1  0.6953847E-012  0.5930194E+02  0.7816164E-02  0.1266605E+00
        -11   -1    0    0    0    0  0.00000000000E+00  0.00000000000E+00  0.45593999997E+02  0.45594000000E+02  0.51100000000E-03 0. -1.
         11   -1    0    0    0    0 -0.00000000000E+00 -0.00000000000E+00 -0.45593999997E+02  0.45594000000E+02  0.51100000000E-03 0.  1.
    9900012    2    1    2    0    0 -0.30295158281E+02 -0.60083533067E+01  0.79261432689E+01  0.59301942359E+02  0.49999996957E+02 0.  0.
        -12    1    1    2    0    0  0.30295158281E+02  0.60083533067E+01 -0.79261432689E+01  0.31886057641E+02  0.00000000000E+00 0.  1.
         11    1    3    3    0    0  0.36579844882E+00  0.43477717128E+01  0.19788243336E+02  0.20263551070E+02  0.51100000000E-03 0. -1.
        -11    1    3    3    0    0 -0.28099008177E+01 -0.23920791538E+01  0.44602728460E+01  0.57889221281E+01  0.51100000000E-03 0.  1.
        -12    1    3    3    0    0 -0.27851055912E+02 -0.79640458656E+01 -0.16322372913E+02  0.33249469161E+02  0.00000000000E+00 0.  1.
</event>
<event>
 7    1  0.6953847E-012  0.5930194E+02  0.7816164E-02  0.1266605E+00
        -11   -1    0    0    0    0  0.00000000000E+00  0.00000000000E+00  0.45593999997E+02  0.45594000000E+02  0.51100000000E-03 0.  1.
         11   -1    0    0    0    0 -0.00000000000E+00 -0.00000000000E+00 -0.45593999997E+02  0.45594000000E+02  0.51100000000E-03 0. -1.
    9900012    2    1    2    0    0  0.26088700072E+02  0.17860729785E+02 -0.41346091750E+01  0.59301938265E+02  0.49999989491E+02 0.  0.
        -12    1    1    2    0    0 -0.26088700072E+02 -0.17860729785E+02  0.41346091750E+01  0.31886061735E+02  0.00000000000E+00 0.  1.
         11    1    3    3    0    0  0.21296367089E+02  0.16121464187E+02 -0.22354624619E+02  0.34830534030E+02  0.51100000000E-03 0. -1.
        -11    1    3    3    0    0  0.73042639163E+01  0.71402046313E+01  0.13137768236E+02  0.16641386601E+02  0.51100000000E-03 0.  1.
        -12    1    3    3    0    0 -0.25119309327E+01 -0.54009390334E+01  0.50822472085E+01  0.78300176336E+01  0.00000000000E+00 0.  1.
</event>
<event>
 7    1  0.6953847E-012  0.5930196E+02  0.7816164E-02  0.1266605E+00
        -11   -1    0    0    0    0  0.00000000000E+00  0.00000000000E+00  0.45593999997E+02  0.45594000000E+02  0.51100000000E-03 0.  1.
         11   -1    0    0    0    0 -0.00000000000E+00 -0.00000000000E+00 -0.45593999997E+02  0.45594000000E+02  0.51100000000E-03 0. -1.
    9900012    2    1    2    0    0 -0.20994258701E+02  0.21920320652E+02 -0.97703588240E+01  0.59301964382E+02  0.50000037121E+02 0.  0.
        -12    1    1    2    0    0  0.20994258701E+02 -0.21920320652E+02  0.97703588240E+01  0.31886035618E+02  0.00000000000E+00 0.  1.
         11    1    3    3    0    0  0.40500156422E+01 -0.32443709279E+01  0.29111616784E+01  0.59500783186E+01  0.51100000000E-03 0. -1.
        -11    1    3    3    0    0  0.83113810902E+01  0.91933049975E+00  0.34857029239E+01  0.90594894629E+01  0.51100000000E-03 0.  1.
         12    1    3    3    0    0 -0.33355655434E+02  0.24245361080E+02 -0.16167223426E+02  0.44292396600E+02  0.00000000000E+00 0. -1.
</event>
<event>
 7    1  0.6953847E-012  0.5930194E+02  0.7816164E-02  0.1266605E+00
        -11   -1    0    0    0    0  0.00000000000E+00  0.00000000000E+00  0.45593999997E+02  0.45594000000E+02  0.51100000000E-03 0. -1.
         11   -1    0    0    0    0 -0.00000000000E+00 -0.00000000000E+00 -0.45593999997E+02  0.45594000000E+02  0.51100000000E-03 0.  1.
    9900012    2    1    2    0    0 -0.25903124913E+02 -0.71077743422E+01 -0.17182206644E+02  0.59301944090E+02  0.50000000113E+02 0.  0.
        -12    1    1    2    0    0  0.25903124913E+02  0.71077743422E+01  0.17182206644E+02  0.31886055910E+02  0.00000000000E+00 0.  1.
         11    1    3    3    0    0 -0.32907848451E+02 -0.62288117450E+01 -0.81790812784E+01  0.34476397090E+02  0.51100000000E-03 0. -1.
        -11    1    3    3    0    0 -0.17332769830E-01 -0.11731637134E+01 -0.15326533610E+02  0.15371377501E+02  0.51100000000E-03 0.  1.
        -12    1    3    3    0    0  0.70220563088E+01  0.29420111621E+00  0.63234082441E+01  0.94541694993E+01  0.00000000000E+00 0.  1.
</event>
<event>
 7    1  0.6953847E-012  0.5930203E+02  0.7816164E-02  0.1266604E+00
        -11   -1    0    0    0    0  0.00000000000E+00  0.00000000000E+00  0.45593999997E+02  0.45594000000E+02  0.51100000000E-03 0. -1.
         11   -1    0    0    0    0 -0.00000000000E+00 -0.00000000000E+00 -0.45593999997E+02  0.45594000000E+02  0.51100000000E-03 0.  1.
    9900012    2    1    2    0    0  0.99463927630E+01 -0.65612125357E+01  0.29575915842E+02  0.59302030722E+02  0.50000158109E+02 0.  0.
        -12    1    1    2    0    0 -0.99463927630E+01  0.65612125357E+01 -0.29575915842E+02  0.31885969278E+02  0.00000000000E+00 0.  1.
         11    1    3    3    0    0 -0.13074537283E+01  0.59671200718E-01 -0.19686021442E+01  0.23639777002E+01  0.51100000000E-03 0. -1.
        -11    1    3    3    0    0 -0.55634756418E+01  0.50637723262E+01 -0.88705212394E+01  0.11631001621E+02  0.51100000000E-03 0.  1.
         12    1    3    3    0    0  0.16817322133E+02 -0.11684656063E+02  0.40415039225E+02  0.45307051401E+02  0.00000000000E+00 0. -1.
</event>
<event>
 7    1  0.6953847E-012  0.5930195E+02  0.7816164E-02  0.1266605E+00
        -11   -1    0    0    0    0  0.00000000000E+00  0.00000000000E+00  0.45593999997E+02  0.45594000000E+02  0.51100000000E-03 0.  1.
         11   -1    0    0    0    0 -0.00000000000E+00 -0.00000000000E+00 -0.45593999997E+02  0.45594000000E+02  0.51100000000E-03 0. -1.
    9900012    2    1    2    0    0 -0.63428509197E+01  0.16034159074E+02 -0.26821523596E+02  0.59301950652E+02  0.50000012081E+02 0.  0.
        -12    1    1    2    0    0  0.63428509197E+01 -0.16034159074E+02  0.26821523596E+02  0.31886049348E+02  0.00000000000E+00 0.  1.
         11    1    3    3    0    0 -0.74199146035E+01 -0.24951535463E+00  0.57064048728E+00  0.74460070818E+01  0.51100000000E-03 0. -1.
        -11    1    3    3    0    0  0.86481427741E+01 -0.10814213748E+02 -0.20653665681E+01  0.14000118991E+02  0.51100000000E-03 0.  1.
         12    1    3    3    0    0 -0.75710790902E+01  0.27097888177E+02 -0.25326797515E+02  0.37855824580E+02  0.00000000000E+00 0. -1.
</event>
<event>
 7    1  0.6953847E-012  0.5930166E+02  0.7816164E-02  0.1266606E+00
        -11   -1    0    0    0    0  0.00000000000E+00  0.00000000000E+00  0.45593999997E+02  0.45594000000E+02  0.51100000000E-03 0. -1.
         11   -1    0    0    0    0 -0.00000000000E+00 -0.00000000000E+00 -0.45593999997E+02  0.45594000000E+02  0.51100000000E-03 0.  1.
    9900012    2    1    2    0    0 -0.23973132013E+02  0.39000993600E+01 -0.20659546502E+02  0.59301659739E+02  0.49999481524E+02 0.  0.
        -12    1    1    2    0    0  0.23973132013E+02 -0.39000993600E+01  0.20659546502E+02  0.31886340261E+02  0.00000000000E+00 0.  1.
         11    1    3    3    0    0 -0.12871749862E+02 -0.11691492349E+02 -0.24664249694E+00  0.17390623066E+02  0.51100000000E-03 0. -1.
        -11    1    3    3    0    0  0.82597711378E+01  0.12710410588E+01  0.24460986658E+01  0.87076267470E+01  0.51100000000E-03 0.  1.
         12    1    3    3    0    0 -0.19361153290E+02  0.14320550650E+02 -0.22859002671E+02  0.33203409926E+02  0.00000000000E+00 0. -1.
</event>
<event>
 7    1  0.6953847E-012  0.5930196E+02  0.7816164E-02  0.1266605E+00
        -11   -1    0    0    0    0  0.00000000000E+00  0.00000000000E+00  0.45593999997E+02  0.45594000000E+02  0.51100000000E-03 0.  1.
         11   -1    0    0    0    0 -0.00000000000E+00 -0.00000000000E+00 -0.45593999997E+02  0.45594000000E+02  0.51100000000E-03 0. -1.
    9900012    2    1    2    0    0  0.23688801515E+01 -0.30373667298E+02 -0.94100007611E+01  0.59301962733E+02  0.50000034113E+02 0.  0.
        -12    1    1    2    0    0 -0.23688801515E+01  0.30373667298E+02  0.94100007611E+01  0.31886037267E+02  0.00000000000E+00 0.  1.
         11    1    3    3    0    0  0.61483556694E+01 -0.14764014457E+02 -0.11729302369E+02  0.19833177624E+02  0.51100000000E-03 0. -1.
        -11    1    3    3    0    0  0.63907846715E+01 -0.15080836170E+02 -0.13111312107E+02  0.20980473153E+02  0.51100000000E-03 0.  1.
        -12    1    3    3    0    0 -0.10170260189E+02 -0.52881667071E+00  0.15430613714E+02  0.18488311956E+02  0.00000000000E+00 0.  1.
</event>
<event>
 7    1  0.6953847E-012  0.5930199E+02  0.7816164E-02  0.1266605E+00
        -11   -1    0    0    0    0  0.00000000000E+00  0.00000000000E+00  0.45593999997E+02  0.45594000000E+02  0.51100000000E-03 0.  1.
         11   -1    0    0    0    0 -0.00000000000E+00 -0.00000000000E+00 -0.45593999997E+02  0.45594000000E+02  0.51100000000E-03 0. -1.
    9900012    2    1    2    0    0  0.93075363692E+01  0.10751114701E+02 -0.28539465917E+02  0.59301987151E+02  0.50000078646E+02 0.  0.
        -12    1    1    2    0    0 -0.93075363692E+01 -0.10751114701E+02  0.28539465917E+02  0.31886012849E+02  0.00000000000E+00 0.  1.
         11    1    3    3    0    0 -0.35528933810E+01  0.18205665760E+01 -0.28227292934E+02  0.28508201990E+02  0.51100000000E-03 0. -1.
        -11    1    3    3    0    0  0.10647356342E+02  0.12372142833E+02 -0.10775527568E+02  0.19558837133E+02  0.51100000000E-03 0.  1.
        -12    1    3    3    0    0  0.22130734084E+01 -0.34415947080E+01  0.10463354584E+02  0.11234948029E+02  0.00000000000E+00 0.  1.
</event>
<event>
 7    1  0.6953847E-012  0.5930195E+02  0.7816164E-02  0.1266605E+00
        -11   -1    0    0    0    0  0.00000000000E+00  0.00000000000E+00  0.45593999997E+02  0.45594000000E+02  0.51100000000E-03 0.  1.
         11   -1    0    0    0    0 -0.00000000000E+00 -0.00000000000E+00 -0.45593999997E+02  0.45594000000E+02  0.51100000000E-03 0. -1.
    9900012    2    1    2    0    0  0.15824889742E+02  0.16482888114E+02 -0.22239778890E+02  0.59301945039E+02  0.50000001844E+02 0.  0.
        -12    1    1    2    0    0 -0.15824889742E+02 -0.16482888114E+02  0.22239778890E+02  0.31886054961E+02  0.00000000000E+00 0.  1.
         11    1    3    3    0    0 -0.50833856562E+01  0.14559623239E+01 -0.57385000634E+01  0.78032697798E+01  0.51100000000E-03 0. -1.
        -11    1    3    3    0    0  0.17195433521E+02 -0.10310462978E+02  0.16390161673E+01  0.20116534369E+02  0.51100000000E-03 0.  1.
         12    1    3    3    0    0  0.37128418777E+01  0.25337388768E+02 -0.18140294994E+02  0.31382140890E+02  0.00000000000E+00 0. -1.
</event>
<event>
 7    1  0.6953847E-012  0.5930196E+02  0.7816164E-02  0.1266605E+00
        -11   -1    0    0    0    0  0.00000000000E+00  0.00000000000E+00  0.45593999997E+02  0.45594000000E+02  0.51100000000E-03 0.  1.
         11   -1    0    0    0    0 -0.00000000000E+00 -0.00000000000E+00 -0.45593999997E+02  0.45594000000E+02  0.51100000000E-03 0. -1.
    9900012    2    1    2    0    0 -0.12599048918E+02  0.24808670745E+01 -0.29186106626E+02  0.59301959872E+02  0.50000028896E+02 0.  0.
        -12    1    1    2    0    0  0.12599048918E+02 -0.24808670745E+01  0.29186106626E+02  0.31886040128E+02  0.00000000000E+00 0.  1.
         11    1    3    3    0    0  0.16163945061E+00 -0.19942895930E+02 -0.13586055270E+02  0.24131434343E+02  0.51100000000E-03 0. -1.
        -11    1    3    3    0    0 -0.11380480211E+02  0.18115657273E+02 -0.19687329597E+02  0.29073756469E+02  0.51100000000E-03 0.  1.
        -12    1    3    3    0    0 -0.13802081568E+01  0.43081057315E+01  0.40872782416E+01  0.60967690602E+01  0.00000000000E+00 0.  1.
</event>
<event>
 7    1  0.6953847E-012  0.5930195E+02  0.7816164E-02  0.1266605E+00
        -11   -1    0    0    0    0  0.00000000000E+00  0.00000000000E+00  0.45593999997E+02  0.45594000000E+02  0.51100000000E-03 0.  1.
         11   -1    0    0    0    0 -0.00000000000E+00 -0.00000000000E+00 -0.45593999997E+02  0.45594000000E+02  0.51100000000E-03 0. -1.
    9900012    2    1    2    0    0  0.24937476038E+01  0.28060814246E+02 -0.14936269554E+02  0.59301949422E+02  0.50000009838E+02 0.  0.
        -12    1    1    2    0    0 -0.24937476038E+01 -0.28060814246E+02  0.14936269554E+02  0.31886050578E+02  0.00000000000E+00 0.  1.
         11    1    3    3    0    0  0.21921846893E+02  0.11468420594E+02 -0.16357427549E+02  0.29659020186E+02  0.51100000000E-03 0. -1.
        -11    1    3    3    0    0 -0.47010046579E+01  0.26966235519E+01  0.67973413333E+01  0.86933924814E+01  0.51100000000E-03 0.  1.
        -12    1    3    3    0    0 -0.14727094631E+02  0.13895770100E+02 -0.53761833375E+01  0.20949536755E+02  0.00000000000E+00 0.  1.
</event>
<event>
 7    1  0.6953847E-012  0.5930194E+02  0.7816164E-02  0.1266605E+00
        -11   -1    0    0    0    0  0.00000000000E+00  0.00000000000E+00  0.45593999997E+02  0.45594000000E+02  0.51100000000E-03 0.  1.
         11   -1    0    0    0    0 -0.00000000000E+00 -0.00000000000E+00 -0.45593999997E+02  0.45594000000E+02  0.51100000000E-03 0. -1.
    9900012    2    1    2    0    0 -0.18326524059E+02  0.66521453845E+01 -0.25231098874E+02  0.59301939211E+02  0.49999991215E+02 0.  0.
        -12    1    1    2    0    0  0.18326524059E+02 -0.66521453845E+01  0.25231098874E+02  0.31886060789E+02  0.00000000000E+00 0.  1.
         11    1    3    3    0    0 -0.81024147606E+00  0.51118220709E+01 -0.70988120892E+01  0.87852347421E+01  0.51100000000E-03 0. -1.
        -11    1    3    3    0    0  0.13358731723E+02  0.20752447151E+01 -0.13828098683E+02  0.19338528055E+02  0.51100000000E-03 0.  1.
         12    1    3    3    0    0 -0.30875014306E+02 -0.53492140157E+00 -0.43041881017E+01  0.31178176414E+02  0.00000000000E+00 0. -1.
</event>
<event>
 7    1  0.6953847E-012  0.5930195E+02  0.7816164E-02  0.1266605E+00
        -11   -1    0    0    0    0  0.00000000000E+00  0.00000000000E+00  0.45593999997E+02  0.45594000000E+02  0.51100000000E-03 0.  1.
         11   -1    0    0    0    0 -0.00000000000E+00 -0.00000000000E+00 -0.45593999997E+02  0.45594000000E+02  0.51100000000E-03 0. -1.
    9900012    2    1    2    0    0  0.63493021482E+00 -0.31415116636E+02 -0.54228510030E+01  0.59301952853E+02  0.50000016096E+02 0.  0.
        -12    1    1    2    0    0 -0.63493021482E+00  0.31415116636E+02  0.54228510030E+01  0.31886047147E+02  0.00000000000E+00 0.  1.
         11    1    3    3    0    0  0.12337291049E+02 -0.48200483537E+01  0.66450877785E+01  0.14818866637E+02  0.51100000000E-03 0. -1.
        -11    1    3    3    0    0 -0.16643770717E+02 -0.13782882761E+02  0.53897809957E+01  0.22271791583E+02  0.51100000000E-03 0.  1.
         12    1    3    3    0    0  0.49414098831E+01 -0.12812185521E+02 -0.17457719777E+02  0.22211294633E+02  0.00000000000E+00 0. -1.
</event>
<event>
 7    1  0.6953847E-012  0.5930214E+02  0.7816164E-02  0.1266604E+00
        -11   -1    0    0    0    0  0.00000000000E+00  0.00000000000E+00  0.45593999997E+02  0.45594000000E+02  0.51100000000E-03 0. -1.
         11   -1    0    0    0    0 -0.00000000000E+00 -0.00000000000E+00 -0.45593999997E+02  0.45594000000E+02  0.51100000000E-03 0.  1.
    9900012    2    1    2    0    0  0.19936651439E+02 -0.18445759755E+02  0.16703060783E+02  0.59302135372E+02  0.50000348965E+02 0.  0.
        -12    1    1    2    0    0 -0.19936651439E+02  0.18445759755E+02 -0.16703060783E+02  0.31885864628E+02  0.00000000000E+00 0.  1.
         11    1    3    3    0    0  0.89706861558E+01  0.38990750657E-01  0.16050835756E+00  0.89722067285E+01  0.51100000000E-03 0. -1.
        -11    1    3    3    0    0 -0.26772458130E+01 -0.25595964485E+01 -0.13328158175E+02  0.13833256295E+02  0.51100000000E-03 0.  1.
         12    1    3    3    0    0  0.13643211096E+02 -0.15925154057E+02  0.29870710600E+02  0.36496672349E+02  0.00000000000E+00 0. -1.
</event>
<event>
 7    1  0.6953847E-012  0.5930194E+02  0.7816164E-02  0.1266605E+00
        -11   -1    0    0    0    0  0.00000000000E+00  0.00000000000E+00  0.45593999997E+02  0.45594000000E+02  0.51100000000E-03 0.  1.
         11   -1    0    0    0    0 -0.00000000000E+00 -0.00000000000E+00 -0.45593999997E+02  0.45594000000E+02  0.51100000000E-03 0. -1.
    9900012    2    1    2    0    0 -0.27343783743E+02  0.13273356585E+02  0.96361845710E+01  0.59301944152E+02  0.50000000227E+02 0.  0.
        -12    1    1    2    0    0  0.27343783743E+02 -0.13273356585E+02 -0.96361845710E+01  0.31886055848E+02  0.00000000000E+00 0.  1.
         11    1    3    3    0    0 -0.57233213109E+01  0.99529341090E+01 -0.47596289962E+01  0.12428651280E+02  0.51100000000E-03 0. -1.
        -11    1    3    3    0    0 -0.10044590647E+02 -0.14575142183E+02 -0.46374983859E+01  0.18298496181E+02  0.51100000000E-03 0.  1.
        -12    1    3    3    0    0 -0.11575871785E+02  0.17895564659E+02  0.19033311953E+02  0.28574796691E+02  0.00000000000E+00 0.  1.
</event>
<event>
 7    1  0.6953847E-012  0.5930195E+02  0.7816164E-02  0.1266605E+00
        -11   -1    0    0    0    0  0.00000000000E+00  0.00000000000E+00  0.45593999997E+02  0.45594000000E+02  0.51100000000E-03 0.  1.
         11   -1    0    0    0    0 -0.00000000000E+00 -0.00000000000E+00 -0.45593999997E+02  0.45594000000E+02  0.51100000000E-03 0. -1.
    9900012    2    1    2    0    0  0.10848509722E+01  0.12434100371E+02 -0.29341715192E+02  0.59301952831E+02  0.50000016055E+02 0.  0.
        -12    1    1    2    0    0 -0.10848509722E+01 -0.12434100371E+02  0.29341715192E+02  0.31886047169E+02  0.00000000000E+00 0.  1.
         11    1    3    3    0    0  0.12954247351E+02  0.19044069257E+02 -0.45986594874E+01  0.23486948879E+02  0.51100000000E-03 0. -1.
        -11    1    3    3    0    0 -0.50632556578E+01 -0.30416990014E+01  0.32807539199E+01  0.67566143308E+01  0.51100000000E-03 0.  1.
         12    1    3    3    0    0 -0.68061407213E+01 -0.35682698850E+01 -0.28023809625E+02  0.29058389621E+02  0.00000000000E+00 0. -1.
</event>
<event>
 7    1  0.6953847E-012  0.5930194E+02  0.7816164E-02  0.1266605E+00
        -11   -1    0    0    0    0  0.00000000000E+00  0.00000000000E+00  0.45593999997E+02  0.45594000000E+02  0.51100000000E-03 0.  1.
         11   -1    0    0    0    0 -0.00000000000E+00 -0.00000000000E+00 -0.45593999997E+02  0.45594000000E+02  0.51100000000E-03 0. -1.
    9900012    2    1    2    0    0  0.19375596168E+02 -0.27374902393E+01 -0.25175650315E+02  0.59301938022E+02  0.49999989048E+02 0.  0.
        -12    1    1    2    0    0 -0.19375596168E+02  0.27374902393E+01  0.25175650315E+02  0.31886061978E+02  0.00000000000E+00 0.  1.
         11    1    3    3    0    0 -0.43914757480E+01  0.84574045159E+01 -0.19494342219E+02  0.21698896959E+02  0.51100000000E-03 0. -1.
        -11    1    3    3    0    0  0.13691763218E+01 -0.10429386995E+02 -0.10299001641E+02  0.14721283638E+02  0.51100000000E-03 0.  1.
         12    1    3    3    0    0  0.22397895594E+02 -0.76550776003E+00  0.46176935462E+01  0.22881757425E+02  0.00000000000E+00 0. -1.
</event>
<event>
 7    1  0.6953847E-012  0.5930194E+02  0.7816164E-02  0.1266605E+00
        -11   -1    0    0    0    0  0.00000000000E+00  0.00000000000E+00  0.45593999997E+02  0.45594000000E+02  0.51100000000E-03 0.  1.
         11   -1    0    0    0    0 -0.00000000000E+00 -0.00000000000E+00 -0.45593999997E+02  0.45594000000E+02  0.51100000000E-03 0. -1.
    9900012    2    1    2    0    0  0.21762320812E+02  0.78470036595E+01 -0.21944170650E+02  0.59301941932E+02  0.49999996179E+02 0.  0.
        -12    1    1    2    0    0 -0.21762320812E+02 -0.78470036595E+01  0.21944170650E+02  0.31886058068E+02  0.00000000000E+00 0.  1.
         11    1    3    3    0    0 -0.22290014395E+01  0.21747181668E+02 -0.89073995487E+01  0.23606145913E+02  0.51100000000E-03 0. -1.
        -11    1    3    3    0    0  0.20204200703E+02 -0.17626789046E+01 -0.10052885769E+02  0.22635752153E+02  0.51100000000E-03 0.  1.
        -12    1    3    3    0    0  0.37871215483E+01 -0.12137499104E+02 -0.29838853323E+01  0.13060043866E+02  0.00000000000E+00 0.  1.
</event>
<event>
 7    1  0.6953847E-012  0.5930199E+02  0.7816164E-02  0.1266605E+00
        -11   -1    0    0    0    0  0.00000000000E+00  0.00000000000E+00  0.45593999997E+02  0.45594000000E+02  0.51100000000E-03 0. -1.
         11   -1    0    0    0    0 -0.00000000000E+00 -0.00000000000E+00 -0.45593999997E+02  0.45594000000E+02  0.51100000000E-03 0.  1.
    9900012    2    1    2    0    0 -0.22613932314E+02  0.18687684262E+02  0.12493915708E+02  0.59301993547E+02  0.50000090312E+02 0.  0.
        -12    1    1    2    0    0  0.22613932314E+02 -0.18687684262E+02 -0.12493915708E+02  0.31886006453E+02  0.00000000000E+00 0.  1.
         11    1    3    3    0    0 -0.60157449585E+01  0.20827251000E+02  0.11089877394E+02  0.24350543166E+02  0.51100000000E-03 0. -1.
        -11    1    3    3    0    0  0.78202341480E+01 -0.10455002829E+00 -0.54205412695E+01  0.95157375307E+01  0.51100000000E-03 0.  1.
         12    1    3    3    0    0 -0.24418421503E+02 -0.20350167096E+01  0.68245795840E+01  0.25435712851E+02  0.00000000000E+00 0. -1.
</event>
<event>
 7    1  0.6953847E-012  0.5930194E+02  0.7816164E-02  0.1266605E+00
        -11   -1    0    0    0    0  0.00000000000E+00  0.00000000000E+00  0.45593999997E+02  0.45594000000E+02  0.51100000000E-03 0. -1.
         11   -1    0    0    0    0 -0.00000000000E+00 -0.00000000000E+00 -0.45593999997E+02  0.45594000000E+02  0.51100000000E-03 0.  1.
    9900012    2    1    2    0    0  0.25091388617E+02 -0.58062090797E+01  0.18799756231E+02  0.59301942216E+02  0.49999996697E+02 0.  0.
        -12    1    1    2    0    0 -0.25091388617E+02  0.58062090797E+01 -0.18799756231E+02  0.31886057784E+02  0.00000000000E+00 0.  1.
         11    1    3    3    0    0  0.22623006520E+02  0.97243638841E+01  0.60717897607E+01  0.25361985492E+02  0.51100000000E-03 0. -1.
        -11    1    3    3    0    0  0.33320236085E+01 -0.15846349321E+02 -0.44057898070E+01  0.16781542009E+02  0.51100000000E-03 0.  1.
         12    1    3    3    0    0 -0.86364151079E+00  0.31577635689E+00  0.17133756277E+02  0.17158414715E+02  0.00000000000E+00 0. -1.
</event>
<event>
 7    1  0.6953847E-012  0.5930199E+02  0.7816164E-02  0.1266605E+00
        -11   -1    0    0    0    0  0.00000000000E+00  0.00000000000E+00  0.45593999997E+02  0.45594000000E+02  0.51100000000E-03 0. -1.
         11   -1    0    0    0    0 -0.00000000000E+00 -0.00000000000E+00 -0.45593999997E+02  0.45594000000E+02  0.51100000000E-03 0.  1.
    9900012    2    1    2    0    0 -0.16245299443E+02  0.58251362547E+01  0.26811858154E+02  0.59301988898E+02  0.50000081832E+02 0.  0.
        -12    1    1    2    0    0  0.16245299443E+02 -0.58251362547E+01 -0.26811858154E+02  0.31886011102E+02  0.00000000000E+00 0.  1.
         11    1    3    3    0    0 -0.10127858250E+02 -0.37281801948E+01  0.14469533089E+01  0.10888825209E+02  0.51100000000E-03 0. -1.
        -11    1    3    3    0    0  0.85462332171E+01 -0.10549707811E+02  0.17837370055E+02  0.22416650237E+02  0.51100000000E-03 0.  1.
        -12    1    3    3    0    0 -0.14663674410E+02  0.20103024261E+02  0.75275347901E+01  0.25996513452E+02  0.00000000000E+00 0.  1.
</event>
<event>
 7    1  0.6953847E-012  0.5930208E+02  0.7816164E-02  0.1266604E+00
        -11   -1    0    0    0    0  0.00000000000E+00  0.00000000000E+00  0.45593999997E+02  0.45594000000E+02  0.51100000000E-03 0.  1.
         11   -1    0    0    0    0 -0.00000000000E+00 -0.00000000000E+00 -0.45593999997E+02  0.45594000000E+02  0.51100000000E-03 0. -1.
    9900012    2    1    2    0    0  0.21071588170E+02 -0.19200164993E+02 -0.14284745665E+02  0.59302076421E+02  0.50000241453E+02 0.  0.
        -12    1    1    2    0    0 -0.21071588170E+02  0.19200164993E+02  0.14284745665E+02  0.31885923579E+02  0.00000000000E+00 0.  1.
         11    1    3    3    0    0  0.11012491805E+02 -0.35871886358E+01 -0.15157083500E+02  0.19075640974E+02  0.51100000000E-03 0. -1.
        -11    1    3    3    0    0  0.14985044244E+02 -0.11715692151E+02 -0.14305419504E+02  0.23800294558E+02  0.51100000000E-03 0.  1.
        -12    1    3    3    0    0 -0.49259478791E+01 -0.38972842062E+01  0.15177757339E+02  0.16426140890E+02  0.00000000000E+00 0.  1.
</event>
<event>
 7    1  0.6953847E-012  0.5930198E+02  0.7816164E-02  0.1266605E+00
        -11   -1    0    0    0    0  0.00000000000E+00  0.00000000000E+00  0.45593999997E+02  0.45594000000E+02  0.51100000000E-03 0. -1.
         11   -1    0    0    0    0 -0.00000000000E+00 -0.00000000000E+00 -0.45593999997E+02  0.45594000000E+02  0.51100000000E-03 0.  1.
    9900012    2    1    2    0    0 -0.26331373571E+02  0.17736571335E+02  0.29649817137E+01  0.59301979342E+02  0.50000064405E+02 0.  0.
        -12    1    1    2    0    0  0.26331373571E+02 -0.17736571335E+02 -0.29649817137E+01  0.31886020658E+02  0.00000000000E+00 0.  1.
         11    1    3    3    0    0 -0.19035809089E+02  0.20474153836E+02  0.11508760290E+02  0.30232508442E+02  0.51100000000E-03 0. -1.
        -11    1    3    3    0    0 -0.96858920303E+01  0.33728111736E+01  0.68515029914E+01  0.12334320133E+02  0.51100000000E-03 0.  1.
        -12    1    3    3    0    0  0.23903275491E+01 -0.61103936753E+01 -0.15395281568E+02  0.16735150768E+02  0.00000000000E+00 0.  1.
</event>
<event>
 7    1  0.6953847E-012  0.5930198E+02  0.7816164E-02  0.1266605E+00
        -11   -1    0    0    0    0  0.00000000000E+00  0.00000000000E+00  0.45593999997E+02  0.45594000000E+02  0.51100000000E-03 0.  1.
         11   -1    0    0    0    0 -0.00000000000E+00 -0.00000000000E+00 -0.45593999997E+02  0.45594000000E+02  0.51100000000E-03 0. -1.
    9900012    2    1    2    0    0 -0.26946943751E+02 -0.63849346498E+01 -0.15805484830E+02  0.59301976122E+02  0.50000058532E+02 0.  0.
        -12    1    1    2    0    0  0.26946943751E+02  0.63849346498E+01  0.15805484830E+02  0.31886023878E+02  0.00000000000E+00 0.  1.
         11    1    3    3    0    0 -0.25515721182E+01 -0.45531970898E+01 -0.95930961267E+01  0.10921063024E+02  0.51100000000E-03 0. -1.
        -11    1    3    3    0    0  0.93913573958E+01 -0.94735780816E+01 -0.18347428955E+01  0.13465235132E+02  0.51100000000E-03 0.  1.
         12    1    3    3    0    0 -0.33786729029E+02  0.76418405216E+01 -0.43776458082E+01  0.34915677966E+02  0.00000000000E+00 0. -1.
</event>
<event>
 7    1  0.6953847E-012  0.5930235E+02  0.7816164E-02  0.1266603E+00
        -11   -1    0    0    0    0  0.00000000000E+00  0.00000000000E+00  0.45593999997E+02  0.45594000000E+02  0.51100000000E-03 0. -1.
         11   -1    0    0    0    0 -0.00000000000E+00 -0.00000000000E+00 -0.45593999997E+02  0.45594000000E+02  0.51100000000E-03 0.  1.
    9900012    2    1    2    0    0  0.75737534072E+01  0.19271848486E+02  0.24247248689E+02  0.59302345644E+02  0.50000732446E+02 0.  0.
        -12    1    1    2    0    0 -0.75737534072E+01 -0.19271848486E+02 -0.24247248689E+02  0.31885654356E+02  0.00000000000E+00 0.  1.
         11    1    3    3    0    0 -0.67713605332E+01 -0.12806470612E+02  0.11888469647E+02  0.18740136708E+02  0.51100000000E-03 0. -1.
        -11    1    3    3    0    0 -0.25768931726E+01  0.68003638602E+01  0.61314653297E+01  0.95121077793E+01  0.51100000000E-03 0.  1.
        -12    1    3    3    0    0  0.16922007113E+02  0.25277955238E+02  0.62273137121E+01  0.31050101156E+02  0.00000000000E+00 0.  1.
</event>
<event>
 7    1  0.6953847E-012  0.5930197E+02  0.7816164E-02  0.1266605E+00
        -11   -1    0    0    0    0  0.00000000000E+00  0.00000000000E+00  0.45593999997E+02  0.45594000000E+02  0.51100000000E-03 0.  1.
         11   -1    0    0    0    0 -0.00000000000E+00 -0.00000000000E+00 -0.45593999997E+02  0.45594000000E+02  0.51100000000E-03 0. -1.
    9900012    2    1    2    0    0  0.68207565897E+01  0.94752614777E+01 -0.29671796567E+02  0.59301971523E+02  0.50000050144E+02 0.  0.
        -12    1    1    2    0    0 -0.68207565897E+01 -0.94752614777E+01  0.29671796567E+02  0.31886028477E+02  0.00000000000E+00 0.  1.
         11    1    3    3    0    0 -0.28647469911E+01  0.20775904504E+01  0.55230055281E+01  0.65594777023E+01  0.51100000000E-03 0. -1.
        -11    1    3    3    0    0 -0.29437682733E+01  0.87158029199E+01  0.50831231074E+01  0.10510429723E+02  0.51100000000E-03 0.  1.
         12    1    3    3    0    0  0.12629271854E+02 -0.13181318927E+01 -0.40277925203E+02  0.42232064097E+02  0.00000000000E+00 0. -1.
</event>
<event>
 7    1  0.6953847E-012  0.5930171E+02  0.7816164E-02  0.1266606E+00
        -11   -1    0    0    0    0  0.00000000000E+00  0.00000000000E+00  0.45593999997E+02  0.45594000000E+02  0.51100000000E-03 0.  1.
         11   -1    0    0    0    0 -0.00000000000E+00 -0.00000000000E+00 -0.45593999997E+02  0.45594000000E+02  0.51100000000E-03 0. -1.
    9900012    2    1    2    0    0  0.46649250861E+01  0.18388407389E+02 -0.25628901470E+02  0.59301707602E+02  0.49999568815E+02 0.  0.
        -12    1    1    2    0    0 -0.46649250861E+01 -0.18388407389E+02  0.25628901470E+02  0.31886292398E+02  0.00000000000E+00 0.  1.
         11    1    3    3    0    0 -0.21835520730E+01  0.35190578001E+01 -0.18913231028E+02  0.19361352630E+02  0.51100000000E-03 0. -1.
        -11    1    3    3    0    0 -0.75487875395E+01 -0.69373890915E+01 -0.90902172922E+01  0.13701956481E+02  0.51100000000E-03 0.  1.
        -12    1    3    3    0    0  0.14397264699E+02  0.21806738680E+02  0.23745468510E+01  0.26238398492E+02  0.00000000000E+00 0.  1.
</event>
<event>
 7    1  0.6953847E-012  0.5930195E+02  0.7816164E-02  0.1266605E+00
        -11   -1    0    0    0    0  0.00000000000E+00  0.00000000000E+00  0.45593999997E+02  0.45594000000E+02  0.51100000000E-03 0. -1.
         11   -1    0    0    0    0 -0.00000000000E+00 -0.00000000000E+00 -0.45593999997E+02  0.45594000000E+02  0.51100000000E-03 0.  1.
    9900012    2    1    2    0    0 -0.11249852119E+02  0.29610037820E+02  0.36614783658E+01  0.59301953895E+02  0.50000017996E+02 0.  0.
        -12    1    1    2    0    0  0.11249852119E+02 -0.29610037820E+02 -0.36614783658E+01  0.31886046105E+02  0.00000000000E+00 0.  1.
         11    1    3    3    0    0 -0.11566178535E+02  0.11100083232E+01 -0.93877395505E+01  0.14937813043E+02  0.51100000000E-03 0. -1.
        -11    1    3    3    0    0  0.48270696989E+01  0.23410309531E+02 -0.55687633902E+01  0.24542907737E+02  0.51100000000E-03 0.  1.
        -12    1    3    3    0    0 -0.45107432828E+01  0.50897199651E+01  0.18617981306E+02  0.19821233115E+02  0.00000000000E+00 0.  1.
</event>
<event>
 7    1  0.6953847E-012  0.5930196E+02  0.7816164E-02  0.1266605E+00
        -11   -1    0    0    0    0  0.00000000000E+00  0.00000000000E+00  0.45593999997E+02  0.45594000000E+02  0.51100000000E-03 0. -1.
         11   -1    0    0    0    0 -0.00000000000E+00 -0.00000000000E+00 -0.45593999997E+02  0.45594000000E+02  0.51100000000E-03 0.  1.
    9900012    2    1    2    0    0 -0.86086834421E+00  0.30100950252E+02  0.10483869566E+02  0.59301955694E+02  0.50000021277E+02 0.  0.
        -12    1    1    2    0    0  0.86086834421E+00 -0.30100950252E+02 -0.10483869566E+02  0.31886044306E+02  0.00000000000E+00 0.  1.
         11    1    3    3    0    0 -0.70088059313E+01  0.24524495278E+02  0.20349069270E+02  0.32629110464E+02  0.51100000000E-03 0. -1.
        -11    1    3    3    0    0  0.71423925898E+01 -0.58667798201E+01  0.27190743577E+01  0.96346376677E+01  0.51100000000E-03 0.  1.
        -12    1    3    3    0    0 -0.99445500270E+00  0.11443234794E+02 -0.12584274062E+02  0.17038207563E+02  0.00000000000E+00 0.  1.
</event>
<event>
 7    1  0.6953847E-012  0.5930190E+02  0.7816164E-02  0.1266605E+00
        -11   -1    0    0    0    0  0.00000000000E+00  0.00000000000E+00  0.45593999997E+02  0.45594000000E+02  0.51100000000E-03 0.  1.
         11   -1    0    0    0    0 -0.00000000000E+00 -0.00000000000E+00 -0.45593999997E+02  0.45594000000E+02  0.51100000000E-03 0. -1.
    9900012    2    1    2    0    0 -0.53552483525E+01  0.29615457761E+02  0.10534188471E+02  0.59301903499E+02  0.49999926086E+02 0.  0.
        -12    1    1    2    0    0  0.53552483525E+01 -0.29615457761E+02 -0.10534188471E+02  0.31886096501E+02  0.00000000000E+00 0.  1.
         11    1    3    3    0    0  0.28457893684E+00  0.18346759907E+01 -0.13107759102E+01  0.22726977164E+01  0.51100000000E-03 0. -1.
        -11    1    3    3    0    0 -0.11989033880E+01  0.27839224853E+02 -0.13735226991E+02  0.31066320517E+02  0.51100000000E-03 0.  1.
        -12    1    3    3    0    0 -0.44409239014E+01 -0.58443082137E-01  0.25580191372E+02  0.25962885265E+02  0.00000000000E+00 0.  1.
</event>
<event>
 7    1  0.6953847E-012  0.5930195E+02  0.7816164E-02  0.1266605E+00
        -11   -1    0    0    0    0  0.00000000000E+00  0.00000000000E+00  0.45593999997E+02  0.45594000000E+02  0.51100000000E-03 0. -1.
         11   -1    0    0    0    0 -0.00000000000E+00 -0.00000000000E+00 -0.45593999997E+02  0.45594000000E+02  0.51100000000E-03 0.  1.
    9900012    2    1    2    0    0  0.22056538537E+02 -0.22757007200E+02  0.35139951979E+01  0.59301946133E+02  0.50000003839E+02 0.  0.
        -12    1    1    2    0    0 -0.22056538537E+02  0.22757007200E+02 -0.35139951979E+01  0.31886053867E+02  0.00000000000E+00 0.  1.
         11    1    3    3    0    0  0.18255313225E+02 -0.30212978707E+02 -0.25115381702E+01  0.35389099558E+02  0.51100000000E-03 0. -1.
        -11    1    3    3    0    0 -0.14536105074E+01  0.12274370832E+01 -0.77103181908E+01  0.79415736580E+01  0.51100000000E-03 0.  1.
         12    1    3    3    0    0  0.52548358198E+01  0.62285344229E+01  0.13735851559E+02  0.15971272917E+02  0.00000000000E+00 0. -1.
</event>
<event>
 7    1  0.6953847E-012  0.5930196E+02  0.7816164E-02  0.1266605E+00
        -11   -1    0    0    0    0  0.00000000000E+00  0.00000000000E+00  0.45593999997E+02  0.45594000000E+02  0.51100000000E-03 0.  1.
         11   -1    0    0    0    0 -0.00000000000E+00 -0.00000000000E+00 -0.45593999997E+02  0.45594000000E+02  0.51100000000E-03 0. -1.
    9900012    2    1    2    0    0  0.30896333112E+02  0.25954345165E+01 -0.74431279803E+01  0.59301955494E+02  0.50000020912E+02 0.  0.
        -12    1    1    2    0    0 -0.30896333112E+02 -0.25954345165E+01  0.74431279803E+01  0.31886044506E+02  0.00000000000E+00 0.  1.
         11    1    3    3    0    0  0.10407818480E+02 -0.63744245001E+01 -0.12479430878E+02  0.17455433782E+02  0.51100000000E-03 0. -1.
        -11    1    3    3    0    0  0.14515943417E+02 -0.84905616711E+01 -0.86124505557E+01  0.18893823213E+02  0.51100000000E-03 0.  1.
        -12    1    3    3    0    0  0.59725712150E+01  0.17460420688E+02  0.13648753454E+02  0.22952698498E+02  0.00000000000E+00 0.  1.
</event>
<event>
 7    1  0.6953847E-012  0.5930197E+02  0.7816164E-02  0.1266605E+00
        -11   -1    0    0    0    0  0.00000000000E+00  0.00000000000E+00  0.45593999997E+02  0.45594000000E+02  0.51100000000E-03 0. -1.
         11   -1    0    0    0    0 -0.00000000000E+00 -0.00000000000E+00 -0.45593999997E+02  0.45594000000E+02  0.51100000000E-03 0.  1.
    9900012    2    1    2    0    0  0.17010029969E+02  0.32490798150E+01  0.26773521867E+02  0.59301966813E+02  0.50000041555E+02 0.  0.
        -12    1    1    2    0    0 -0.17010029969E+02 -0.32490798150E+01 -0.26773521867E+02  0.31886033187E+02  0.00000000000E+00 0.  1.
         11    1    3    3    0    0  0.97049261588E+01  0.90690144031E+01  0.19210056642E+02  0.23355061346E+02  0.51100000000E-03 0. -1.
        -11    1    3    3    0    0 -0.48520061863E+01  0.44138732794E+01 -0.10191014968E+02  0.12119448325E+02  0.51100000000E-03 0.  1.
         12    1    3    3    0    0  0.12157109997E+02 -0.10233807868E+02  0.17754480194E+02  0.23827457143E+02  0.00000000000E+00 0. -1.
</event>
<event>
 7    1  0.6953847E-012  0.5930194E+02  0.7816164E-02  0.1266605E+00
        -11   -1    0    0    0    0  0.00000000000E+00  0.00000000000E+00  0.45593999997E+02  0.45594000000E+02  0.51100000000E-03 0. -1.
         11   -1    0    0    0    0 -0.00000000000E+00 -0.00000000000E+00 -0.45593999997E+02  0.45594000000E+02  0.51100000000E-03 0.  1.
    9900012    2    1    2    0    0 -0.15994191025E+02  0.12434296992E+02  0.24623061859E+02  0.59301936217E+02  0.49999985755E+02 0.  0.
        -12    1    1    2    0    0  0.15994191025E+02 -0.12434296992E+02 -0.24623061859E+02  0.31886063783E+02  0.00000000000E+00 0.  1.
         11    1    3    3    0    0 -0.10351501657E+02  0.18036378792E+01  0.44837286195E+01  0.11424120043E+02  0.51100000000E-03 0. -1.
        -11    1    3    3    0    0 -0.21211780154E+02  0.13691704052E+02  0.19668049255E+02  0.32003664461E+02  0.51100000000E-03 0.  1.
        -12    1    3    3    0    0  0.15569090786E+02 -0.30610449397E+01  0.47128398465E+00  0.15874151713E+02  0.00000000000E+00 0.  1.
</event>
<event>
 7    1  0.6953847E-012  0.5930194E+02  0.7816164E-02  0.1266605E+00
        -11   -1    0    0    0    0  0.00000000000E+00  0.00000000000E+00  0.45593999997E+02  0.45594000000E+02  0.51100000000E-03 0.  1.
         11   -1    0    0    0    0 -0.00000000000E+00 -0.00000000000E+00 -0.45593999997E+02  0.45594000000E+02  0.51100000000E-03 0. -1.
    9900012    2    1    2    0    0  0.43723683182E+01  0.88052348803E+01 -0.30332667840E+02  0.59301944987E+02  0.50000001750E+02 0.  0.
        -12    1    1    2    0    0 -0.43723683182E+01 -0.88052348803E+01  0.30332667840E+02  0.31886055013E+02  0.00000000000E+00 0.  1.
         11    1    3    3    0    0 -0.61493575224E+01  0.16034614084E+02 -0.10446936487E+02  0.20101291724E+02  0.51100000000E-03 0. -1.
        -11    1    3    3    0    0  0.72500033351E+01  0.97576963538E+01  0.86232448694E+00  0.12186828557E+02  0.51100000000E-03 0.  1.
         12    1    3    3    0    0  0.32717225055E+01 -0.16987075557E+02 -0.20748055839E+02  0.27013824706E+02  0.00000000000E+00 0. -1.
</event>
<event>
 7    1  0.6953847E-012  0.5930181E+02  0.7816164E-02  0.1266605E+00
        -11   -1    0    0    0    0  0.00000000000E+00  0.00000000000E+00  0.45593999997E+02  0.45594000000E+02  0.51100000000E-03 0.  1.
         11   -1    0    0    0    0 -0.00000000000E+00 -0.00000000000E+00 -0.45593999997E+02  0.45594000000E+02  0.51100000000E-03 0. -1.
    9900012    2    1    2    0    0  0.65161504913E+01 -0.22316605940E+02 -0.21822881059E+02  0.59301807759E+02  0.49999751478E+02 0.  0.
        -12    1    1    2    0    0 -0.65161504913E+01  0.22316605940E+02  0.21822881059E+02  0.31886192241E+02  0.00000000000E+00 0.  1.
         11    1    3    3    0    0 -0.12006019703E+01 -0.10310084039E+02  0.78231766243E+01  0.12997744833E+02  0.51100000000E-03 0. -1.
        -11    1    3    3    0    0 -0.35717809463E+01 -0.10599547650E+02  0.31259684421E+01  0.11613772362E+02  0.51100000000E-03 0.  1.
         12    1    3    3    0    0  0.11288533408E+02 -0.14069742508E+01 -0.32772026125E+02  0.34690290564E+02  0.00000000000E+00 0. -1.
</event>
<event>
 7    1  0.6953847E-012  0.5930194E+02  0.7816164E-02  0.1266605E+00
        -11   -1    0    0    0    0  0.00000000000E+00  0.00000000000E+00  0.45593999997E+02  0.45594000000E+02  0.51100000000E-03 0. -1.
         11   -1    0    0    0    0 -0.00000000000E+00 -0.00000000000E+00 -0.45593999997E+02  0.45594000000E+02  0.51100000000E-03 0.  1.
    9900012    2    1    2    0    0 -0.15799452217E+02  0.21234870622E+02  0.17781408711E+02  0.59301938524E+02  0.49999989963E+02 0.  0.
        -12    1    1    2    0    0  0.15799452217E+02 -0.21234870622E+02 -0.17781408711E+02  0.31886061476E+02  0.00000000000E+00 0.  1.
         11    1    3    3    0    0 -0.77554117766E+01  0.23804299614E+02  0.28614615230E+02  0.38020879751E+02  0.51100000000E-03 0. -1.
        -11    1    3    3    0    0  0.27665954508E+01 -0.35840712968E+01  0.15740942711E+01  0.47934737388E+01  0.51100000000E-03 0.  1.
        -12    1    3    3    0    0 -0.10810635891E+02  0.10146423045E+01 -0.12407300790E+02  0.16487585035E+02  0.00000000000E+00 0.  1.
</event>
<event>
 7    1  0.6953847E-012  0.5930196E+02  0.7816164E-02  0.1266605E+00
        -11   -1    0    0    0    0  0.00000000000E+00  0.00000000000E+00  0.45593999997E+02  0.45594000000E+02  0.51100000000E-03 0.  1.
         11   -1    0    0    0    0 -0.00000000000E+00 -0.00000000000E+00 -0.45593999997E+02  0.45594000000E+02  0.51100000000E-03 0. -1.
    9900012    2    1    2    0    0  0.27669889024E+02  0.48943162761E+01 -0.15071245177E+02  0.59301960397E+02  0.50000029853E+02 0.  0.
        -12    1    1    2    0    0 -0.27669889024E+02 -0.48943162761E+01  0.15071245177E+02  0.31886039603E+02  0.00000000000E+00 0.  1.
         11    1    3    3    0    0  0.13163243368E+02 -0.33313277085E+01 -0.17492773897E+02  0.22144205995E+02  0.51100000000E-03 0. -1.
        -11    1    3    3    0    0  0.16915258476E+02  0.34031496937E+01 -0.12490904416E+02  0.21300941072E+02  0.51100000000E-03 0.  1.
        -12    1    3    3    0    0 -0.24086128200E+01  0.48224942909E+01  0.14912433137E+02  0.15856813330E+02  0.00000000000E+00 0.  1.
</event>
<event>
 7    1  0.6953847E-012  0.5930197E+02  0.7816164E-02  0.1266605E+00
        -11   -1    0    0    0    0  0.00000000000E+00  0.00000000000E+00  0.45593999997E+02  0.45594000000E+02  0.51100000000E-03 0.  1.
         11   -1    0    0    0    0 -0.00000000000E+00 -0.00000000000E+00 -0.45593999997E+02  0.45594000000E+02  0.51100000000E-03 0. -1.
    9900012    2    1    2    0    0  0.13119695587E+02  0.15098479379E+02 -0.24831999351E+02  0.59301973537E+02  0.50000053818E+02 0.  0.
        -12    1    1    2    0    0 -0.13119695587E+02 -0.15098479379E+02  0.24831999351E+02  0.31886026463E+02  0.00000000000E+00 0.  1.
         11    1    3    3    0    0  0.68315521051E+01 -0.17843047386E+01  0.22376631870E+01  0.74068201250E+01  0.51100000000E-03 0. -1.
        -11    1    3    3    0    0  0.20742449531E+02  0.32205378827E+01 -0.38836186670E+01  0.21347214596E+02  0.51100000000E-03 0.  1.
        -12    1    3    3    0    0 -0.14454306049E+02  0.13662246234E+02 -0.23186043871E+02  0.30547938816E+02  0.00000000000E+00 0.  1.
</event>
<event>
 7    1  0.6953847E-012  0.5930194E+02  0.7816164E-02  0.1266605E+00
        -11   -1    0    0    0    0  0.00000000000E+00  0.00000000000E+00  0.45593999997E+02  0.45594000000E+02  0.51100000000E-03 0.  1.
         11   -1    0    0    0    0 -0.00000000000E+00 -0.00000000000E+00 -0.45593999997E+02  0.45594000000E+02  0.51100000000E-03 0. -1.
    9900012    2    1    2    0    0 -0.21901834513E+02  0.20772315003E+02 -0.10273328128E+02  0.59301941974E+02  0.49999996254E+02 0.  0.
        -12    1    1    2    0    0  0.21901834513E+02 -0.20772315003E+02  0.10273328128E+02  0.31886058026E+02  0.00000000000E+00 0.  1.
         11    1    3    3    0    0 -0.14225442675E+02  0.34769157750E+01 -0.15753951427E+02  0.21509048059E+02  0.51100000000E-03 0. -1.
        -11    1    3    3    0    0 -0.56412115142E+01  0.39594503513E+01  0.18070622085E+02  0.19340317920E+02  0.51100000000E-03 0.  1.
         12    1    3    3    0    0 -0.20351803241E+01  0.13335948877E+02 -0.12589998786E+02  0.18452575995E+02  0.00000000000E+00 0. -1.
</event>
<event>
 7    1  0.6953847E-012  0.5930192E+02  0.7816164E-02  0.1266605E+00
        -11   -1    0    0    0    0  0.00000000000E+00  0.00000000000E+00  0.45593999997E+02  0.45594000000E+02  0.51100000000E-03 0. -1.
         11   -1    0    0    0    0 -0.00000000000E+00 -0.00000000000E+00 -0.45593999997E+02  0.45594000000E+02  0.51100000000E-03 0.  1.
    9900012    2    1    2    0    0  0.21592547410E+02  0.86255722377E+01  0.21819333739E+02  0.59301922711E+02  0.49999961123E+02 0.  0.
        -12    1    1    2    0    0 -0.21592547410E+02 -0.86255722377E+01 -0.21819333739E+02  0.31886077289E+02  0.00000000000E+00 0.  1.
         11    1    3    3    0    0  0.25254719845E+02  0.14783509993E+00  0.18281293304E+00  0.25255814192E+02  0.51100000000E-03 0. -1.
        -11    1    3    3    0    0  0.41738533327E+01 -0.64080571093E+00 -0.39458302480E+01  0.57793823380E+01  0.51100000000E-03 0.  1.
        -12    1    3    3    0    0 -0.78360257677E+01  0.91185428487E+01  0.25582351054E+02  0.28266726180E+02  0.00000000000E+00 0.  1.
</event>
<event>
 7    1  0.6953847E-012  0.5930192E+02  0.7816164E-02  0.1266605E+00
        -11   -1    0    0    0    0  0.00000000000E+00  0.00000000000E+00  0.45593999997E+02  0.45594000000E+02  0.51100000000E-03 0. -1.
         11   -1    0    0    0    0 -0.00000000000E+00 -0.00000000000E+00 -0.45593999997E+02  0.45594000000E+02  0.51100000000E-03 0.  1.
    9900012    2    1    2    0    0 -0.21120677651E+02 -0.96406796806E+01  0.21856261858E+02  0.59301922920E+02  0.49999961505E+02 0.  0.
        -12    1    1    2    0    0  0.21120677651E+02  0.96406796806E+01 -0.21856261858E+02  0.31886077080E+02  0.00000000000E+00 0.  1.
         11    1    3    3    0    0  0.36229853817E+01 -0.99646333178E+01  0.12428790562E+02  0.16336914499E+02  0.51100000000E-03 0. -1.
        -11    1    3    3    0    0  0.41005975476E+01 -0.82284119751E+01  0.90160353508E+01  0.12876744837E+02  0.51100000000E-03 0.  1.
        -12    1    3    3    0    0 -0.28844260581E+02  0.85523656123E+01  0.41143594423E+00  0.30088263585E+02  0.00000000000E+00 0.  1.
</event>
<event>
 7    1  0.6953847E-012  0.5930204E+02  0.7816164E-02  0.1266604E+00
        -11   -1    0    0    0    0  0.00000000000E+00  0.00000000000E+00  0.45593999997E+02  0.45594000000E+02  0.51100000000E-03 0.  1.
         11   -1    0    0    0    0 -0.00000000000E+00 -0.00000000000E+00 -0.45593999997E+02  0.45594000000E+02  0.51100000000E-03 0. -1.
    9900012    2    1    2    0    0  0.90059337087E+01 -0.30453734652E+02 -0.28596511667E+01  0.59302040692E+02  0.50000176292E+02 0.  0.
        -12    1    1    2    0    0 -0.90059337087E+01  0.30453734652E+02  0.28596511667E+01  0.31885959308E+02  0.00000000000E+00 0.  1.
         11    1    3    3    0    0  0.62477734772E+01 -0.21878787818E+01 -0.16605139080E+02  0.17876021121E+02  0.51100000000E-03 0. -1.
        -11    1    3    3    0    0  0.71246432130E+01 -0.13546822269E+01 -0.45790192868E+01  0.85768947025E+01  0.51100000000E-03 0.  1.
        -12    1    3    3    0    0 -0.43664829815E+01 -0.26911173643E+02  0.18324507201E+02  0.32849124868E+02  0.00000000000E+00 0.  1.
</event>
<event>
 7    1  0.6953847E-012  0.5930197E+02  0.7816164E-02  0.1266605E+00
        -11   -1    0    0    0    0  0.00000000000E+00  0.00000000000E+00  0.45593999997E+02  0.45594000000E+02  0.51100000000E-03 0.  1.
         11   -1    0    0    0    0 -0.00000000000E+00 -0.00000000000E+00 -0.45593999997E+02  0.45594000000E+02  0.51100000000E-03 0. -1.
    9900012    2    1    2    0    0 -0.31651856628E+02 -0.10681929969E+01 -0.37064528325E+01  0.59301970820E+02  0.50000048862E+02 0.  0.
        -12    1    1    2    0    0  0.31651856628E+02  0.10681929969E+01  0.37064528325E+01  0.31886029180E+02  0.00000000000E+00 0.  1.
         11    1    3    3    0    0 -0.17969217899E+02 -0.94623728558E+01  0.62903858998E+01  0.21260250398E+02  0.51100000000E-03 0. -1.
        -11    1    3    3    0    0 -0.12541585980E+02  0.18196738340E+02  0.23622264687E+01  0.22225948332E+02  0.51100000000E-03 0.  1.
         12    1    3    3    0    0 -0.11410527499E+01 -0.98025584810E+01 -0.12359065201E+02  0.15815772090E+02  0.00000000000E+00 0. -1.
</event>
<event>
 7    1  0.6953847E-012  0.5930186E+02  0.7816164E-02  0.1266605E+00
        -11   -1    0    0    0    0  0.00000000000E+00  0.00000000000E+00  0.45593999997E+02  0.45594000000E+02  0.51100000000E-03 0.  1.
         11   -1    0    0    0    0 -0.00000000000E+00 -0.00000000000E+00 -0.45593999997E+02  0.45594000000E+02  0.51100000000E-03 0. -1.
    9900012    2    1    2    0    0 -0.18689043407E+02 -0.13899027299E+02 -0.21777571244E+02  0.59301860180E+02  0.49999847081E+02 0.  0.
        -12    1    1    2    0    0  0.18689043407E+02  0.13899027299E+02  0.21777571244E+02  0.31886139820E+02  0.00000000000E+00 0.  1.
         11    1    3    3    0    0 -0.11107306647E+02  0.51518718541E+01 -0.29049401582E+01  0.12583827801E+02  0.51100000000E-03 0. -1.
        -11    1    3    3    0    0 -0.13410851215E+02 -0.15847757199E+02  0.54814502878E+01  0.21472043127E+02  0.51100000000E-03 0.  1.
         12    1    3    3    0    0  0.58291144545E+01 -0.32031419541E+01 -0.24354081374E+02  0.25245989251E+02  0.00000000000E+00 0. -1.
</event>
<event>
 7    1  0.6953847E-012  0.5930194E+02  0.7816164E-02  0.1266605E+00
        -11   -1    0    0    0    0  0.00000000000E+00  0.00000000000E+00  0.45593999997E+02  0.45594000000E+02  0.51100000000E-03 0.  1.
         11   -1    0    0    0    0 -0.00000000000E+00 -0.00000000000E+00 -0.45593999997E+02  0.45594000000E+02  0.51100000000E-03 0. -1.
    9900012    2    1    2    0    0  0.25759250210E+01 -0.19990524761E+02 -0.24707573383E+02  0.59301942665E+02  0.49999997514E+02 0.  0.
        -12    1    1    2    0    0 -0.25759250210E+01  0.19990524761E+02  0.24707573383E+02  0.31886057335E+02  0.00000000000E+00 0.  1.
         11    1    3    3    0    0 -0.14949524670E+01 -0.45765710305E+01 -0.10852590256E+02  0.11872598738E+02  0.51100000000E-03 0. -1.
        -11    1    3    3    0    0 -0.91259485586E+01  0.73641429918E+00 -0.22925334770E+02  0.24685951829E+02  0.51100000000E-03 0.  1.
         12    1    3    3    0    0  0.13196826047E+02 -0.16150368029E+02  0.90703516430E+01  0.22743392098E+02  0.00000000000E+00 0. -1.
</event>
<event>
 7    1  0.6953847E-012  0.5930194E+02  0.7816164E-02  0.1266605E+00
        -11   -1    0    0    0    0  0.00000000000E+00  0.00000000000E+00  0.45593999997E+02  0.45594000000E+02  0.51100000000E-03 0. -1.
         11   -1    0    0    0    0 -0.00000000000E+00 -0.00000000000E+00 -0.45593999997E+02  0.45594000000E+02  0.51100000000E-03 0.  1.
    9900012    2    1    2    0    0  0.21780839485E+02  0.55314928693E+01  0.22621189935E+02  0.59301943234E+02  0.49999998552E+02 0.  0.
        -12    1    1    2    0    0 -0.21780839485E+02 -0.55314928693E+01 -0.22621189935E+02  0.31886056766E+02  0.00000000000E+00 0.  1.
         11    1    3    3    0    0  0.20642796965E+02 -0.73696323859E+01 -0.65542082747E+00  0.21928659895E+02  0.51100000000E-03 0. -1.
        -11    1    3    3    0    0  0.25675510128E+01  0.19462423329E+02  0.89991245663E+01  0.21595427369E+02  0.51100000000E-03 0.  1.
        -12    1    3    3    0    0 -0.14295084933E+01 -0.65612980735E+01  0.14277486196E+02  0.15777855970E+02  0.00000000000E+00 0.  1.
</event>
<event>
 7    1  0.6953847E-012  0.5930203E+02  0.7816164E-02  0.1266604E+00
        -11   -1    0    0    0    0  0.00000000000E+00  0.00000000000E+00  0.45593999997E+02  0.45594000000E+02  0.51100000000E-03 0.  1.
         11   -1    0    0    0    0 -0.00000000000E+00 -0.00000000000E+00 -0.45593999997E+02  0.45594000000E+02  0.51100000000E-03 0. -1.
    9900012    2    1    2    0    0  0.26625915386E+02  0.11736641224E+02  0.13039433497E+02  0.59302032188E+02  0.50000160784E+02 0.  0.
        -12    1    1    2    0    0 -0.26625915386E+02 -0.11736641224E+02 -0.13039433497E+02  0.31885967812E+02  0.00000000000E+00 0.  1.
         11    1    3    3    0    0  0.13344654298E+02  0.22877563472E+01 -0.14459725071E+02  0.19809020087E+02  0.51100000000E-03 0. -1.
        -11    1    3    3    0    0  0.38787460298E+01 -0.71579308744E+01  0.35799536800E+01  0.88936333283E+01  0.51100000000E-03 0.  1.
        -12    1    3    3    0    0  0.94025150583E+01  0.16606815751E+02  0.23919204888E+02  0.30599378773E+02  0.00000000000E+00 0.  1.
</event>
<event>
 7    1  0.6953847E-012  0.5930194E+02  0.7816164E-02  0.1266605E+00
        -11   -1    0    0    0    0  0.00000000000E+00  0.00000000000E+00  0.45593999997E+02  0.45594000000E+02  0.51100000000E-03 0.  1.
         11   -1    0    0    0    0 -0.00000000000E+00 -0.00000000000E+00 -0.45593999997E+02  0.45594000000E+02  0.51100000000E-03 0. -1.
    9900012    2    1    2    0    0 -0.75206274830E+00 -0.30940209501E+02 -0.76719506829E+01  0.59301937377E+02  0.49999987870E+02 0.  0.
        -12    1    1    2    0    0  0.75206274830E+00  0.30940209501E+02  0.76719506829E+01  0.31886062623E+02  0.00000000000E+00 0.  1.
         11    1    3    3    0    0 -0.72340051138E+01 -0.16588157976E+02  0.60299822032E+01  0.19075075377E+02  0.51100000000E-03 0. -1.
        -11    1    3    3    0    0 -0.10902778533E+02 -0.12736151383E+02  0.18215513066E+01  0.16864109263E+02  0.51100000000E-03 0.  1.
        -12    1    3    3    0    0  0.17384720898E+02 -0.16159001418E+01 -0.15523484193E+02  0.23362752737E+02  0.00000000000E+00 0.  1.
</event>
<event>
 7    1  0.6953847E-012  0.5930192E+02  0.7816164E-02  0.1266605E+00
        -11   -1    0    0    0    0  0.00000000000E+00  0.00000000000E+00  0.45593999997E+02  0.45594000000E+02  0.51100000000E-03 0.  1.
         11   -1    0    0    0    0 -0.00000000000E+00 -0.00000000000E+00 -0.45593999997E+02  0.45594000000E+02  0.51100000000E-03 0. -1.
    9900012    2    1    2    0    0  0.93349848483E+01 -0.16400167278E+02 -0.25702423306E+02  0.59301921648E+02  0.49999959185E+02 0.  0.
        -12    1    1    2    0    0 -0.93349848483E+01  0.16400167278E+02  0.25702423306E+02  0.31886078352E+02  0.00000000000E+00 0.  1.
         11    1    3    3    0    0  0.98329227477E+01 -0.16749607773E+02 -0.25872926335E+02  0.32351878581E+02  0.51100000000E-03 0. -1.
        -11    1    3    3    0    0  0.12929631000E+02 -0.25855270270E+01  0.59336203261E+00  0.13198953995E+02  0.51100000000E-03 0.  1.
        -12    1    3    3    0    0 -0.13427568900E+02  0.29349675222E+01 -0.42285900371E+00  0.13751089071E+02  0.00000000000E+00 0.  1.
</event>
<event>
 7    1  0.6953847E-012  0.5930194E+02  0.7816164E-02  0.1266605E+00
        -11   -1    0    0    0    0  0.00000000000E+00  0.00000000000E+00  0.45593999997E+02  0.45594000000E+02  0.51100000000E-03 0. -1.
         11   -1    0    0    0    0 -0.00000000000E+00 -0.00000000000E+00 -0.45593999997E+02  0.45594000000E+02  0.51100000000E-03 0.  1.
    9900012    2    1    2    0    0 -0.26834125995E+02 -0.12426281205E+01  0.17178660082E+02  0.59301940275E+02  0.49999993156E+02 0.  0.
        -12    1    1    2    0    0  0.26834125995E+02  0.12426281205E+01 -0.17178660082E+02  0.31886059725E+02  0.00000000000E+00 0.  1.
         11    1    3    3    0    0  0.62552923234E+00 -0.43150674414E+01  0.10270592533E+02  0.11157784954E+02  0.51100000000E-03 0. -1.
        -11    1    3    3    0    0 -0.51259459286E+01 -0.15326336965E+02  0.10060835182E+02  0.19036605035E+02  0.51100000000E-03 0.  1.
        -12    1    3    3    0    0 -0.22333709299E+02  0.18398776286E+02 -0.31527676325E+01  0.29107550286E+02  0.00000000000E+00 0.  1.
</event>
<event>
 7    1  0.6953847E-012  0.5930195E+02  0.7816164E-02  0.1266605E+00
        -11   -1    0    0    0    0  0.00000000000E+00  0.00000000000E+00  0.45593999997E+02  0.45594000000E+02  0.51100000000E-03 0.  1.
         11   -1    0    0    0    0 -0.00000000000E+00 -0.00000000000E+00 -0.45593999997E+02  0.45594000000E+02  0.51100000000E-03 0. -1.
    9900012    2    1    2    0    0  0.55086508346E+01 -0.26356989621E+02 -0.17078751761E+02  0.59301954501E+02  0.50000019100E+02 0.  0.
        -12    1    1    2    0    0 -0.55086508346E+01  0.26356989621E+02  0.17078751761E+02  0.31886045499E+02  0.00000000000E+00 0.  1.
         11    1    3    3    0    0 -0.57429530878E+01 -0.27590549969E+02  0.32892166483E+01  0.28373207506E+02  0.51100000000E-03 0. -1.
        -11    1    3    3    0    0  0.10624284382E+02  0.23253895305E+01 -0.36057591876E+00  0.10881767795E+02  0.51100000000E-03 0.  1.
        -12    1    3    3    0    0  0.62731954055E+00 -0.10918291824E+01 -0.20007392490E+02  0.20046979200E+02  0.00000000000E+00 0.  1.
</event>
<event>
 7    1  0.6953847E-012  0.5930192E+02  0.7816164E-02  0.1266605E+00
        -11   -1    0    0    0    0  0.00000000000E+00  0.00000000000E+00  0.45593999997E+02  0.45594000000E+02  0.51100000000E-03 0.  1.
         11   -1    0    0    0    0 -0.00000000000E+00 -0.00000000000E+00 -0.45593999997E+02  0.45594000000E+02  0.51100000000E-03 0. -1.
    9900012    2    1    2    0    0  0.22757312869E+01  0.11485119986E+01 -0.31784024173E+02  0.59301918000E+02  0.49999952531E+02 0.  0.
        -12    1    1    2    0    0 -0.22757312869E+01 -0.11485119986E+01  0.31784024173E+02  0.31886082000E+02  0.00000000000E+00 0.  1.
         11    1    3    3    0    0  0.10431710406E+02 -0.62556764103E+00  0.11384424691E+01  0.10512277031E+02  0.51100000000E-03 0. -1.
        -11    1    3    3    0    0  0.11389612252E+02 -0.82009924198E+01 -0.13798835781E+02  0.19682159767E+02  0.51100000000E-03 0.  1.
        -12    1    3    3    0    0 -0.19545591370E+02  0.99750720594E+01 -0.19123630861E+02  0.29107481202E+02  0.00000000000E+00 0.  1.
</event>
<event>
 7    1  0.6953847E-012  0.5930196E+02  0.7816164E-02  0.1266605E+00
        -11   -1    0    0    0    0  0.00000000000E+00  0.00000000000E+00  0.45593999997E+02  0.45594000000E+02  0.51100000000E-03 0. -1.
         11   -1    0    0    0    0 -0.00000000000E+00 -0.00000000000E+00 -0.45593999997E+02  0.45594000000E+02  0.51100000000E-03 0.  1.
    9900012    2    1    2    0    0  0.29328209403E+02 -0.26899192641E+01  0.12220478840E+02  0.59301958610E+02  0.50000026595E+02 0.  0.
        -12    1    1    2    0    0 -0.29328209403E+02  0.26899192641E+01 -0.12220478840E+02  0.31886041390E+02  0.00000000000E+00 0.  1.
         11    1    3    3    0    0  0.20237311883E+02  0.16780002279E+02  0.28961893712E+01  0.26448160274E+02  0.51100000000E-03 0. -1.
        -11    1    3    3    0    0 -0.29055376956E+01  0.30750960547E+01  0.56414665303E+01  0.70515608145E+01  0.51100000000E-03 0.  1.
        -12    1    3    3    0    0  0.11996435215E+02 -0.22545017598E+02  0.36828229387E+01  0.25802237522E+02  0.00000000000E+00 0.  1.
</event>
<event>
 7    1  0.6953847E-012  0.5930202E+02  0.7816164E-02  0.1266605E+00
        -11   -1    0    0    0    0  0.00000000000E+00  0.00000000000E+00  0.45593999997E+02  0.45594000000E+02  0.51100000000E-03 0.  1.
         11   -1    0    0    0    0 -0.00000000000E+00 -0.00000000000E+00 -0.45593999997E+02  0.45594000000E+02  0.51100000000E-03 0. -1.
    9900012    2    1    2    0    0  0.96688341981E+01  0.30310856857E+02 -0.21169738539E+01  0.59302015987E+02  0.50000131236E+02 0.  0.
        -12    1    1    2    0    0 -0.96688341981E+01 -0.30310856857E+02  0.21169738539E+01  0.31885984013E+02  0.00000000000E+00 0.  1.
         11    1    3    3    0    0 -0.13882586020E+02  0.22278439434E+02  0.39566239983E+01  0.26546373235E+02  0.51100000000E-03 0. -1.
        -11    1    3    3    0    0  0.12244875299E+02 -0.37722669508E+01 -0.96289015744E+01  0.16027561100E+02  0.51100000000E-03 0.  1.
        -12    1    3    3    0    0  0.11306544920E+02  0.11804684374E+02  0.35553037222E+01  0.16728081652E+02  0.00000000000E+00 0.  1.
</event>
<event>
 7    1  0.6953847E-012  0.5930197E+02  0.7816164E-02  0.1266605E+00
        -11   -1    0    0    0    0  0.00000000000E+00  0.00000000000E+00  0.45593999997E+02  0.45594000000E+02  0.51100000000E-03 0.  1.
         11   -1    0    0    0    0 -0.00000000000E+00 -0.00000000000E+00 -0.45593999997E+02  0.45594000000E+02  0.51100000000E-03 0. -1.
    9900012    2    1    2    0    0 -0.15937031442E+00 -0.43243964702E+01 -0.31591031891E+02  0.59301967013E+02  0.50000041919E+02 0.  0.
        -12    1    1    2    0    0  0.15937031442E+00  0.43243964702E+01  0.31591031891E+02  0.31886032987E+02  0.00000000000E+00 0.  1.
         11    1    3    3    0    0  0.41539203463E+01  0.39683858485E+00 -0.21000086669E+02  0.21410655653E+02  0.51100000000E-03 0. -1.
        -11    1    3    3    0    0 -0.20730815803E+01 -0.14558256045E+02 -0.19505961842E+02  0.24427915056E+02  0.51100000000E-03 0.  1.
        -12    1    3    3    0    0 -0.22402090805E+01  0.98370209902E+01  0.89150166208E+01  0.13463396304E+02  0.00000000000E+00 0.  1.
</event>
<event>
 7    1  0.6953847E-012  0.5930193E+02  0.7816164E-02  0.1266605E+00
        -11   -1    0    0    0    0  0.00000000000E+00  0.00000000000E+00  0.45593999997E+02  0.45594000000E+02  0.51100000000E-03 0.  1.
         11   -1    0    0    0    0 -0.00000000000E+00 -0.00000000000E+00 -0.45593999997E+02  0.45594000000E+02  0.51100000000E-03 0. -1.
    9900012    2    1    2    0    0  0.52108440045E+01  0.28534386944E+02 -0.13242264886E+02  0.59301926036E+02  0.49999967188E+02 0.  0.
        -12    1    1    2    0    0 -0.52108440045E+01 -0.28534386944E+02  0.13242264886E+02  0.31886073964E+02  0.00000000000E+00 0.  1.
         11    1    3    3    0    0 -0.13812329941E+01  0.54018840514E+01 -0.43094312350E+01  0.70469393157E+01  0.51100000000E-03 0.  1.
        -11    1    3    3    0    0  0.14384052080E+01  0.30554785764E+02 -0.21055705281E+02  0.37134979032E+02  0.51100000000E-03 0. -1.
        -12    1    3    3    0    0  0.51536717906E+01 -0.74222828708E+01  0.12122871630E+02  0.15120007688E+02  0.00000000000E+00 0.  1.
</event>
<event>
 7    1  0.6953847E-012  0.5930196E+02  0.7816164E-02  0.1266605E+00
        -11   -1    0    0    0    0  0.00000000000E+00  0.00000000000E+00  0.45593999997E+02  0.45594000000E+02  0.51100000000E-03 0. -1.
         11   -1    0    0    0    0 -0.00000000000E+00 -0.00000000000E+00 -0.45593999997E+02  0.45594000000E+02  0.51100000000E-03 0.  1.
    9900012    2    1    2    0    0  0.13931116261E+02  0.10827936862E+02  0.26559359350E+02  0.59301956249E+02  0.50000022290E+02 0.  0.
        -12    1    1    2    0    0 -0.13931116261E+02 -0.10827936862E+02 -0.26559359350E+02  0.31886043751E+02  0.00000000000E+00 0.  1.
         11    1    3    3    0    0  0.84933934687E+01 -0.15078840846E+01  0.89436280173E+01  0.12425776813E+02  0.51100000000E-03 0. -1.
        -11    1    3    3    0    0 -0.88104479588E+01 -0.81046282131E+01  0.18395421204E+02  0.21947676716E+02  0.51100000000E-03 0.  1.
         12    1    3    3    0    0  0.14248170751E+02  0.20440449159E+02 -0.77968987097E+00  0.24928502720E+02  0.00000000000E+00 0. -1.
</event>
<event>
 7    1  0.6953847E-012  0.5930196E+02  0.7816164E-02  0.1266605E+00
        -11   -1    0    0    0    0  0.00000000000E+00  0.00000000000E+00  0.45593999997E+02  0.45594000000E+02  0.51100000000E-03 0.  1.
         11   -1    0    0    0    0 -0.00000000000E+00 -0.00000000000E+00 -0.45593999997E+02  0.45594000000E+02  0.51100000000E-03 0. -1.
    9900012    2    1    2    0    0 -0.50971431022E+01 -0.93539477516E+01 -0.30053993522E+02  0.59301957082E+02  0.50000023809E+02 0.  0.
        -12    1    1    2    0    0  0.50971431022E+01  0.93539477516E+01  0.30053993522E+02  0.31886042918E+02  0.00000000000E+00 0.  1.
         11    1    3    3    0    0 -0.52699713587E+01  0.90026544392E+01 -0.24880761118E+02  0.26979115240E+02  0.51100000000E-03 0. -1.
        -11    1    3    3    0    0 -0.11880238913E+01  0.30842916738E+01 -0.98033604827E+01  0.10345536859E+02  0.51100000000E-03 0.  1.
        -12    1    3    3    0    0  0.13608521477E+01 -0.21440893865E+02  0.46301280789E+01  0.21977304983E+02  0.00000000000E+00 0.  1.
</event>
<event>
 7    1  0.6953847E-012  0.5930177E+02  0.7816164E-02  0.1266605E+00
        -11   -1    0    0    0    0  0.00000000000E+00  0.00000000000E+00  0.45593999997E+02  0.45594000000E+02  0.51100000000E-03 0.  1.
         11   -1    0    0    0    0 -0.00000000000E+00 -0.00000000000E+00 -0.45593999997E+02  0.45594000000E+02  0.51100000000E-03 0. -1.
    9900012    2    1    2    0    0 -0.24984728048E+02  0.83728518021E+01 -0.17955235512E+02  0.59301768407E+02  0.49999679709E+02 0.  0.
        -12    1    1    2    0    0  0.24984728048E+02 -0.83728518021E+01  0.17955235512E+02  0.31886231593E+02  0.00000000000E+00 0.  1.
         11    1    3    3    0    0 -0.10412927951E+02  0.37476400550E+01 -0.10703504273E+01  0.11118431760E+02  0.51100000000E-03 0. -1.
        -11    1    3    3    0    0  0.95478501780E+00  0.21726642849E+02 -0.55033675335E+01  0.22433137953E+02  0.51100000000E-03 0.  1.
        -12    1    3    3    0    0 -0.15526585115E+02 -0.17101431102E+02 -0.11381517551E+02  0.25750198695E+02  0.00000000000E+00 0.  1.
</event>
<event>
 7    1  0.6953847E-012  0.5930190E+02  0.7816164E-02  0.1266605E+00
        -11   -1    0    0    0    0  0.00000000000E+00  0.00000000000E+00  0.45593999997E+02  0.45594000000E+02  0.51100000000E-03 0.  1.
         11   -1    0    0    0    0 -0.00000000000E+00 -0.00000000000E+00 -0.45593999997E+02  0.45594000000E+02  0.51100000000E-03 0. -1.
    9900012    2    1    2    0    0 -0.23931993626E+02 -0.18400003267E+02 -0.10267556642E+02  0.59301903366E+02  0.49999925843E+02 0.  0.
        -12    1    1    2    0    0  0.23931993626E+02  0.18400003267E+02  0.10267556642E+02  0.31886096634E+02  0.00000000000E+00 0.  1.
         11    1    3    3    0    0 -0.10477077304E+02  0.55117067961E+01  0.31791244502E+01  0.12257850267E+02  0.51100000000E-03 0. -1.
        -11    1    3    3    0    0  0.90739535740E+01 -0.14540455669E+02  0.32940368124E+01  0.17453141933E+02  0.51100000000E-03 0.  1.
         12    1    3    3    0    0 -0.22528869896E+02 -0.93712543933E+01 -0.16740717905E+02  0.29590911167E+02  0.00000000000E+00 0. -1.
</event>
<event>
 7    1  0.6953847E-012  0.5930194E+02  0.7816164E-02  0.1266605E+00
        -11   -1    0    0    0    0  0.00000000000E+00  0.00000000000E+00  0.45593999997E+02  0.45594000000E+02  0.51100000000E-03 0.  1.
         11   -1    0    0    0    0 -0.00000000000E+00 -0.00000000000E+00 -0.45593999997E+02  0.45594000000E+02  0.51100000000E-03 0. -1.
    9900012    2    1    2    0    0 -0.11959221111E+02  0.17407978731E+02 -0.23888492396E+02  0.59301940946E+02  0.49999994379E+02 0.  0.
        -12    1    1    2    0    0  0.11959221111E+02 -0.17407978731E+02  0.23888492396E+02  0.31886059054E+02  0.00000000000E+00 0.  1.
         11    1    3    3    0    0 -0.14771702348E+02 -0.94151715743E+00 -0.14278730861E+02  0.20566278226E+02  0.51100000000E-03 0. -1.
        -11    1    3    3    0    0  0.25483985908E+01  0.27359029837E+02 -0.11034558217E+02  0.29610341509E+02  0.51100000000E-03 0.  1.
        -12    1    3    3    0    0  0.26408264578E+00 -0.90095339485E+01  0.14247966821E+01  0.91253212107E+01  0.00000000000E+00 0.  1.
</event>
<event>
 7    1  0.6953847E-012  0.5930194E+02  0.7816164E-02  0.1266605E+00
        -11   -1    0    0    0    0  0.00000000000E+00  0.00000000000E+00  0.45593999997E+02  0.45594000000E+02  0.51100000000E-03 0.  1.
         11   -1    0    0    0    0 -0.00000000000E+00 -0.00000000000E+00 -0.45593999997E+02  0.45594000000E+02  0.51100000000E-03 0. -1.
    9900012    2    1    2    0    0 -0.81848442794E+01  0.19414408310E+01 -0.30756465787E+02  0.59301936335E+02  0.49999985970E+02 0.  0.
        -12    1    1    2    0    0  0.81848442794E+01 -0.19414408310E+01  0.30756465787E+02  0.31886063665E+02  0.00000000000E+00 0.  1.
         11    1    3    3    0    0  0.13224066236E+02  0.28749136784E+00 -0.16377908279E+02  0.21052184185E+02  0.51100000000E-03 0. -1.
        -11    1    3    3    0    0  0.62296864691E+01  0.95602170294E+00 -0.74289177659E+01  0.97422682386E+01  0.51100000000E-03 0.  1.
         12    1    3    3    0    0 -0.27638596984E+02  0.69792776019E+00 -0.69496397416E+01  0.28507483911E+02  0.00000000000E+00 0. -1.
</event>
<event>
 7    1  0.6953847E-012  0.5930195E+02  0.7816164E-02  0.1266605E+00
        -11   -1    0    0    0    0  0.00000000000E+00  0.00000000000E+00  0.45593999997E+02  0.45594000000E+02  0.51100000000E-03 0.  1.
         11   -1    0    0    0    0 -0.00000000000E+00 -0.00000000000E+00 -0.45593999997E+02  0.45594000000E+02  0.51100000000E-03 0. -1.
    9900012    2    1    2    0    0 -0.18359491324E+02 -0.49193059791E+01 -0.25601756202E+02  0.59301946409E+02  0.50000004343E+02 0.  0.
        -12    1    1    2    0    0  0.18359491324E+02  0.49193059791E+01  0.25601756202E+02  0.31886053591E+02  0.00000000000E+00 0.  1.
         11    1    3    3    0    0  0.20577445078E+01 -0.51116358390E+01 -0.19362338462E+02  0.20131152088E+02  0.51100000000E-03 0. -1.
        -11    1    3    3    0    0 -0.22457196943E+02 -0.11717647713E+02 -0.88066972786E+01  0.26817659847E+02  0.51100000000E-03 0.  1.
         12    1    3    3    0    0  0.20399611119E+01  0.11909977572E+02  0.25672795385E+01  0.12353134474E+02  0.00000000000E+00 0. -1.
</event>
<event>
 7    1  0.6953847E-012  0.5930195E+02  0.7816164E-02  0.1266605E+00
        -11   -1    0    0    0    0  0.00000000000E+00  0.00000000000E+00  0.45593999997E+02  0.45594000000E+02  0.51100000000E-03 0.  1.
         11   -1    0    0    0    0 -0.00000000000E+00 -0.00000000000E+00 -0.45593999997E+02  0.45594000000E+02  0.51100000000E-03 0. -1.
    9900012    2    1    2    0    0  0.10444855094E+02  0.33349605093E+01 -0.29941660074E+02  0.59301953404E+02  0.50000017100E+02 0.  0.
        -12    1    1    2    0    0 -0.10444855094E+02 -0.33349605093E+01  0.29941660074E+02  0.31886046596E+02  0.00000000000E+00 0.  1.
         11    1    3    3    0    0  0.38514994981E+01  0.14103116093E+02  0.45797167871E-01  0.14619645329E+02  0.51100000000E-03 0. -1.
        -11    1    3    3    0    0  0.76555656903E+01  0.98219446074E+01 -0.12544695259E+02  0.17676189106E+02  0.51100000000E-03 0.  1.
         12    1    3    3    0    0 -0.10622100946E+01 -0.20590100191E+02 -0.17442761983E+02  0.27006118968E+02  0.00000000000E+00 0. -1.
</event>
<event>
 7    1  0.6953847E-012  0.5930196E+02  0.7816164E-02  0.1266605E+00
        -11   -1    0    0    0    0  0.00000000000E+00  0.00000000000E+00  0.45593999997E+02  0.45594000000E+02  0.51100000000E-03 0.  1.
         11   -1    0    0    0    0 -0.00000000000E+00 -0.00000000000E+00 -0.45593999997E+02  0.45594000000E+02  0.51100000000E-03 0. -1.
    9900012    2    1    2    0    0  0.61517958761E+01 -0.12903921859E+02 -0.28501992114E+02  0.59301963145E+02  0.50000034865E+02 0.  0.
        -12    1    1    2    0    0 -0.61517958761E+01  0.12903921859E+02  0.28501992114E+02  0.31886036855E+02  0.00000000000E+00 0.  1.
         11    1    3    3    0    0  0.20019084195E+02 -0.59491452188E+01 -0.71125153776E+01  0.22062274046E+02  0.51100000000E-03 0. -1.
        -11    1    3    3    0    0 -0.32995010329E+00 -0.30818610784E+01  0.58250822166E+01  0.65983572098E+01  0.51100000000E-03 0.  1.
         12    1    3    3    0    0 -0.13537338215E+02 -0.38729155620E+01 -0.27214558953E+02  0.30641331889E+02  0.00000000000E+00 0. -1.
</event>
<event>
 7    1  0.6953847E-012  0.5930197E+02  0.7816164E-02  0.1266605E+00
        -11   -1    0    0    0    0  0.00000000000E+00  0.00000000000E+00  0.45593999997E+02  0.45594000000E+02  0.51100000000E-03 0.  1.
         11   -1    0    0    0    0 -0.00000000000E+00 -0.00000000000E+00 -0.45593999997E+02  0.45594000000E+02  0.51100000000E-03 0. -1.
    9900012    2    1    2    0    0  0.16938498283E+02 -0.13986917827E+02 -0.23112169462E+02  0.59301969021E+02  0.50000045581E+02 0.  0.
        -12    1    1    2    0    0 -0.16938498283E+02  0.13986917827E+02  0.23112169462E+02  0.31886030979E+02  0.00000000000E+00 0.  1.
         11    1    3    3    0    0  0.53927038080E+01 -0.24815945227E+02 -0.42538324711E+01  0.25748931683E+02  0.51100000000E-03 0. -1.
        -11    1    3    3    0    0 -0.17980290255E+01 -0.19123771210E+01 -0.14312632313E+02  0.14551341472E+02  0.51100000000E-03 0.  1.
         12    1    3    3    0    0  0.13343823501E+02  0.12741404521E+02 -0.45457046778E+01  0.19001695866E+02  0.00000000000E+00 0. -1.
</event>
<event>
 7    1  0.6953847E-012  0.5930195E+02  0.7816164E-02  0.1266605E+00
        -11   -1    0    0    0    0  0.00000000000E+00  0.00000000000E+00  0.45593999997E+02  0.45594000000E+02  0.51100000000E-03 0.  1.
         11   -1    0    0    0    0 -0.00000000000E+00 -0.00000000000E+00 -0.45593999997E+02  0.45594000000E+02  0.51100000000E-03 0. -1.
    9900012    2    1    2    0    0 -0.26013136053E+02 -0.39737581794E+01 -0.18006844684E+02  0.59301945731E+02  0.50000003106E+02 0.  0.
        -12    1    1    2    0    0  0.26013136053E+02  0.39737581794E+01  0.18006844684E+02  0.31886054269E+02  0.00000000000E+00 0.  1.
         11    1    3    3    0    0 -0.22331861996E+02 -0.76543957228E+01 -0.30992003008E+02  0.38959030850E+02  0.51100000000E-03 0. -1.
        -11    1    3    3    0    0  0.49985165679E+00  0.69179736017E+01  0.70391466994E+00  0.69716358594E+01  0.51100000000E-03 0.  1.
        -12    1    3    3    0    0 -0.41811257141E+01 -0.32373360583E+01  0.12281243654E+02  0.13371279022E+02  0.00000000000E+00 0.  1.
</event>
<event>
 7    1  0.6953847E-012  0.5930193E+02  0.7816164E-02  0.1266605E+00
        -11   -1    0    0    0    0  0.00000000000E+00  0.00000000000E+00  0.45593999997E+02  0.45594000000E+02  0.51100000000E-03 0.  1.
         11   -1    0    0    0    0 -0.00000000000E+00 -0.00000000000E+00 -0.45593999997E+02  0.45594000000E+02  0.51100000000E-03 0. -1.
    9900012    2    1    2    0    0 -0.31828783657E+02  0.10757408524E+01 -0.15788446570E+01  0.59301930347E+02  0.49999975050E+02 0.  0.
        -12    1    1    2    0    0  0.31828783657E+02 -0.10757408524E+01  0.15788446570E+01  0.31886069653E+02  0.00000000000E+00 0.  1.
         11    1    3    3    0    0 -0.40409818533E+00 -0.19491827315E+01  0.10244247738E+02  0.10435862238E+02  0.51100000000E-03 0.  1.
        -11    1    3    3    0    0  0.66468427363E+01 -0.27989535048E+01 -0.70004312545E+01  0.10050905287E+02  0.51100000000E-03 0. -1.
         12    1    3    3    0    0 -0.38071528208E+02  0.58238770887E+01 -0.48226611404E+01  0.38815162822E+02  0.00000000000E+00 0. -1.
</event>
<event>
 7    1  0.6953847E-012  0.5930209E+02  0.7816164E-02  0.1266604E+00
        -11   -1    0    0    0    0  0.00000000000E+00  0.00000000000E+00  0.45593999997E+02  0.45594000000E+02  0.51100000000E-03 0.  1.
         11   -1    0    0    0    0 -0.00000000000E+00 -0.00000000000E+00 -0.45593999997E+02  0.45594000000E+02  0.51100000000E-03 0. -1.
    9900012    2    1    2    0    0 -0.13106303440E+02 -0.20142747695E+02 -0.20957230957E+02  0.59302093961E+02  0.50000273441E+02 0.  0.
        -12    1    1    2    0    0  0.13106303440E+02  0.20142747695E+02  0.20957230957E+02  0.31885906039E+02  0.00000000000E+00 0.  1.
         11    1    3    3    0    0 -0.11091304847E+02 -0.17299722751E+02 -0.12116949820E+02  0.23856192564E+02  0.51100000000E-03 0. -1.
        -11    1    3    3    0    0 -0.83971572963E+01 -0.16673837594E+02 -0.76220941193E+01  0.20164955487E+02  0.51100000000E-03 0.  1.
        -12    1    3    3    0    0  0.63821587035E+01  0.13830812650E+02 -0.12181870177E+01  0.15280945909E+02  0.00000000000E+00 0.  1.
</event>
<event>
 7    1  0.6953847E-012  0.5930192E+02  0.7816164E-02  0.1266605E+00
        -11   -1    0    0    0    0  0.00000000000E+00  0.00000000000E+00  0.45593999997E+02  0.45594000000E+02  0.51100000000E-03 0.  1.
         11   -1    0    0    0    0 -0.00000000000E+00 -0.00000000000E+00 -0.45593999997E+02  0.45594000000E+02  0.51100000000E-03 0. -1.
    9900012    2    1    2    0    0 -0.20322367528E+02 -0.23202624719E+02  0.80846599916E+01  0.59301919291E+02  0.49999954887E+02 0.  0.
        -12    1    1    2    0    0  0.20322367528E+02  0.23202624719E+02 -0.80846599916E+01  0.31886080709E+02  0.00000000000E+00 0.  1.
         11    1    3    3    0    0  0.18860985477E+01 -0.84210141955E+00 -0.97649880038E+01  0.99810567331E+01  0.51100000000E-03 0. -1.
        -11    1    3    3    0    0 -0.21067791495E+02 -0.64893376466E+01 -0.38847764275E+01  0.22384254058E+02  0.51100000000E-03 0.  1.
         12    1    3    3    0    0 -0.11406745806E+01 -0.15871185653E+02  0.21734424423E+02  0.26936608501E+02  0.00000000000E+00 0. -1.
</event>
<event>
 7    1  0.6953847E-012  0.5930193E+02  0.7816164E-02  0.1266605E+00
        -11   -1    0    0    0    0  0.00000000000E+00  0.00000000000E+00  0.45593999997E+02  0.45594000000E+02  0.51100000000E-03 0. -1.
         11   -1    0    0    0    0 -0.00000000000E+00 -0.00000000000E+00 -0.45593999997E+02  0.45594000000E+02  0.51100000000E-03 0.  1.
    9900012    2    1    2    0    0  0.11258650958E+02 -0.17218644442E+01  0.29782533634E+02  0.59301931753E+02  0.49999977614E+02 0.  0.
        -12    1    1    2    0    0 -0.11258650958E+02  0.17218644442E+01 -0.29782533634E+02  0.31886068247E+02  0.00000000000E+00 0.  1.
         11    1    3    3    0    0  0.13755710956E+02  0.10402461836E+02  0.17032460670E+02  0.24239131852E+02  0.51100000000E-03 0. -1.
        -11    1    3    3    0    0  0.66696645996E+01  0.30271492659E+01  0.15498542623E+02  0.17142137622E+02  0.51100000000E-03 0.  1.
        -12    1    3    3    0    0 -0.91667245978E+01 -0.15151475546E+02 -0.27484696590E+01  0.17920662280E+02  0.00000000000E+00 0.  1.
</event>
<event>
 7    1  0.6953847E-012  0.5930191E+02  0.7816164E-02  0.1266605E+00
        -11   -1    0    0    0    0  0.00000000000E+00  0.00000000000E+00  0.45593999997E+02  0.45594000000E+02  0.51100000000E-03 0.  1.
         11   -1    0    0    0    0 -0.00000000000E+00 -0.00000000000E+00 -0.45593999997E+02  0.45594000000E+02  0.51100000000E-03 0. -1.
    9900012    2    1    2    0    0  0.29091579308E+02  0.86155872429E+01 -0.98068480608E+01  0.59301912139E+02  0.49999941843E+02 0.  0.
        -12    1    1    2    0    0 -0.29091579308E+02 -0.86155872429E+01  0.98068480608E+01  0.31886087861E+02  0.00000000000E+00 0.  1.
         11    1    3    3    0    0  0.31680895256E+01 -0.13785586298E+01  0.58450759277E+00  0.35041210774E+01  0.51100000000E-03 0. -1.
        -11    1    3    3    0    0  0.15212003992E+02  0.73740243168E+01  0.18388078046E+02  0.24978044651E+02  0.51100000000E-03 0.  1.
         12    1    3    3    0    0  0.10711485790E+02  0.26201215559E+01 -0.28779433700E+02  0.30819746412E+02  0.00000000000E+00 0. -1.
</event>
<event>
 7    1  0.6953847E-012  0.5930188E+02  0.7816164E-02  0.1266605E+00
        -11   -1    0    0    0    0  0.00000000000E+00  0.00000000000E+00  0.45593999997E+02  0.45594000000E+02  0.51100000000E-03 0. -1.
         11   -1    0    0    0    0 -0.00000000000E+00 -0.00000000000E+00 -0.45593999997E+02  0.45594000000E+02  0.51100000000E-03 0.  1.
    9900012    2    1    2    0    0  0.31286558486E+02  0.58322052477E+01  0.19649398490E+01  0.59301884706E+02  0.49999891812E+02 0.  0.
        -12    1    1    2    0    0 -0.31286558486E+02 -0.58322052477E+01 -0.19649398490E+01  0.31886115294E+02  0.00000000000E+00 0.  1.
         11    1    3    3    0    0  0.35759945042E+01 -0.76337354737E+01  0.25049396707E+01  0.87941103582E+01  0.51100000000E-03 0. -1.
        -11    1    3    3    0    0 -0.10482699875E+02  0.28264810287E+01 -0.19063500788E+00  0.10858744570E+02  0.51100000000E-03 0.  1.
        -12    1    3    3    0    0  0.38193263856E+02  0.10639459693E+02 -0.34936481380E+00  0.39649029778E+02  0.00000000000E+00 0.  1.
</event>
<event>
 7    1  0.6953847E-012  0.5930193E+02  0.7816164E-02  0.1266605E+00
        -11   -1    0    0    0    0  0.00000000000E+00  0.00000000000E+00  0.45593999997E+02  0.45594000000E+02  0.51100000000E-03 0. -1.
         11   -1    0    0    0    0 -0.00000000000E+00 -0.00000000000E+00 -0.45593999997E+02  0.45594000000E+02  0.51100000000E-03 0.  1.
    9900012    2    1    2    0    0  0.27046845591E+02 -0.65969862552E+01  0.15545725198E+02  0.59301926927E+02  0.49999968812E+02 0.  0.
        -12    1    1    2    0    0 -0.27046845591E+02  0.65969862552E+01 -0.15545725198E+02  0.31886073073E+02  0.00000000000E+00 0.  1.
         11    1    3    3    0    0  0.45928790614E+01  0.47942390185E+00 -0.84942043144E+01  0.96682931558E+01  0.51100000000E-03 0.  1.
        -11    1    3    3    0    0 -0.11294234586E+01  0.12533260385E+02  0.90161362455E+01  0.15480598383E+02  0.51100000000E-03 0. -1.
         12    1    3    3    0    0  0.23583389989E+02 -0.19609670542E+02  0.15023793266E+02  0.34153035388E+02  0.00000000000E+00 0. -1.
</event>
<event>
 7    1  0.6953847E-012  0.5930192E+02  0.7816164E-02  0.1266605E+00
        -11   -1    0    0    0    0  0.00000000000E+00  0.00000000000E+00  0.45593999997E+02  0.45594000000E+02  0.51100000000E-03 0.  1.
         11   -1    0    0    0    0 -0.00000000000E+00 -0.00000000000E+00 -0.45593999997E+02  0.45594000000E+02  0.51100000000E-03 0. -1.
    9900012    2    1    2    0    0 -0.65783648681E+01 -0.51325204182E+01 -0.30775063014E+02  0.59301919123E+02  0.49999954580E+02 0.  0.
        -12    1    1    2    0    0  0.65783648681E+01  0.51325204182E+01  0.30775063014E+02  0.31886080877E+02  0.00000000000E+00 0.  1.
         11    1    3    3    0    0  0.12231928659E+01 -0.98297486705E+01 -0.36692284496E+02  0.38005840361E+02  0.51100000000E-03 0. -1.
        -11    1    3    3    0    0  0.10706099853E+01  0.20876601898E+00 -0.58155076495E+01  0.59169179877E+01  0.51100000000E-03 0.  1.
        -12    1    3    3    0    0 -0.88721677193E+01  0.44884622333E+01  0.11732729132E+02  0.15379160775E+02  0.00000000000E+00 0.  1.
</event>
<event>
 7    1  0.6953847E-012  0.5930194E+02  0.7816164E-02  0.1266605E+00
        -11   -1    0    0    0    0  0.00000000000E+00  0.00000000000E+00  0.45593999997E+02  0.45594000000E+02  0.51100000000E-03 0.  1.
         11   -1    0    0    0    0 -0.00000000000E+00 -0.00000000000E+00 -0.45593999997E+02  0.45594000000E+02  0.51100000000E-03 0. -1.
    9900012    2    1    2    0    0  0.30666007853E+02  0.65433891814E+01 -0.57880003667E+01  0.59301938345E+02  0.49999989635E+02 0.  0.
        -12    1    1    2    0    0 -0.30666007853E+02 -0.65433891814E+01  0.57880003667E+01  0.31886061655E+02  0.00000000000E+00 0.  1.
         11    1    3    3    0    0  0.69664222611E+01 -0.26552967130E+01 -0.91219859888E+01  0.11781013046E+02  0.51100000000E-03 0. -1.
        -11    1    3    3    0    0  0.29547502007E+02  0.16104254305E+02 -0.63740065264E+01  0.34249523224E+02  0.51100000000E-03 0.  1.
        -12    1    3    3    0    0 -0.58479164148E+01 -0.69055684110E+01  0.97079921485E+01  0.13271402075E+02  0.00000000000E+00 0.  1.
</event>
<event>
 7    1  0.6953847E-012  0.5930194E+02  0.7816164E-02  0.1266605E+00
        -11   -1    0    0    0    0  0.00000000000E+00  0.00000000000E+00  0.45593999997E+02  0.45594000000E+02  0.51100000000E-03 0.  1.
         11   -1    0    0    0    0 -0.00000000000E+00 -0.00000000000E+00 -0.45593999997E+02  0.45594000000E+02  0.51100000000E-03 0. -1.
    9900012    2    1    2    0    0  0.31338112750E+02 -0.44032449320E+01  0.39057838808E+01  0.59301936832E+02  0.49999986877E+02 0.  0.
        -12    1    1    2    0    0 -0.31338112750E+02  0.44032449320E+01 -0.39057838808E+01  0.31886063168E+02  0.00000000000E+00 0.  1.
         11    1    3    3    0    0  0.10169129430E+01 -0.13482259629E+02  0.10027449580E+02  0.16833157219E+02  0.51100000000E-03 0. -1.
        -11    1    3    3    0    0 -0.51012656306E+01  0.83479991261E+00 -0.29740826991E+01  0.59636373205E+01  0.51100000000E-03 0.  1.
         12    1    3    3    0    0  0.35422465437E+02  0.82442147839E+01 -0.31475829999E+01  0.36505142292E+02  0.00000000000E+00 0. -1.
</event>
<event>
 7    1  0.6953847E-012  0.5930196E+02  0.7816164E-02  0.1266605E+00
        -11   -1    0    0    0    0  0.00000000000E+00  0.00000000000E+00  0.45593999997E+02  0.45594000000E+02  0.51100000000E-03 0.  1.
         11   -1    0    0    0    0 -0.00000000000E+00 -0.00000000000E+00 -0.45593999997E+02  0.45594000000E+02  0.51100000000E-03 0. -1.
    9900012    2    1    2    0    0  0.83333713451E+01  0.23884350889E+02 -0.19411654928E+02  0.59301958502E+02  0.50000026397E+02 0.  0.
        -12    1    1    2    0    0 -0.83333713451E+01 -0.23884350889E+02  0.19411654928E+02  0.31886041498E+02  0.00000000000E+00 0.  1.
         11    1    3    3    0    0  0.28779391317E+01  0.23973076614E+02  0.69552173978E+00  0.24155220693E+02  0.51100000000E-03 0. -1.
        -11    1    3    3    0    0  0.47255467325E+01 -0.88112676649E+01  0.29987334642E+01  0.10438468874E+02  0.51100000000E-03 0.  1.
         12    1    3    3    0    0  0.72988548093E+00  0.87225419408E+01 -0.23105910132E+02  0.24708268935E+02  0.00000000000E+00 0. -1.
</event>
<event>
 7    1  0.6953847E-012  0.5930174E+02  0.7816164E-02  0.1266605E+00
        -11   -1    0    0    0    0  0.00000000000E+00  0.00000000000E+00  0.45593999997E+02  0.45594000000E+02  0.51100000000E-03 0. -1.
         11   -1    0    0    0    0 -0.00000000000E+00 -0.00000000000E+00 -0.45593999997E+02  0.45594000000E+02  0.51100000000E-03 0.  1.
    9900012    2    1    2    0    0  0.18663385332E+02  0.19427151886E+02  0.17058636764E+02  0.59301744799E+02  0.49999636654E+02 0.  0.
        -12    1    1    2    0    0 -0.18663385332E+02 -0.19427151886E+02 -0.17058636764E+02  0.31886255201E+02  0.00000000000E+00 0.  1.
         11    1    3    3    0    0 -0.75564093605E+01 -0.20971460364E+01  0.53281167664E+01  0.94808318443E+01  0.51100000000E-03 0.  1.
        -11    1    3    3    0    0  0.22180584339E+02  0.27058399691E+02 -0.13943118320E+01  0.35015416907E+02  0.51100000000E-03 0. -1.
         12    1    3    3    0    0  0.40392103535E+01 -0.55341017680E+01  0.13124831830E+02  0.14805496048E+02  0.00000000000E+00 0. -1.
</event>
<event>
 7    1  0.6953847E-012  0.5930195E+02  0.7816164E-02  0.1266605E+00
        -11   -1    0    0    0    0  0.00000000000E+00  0.00000000000E+00  0.45593999997E+02  0.45594000000E+02  0.51100000000E-03 0. -1.
         11   -1    0    0    0    0 -0.00000000000E+00 -0.00000000000E+00 -0.45593999997E+02  0.45594000000E+02  0.51100000000E-03 0.  1.
    9900012    2    1    2    0    0 -0.16268704574E+02  0.13168232958E+02  0.24055090518E+02  0.59301945249E+02  0.50000002227E+02 0.  0.
        -12    1    1    2    0    0  0.16268704574E+02 -0.13168232958E+02 -0.24055090518E+02  0.31886054751E+02  0.00000000000E+00 0.  1.
         11    1    3    3    0    0 -0.10847893134E+02  0.62077631296E+01 -0.31139067071E+00  0.12502402686E+02  0.51100000000E-03 0. -1.
        -11    1    3    3    0    0 -0.18691837672E+02  0.12579291883E+02  0.57425266656E+01  0.23250806279E+02  0.51100000000E-03 0.  1.
        -12    1    3    3    0    0  0.13271026232E+02 -0.56188220541E+01  0.18623954523E+02  0.23548736285E+02  0.00000000000E+00 0.  1.
</event>
<event>
 7    1  0.6953847E-012  0.5930194E+02  0.7816164E-02  0.1266605E+00
        -11   -1    0    0    0    0  0.00000000000E+00  0.00000000000E+00  0.45593999997E+02  0.45594000000E+02  0.51100000000E-03 0. -1.
         11   -1    0    0    0    0 -0.00000000000E+00 -0.00000000000E+00 -0.45593999997E+02  0.45594000000E+02  0.51100000000E-03 0.  1.
    9900012    2    1    2    0    0 -0.22964278458E+02  0.61494966436E+01  0.21249615859E+02  0.59301943985E+02  0.49999999922E+02 0.  0.
        -12    1    1    2    0    0  0.22964278458E+02 -0.61494966436E+01 -0.21249615859E+02  0.31886056015E+02  0.00000000000E+00 0.  1.
         11    1    3    3    0    0  0.11985581514E+02  0.21019290955E+00  0.37025445693E+01  0.12546201889E+02  0.51100000000E-03 0.  1.
        -11    1    3    3    0    0  0.21339589219E+01 -0.84646158521E+00  0.73518536060E+01  0.77019497272E+01  0.51100000000E-03 0. -1.
        -12    1    3    3    0    0 -0.37083818894E+02  0.67857653193E+01  0.10195217683E+02  0.39053792368E+02  0.00000000000E+00 0.  1.
</event>
<event>
 7    1  0.6953847E-012  0.5930185E+02  0.7816164E-02  0.1266605E+00
        -11   -1    0    0    0    0  0.00000000000E+00  0.00000000000E+00  0.45593999997E+02  0.45594000000E+02  0.51100000000E-03 0.  1.
         11   -1    0    0    0    0 -0.00000000000E+00 -0.00000000000E+00 -0.45593999997E+02  0.45594000000E+02  0.51100000000E-03 0. -1.
    9900012    2    1    2    0    0  0.76277627463E+01 -0.29825856375E+02 -0.83043569273E+01  0.59301845999E+02  0.49999821218E+02 0.  0.
        -12    1    1    2    0    0 -0.76277627463E+01  0.29825856375E+02  0.83043569273E+01  0.31886154001E+02  0.00000000000E+00 0.  1.
         11    1    3    3    0    0 -0.28433422096E+01 -0.10692596861E+02 -0.13279852852E+02  0.17284985235E+02  0.51100000000E-03 0. -1.
        -11    1    3    3    0    0 -0.12604239464E+02 -0.10233609857E+02  0.58818932174E+01  0.17268187260E+02  0.51100000000E-03 0.  1.
        -12    1    3    3    0    0  0.23075344420E+02 -0.88996496571E+01 -0.90639729261E+00  0.24748673503E+02  0.00000000000E+00 0.  1.
</event>
<event>
 7    1  0.6953847E-012  0.5930190E+02  0.7816164E-02  0.1266605E+00
        -11   -1    0    0    0    0  0.00000000000E+00  0.00000000000E+00  0.45593999997E+02  0.45594000000E+02  0.51100000000E-03 0. -1.
         11   -1    0    0    0    0 -0.00000000000E+00 -0.00000000000E+00 -0.45593999997E+02  0.45594000000E+02  0.51100000000E-03 0.  1.
    9900012    2    1    2    0    0  0.13627428548E+02 -0.12169012660E+02  0.26132956609E+02  0.59301904299E+02  0.49999927544E+02 0.  0.
        -12    1    1    2    0    0 -0.13627428548E+02  0.12169012660E+02 -0.26132956609E+02  0.31886095701E+02  0.00000000000E+00 0.  1.
         11    1    3    3    0    0  0.10641961972E+02  0.34638778460E+00  0.15109245286E+02  0.18484064284E+02  0.51100000000E-03 0. -1.
        -11    1    3    3    0    0 -0.14463066913E+01 -0.24874620931E+02  0.22319800599E+01  0.25016400715E+02  0.51100000000E-03 0.  1.
         12    1    3    3    0    0  0.44317732672E+01  0.12359220486E+02  0.87917312637E+01  0.15801439300E+02  0.00000000000E+00 0. -1.
</event>
<event>
 7    1  0.6953847E-012  0.5930199E+02  0.7816164E-02  0.1266605E+00
        -11   -1    0    0    0    0  0.00000000000E+00  0.00000000000E+00  0.45593999997E+02  0.45594000000E+02  0.51100000000E-03 0.  1.
         11   -1    0    0    0    0 -0.00000000000E+00 -0.00000000000E+00 -0.45593999997E+02  0.45594000000E+02  0.51100000000E-03 0. -1.
    9900012    2    1    2    0    0  0.31045455398E+02 -0.61263061984E+01 -0.39199083029E+01  0.59301990378E+02  0.50000084532E+02 0.  0.
        -12    1    1    2    0    0 -0.31045455398E+02  0.61263061984E+01  0.39199083029E+01  0.31886009622E+02  0.00000000000E+00 0.  1.
         11    1    3    3    0    0  0.18799819872E+02 -0.11118614226E+02 -0.20445293504E+02  0.29917667627E+02  0.51100000000E-03 0. -1.
        -11    1    3    3    0    0  0.16140886946E+02 -0.16619506104E+01  0.87545071756E+01  0.18437236978E+02  0.51100000000E-03 0.  1.
        -12    1    3    3    0    0 -0.38952514207E+01  0.66542586376E+01  0.77708780251E+01  0.10947085773E+02  0.00000000000E+00 0.  1.
</event>
<event>
 7    1  0.6953847E-012  0.5930194E+02  0.7816164E-02  0.1266605E+00
        -11   -1    0    0    0    0  0.00000000000E+00  0.00000000000E+00  0.45593999997E+02  0.45594000000E+02  0.51100000000E-03 0.  1.
         11   -1    0    0    0    0 -0.00000000000E+00 -0.00000000000E+00 -0.45593999997E+02  0.45594000000E+02  0.51100000000E-03 0. -1.
    9900012    2    1    2    0    0  0.14604642685E+02 -0.23294662581E+02  0.16148802717E+02  0.59301941575E+02  0.49999995526E+02 0.  0.
        -12    1    1    2    0    0 -0.14604642685E+02  0.23294662581E+02 -0.16148802717E+02  0.31886058425E+02  0.00000000000E+00 0.  1.
         11    1    3    3    0    0  0.11213310439E+02  0.86484712164E+01 -0.85235748241E+00  0.14186645090E+02  0.51100000000E-03 0. -1.
        -11    1    3    3    0    0  0.41028285664E+01  0.33490737544E+01  0.62981334838E+01  0.82289721654E+01  0.51100000000E-03 0.  1.
        -12    1    3    3    0    0 -0.71149631980E+00 -0.35292207552E+02  0.10703026715E+02  0.36886324319E+02  0.00000000000E+00 0.  1.
</event>
<event>
 7    1  0.6953847E-012  0.5930194E+02  0.7816164E-02  0.1266605E+00
        -11   -1    0    0    0    0  0.00000000000E+00  0.00000000000E+00  0.45593999997E+02  0.45594000000E+02  0.51100000000E-03 0. -1.
         11   -1    0    0    0    0 -0.00000000000E+00 -0.00000000000E+00 -0.45593999997E+02  0.45594000000E+02  0.51100000000E-03 0.  1.
    9900012    2    1    2    0    0 -0.88555414421E+01 -0.30222505273E+02 -0.49900526422E+01  0.59301936202E+02  0.49999985727E+02 0.  0.
        -12    1    1    2    0    0  0.88555414421E+01  0.30222505273E+02  0.49900526422E+01  0.31886063798E+02  0.00000000000E+00 0.  1.
         11    1    3    3    0    0  0.68279079110E+00 -0.40470355878E+01  0.98294022107E+01  0.10651847182E+02  0.51100000000E-03 0. -1.
        -11    1    3    3    0    0  0.47945312903E+01 -0.38116554970E+01  0.10369475452E+02  0.12043349589E+02  0.51100000000E-03 0.  1.
        -12    1    3    3    0    0 -0.14332863523E+02 -0.22363814188E+02 -0.25188930305E+02  0.36606739430E+02  0.00000000000E+00 0.  1.
</event>
<event>
 7    1  0.6953847E-012  0.5930194E+02  0.7816164E-02  0.1266605E+00
        -11   -1    0    0    0    0  0.00000000000E+00  0.00000000000E+00  0.45593999997E+02  0.45594000000E+02  0.51100000000E-03 0.  1.
         11   -1    0    0    0    0 -0.00000000000E+00 -0.00000000000E+00 -0.45593999997E+02  0.45594000000E+02  0.51100000000E-03 0. -1.
    9900012    2    1    2    0    0  0.11793482043E+02 -0.20748017059E+02 -0.21146031950E+02  0.59301935680E+02  0.49999984776E+02 0.  0.
        -12    1    1    2    0    0 -0.11793482043E+02  0.20748017059E+02  0.21146031950E+02  0.31886064320E+02  0.00000000000E+00 0.  1.
         11    1    3    3    0    0  0.18634804768E+02 -0.14111586010E+02  0.91013112871E+00  0.23392758439E+02  0.51100000000E-03 0. -1.
        -11    1    3    3    0    0 -0.23060550259E+01 -0.10432441609E+02  0.22289298927E+01  0.10914295966E+02  0.51100000000E-03 0.  1.
         12    1    3    3    0    0 -0.45352676989E+01  0.37960105605E+01 -0.24285092972E+02  0.24994881274E+02  0.00000000000E+00 0. -1.
</event>
<event>
 7    1  0.6953847E-012  0.5930191E+02  0.7816164E-02  0.1266605E+00
        -11   -1    0    0    0    0  0.00000000000E+00  0.00000000000E+00  0.45593999997E+02  0.45594000000E+02  0.51100000000E-03 0.  1.
         11   -1    0    0    0    0 -0.00000000000E+00 -0.00000000000E+00 -0.45593999997E+02  0.45594000000E+02  0.51100000000E-03 0. -1.
    9900012    2    1    2    0    0 -0.39543156540E+01 -0.28594146441E+02  0.13544777301E+02  0.59301908751E+02  0.49999935665E+02 0.  0.
        -12    1    1    2    0    0  0.39543156540E+01  0.28594146441E+02 -0.13544777301E+02  0.31886091249E+02  0.00000000000E+00 0.  1.
         11    1    3    3    0    0 -0.14669674744E+02  0.58479575484E+00  0.28782350262E+00  0.14684147432E+02  0.51100000000E-03 0. -1.
        -11    1    3    3    0    0 -0.71423965182E+01 -0.20416694752E+02  0.11882006480E+02  0.24678681709E+02  0.51100000000E-03 0.  1.
         12    1    3    3    0    0  0.17857755608E+02 -0.87622474439E+01  0.13749473178E+01  0.19939079611E+02  0.00000000000E+00 0. -1.
</event>
<event>
 7    1  0.6953847E-012  0.5930191E+02  0.7816164E-02  0.1266605E+00
        -11   -1    0    0    0    0  0.00000000000E+00  0.00000000000E+00  0.45593999997E+02  0.45594000000E+02  0.51100000000E-03 0. -1.
         11   -1    0    0    0    0 -0.00000000000E+00 -0.00000000000E+00 -0.45593999997E+02  0.45594000000E+02  0.51100000000E-03 0.  1.
    9900012    2    1    2    0    0 -0.27282164624E+02  0.14872868633E+02  0.71557072746E+01  0.59301907819E+02  0.49999933965E+02 0.  0.
        -12    1    1    2    0    0  0.27282164624E+02 -0.14872868633E+02 -0.71557072746E+01  0.31886092181E+02  0.00000000000E+00 0.  1.
         11    1    3    3    0    0 -0.15943624749E+02  0.21101824350E+01 -0.74029173192E+00  0.16099691679E+02  0.51100000000E-03 0. -1.
        -11    1    3    3    0    0 -0.24133465761E+02 -0.19307555399E+00  0.61785131558E+01  0.24912556531E+02  0.51100000000E-03 0.  1.
        -12    1    3    3    0    0  0.12794925886E+02  0.12955761752E+02  0.17174858507E+01  0.18289659610E+02  0.00000000000E+00 0.  1.
</event>
<event>
 7    1  0.6953847E-012  0.5930194E+02  0.7816164E-02  0.1266605E+00
        -11   -1    0    0    0    0  0.00000000000E+00  0.00000000000E+00  0.45593999997E+02  0.45594000000E+02  0.51100000000E-03 0.  1.
         11   -1    0    0    0    0 -0.00000000000E+00 -0.00000000000E+00 -0.45593999997E+02  0.45594000000E+02  0.51100000000E-03 0. -1.
    9900012    2    1    2    0    0 -0.85977499844E+01  0.30427722400E+02  0.41174088302E+01  0.59301942690E+02  0.49999997561E+02 0.  0.
        -12    1    1    2    0    0  0.85977499844E+01 -0.30427722400E+02 -0.41174088302E+01  0.31886057310E+02  0.00000000000E+00 0.  1.
         11    1    3    3    0    0  0.67980611154E+01  0.16867631382E+01  0.26968148523E+01  0.75054390559E+01  0.51100000000E-03 0. -1.
        -11    1    3    3    0    0 -0.16593220524E+02  0.25584334336E+02  0.17640494461E+02  0.35228967852E+02  0.51100000000E-03 0.  1.
         12    1    3    3    0    0  0.11974094246E+01  0.31566249257E+01 -0.16219900483E+02  0.16567535783E+02  0.00000000000E+00 0. -1.
</event>
<event>
 7    1  0.6953847E-012  0.5930194E+02  0.7816164E-02  0.1266605E+00
        -11   -1    0    0    0    0  0.00000000000E+00  0.00000000000E+00  0.45593999997E+02  0.45594000000E+02  0.51100000000E-03 0.  1.
         11   -1    0    0    0    0 -0.00000000000E+00 -0.00000000000E+00 -0.45593999997E+02  0.45594000000E+02  0.51100000000E-03 0. -1.
    9900012    2    1    2    0    0  0.10451096300E+02 -0.28488465693E+02 -0.97929796784E+01  0.59301944389E+02  0.50000000659E+02 0.  0.
        -12    1    1    2    0    0 -0.10451096300E+02  0.28488465693E+02  0.97929796784E+01  0.31886055611E+02  0.00000000000E+00 0.  1.
         11    1    3    3    0    0  0.14437247993E+02 -0.44702892678E+01 -0.11698821382E+02  0.19112300692E+02  0.51100000000E-03 0.  1.
        -11    1    3    3    0    0  0.12618529867E+02 -0.11614018051E+02  0.75056050881E+01  0.18720224873E+02  0.51100000000E-03 0. -1.
         12    1    3    3    0    0 -0.16604681560E+02 -0.12404158375E+02 -0.55997633849E+01  0.21469418825E+02  0.00000000000E+00 0. -1.
</event>
<event>
 7    1  0.6953847E-012  0.5930195E+02  0.7816164E-02  0.1266605E+00
        -11   -1    0    0    0    0  0.00000000000E+00  0.00000000000E+00  0.45593999997E+02  0.45594000000E+02  0.51100000000E-03 0.  1.
         11   -1    0    0    0    0 -0.00000000000E+00 -0.00000000000E+00 -0.45593999997E+02  0.45594000000E+02  0.51100000000E-03 0. -1.
    9900012    2    1    2    0    0  0.39232070425E+01  0.15824819315E+01 -0.31604185168E+02  0.59301947835E+02  0.50000006943E+02 0.  0.
        -12    1    1    2    0    0 -0.39232070425E+01 -0.15824819315E+01  0.31604185168E+02  0.31886052165E+02  0.00000000000E+00 0.  1.
         11    1    3    3    0    0 -0.12280663956E+02 -0.10972021877E+02 -0.18132996597E+02  0.24495010453E+02  0.51100000000E-03 0. -1.
        -11    1    3    3    0    0  0.27852015052E+01 -0.47184262346E+01  0.40240205955E+01  0.67980611625E+01  0.51100000000E-03 0.  1.
         12    1    3    3    0    0  0.13418669493E+02  0.17272930044E+02 -0.17495209167E+02  0.28008876219E+02  0.00000000000E+00 0. -1.
</event>
<event>
 7    1  0.6953847E-012  0.5930195E+02  0.7816164E-02  0.1266605E+00
        -11   -1    0    0    0    0  0.00000000000E+00  0.00000000000E+00  0.45593999997E+02  0.45594000000E+02  0.51100000000E-03 0. -1.
         11   -1    0    0    0    0 -0.00000000000E+00 -0.00000000000E+00 -0.45593999997E+02  0.45594000000E+02  0.51100000000E-03 0.  1.
    9900012    2    1    2    0    0  0.24803283980E+02  0.18468696585E+00  0.20037051607E+02  0.59301945955E+02  0.50000003515E+02 0.  0.
        -12    1    1    2    0    0 -0.24803283980E+02 -0.18468696585E+00 -0.20037051607E+02  0.31886054045E+02  0.00000000000E+00 0.  1.
         11    1    3    3    0    0  0.10137795830E+02 -0.14348572267E+02  0.10025996453E+01  0.17597205367E+02  0.51100000000E-03 0. -1.
        -11    1    3    3    0    0 -0.89684809656E+01  0.95860161921E+00  0.11187870232E+01  0.90886881650E+01  0.51100000000E-03 0.  1.
         12    1    3    3    0    0  0.23633969115E+02  0.13574657614E+02  0.17915664939E+02  0.32616052423E+02  0.00000000000E+00 0. -1.
</event>
<event>
 7    1  0.6953847E-012  0.5930208E+02  0.7816164E-02  0.1266604E+00
        -11   -1    0    0    0    0  0.00000000000E+00  0.00000000000E+00  0.45593999997E+02  0.45594000000E+02  0.51100000000E-03 0.  1.
         11   -1    0    0    0    0 -0.00000000000E+00 -0.00000000000E+00 -0.45593999997E+02  0.45594000000E+02  0.51100000000E-03 0. -1.
    9900012    2    1    2    0    0 -0.21994673480E+02 -0.21751464747E+02  0.77343279869E+01  0.59302082896E+02  0.50000253262E+02 0.  0.
        -12    1    1    2    0    0  0.21994673480E+02  0.21751464747E+02 -0.77343279869E+01  0.31885917104E+02  0.00000000000E+00 0.  1.
         11    1    3    3    0    0 -0.62214784609E+01 -0.77291347892E+00 -0.97399894331E+01  0.11583245828E+02  0.51100000000E-03 0. -1.
        -11    1    3    3    0    0 -0.26981450329E+02 -0.15857971967E+02  0.83659966337E+01  0.32395429256E+02  0.51100000000E-03 0.  1.
        -12    1    3    3    0    0  0.11208255309E+02 -0.51205793004E+01  0.91083207863E+01  0.15323407813E+02  0.00000000000E+00 0.  1.
</event>
<event>
 7    1  0.6953847E-012  0.5930190E+02  0.7816164E-02  0.1266605E+00
        -11   -1    0    0    0    0  0.00000000000E+00  0.00000000000E+00  0.45593999997E+02  0.45594000000E+02  0.51100000000E-03 0.  1.
         11   -1    0    0    0    0 -0.00000000000E+00 -0.00000000000E+00 -0.45593999997E+02  0.45594000000E+02  0.51100000000E-03 0. -1.
    9900012    2    1    2    0    0  0.41196987487E+01 -0.30231977900E+02 -0.92616832865E+01  0.59301902986E+02  0.49999925149E+02 0.  0.
        -12    1    1    2    0    0 -0.41196987487E+01  0.30231977900E+02  0.92616832865E+01  0.31886097014E+02  0.00000000000E+00 0.  1.
         11    1    3    3    0    0 -0.57615234577E+01  0.78073647585E+00 -0.10920521830E+02  0.12371843004E+02  0.51100000000E-03 0. -1.
        -11    1    3    3    0    0  0.35126592634E+01 -0.24154088111E+01  0.14373389191E+02  0.14992241057E+02  0.51100000000E-03 0.  1.
         12    1    3    3    0    0  0.63685629430E+01 -0.28597305565E+02 -0.12714550647E+02  0.31937818925E+02  0.00000000000E+00 0. -1.
</event>
<event>
 7    1  0.6953847E-012  0.5930197E+02  0.7816164E-02  0.1266605E+00
        -11   -1    0    0    0    0  0.00000000000E+00  0.00000000000E+00  0.45593999997E+02  0.45594000000E+02  0.51100000000E-03 0. -1.
         11   -1    0    0    0    0 -0.00000000000E+00 -0.00000000000E+00 -0.45593999997E+02  0.45594000000E+02  0.51100000000E-03 0.  1.
    9900012    2    1    2    0    0  0.16858821797E+00 -0.10464428364E+01  0.31868405200E+02  0.59301973051E+02  0.50000052931E+02 0.  0.
        -12    1    1    2    0    0 -0.16858821797E+00  0.10464428364E+01 -0.31868405200E+02  0.31886026949E+02  0.00000000000E+00 0.  1.
         11    1    3    3    0    0 -0.37146899946E+01  0.85018669556E+01  0.11893511611E+02  0.15084305824E+02  0.51100000000E-03 0.  1.
        -11    1    3    3    0    0 -0.77112089542E+01  0.12308388037E+02  0.53597108196E+01  0.15481784779E+02  0.51100000000E-03 0. -1.
        -12    1    3    3    0    0  0.11594487167E+02 -0.21856697829E+02  0.14615182769E+02  0.28735882448E+02  0.00000000000E+00 0.  1.
</event>
<event>
 7    1  0.6953847E-012  0.5930192E+02  0.7816164E-02  0.1266605E+00
        -11   -1    0    0    0    0  0.00000000000E+00  0.00000000000E+00  0.45593999997E+02  0.45594000000E+02  0.51100000000E-03 0.  1.
         11   -1    0    0    0    0 -0.00000000000E+00 -0.00000000000E+00 -0.45593999997E+02  0.45594000000E+02  0.51100000000E-03 0. -1.
    9900012    2    1    2    0    0  0.27825699245E+02 -0.11158128418E+02 -0.10860425871E+02  0.59301918109E+02  0.49999952731E+02 0.  0.
        -12    1    1    2    0    0 -0.27825699245E+02  0.11158128418E+02  0.10860425871E+02  0.31886081891E+02  0.00000000000E+00 0.  1.
         11    1    3    3    0    0  0.30591782880E+02 -0.11154593875E+02  0.38733492726E+01  0.32791538224E+02  0.51100000000E-03 0. -1.
        -11    1    3    3    0    0  0.55209561852E+01  0.46850177942E+00  0.34462458105E+01  0.65251100806E+01  0.51100000000E-03 0.  1.
        -12    1    3    3    0    0 -0.82870398200E+01 -0.47203632324E+00 -0.18180020954E+02  0.19985269804E+02  0.00000000000E+00 0.  1.
</event>
<event>
 7    1  0.6953847E-012  0.5930194E+02  0.7816164E-02  0.1266605E+00
        -11   -1    0    0    0    0  0.00000000000E+00  0.00000000000E+00  0.45593999997E+02  0.45594000000E+02  0.51100000000E-03 0.  1.
         11   -1    0    0    0    0 -0.00000000000E+00 -0.00000000000E+00 -0.45593999997E+02  0.45594000000E+02  0.51100000000E-03 0. -1.
    9900012    2    1    2    0    0 -0.60893370170E+01  0.31235797729E+02  0.19914686268E+01  0.59301936706E+02  0.49999986648E+02 0.  0.
        -12    1    1    2    0    0  0.60893370170E+01 -0.31235797729E+02 -0.19914686268E+01  0.31886063294E+02  0.00000000000E+00 0.  1.
         11    1    3    3    0    0  0.46434224174E+01 -0.42478432117E+01 -0.78045312075E+01  0.10025779338E+02  0.51100000000E-03 0. -1.
        -11    1    3    3    0    0  0.43762167748E+01  0.31744811648E+02  0.10426727416E+02  0.33698679272E+02  0.51100000000E-03 0.  1.
         12    1    3    3    0    0 -0.15108976209E+02  0.37388292927E+01 -0.63072758156E+00  0.15577478097E+02  0.00000000000E+00 0. -1.
</event>
<event>
 7    1  0.6953847E-012  0.5930195E+02  0.7816164E-02  0.1266605E+00
        -11   -1    0    0    0    0  0.00000000000E+00  0.00000000000E+00  0.45593999997E+02  0.45594000000E+02  0.51100000000E-03 0.  1.
         11   -1    0    0    0    0 -0.00000000000E+00 -0.00000000000E+00 -0.45593999997E+02  0.45594000000E+02  0.51100000000E-03 0. -1.
    9900012    2    1    2    0    0  0.13128230141E+02  0.23635490305E+02 -0.16903646113E+02  0.59301951632E+02  0.50000013868E+02 0.  0.
        -12    1    1    2    0    0 -0.13128230141E+02 -0.23635490305E+02  0.16903646113E+02  0.31886048368E+02  0.00000000000E+00 0.  1.
         11    1    3    3    0    0 -0.30887532058E+01 -0.94455967302E+01 -0.12812552061E+02  0.16214844573E+02  0.51100000000E-03 0. -1.
        -11    1    3    3    0    0  0.30407670610E+01 -0.17790439618E+01 -0.46276929323E+01  0.58160814880E+01  0.51100000000E-03 0.  1.
        -12    1    3    3    0    0  0.13176216286E+02  0.34860130997E+02  0.53659888005E+00  0.37271025571E+02  0.00000000000E+00 0.  1.
</event>
<event>
 7    1  0.6953847E-012  0.5930194E+02  0.7816164E-02  0.1266605E+00
        -11   -1    0    0    0    0  0.00000000000E+00  0.00000000000E+00  0.45593999997E+02  0.45594000000E+02  0.51100000000E-03 0. -1.
         11   -1    0    0    0    0 -0.00000000000E+00 -0.00000000000E+00 -0.45593999997E+02  0.45594000000E+02  0.51100000000E-03 0.  1.
    9900012    2    1    2    0    0  0.15773197347E+02 -0.29365112393E+01  0.27555472408E+02  0.59301938587E+02  0.49999990077E+02 0.  0.
        -12    1    1    2    0    0 -0.15773197347E+02  0.29365112393E+01 -0.27555472408E+02  0.31886061413E+02  0.00000000000E+00 0.  1.
         11    1    3    3    0    0  0.12485414235E+02  0.16122975185E+02  0.15875679549E+02  0.25843240873E+02  0.51100000000E-03 0. -1.
        -11    1    3    3    0    0  0.11181037211E+01  0.49144101906E+01  0.74855771542E+01  0.90241591877E+01  0.51100000000E-03 0.  1.
        -12    1    3    3    0    0  0.21696793914E+01 -0.23973896615E+02  0.41942157052E+01  0.24434538526E+02  0.00000000000E+00 0.  1.
</event>
<event>
 7    1  0.6953847E-012  0.5930186E+02  0.7816164E-02  0.1266605E+00
        -11   -1    0    0    0    0  0.00000000000E+00  0.00000000000E+00  0.45593999997E+02  0.45594000000E+02  0.51100000000E-03 0. -1.
         11   -1    0    0    0    0 -0.00000000000E+00 -0.00000000000E+00 -0.45593999997E+02  0.45594000000E+02  0.51100000000E-03 0.  1.
    9900012    2    1    2    0    0  0.10065909373E+02 -0.28128968049E+02 -0.11142926031E+02  0.59301856057E+02  0.49999839562E+02 0.  0.
        -12    1    1    2    0    0 -0.10065909373E+02  0.28128968049E+02  0.11142926031E+02  0.31886143943E+02  0.00000000000E+00 0.  1.
         11    1    3    3    0    0 -0.31432589014E+01 -0.25087964405E+02 -0.33076940863E+01  0.25499546563E+02  0.51100000000E-03 0. -1.
        -11    1    3    3    0    0 -0.87576880152E+01  0.29256516538E+01  0.12016522274E+01  0.93113106116E+01  0.51100000000E-03 0.  1.
         12    1    3    3    0    0  0.21966856290E+02 -0.59666552985E+01 -0.90368841725E+01  0.24490998882E+02  0.00000000000E+00 0. -1.
</event>
<event>
 7    1  0.6953847E-012  0.5930193E+02  0.7816164E-02  0.1266605E+00
        -11   -1    0    0    0    0  0.00000000000E+00  0.00000000000E+00  0.45593999997E+02  0.45594000000E+02  0.51100000000E-03 0.  1.
         11   -1    0    0    0    0 -0.00000000000E+00 -0.00000000000E+00 -0.45593999997E+02  0.45594000000E+02  0.51100000000E-03 0. -1.
    9900012    2    1    2    0    0  0.15193411971E+02  0.27798596487E+02 -0.36220962621E+01  0.59301932270E+02  0.49999978556E+02 0.  0.
        -12    1    1    2    0    0 -0.15193411971E+02 -0.27798596487E+02  0.36220962621E+01  0.31886067730E+02  0.00000000000E+00 0.  1.
         11    1    3    3    0    0  0.19401566064E+02  0.14946560959E+02 -0.67833112405E+01  0.25413259569E+02  0.51100000000E-03 0. -1.
        -11    1    3    3    0    0  0.50371181932E+01 -0.85085570266E+01  0.38297738067E+01  0.10603549879E+02  0.51100000000E-03 0.  1.
         12    1    3    3    0    0 -0.92452722863E+01  0.21360592554E+02 -0.66855882826E+00  0.23285122822E+02  0.00000000000E+00 0. -1.
</event>
<event>
 7    1  0.6953847E-012  0.5930201E+02  0.7816164E-02  0.1266605E+00
        -11   -1    0    0    0    0  0.00000000000E+00  0.00000000000E+00  0.45593999997E+02  0.45594000000E+02  0.51100000000E-03 0.  1.
         11   -1    0    0    0    0 -0.00000000000E+00 -0.00000000000E+00 -0.45593999997E+02  0.45594000000E+02  0.51100000000E-03 0. -1.
    9900012    2    1    2    0    0  0.19595493270E+02 -0.90093193672E+01 -0.23485419047E+02  0.59302014054E+02  0.50000127711E+02 0.  0.
        -12    1    1    2    0    0 -0.19595493270E+02  0.90093193672E+01  0.23485419047E+02  0.31885985946E+02  0.00000000000E+00 0.  1.
         11    1    3    3    0    0  0.76894652103E+01  0.76299261702E+01 -0.83997987609E+01  0.13707671869E+02  0.51100000000E-03 0. -1.
        -11    1    3    3    0    0  0.47115996356E+01  0.82846680807E+01 -0.17098014298E+02  0.19574907140E+02  0.51100000000E-03 0.  1.
         12    1    3    3    0    0  0.71944284243E+01 -0.24923913618E+02  0.20123940127E+01  0.26019435045E+02  0.00000000000E+00 0. -1.
</event>
<event>
 7    1  0.6953847E-012  0.5930197E+02  0.7816164E-02  0.1266605E+00
        -11   -1    0    0    0    0  0.00000000000E+00  0.00000000000E+00  0.45593999997E+02  0.45594000000E+02  0.51100000000E-03 0. -1.
         11   -1    0    0    0    0 -0.00000000000E+00 -0.00000000000E+00 -0.45593999997E+02  0.45594000000E+02  0.51100000000E-03 0.  1.
    9900012    2    1    2    0    0  0.20977133763E+02 -0.16791852136E+02  0.17167191986E+02  0.59301969834E+02  0.50000047065E+02 0.  0.
        -12    1    1    2    0    0 -0.20977133763E+02  0.16791852136E+02 -0.17167191986E+02  0.31886030166E+02  0.00000000000E+00 0.  1.
         11    1    3    3    0    0  0.48000057163E+01 -0.33016390471E+01  0.14365880741E+02  0.15502238709E+02  0.51100000000E-03 0. -1.
        -11    1    3    3    0    0 -0.11434684682E+02  0.14673298249E+01 -0.28903029696E+01  0.11885239674E+02  0.51100000000E-03 0.  1.
         12    1    3    3    0    0  0.27611812729E+02 -0.14957542914E+02  0.56916142146E+01  0.31914491451E+02  0.00000000000E+00 0. -1.
</event>
<event>
 7    1  0.6953847E-012  0.5930193E+02  0.7816164E-02  0.1266605E+00
        -11   -1    0    0    0    0  0.00000000000E+00  0.00000000000E+00  0.45593999997E+02  0.45594000000E+02  0.51100000000E-03 0.  1.
         11   -1    0    0    0    0 -0.00000000000E+00 -0.00000000000E+00 -0.45593999997E+02  0.45594000000E+02  0.51100000000E-03 0. -1.
    9900012    2    1    2    0    0  0.35850393274E+01 -0.28589865100E+02  0.13656089230E+02  0.59301926763E+02  0.49999968513E+02 0.  0.
        -12    1    1    2    0    0 -0.35850393274E+01  0.28589865100E+02 -0.13656089230E+02  0.31886073237E+02  0.00000000000E+00 0.  1.
         11    1    3    3    0    0  0.18898200966E+02 -0.59625935069E+01 -0.10258522008E+02  0.22314385385E+02  0.51100000000E-03 0. -1.
        -11    1    3    3    0    0  0.43469970371E-01 -0.25887041221E+01  0.67985875698E+00  0.26768427037E+01  0.51100000000E-03 0.  1.
        -12    1    3    3    0    0 -0.15356631608E+02 -0.20038567471E+02  0.23234752481E+02  0.34310698674E+02  0.00000000000E+00 0.  1.
</event>
<event>
 7    1  0.6953847E-012  0.5930195E+02  0.7816164E-02  0.1266605E+00
        -11   -1    0    0    0    0  0.00000000000E+00  0.00000000000E+00  0.45593999997E+02  0.45594000000E+02  0.51100000000E-03 0.  1.
         11   -1    0    0    0    0 -0.00000000000E+00 -0.00000000000E+00 -0.45593999997E+02  0.45594000000E+02  0.51100000000E-03 0. -1.
    9900012    2    1    2    0    0  0.28408849303E+02  0.13480623900E+02 -0.52849343232E+01  0.59301945521E+02  0.50000002723E+02 0.  0.
        -12    1    1    2    0    0 -0.28408849303E+02 -0.13480623900E+02  0.52849343232E+01  0.31886054479E+02  0.00000000000E+00 0.  1.
         11    1    3    3    0    0  0.10058739626E+02 -0.72095670410E+01 -0.13799802971E+02  0.18536198696E+02  0.51100000000E-03 0. -1.
        -11    1    3    3    0    0  0.16346227670E+02  0.60918934146E+01  0.16495150591E+02  0.24008338503E+02  0.51100000000E-03 0.  1.
         12    1    3    3    0    0  0.20038820067E+01  0.14598297527E+02 -0.79802819431E+01  0.16757408322E+02  0.00000000000E+00 0. -1.
</event>
<event>
 7    1  0.6953847E-012  0.5930192E+02  0.7816164E-02  0.1266605E+00
        -11   -1    0    0    0    0  0.00000000000E+00  0.00000000000E+00  0.45593999997E+02  0.45594000000E+02  0.51100000000E-03 0. -1.
         11   -1    0    0    0    0 -0.00000000000E+00 -0.00000000000E+00 -0.45593999997E+02  0.45594000000E+02  0.51100000000E-03 0.  1.
    9900012    2    1    2    0    0 -0.19971766556E+00 -0.24490083389E+02  0.20418573878E+02  0.59301917914E+02  0.49999952375E+02 0.  0.
        -12    1    1    2    0    0  0.19971766556E+00  0.24490083389E+02 -0.20418573878E+02  0.31886082086E+02  0.00000000000E+00 0.  1.
         11    1    3    3    0    0 -0.11800546110E+01 -0.22434666605E+02  0.33713486310E+02  0.40513034371E+02  0.51100000000E-03 0. -1.
        -11    1    3    3    0    0  0.69349529241E+01 -0.17400037731E+01 -0.86992471172E+01  0.11260465615E+02  0.51100000000E-03 0.  1.
        -12    1    3    3    0    0 -0.59546159786E+01 -0.31541301153E+00 -0.45956653146E+01  0.75284179284E+01  0.00000000000E+00 0.  1.
</event>
<event>
 7    1  0.6953847E-012  0.5930193E+02  0.7816164E-02  0.1266605E+00
        -11   -1    0    0    0    0  0.00000000000E+00  0.00000000000E+00  0.45593999997E+02  0.45594000000E+02  0.51100000000E-03 0. -1.
         11   -1    0    0    0    0 -0.00000000000E+00 -0.00000000000E+00 -0.45593999997E+02  0.45594000000E+02  0.51100000000E-03 0.  1.
    9900012    2    1    2    0    0  0.16396357355E+02  0.49418823398E+01  0.26897185504E+02  0.59301932139E+02  0.49999978317E+02 0.  0.
        -12    1    1    2    0    0 -0.16396357355E+02 -0.49418823398E+01 -0.26897185504E+02  0.31886067861E+02  0.00000000000E+00 0.  1.
         11    1    3    3    0    0  0.12584667485E+02  0.75685280498E+01  0.26299024930E+02  0.30121341024E+02  0.51100000000E-03 0. -1.
        -11    1    3    3    0    0  0.88564640407E+01  0.68329653393E+01  0.99373186617E+01  0.14962508917E+02  0.51100000000E-03 0.  1.
        -12    1    3    3    0    0 -0.50447741699E+01 -0.94596110494E+01 -0.93391580871E+01  0.14218082199E+02  0.00000000000E+00 0.  1.
</event>
<event>
 7    1  0.6953847E-012  0.5930194E+02  0.7816164E-02  0.1266605E+00
        -11   -1    0    0    0    0  0.00000000000E+00  0.00000000000E+00  0.45593999997E+02  0.45594000000E+02  0.51100000000E-03 0. -1.
         11   -1    0    0    0    0 -0.00000000000E+00 -0.00000000000E+00 -0.45593999997E+02  0.45594000000E+02  0.51100000000E-03 0.  1.
    9900012    2    1    2    0    0 -0.13102367881E+02 -0.22210523827E+02 -0.18754765061E+02  0.59301943090E+02  0.49999998289E+02 0.  0.
        -12    1    1    2    0    0  0.13102367881E+02  0.22210523827E+02  0.18754765061E+02  0.31886056910E+02  0.00000000000E+00 0.  1.
         11    1    3    3    0    0 -0.17655544323E+01 -0.13543554989E+02 -0.89856760123E+01  0.16348927727E+02  0.51100000000E-03 0. -1.
        -11    1    3    3    0    0 -0.19680111581E+02 -0.10317633590E+02 -0.19827577941E+02  0.29780752207E+02  0.51100000000E-03 0.  1.
         12    1    3    3    0    0  0.83432981319E+01  0.16506647510E+01  0.10058488892E+02  0.13172263155E+02  0.00000000000E+00 0. -1.
</event>
<event>
 7    1  0.6953847E-012  0.5930196E+02  0.7816164E-02  0.1266605E+00
        -11   -1    0    0    0    0  0.00000000000E+00  0.00000000000E+00  0.45593999997E+02  0.45594000000E+02  0.51100000000E-03 0. -1.
         11   -1    0    0    0    0 -0.00000000000E+00 -0.00000000000E+00 -0.45593999997E+02  0.45594000000E+02  0.51100000000E-03 0.  1.
    9900012    2    1    2    0    0  0.92505819626E+01 -0.28425633795E+02 -0.11096384177E+02  0.59301958147E+02  0.50000025750E+02 0.  0.
        -12    1    1    2    0    0 -0.92505819626E+01  0.28425633795E+02  0.11096384177E+02  0.31886041853E+02  0.00000000000E+00 0.  1.
         11    1    3    3    0    0 -0.11481962371E+02 -0.14502489755E+01 -0.31680855749E+00  0.11577523478E+02  0.51100000000E-03 0. -1.
        -11    1    3    3    0    0 -0.84863505502E+01 -0.59353930203E+01 -0.94181896453E+00  0.10398752771E+02  0.51100000000E-03 0.  1.
         12    1    3    3    0    0  0.29218894883E+02 -0.21039991799E+02 -0.98377566547E+01  0.37325681897E+02  0.00000000000E+00 0. -1.
</event>
<event>
 7    1  0.6953847E-012  0.5930194E+02  0.7816164E-02  0.1266605E+00
        -11   -1    0    0    0    0  0.00000000000E+00  0.00000000000E+00  0.45593999997E+02  0.45594000000E+02  0.51100000000E-03 0.  1.
         11   -1    0    0    0    0 -0.00000000000E+00 -0.00000000000E+00 -0.45593999997E+02  0.45594000000E+02  0.51100000000E-03 0. -1.
    9900012    2    1    2    0    0  0.29293118820E+02  0.38374317829E+01 -0.11996159270E+02  0.59301944582E+02  0.50000001011E+02 0.  0.
        -12    1    1    2    0    0 -0.29293118820E+02 -0.38374317829E+01  0.11996159270E+02  0.31886055418E+02  0.00000000000E+00 0.  1.
         11    1    3    3    0    0  0.13030871822E+02 -0.27413330970E+01 -0.12201847653E+02  0.18061107773E+02  0.51100000000E-03 0. -1.
        -11    1    3    3    0    0  0.16615795977E+02  0.20070667716E+02 -0.54284928153E+01  0.26615501367E+02  0.51100000000E-03 0.  1.
        -12    1    3    3    0    0 -0.35354897927E+00 -0.13491902836E+02  0.56341811983E+01  0.14625335442E+02  0.00000000000E+00 0.  1.
</event>
<event>
 7    1  0.6953847E-012  0.5930193E+02  0.7816164E-02  0.1266605E+00
        -11   -1    0    0    0    0  0.00000000000E+00  0.00000000000E+00  0.45593999997E+02  0.45594000000E+02  0.51100000000E-03 0. -1.
         11   -1    0    0    0    0 -0.00000000000E+00 -0.00000000000E+00 -0.45593999997E+02  0.45594000000E+02  0.51100000000E-03 0.  1.
    9900012    2    1    2    0    0  0.26700668344E+02 -0.16755863357E+02  0.47996932915E+01  0.59301926197E+02  0.49999967482E+02 0.  0.
        -12    1    1    2    0    0 -0.26700668344E+02  0.16755863357E+02 -0.47996932915E+01  0.31886073803E+02  0.00000000000E+00 0.  1.
         11    1    3    3    0    0 -0.68565047948E+00  0.95285536445E+01  0.77554610806E+01  0.12304902599E+02  0.51100000000E-03 0. -1.
        -11    1    3    3    0    0  0.28346567299E+02 -0.12515715801E+02  0.44970365732E+01  0.31311249702E+02  0.51100000000E-03 0.  1.
        -12    1    3    3    0    0 -0.96024847608E+00 -0.13768701200E+02 -0.74528043623E+01  0.15685773897E+02  0.00000000000E+00 0.  1.
</event>
<event>
 7    1  0.6953847E-012  0.5930202E+02  0.7816164E-02  0.1266604E+00
        -11   -1    0    0    0    0  0.00000000000E+00  0.00000000000E+00  0.45593999997E+02  0.45594000000E+02  0.51100000000E-03 0. -1.
         11   -1    0    0    0    0 -0.00000000000E+00 -0.00000000000E+00 -0.45593999997E+02  0.45594000000E+02  0.51100000000E-03 0.  1.
    9900012    2    1    2    0    0 -0.31357609045E+02  0.56595707059E+01 -0.11769275387E+01  0.59302022768E+02  0.50000143603E+02 0.  0.
        -12    1    1    2    0    0  0.31357609045E+02 -0.56595707059E+01  0.11769275387E+01  0.31885977232E+02  0.00000000000E+00 0.  1.
         11    1    3    3    0    0 -0.29309773884E+01 -0.17773540876E+01 -0.35785337730E+01  0.49553526846E+01  0.51100000000E-03 0.  1.
        -11    1    3    3    0    0  0.93328220874E+01  0.12504503096E+02 -0.29342464454E+01  0.15876837477E+02  0.51100000000E-03 0. -1.
         12    1    3    3    0    0 -0.37759453744E+02 -0.50675783029E+01  0.53358526797E+01  0.38469832606E+02  0.00000000000E+00 0. -1.
</event>
<event>
 7    1  0.6953847E-012  0.5930194E+02  0.7816164E-02  0.1266605E+00
        -11   -1    0    0    0    0  0.00000000000E+00  0.00000000000E+00  0.45593999997E+02  0.45594000000E+02  0.51100000000E-03 0.  1.
         11   -1    0    0    0    0 -0.00000000000E+00 -0.00000000000E+00 -0.45593999997E+02  0.45594000000E+02  0.51100000000E-03 0. -1.
    9900012    2    1    2    0    0  0.22683796085E+02 -0.21796567453E+02 -0.52034710869E+01  0.59301936133E+02  0.49999985602E+02 0.  0.
        -12    1    1    2    0    0 -0.22683796085E+02  0.21796567453E+02  0.52034710869E+01  0.31886063867E+02  0.00000000000E+00 0.  1.
         11    1    3    3    0    0 -0.34728152159E+01  0.30211266794E+01  0.24358823174E+01  0.52077994261E+01  0.51100000000E-03 0. -1.
        -11    1    3    3    0    0  0.65554896260E+01 -0.26987267845E+02  0.80259980087E+01  0.28908540508E+02  0.51100000000E-03 0.  1.
         12    1    3    3    0    0  0.19601121675E+02  0.21695737125E+01 -0.15665351413E+02  0.25185596199E+02  0.00000000000E+00 0. -1.
</event>
<event>
 7    1  0.6953847E-012  0.5930198E+02  0.7816164E-02  0.1266605E+00
        -11   -1    0    0    0    0  0.00000000000E+00  0.00000000000E+00  0.45593999997E+02  0.45594000000E+02  0.51100000000E-03 0.  1.
         11   -1    0    0    0    0 -0.00000000000E+00 -0.00000000000E+00 -0.45593999997E+02  0.45594000000E+02  0.51100000000E-03 0. -1.
    9900012    2    1    2    0    0  0.17778604053E+02  0.22148968948E+02 -0.14493536745E+02  0.59301981200E+02  0.50000067793E+02 0.  0.
        -12    1    1    2    0    0 -0.17778604053E+02 -0.22148968948E+02  0.14493536745E+02  0.31886018800E+02  0.00000000000E+00 0.  1.
         11    1    3    3    0    0  0.40684450831E+01 -0.73302108848E+00 -0.20751047692E+02  0.21158817214E+02  0.51100000000E-03 0. -1.
        -11    1    3    3    0    0 -0.78071329850E+01  0.39856930166E+01  0.32505626309E+01  0.93489695660E+01  0.51100000000E-03 0.  1.
        -12    1    3    3    0    0  0.21517291955E+02  0.18896297020E+02  0.30069483162E+01  0.28794194420E+02  0.00000000000E+00 0.  1.
</event>
<event>
 7    1  0.6953847E-012  0.5930195E+02  0.7816164E-02  0.1266605E+00
        -11   -1    0    0    0    0  0.00000000000E+00  0.00000000000E+00  0.45593999997E+02  0.45594000000E+02  0.51100000000E-03 0. -1.
         11   -1    0    0    0    0 -0.00000000000E+00 -0.00000000000E+00 -0.45593999997E+02  0.45594000000E+02  0.51100000000E-03 0.  1.
    9900012    2    1    2    0    0 -0.69815396702E+01 -0.30338678105E+01  0.30964073544E+02  0.59301951319E+02  0.50000013297E+02 0.  0.
        -12    1    1    2    0    0  0.69815396702E+01  0.30338678105E+01 -0.30964073544E+02  0.31886048681E+02  0.00000000000E+00 0.  1.
         11    1    3    3    0    0  0.10204197433E+02 -0.59101300597E+01  0.37230069912E+01  0.12365923495E+02  0.51100000000E-03 0. -1.
        -11    1    3    3    0    0 -0.13451709532E+02 -0.12203411907E+02  0.33964896795E+01  0.18477226359E+02  0.51100000000E-03 0.  1.
        -12    1    3    3    0    0 -0.37340275709E+01  0.15079674156E+02  0.23844576874E+02  0.28458801465E+02  0.00000000000E+00 0.  1.
</event>
<event>
 7    1  0.6953847E-012  0.5930196E+02  0.7816164E-02  0.1266605E+00
        -11   -1    0    0    0    0  0.00000000000E+00  0.00000000000E+00  0.45593999997E+02  0.45594000000E+02  0.51100000000E-03 0.  1.
         11   -1    0    0    0    0 -0.00000000000E+00 -0.00000000000E+00 -0.45593999997E+02  0.45594000000E+02  0.51100000000E-03 0. -1.
    9900012    2    1    2    0    0 -0.42924216582E+01  0.10008016024E+02 -0.29968888723E+02  0.59301959799E+02  0.50000028762E+02 0.  0.
        -12    1    1    2    0    0  0.42924216582E+01 -0.10008016024E+02  0.29968888723E+02  0.31886040201E+02  0.00000000000E+00 0.  1.
         11    1    3    3    0    0  0.42489391948E+01 -0.90534912077E+01 -0.66441854373E+01  0.12006847534E+02  0.51100000000E-03 0. -1.
        -11    1    3    3    0    0  0.10403975070E+02  0.94281771907E+00  0.22340141939E+01  0.10682809658E+02  0.51100000000E-03 0.  1.
         12    1    3    3    0    0 -0.18945335923E+02  0.18118689513E+02 -0.25558717480E+02  0.36612302606E+02  0.00000000000E+00 0. -1.
</event>
<event>
 7    1  0.6953847E-012  0.5930196E+02  0.7816164E-02  0.1266605E+00
        -11   -1    0    0    0    0  0.00000000000E+00  0.00000000000E+00  0.45593999997E+02  0.45594000000E+02  0.51100000000E-03 0. -1.
         11   -1    0    0    0    0 -0.00000000000E+00 -0.00000000000E+00 -0.45593999997E+02  0.45594000000E+02  0.51100000000E-03 0.  1.
    9900012    2    1    2    0    0 -0.84136661132E+01  0.13648739910E+02  0.27561600639E+02  0.59301957467E+02  0.50000024511E+02 0.  0.
        -12    1    1    2    0    0  0.84136661132E+01 -0.13648739910E+02 -0.27561600639E+02  0.31886042533E+02  0.00000000000E+00 0.  1.
         11    1    3    3    0    0  0.27912646556E+01  0.20924871952E+02 -0.10773497828E+01  0.21137693995E+02  0.51100000000E-03 0. -1.
        -11    1    3    3    0    0 -0.11384051614E+02 -0.34759570741E+01  0.30410912784E+01  0.12285240949E+02  0.51100000000E-03 0.  1.
        -12    1    3    3    0    0  0.17912084564E+00 -0.38001749683E+01  0.25597859143E+02  0.25879022524E+02  0.00000000000E+00 0.  1.
</event>
<event>
 7    1  0.6953847E-012  0.5930194E+02  0.7816164E-02  0.1266605E+00
        -11   -1    0    0    0    0  0.00000000000E+00  0.00000000000E+00  0.45593999997E+02  0.45594000000E+02  0.51100000000E-03 0. -1.
         11   -1    0    0    0    0 -0.00000000000E+00 -0.00000000000E+00 -0.45593999997E+02  0.45594000000E+02  0.51100000000E-03 0.  1.
    9900012    2    1    2    0    0  0.27076515592E+02  0.33168461776E+01 -0.16510051363E+02  0.59301937823E+02  0.49999988683E+02 0.  0.
        -12    1    1    2    0    0 -0.27076515592E+02 -0.33168461776E+01  0.16510051363E+02  0.31886062177E+02  0.00000000000E+00 0.  1.
         11    1    3    3    0    0  0.63252019371E+01  0.59717977672E+01  0.97003850024E+01  0.13029505653E+02  0.51100000000E-03 0. -1.
        -11    1    3    3    0    0  0.20691633217E+02  0.10368348563E+02 -0.23473725716E+02  0.32964558793E+02  0.51100000000E-03 0.  1.
         12    1    3    3    0    0  0.59680437453E-01 -0.13023300153E+02 -0.27367106496E+01  0.13307873376E+02  0.00000000000E+00 0. -1.
</event>
<event>
 7    1  0.6953847E-012  0.5930194E+02  0.7816164E-02  0.1266605E+00
        -11   -1    0    0    0    0  0.00000000000E+00  0.00000000000E+00  0.45593999997E+02  0.45594000000E+02  0.51100000000E-03 0. -1.
         11   -1    0    0    0    0 -0.00000000000E+00 -0.00000000000E+00 -0.45593999997E+02  0.45594000000E+02  0.51100000000E-03 0.  1.
    9900012    2    1    2    0    0 -0.94661624982E+01 -0.12313285691E+02  0.27847715996E+02  0.59301944691E+02  0.50000001210E+02 0.  0.
        -12    1    1    2    0    0  0.94661624982E+01  0.12313285691E+02 -0.27847715996E+02  0.31886055309E+02  0.00000000000E+00 0.  1.
         11    1    3    3    0    0  0.37402596807E+01 -0.28137539022E+01  0.23310570904E+02  0.23775816908E+02  0.51100000000E-03 0. -1.
        -11    1    3    3    0    0 -0.11803361375E+02  0.91127588253E+01  0.73929150360E+01  0.16643824865E+02  0.51100000000E-03 0.  1.
        -12    1    3    3    0    0 -0.14030608042E+01 -0.18612290614E+02 -0.28557699441E+01  0.18882302918E+02  0.00000000000E+00 0.  1.
</event>
<event>
 7    1  0.6953847E-012  0.5930195E+02  0.7816164E-02  0.1266605E+00
        -11   -1    0    0    0    0  0.00000000000E+00  0.00000000000E+00  0.45593999997E+02  0.45594000000E+02  0.51100000000E-03 0. -1.
         11   -1    0    0    0    0 -0.00000000000E+00 -0.00000000000E+00 -0.45593999997E+02  0.45594000000E+02  0.51100000000E-03 0.  1.
    9900012    2    1    2    0    0 -0.30770060963E+02  0.27337268080E+01  0.79025679318E+01  0.59301945151E+02  0.50000002049E+02 0.  0.
        -12    1    1    2    0    0  0.30770060963E+02 -0.27337268080E+01 -0.79025679318E+01  0.31886054849E+02  0.00000000000E+00 0.  1.
         11    1    3    3    0    0 -0.89246215019E+01  0.16297678324E+02 -0.29329687585E+01  0.18811312918E+02  0.51100000000E-03 0. -1.
        -11    1    3    3    0    0 -0.12697786403E+01  0.66690044004E+01 -0.41680454649E+01  0.79662137021E+01  0.51100000000E-03 0.  1.
         12    1    3    3    0    0 -0.20575660821E+02 -0.20232955916E+02  0.15003582155E+02  0.32524418531E+02  0.00000000000E+00 0. -1.
</event>
<event>
 7    1  0.6953847E-012  0.5930208E+02  0.7816164E-02  0.1266604E+00
        -11   -1    0    0    0    0  0.00000000000E+00  0.00000000000E+00  0.45593999997E+02  0.45594000000E+02  0.51100000000E-03 0.  1.
         11   -1    0    0    0    0 -0.00000000000E+00 -0.00000000000E+00 -0.45593999997E+02  0.45594000000E+02  0.51100000000E-03 0. -1.
    9900012    2    1    2    0    0  0.91733345190E+01  0.17816253971E+02 -0.24802078204E+02  0.59302077479E+02  0.50000243383E+02 0.  0.
        -12    1    1    2    0    0 -0.91733345190E+01 -0.17816253971E+02  0.24802078204E+02  0.31885922521E+02  0.00000000000E+00 0.  1.
         11    1    3    3    0    0  0.52015237923E+00  0.66654727144E+01  0.64354555429E+01  0.92797722661E+01  0.51100000000E-03 0. -1.
        -11    1    3    3    0    0  0.91262210825E+01 -0.12279115122E+02 -0.91933591918E+01  0.17848877637E+02  0.51100000000E-03 0.  1.
         12    1    3    3    0    0 -0.47303894268E+00  0.23429896379E+02 -0.22044174555E+02  0.32173427576E+02  0.00000000000E+00 0. -1.
</event>
<event>
 7    1  0.6953847E-012  0.5930194E+02  0.7816164E-02  0.1266605E+00
        -11   -1    0    0    0    0  0.00000000000E+00  0.00000000000E+00  0.45593999997E+02  0.45594000000E+02  0.51100000000E-03 0.  1.
         11   -1    0    0    0    0 -0.00000000000E+00 -0.00000000000E+00 -0.45593999997E+02  0.45594000000E+02  0.51100000000E-03 0. -1.
    9900012    2    1    2    0    0 -0.20193841075E+02  0.16576173755E+02 -0.18280048299E+02  0.59301938476E+02  0.49999989874E+02 0.  0.
        -12    1    1    2    0    0  0.20193841075E+02 -0.16576173755E+02  0.18280048299E+02  0.31886061524E+02  0.00000000000E+00 0.  1.
         11    1    3    3    0    0  0.40380710307E+01 -0.12062917360E+01 -0.11075916735E+02  0.11850615561E+02  0.51100000000E-03 0. -1.
        -11    1    3    3    0    0 -0.62908320890E+01 -0.10698148921E+02  0.19627936157E+01  0.12564932063E+02  0.51100000000E-03 0.  1.
         12    1    3    3    0    0 -0.17941080017E+02  0.28480614411E+02 -0.91669251799E+01  0.34886390852E+02  0.00000000000E+00 0. -1.
</event>
<event>
 7    1  0.6953847E-012  0.5930196E+02  0.7816164E-02  0.1266605E+00
        -11   -1    0    0    0    0  0.00000000000E+00  0.00000000000E+00  0.45593999997E+02  0.45594000000E+02  0.51100000000E-03 0. -1.
         11   -1    0    0    0    0 -0.00000000000E+00 -0.00000000000E+00 -0.45593999997E+02  0.45594000000E+02  0.51100000000E-03 0.  1.
    9900012    2    1    2    0    0 -0.30469091984E+02  0.92612655828E+01  0.16072302703E+01  0.59301956099E+02  0.50000022015E+02 0.  0.
        -12    1    1    2    0    0  0.30469091984E+02 -0.92612655828E+01 -0.16072302703E+01  0.31886043901E+02  0.00000000000E+00 0.  1.
         11    1    3    3    0    0 -0.17390114454E+02 -0.13847922461E+02  0.94627832713E+01  0.24160407793E+02  0.51100000000E-03 0. -1.
        -11    1    3    3    0    0 -0.12009890158E+02  0.10644729379E+02  0.53830956023E+01  0.16927062464E+02  0.51100000000E-03 0.  1.
        -12    1    3    3    0    0 -0.10690873722E+01  0.12464458665E+02 -0.13238648603E+02  0.18214485842E+02  0.00000000000E+00 0.  1.
</event>
<event>
 7    1  0.6953847E-012  0.5930191E+02  0.7816164E-02  0.1266605E+00
        -11   -1    0    0    0    0  0.00000000000E+00  0.00000000000E+00  0.45593999997E+02  0.45594000000E+02  0.51100000000E-03 0.  1.
         11   -1    0    0    0    0 -0.00000000000E+00 -0.00000000000E+00 -0.45593999997E+02  0.45594000000E+02  0.51100000000E-03 0. -1.
    9900012    2    1    2    0    0  0.15372573486E+02  0.10290266692E+02 -0.25971462086E+02  0.59301914523E+02  0.49999946190E+02 0.  0.
        -12    1    1    2    0    0 -0.15372573486E+02 -0.10290266692E+02  0.25971462086E+02  0.31886085477E+02  0.00000000000E+00 0.  1.
         11    1    3    3    0    0  0.64742424559E+01 -0.44094182129E+01 -0.22368075145E+00  0.78363778427E+01  0.51100000000E-03 0. -1.
        -11    1    3    3    0    0 -0.37938356322E+00 -0.13476963389E+02 -0.23538511481E+01  0.13686237232E+02  0.51100000000E-03 0.  1.
         12    1    3    3    0    0  0.92777145932E+01  0.28176648294E+02 -0.23393930187E+02  0.37779299448E+02  0.00000000000E+00 0. -1.
</event>
<event>
 7    1  0.6953847E-012  0.5930195E+02  0.7816164E-02  0.1266605E+00
        -11   -1    0    0    0    0  0.00000000000E+00  0.00000000000E+00  0.45593999997E+02  0.45594000000E+02  0.51100000000E-03 0.  1.
         11   -1    0    0    0    0 -0.00000000000E+00 -0.00000000000E+00 -0.45593999997E+02  0.45594000000E+02  0.51100000000E-03 0. -1.
    9900012    2    1    2    0    0  0.22762892748E+02  0.22268978459E+02 -0.16320714566E+01  0.59301947484E+02  0.50000006303E+02 0.  0.
        -12    1    1    2    0    0 -0.22762892748E+02 -0.22268978459E+02  0.16320714566E+01  0.31886052516E+02  0.00000000000E+00 0.  1.
         11    1    3    3    0    0  0.23443730278E+02 -0.29462904585E+01 -0.90765300592E+01  0.25311509536E+02  0.51100000000E-03 0. -1.
        -11    1    3    3    0    0  0.14135248319E+01 -0.23322927020E+01  0.56875083738E+01  0.63075663660E+01  0.51100000000E-03 0.  1.
         12    1    3    3    0    0 -0.20943623626E+01  0.27547561619E+02  0.17569502289E+01  0.27682871581E+02  0.00000000000E+00 0. -1.
</event>
<event>
 7    1  0.6953847E-012  0.5930195E+02  0.7816164E-02  0.1266605E+00
        -11   -1    0    0    0    0  0.00000000000E+00  0.00000000000E+00  0.45593999997E+02  0.45594000000E+02  0.51100000000E-03 0.  1.
         11   -1    0    0    0    0 -0.00000000000E+00 -0.00000000000E+00 -0.45593999997E+02  0.45594000000E+02  0.51100000000E-03 0. -1.
    9900012    2    1    2    0    0 -0.17976988610E+02 -0.14479852536E+02 -0.21997311693E+02  0.59301953355E+02  0.50000017010E+02 0.  0.
        -12    1    1    2    0    0  0.17976988610E+02  0.14479852536E+02  0.21997311693E+02  0.31886046645E+02  0.00000000000E+00 0.  1.
         11    1    3    3    0    0  0.10382440153E+02 -0.31858240979E+01 -0.21811677925E+02  0.24365833310E+02  0.51100000000E-03 0. -1.
        -11    1    3    3    0    0 -0.12884382901E+02 -0.70847347765E+01 -0.83826292473E+01  0.16925402889E+02  0.51100000000E-03 0.  1.
        -12    1    3    3    0    0 -0.15475045863E+02 -0.42092936617E+01  0.81969954794E+01  0.18010717156E+02  0.00000000000E+00 0.  1.
</event>
<event>
 7    1  0.6953847E-012  0.5930189E+02  0.7816164E-02  0.1266605E+00
        -11   -1    0    0    0    0  0.00000000000E+00  0.00000000000E+00  0.45593999997E+02  0.45594000000E+02  0.51100000000E-03 0.  1.
         11   -1    0    0    0    0 -0.00000000000E+00 -0.00000000000E+00 -0.45593999997E+02  0.45594000000E+02  0.51100000000E-03 0. -1.
    9900012    2    1    2    0    0  0.51332348289E+01 -0.50469674193E-01 -0.31470161365E+02  0.59301894823E+02  0.49999910262E+02 0.  0.
        -12    1    1    2    0    0 -0.51332348289E+01  0.50469674193E-01  0.31470161365E+02  0.31886105177E+02  0.00000000000E+00 0.  1.
         11    1    3    3    0    0 -0.63606806568E+01  0.51321916569E+01 -0.22409716364E+02  0.23853574940E+02  0.51100000000E-03 0. -1.
        -11    1    3    3    0    0  0.11641584628E+02 -0.50675661888E+01 -0.20442595163E+02  0.24064629999E+02  0.51100000000E-03 0.  1.
        -12    1    3    3    0    0 -0.14766914256E+00 -0.11509514234E+00  0.11382150162E+02  0.11383689884E+02  0.00000000000E+00 0.  1.
</event>
<event>
 7    1  0.6953847E-012  0.5930194E+02  0.7816164E-02  0.1266605E+00
        -11   -1    0    0    0    0  0.00000000000E+00  0.00000000000E+00  0.45593999997E+02  0.45594000000E+02  0.51100000000E-03 0.  1.
         11   -1    0    0    0    0 -0.00000000000E+00 -0.00000000000E+00 -0.45593999997E+02  0.45594000000E+02  0.51100000000E-03 0. -1.
    9900012    2    1    2    0    0 -0.51402514953E+01 -0.52333972379E+01 -0.31030798867E+02  0.59301935483E+02  0.49999984416E+02 0.  0.
        -12    1    1    2    0    0  0.51402514953E+01  0.52333972379E+01  0.31030798867E+02  0.31886064517E+02  0.00000000000E+00 0.  1.
         11    1    3    3    0    0  0.17265215761E+01  0.75302342854E+01 -0.34027987078E+02  0.34893970969E+02  0.51100000000E-03 0. -1.
        -11    1    3    3    0    0  0.62183395792E+01 -0.51523437303E+00  0.23522357904E-01  0.62396928725E+01  0.51100000000E-03 0.  1.
         12    1    3    3    0    0 -0.13085112651E+02 -0.12248397150E+02  0.29736658531E+01  0.18168271641E+02  0.00000000000E+00 0. -1.
</event>
<event>
 7    1  0.6953847E-012  0.5930193E+02  0.7816164E-02  0.1266605E+00
        -11   -1    0    0    0    0  0.00000000000E+00  0.00000000000E+00  0.45593999997E+02  0.45594000000E+02  0.51100000000E-03 0.  1.
         11   -1    0    0    0    0 -0.00000000000E+00 -0.00000000000E+00 -0.45593999997E+02  0.45594000000E+02  0.51100000000E-03 0. -1.
    9900012    2    1    2    0    0 -0.11444723208E+02  0.11661963423E+02 -0.27381348548E+02  0.59301932063E+02  0.49999978180E+02 0.  0.
        -12    1    1    2    0    0  0.11444723208E+02 -0.11661963423E+02  0.27381348548E+02  0.31886067937E+02  0.00000000000E+00 0.  1.
         11    1    3    3    0    0 -0.10706506876E+02  0.12090272365E+02 -0.21412989178E+02  0.26820143197E+02  0.51100000000E-03 0. -1.
        -11    1    3    3    0    0  0.45440025385E+01  0.12661369575E+02  0.52613588420E+01  0.14444380766E+02  0.51100000000E-03 0.  1.
         12    1    3    3    0    0 -0.52822188705E+01 -0.13089678516E+02 -0.11229718212E+02  0.18037408100E+02  0.00000000000E+00 0. -1.
</event>
<event>
 7    1  0.6953847E-012  0.5930192E+02  0.7816164E-02  0.1266605E+00
        -11   -1    0    0    0    0  0.00000000000E+00  0.00000000000E+00  0.45593999997E+02  0.45594000000E+02  0.51100000000E-03 0.  1.
         11   -1    0    0    0    0 -0.00000000000E+00 -0.00000000000E+00 -0.45593999997E+02  0.45594000000E+02  0.51100000000E-03 0. -1.
    9900012    2    1    2    0    0 -0.21744567795E+02  0.82206585759E+01 -0.21824677740E+02  0.59301921306E+02  0.49999958561E+02 0.  0.
        -12    1    1    2    0    0  0.21744567795E+02 -0.82206585759E+01  0.21824677740E+02  0.31886078694E+02  0.00000000000E+00 0.  1.
         11    1    3    3    0    0  0.37958172376E+01  0.14040082294E+02 -0.96234388256E+01  0.17439687911E+02  0.51100000000E-03 0. -1.
        -11    1    3    3    0    0 -0.14275121470E+01 -0.42383424220E+01  0.87842599037E+01  0.98572085162E+01  0.51100000000E-03 0.  1.
        -12    1    3    3    0    0 -0.24112872886E+02 -0.15810812965E+01 -0.20985498818E+02  0.32005024879E+02  0.00000000000E+00 0.  1.
</event>
<event>
 7    1  0.6953847E-012  0.5930206E+02  0.7816164E-02  0.1266604E+00
        -11   -1    0    0    0    0  0.00000000000E+00  0.00000000000E+00  0.45593999997E+02  0.45594000000E+02  0.51100000000E-03 0.  1.
         11   -1    0    0    0    0 -0.00000000000E+00 -0.00000000000E+00 -0.45593999997E+02  0.45594000000E+02  0.51100000000E-03 0. -1.
    9900012    2    1    2    0    0 -0.20394718575E+01  0.17701133944E+02 -0.26442831356E+02  0.59302063939E+02  0.50000218689E+02 0.  0.
        -12    1    1    2    0    0  0.20394718575E+01 -0.17701133944E+02  0.26442831356E+02  0.31885936061E+02  0.00000000000E+00 0.  1.
         11    1    3    3    0    0 -0.17537704483E+01  0.14991399178E+02 -0.36582340061E+01  0.15530628976E+02  0.51100000000E-03 0. -1.
        -11    1    3    3    0    0  0.11045186260E+02 -0.33302002058E+01  0.54465836685E+01  0.12757415367E+02  0.51100000000E-03 0.  1.
         12    1    3    3    0    0 -0.11330887669E+02  0.60399349719E+01 -0.28231181018E+02  0.31014019596E+02  0.00000000000E+00 0. -1.
</event>
<event>
 7    1  0.6953847E-012  0.5930193E+02  0.7816164E-02  0.1266605E+00
        -11   -1    0    0    0    0  0.00000000000E+00  0.00000000000E+00  0.45593999997E+02  0.45594000000E+02  0.51100000000E-03 0. -1.
         11   -1    0    0    0    0 -0.00000000000E+00 -0.00000000000E+00 -0.45593999997E+02  0.45594000000E+02  0.51100000000E-03 0.  1.
    9900012    2    1    2    0    0  0.24351450914E+02  0.19883713302E+02  0.53260109417E+01  0.59301927666E+02  0.49999970161E+02 0.  0.
        -12    1    1    2    0    0 -0.24351450914E+02 -0.19883713302E+02 -0.53260109417E+01  0.31886072334E+02  0.00000000000E+00 0.  1.
         11    1    3    3    0    0 -0.39750273022E+01  0.10179200105E+02  0.44872039668E+01  0.11813211102E+02  0.51100000000E-03 0. -1.
        -11    1    3    3    0    0 -0.62596815601E+01  0.93885654090E+01 -0.51205432519E+01  0.12391478408E+02  0.51100000000E-03 0.  1.
         12    1    3    3    0    0  0.34586159777E+02  0.31594778767E+00  0.59593502268E+01  0.35097238157E+02  0.00000000000E+00 0. -1.
</event>
<event>
 7    1  0.6953847E-012  0.5930194E+02  0.7816164E-02  0.1266605E+00
        -11   -1    0    0    0    0  0.00000000000E+00  0.00000000000E+00  0.45593999997E+02  0.45594000000E+02  0.51100000000E-03 0. -1.
         11   -1    0    0    0    0 -0.00000000000E+00 -0.00000000000E+00 -0.45593999997E+02  0.45594000000E+02  0.51100000000E-03 0.  1.
    9900012    2    1    2    0    0 -0.15999841356E+02  0.27330391644E+02 -0.37115153570E+01  0.59301943845E+02  0.49999999667E+02 0.  0.
        -12    1    1    2    0    0  0.15999841356E+02 -0.27330391644E+02  0.37115153570E+01  0.31886056155E+02  0.00000000000E+00 0.  1.
         11    1    3    3    0    0 -0.66871342173E+01 -0.38625586678E+01  0.49114771071E+01  0.91520342622E+01  0.51100000000E-03 0.  1.
        -11    1    3    3    0    0  0.41449418646E+01  0.53167458623E+01  0.12456216453E+02  0.14163532688E+02  0.51100000000E-03 0. -1.
         12    1    3    3    0    0 -0.13457649003E+02  0.25876204450E+02 -0.21079208917E+02  0.35986376895E+02  0.00000000000E+00 0. -1.
</event>
<event>
 7    1  0.6953847E-012  0.5930194E+02  0.7816164E-02  0.1266605E+00
        -11   -1    0    0    0    0  0.00000000000E+00  0.00000000000E+00  0.45593999997E+02  0.45594000000E+02  0.51100000000E-03 0.  1.
         11   -1    0    0    0    0 -0.00000000000E+00 -0.00000000000E+00 -0.45593999997E+02  0.45594000000E+02  0.51100000000E-03 0. -1.
    9900012    2    1    2    0    0  0.66012024425E+01  0.17445580330E+02 -0.25861105213E+02  0.59301938632E+02  0.49999990159E+02 0.  0.
        -12    1    1    2    0    0 -0.66012024425E+01 -0.17445580330E+02  0.25861105213E+02  0.31886061368E+02  0.00000000000E+00 0.  1.
         11    1    3    3    0    0  0.10470206778E+02  0.14809053388E+02 -0.24773339416E+02  0.30702632433E+02  0.51100000000E-03 0. -1.
        -11    1    3    3    0    0  0.71762125733E+01 -0.95668841789E+01 -0.19496184366E+01  0.12117108240E+02  0.51100000000E-03 0.  1.
        -12    1    3    3    0    0 -0.11045216909E+02  0.12203411122E+02  0.86185264023E+00  0.16482197959E+02  0.00000000000E+00 0.  1.
</event>
<event>
 7    1  0.6953847E-012  0.5930187E+02  0.7816164E-02  0.1266605E+00
        -11   -1    0    0    0    0  0.00000000000E+00  0.00000000000E+00  0.45593999997E+02  0.45594000000E+02  0.51100000000E-03 0. -1.
         11   -1    0    0    0    0 -0.00000000000E+00 -0.00000000000E+00 -0.45593999997E+02  0.45594000000E+02  0.51100000000E-03 0.  1.
    9900012    2    1    2    0    0 -0.22750868353E+02 -0.15980291255E+02  0.15612601444E+02  0.59301873813E+02  0.49999871944E+02 0.  0.
        -12    1    1    2    0    0  0.22750868353E+02  0.15980291255E+02 -0.15612601444E+02  0.31886126187E+02  0.00000000000E+00 0.  1.
         11    1    3    3    0    0  0.21019514374E+01  0.24863167622E+01  0.42195539949E+01  0.53295972704E+01  0.51100000000E-03 0. -1.
        -11    1    3    3    0    0  0.67519973235E+01  0.82335660540E+01  0.60730366336E+01  0.12258174906E+02  0.51100000000E-03 0.  1.
         12    1    3    3    0    0 -0.31604817114E+02 -0.26700174071E+02  0.53200108153E+01  0.41714101636E+02  0.00000000000E+00 0. -1.
</event>
<event>
 7    1  0.6953847E-012  0.5930195E+02  0.7816164E-02  0.1266605E+00
        -11   -1    0    0    0    0  0.00000000000E+00  0.00000000000E+00  0.45593999997E+02  0.45594000000E+02  0.51100000000E-03 0.  1.
         11   -1    0    0    0    0 -0.00000000000E+00 -0.00000000000E+00 -0.45593999997E+02  0.45594000000E+02  0.51100000000E-03 0. -1.
    9900012    2    1    2    0    0 -0.11651988883E+02  0.27496097478E+02 -0.11176594149E+02  0.59301945396E+02  0.50000002495E+02 0.  0.
        -12    1    1    2    0    0  0.11651988883E+02 -0.27496097478E+02  0.11176594149E+02  0.31886054604E+02  0.00000000000E+00 0.  1.
         11    1    3    3    0    0  0.70175029621E+00 -0.41035783992E+01  0.76819687447E+01  0.87375312996E+01  0.51100000000E-03 0. -1.
        -11    1    3    3    0    0 -0.54477662433E+01 -0.57826347543E+01  0.38987117451E+00  0.79541826442E+01  0.51100000000E-03 0.  1.
         12    1    3    3    0    0 -0.69059729355E+01  0.37382310631E+02 -0.19248434068E+02  0.42610231452E+02  0.00000000000E+00 0. -1.
</event>
<event>
 7    1  0.6953847E-012  0.5930206E+02  0.7816164E-02  0.1266604E+00
        -11   -1    0    0    0    0  0.00000000000E+00  0.00000000000E+00  0.45593999997E+02  0.45594000000E+02  0.51100000000E-03 0. -1.
         11   -1    0    0    0    0 -0.00000000000E+00 -0.00000000000E+00 -0.45593999997E+02  0.45594000000E+02  0.51100000000E-03 0.  1.
    9900012    2    1    2    0    0 -0.24771261870E+02  0.81050025238E+01  0.18368639002E+02  0.59302056712E+02  0.50000205509E+02 0.  0.
        -12    1    1    2    0    0  0.24771261870E+02 -0.81050025238E+01 -0.18368639002E+02  0.31885943288E+02  0.00000000000E+00 0.  1.
         11    1    3    3    0    0 -0.77326003007E+01 -0.13159556482E+02  0.80937362324E+01  0.17276446413E+02  0.51100000000E-03 0. -1.
        -11    1    3    3    0    0  0.66430041625E+01  0.34656277502E+01  0.98780779238E+01  0.12398245994E+02  0.51100000000E-03 0.  1.
        -12    1    3    3    0    0 -0.23681665732E+02  0.17798931255E+02  0.39682484600E+00  0.29627364305E+02  0.00000000000E+00 0.  1.
</event>
<event>
 7    1  0.6953847E-012  0.5930196E+02  0.7816164E-02  0.1266605E+00
        -11   -1    0    0    0    0  0.00000000000E+00  0.00000000000E+00  0.45593999997E+02  0.45594000000E+02  0.51100000000E-03 0.  1.
         11   -1    0    0    0    0 -0.00000000000E+00 -0.00000000000E+00 -0.45593999997E+02  0.45594000000E+02  0.51100000000E-03 0. -1.
    9900012    2    1    2    0    0  0.15630569812E+02 -0.21343844436E+02  0.17800136740E+02  0.59301964249E+02  0.50000036879E+02 0.  0.
        -12    1    1    2    0    0 -0.15630569812E+02  0.21343844436E+02 -0.17800136740E+02  0.31886035751E+02  0.00000000000E+00 0.  1.
         11    1    3    3    0    0 -0.39616631190E+01 -0.46277769660E+01  0.18362253538E+01  0.63626109520E+01  0.51100000000E-03 0. -1.
        -11    1    3    3    0    0 -0.65260513016E+01  0.10444390917E+02  0.71521903636E+01  0.14241786211E+02  0.51100000000E-03 0.  1.
         12    1    3    3    0    0  0.26118284232E+02 -0.27160458387E+02  0.88117210221E+01  0.38697567086E+02  0.00000000000E+00 0. -1.
</event>
<event>
 7    1  0.6953847E-012  0.5930191E+02  0.7816164E-02  0.1266605E+00
        -11   -1    0    0    0    0  0.00000000000E+00  0.00000000000E+00  0.45593999997E+02  0.45594000000E+02  0.51100000000E-03 0.  1.
         11   -1    0    0    0    0 -0.00000000000E+00 -0.00000000000E+00 -0.45593999997E+02  0.45594000000E+02  0.51100000000E-03 0. -1.
    9900012    2    1    2    0    0 -0.24017418842E+02  0.42904022496E+01 -0.20529945438E+02  0.59301911827E+02  0.49999941273E+02 0.  0.
        -12    1    1    2    0    0  0.24017418842E+02 -0.42904022496E+01  0.20529945438E+02  0.31886088173E+02  0.00000000000E+00 0.  1.
         11    1    3    3    0    0 -0.14505796038E+01  0.46283219737E+01 -0.70066253565E+01  0.85216397850E+01  0.51100000000E-03 0. -1.
        -11    1    3    3    0    0 -0.31093107710E+02 -0.77278719461E+01 -0.20001338894E+02  0.37769761843E+02  0.51100000000E-03 0.  1.
        -12    1    3    3    0    0  0.85262684715E+01  0.73899522220E+01  0.64780188125E+01  0.13010510199E+02  0.00000000000E+00 0.  1.
</event>
<event>
 7    1  0.6953847E-012  0.5930198E+02  0.7816164E-02  0.1266605E+00
        -11   -1    0    0    0    0  0.00000000000E+00  0.00000000000E+00  0.45593999997E+02  0.45594000000E+02  0.51100000000E-03 0. -1.
         11   -1    0    0    0    0 -0.00000000000E+00 -0.00000000000E+00 -0.45593999997E+02  0.45594000000E+02  0.51100000000E-03 0.  1.
    9900012    2    1    2    0    0  0.11095326748E+02 -0.24477710882E+01  0.29792961202E+02  0.59301978044E+02  0.50000062038E+02 0.  0.
        -12    1    1    2    0    0 -0.11095326748E+02  0.24477710882E+01 -0.29792961202E+02  0.31886021956E+02  0.00000000000E+00 0.  1.
         11    1    3    3    0    0  0.13088915276E+02 -0.26271616472E+01  0.10508539717E+02  0.16989734803E+02  0.51100000000E-03 0. -1.
        -11    1    3    3    0    0  0.10937970150E+02  0.11359434694E+02  0.19673343676E+02  0.25213417048E+02  0.51100000000E-03 0.  1.
        -12    1    3    3    0    0 -0.12931558678E+02 -0.11180044135E+02 -0.38892219091E+00  0.17098826193E+02  0.00000000000E+00 0.  1.
</event>
<event>
 7    1  0.6953847E-012  0.5930192E+02  0.7816164E-02  0.1266605E+00
        -11   -1    0    0    0    0  0.00000000000E+00  0.00000000000E+00  0.45593999997E+02  0.45594000000E+02  0.51100000000E-03 0.  1.
         11   -1    0    0    0    0 -0.00000000000E+00 -0.00000000000E+00 -0.45593999997E+02  0.45594000000E+02  0.51100000000E-03 0. -1.
    9900012    2    1    2    0    0  0.12479321666E+02  0.26042784970E+01 -0.29226804604E+02  0.59301923993E+02  0.49999963462E+02 0.  0.
        -12    1    1    2    0    0 -0.12479321666E+02 -0.26042784970E+01  0.29226804604E+02  0.31886076007E+02  0.00000000000E+00 0.  1.
         11    1    3    3    0    0  0.13200490738E+02 -0.21197640357E+01 -0.13362595791E+02  0.18902521573E+02  0.51100000000E-03 0. -1.
        -11    1    3    3    0    0  0.14706097153E+02  0.12942646445E+02 -0.70259824811E+01  0.20812155596E+02  0.51100000000E-03 0.  1.
         12    1    3    3    0    0 -0.15427266225E+02 -0.82186039126E+01 -0.88382263317E+01  0.19587246824E+02  0.00000000000E+00 0. -1.
</event>
<event>
 7    1  0.7220701E-012  0.5930186E+02  0.7816164E-02  0.1266605E+00
        -11   -1    0    0    0    0  0.00000000000E+00  0.00000000000E+00  0.45593999997E+02  0.45594000000E+02  0.51100000000E-03 0.  1.
         11   -1    0    0    0    0 -0.00000000000E+00 -0.00000000000E+00 -0.45593999997E+02  0.45594000000E+02  0.51100000000E-03 0. -1.
    9900012    2    1    2    0    0 -0.11950624561E+02  0.28459085419E+02 -0.79993131737E+01  0.59301859099E+02  0.49999845111E+02 0.  0.
        -12    1    1    2    0    0  0.11950624561E+02 -0.28459085419E+02  0.79993131737E+01  0.31886140901E+02  0.00000000000E+00 0.  1.
         11    1    3    3    0    0 -0.15821926284E+02  0.17275844208E+02 -0.19978120627E+02  0.30788203073E+02  0.51100000000E-03 0. -1.
        -11    1    3    3    0    0 -0.71011733108E+01  0.11261714358E+01 -0.26321017193E+01  0.76565582487E+01  0.51100000000E-03 0.  1.
        -12    1    3    3    0    0  0.10972475034E+02  0.10057069775E+02  0.14610909173E+02  0.20857097777E+02  0.00000000000E+00 0.  1.
</event>
<event>
 7    1  0.6953847E-012  0.5930194E+02  0.7816164E-02  0.1266605E+00
        -11   -1    0    0    0    0  0.00000000000E+00  0.00000000000E+00  0.45593999997E+02  0.45594000000E+02  0.51100000000E-03 0.  1.
         11   -1    0    0    0    0 -0.00000000000E+00 -0.00000000000E+00 -0.45593999997E+02  0.45594000000E+02  0.51100000000E-03 0. -1.
    9900012    2    1    2    0    0 -0.73554397407E+01 -0.20842902642E+02 -0.22982418565E+02  0.59301942743E+02  0.49999997657E+02 0.  0.
        -12    1    1    2    0    0  0.73554397407E+01  0.20842902642E+02  0.22982418565E+02  0.31886057257E+02  0.00000000000E+00 0.  1.
         11    1    3    3    0    0 -0.83401880344E+01 -0.10339334400E+02 -0.24718750905E+02  0.28062024497E+02  0.51100000000E-03 0. -1.
        -11    1    3    3    0    0 -0.70081726468E+01 -0.42229979307E+01 -0.11770657676E+02  0.14335151822E+02  0.51100000000E-03 0.  1.
        -12    1    3    3    0    0  0.79929209404E+01 -0.62805703112E+01  0.13506990016E+02  0.16904766425E+02  0.00000000000E+00 0.  1.
</event>
<event>
 7    1  0.6953847E-012  0.5930194E+02  0.7816164E-02  0.1266605E+00
        -11   -1    0    0    0    0  0.00000000000E+00  0.00000000000E+00  0.45593999997E+02  0.45594000000E+02  0.51100000000E-03 0.  1.
         11   -1    0    0    0    0 -0.00000000000E+00 -0.00000000000E+00 -0.45593999997E+02  0.45594000000E+02  0.51100000000E-03 0. -1.
    9900012    2    1    2    0    0  0.86572445681E+01  0.29856695537E+02  0.70958416062E+01  0.59301935332E+02  0.49999984142E+02 0.  0.
        -12    1    1    2    0    0 -0.86572445681E+01 -0.29856695537E+02 -0.70958416062E+01  0.31886064668E+02  0.00000000000E+00 0.  1.
         11    1    3    3    0    0  0.12036316066E+02 -0.31567729112E+00  0.55972702175E+01  0.13277875987E+02  0.51100000000E-03 0. -1.
        -11    1    3    3    0    0 -0.85274167781E+01 -0.63868596294E+00  0.10474511206E+02  0.13521839443E+02  0.51100000000E-03 0.  1.
         12    1    3    3    0    0  0.51483452807E+01  0.30811058791E+02 -0.89759398172E+01  0.32502219902E+02  0.00000000000E+00 0. -1.
</event>
<event>
 7    1  0.6953847E-012  0.5930194E+02  0.7816164E-02  0.1266605E+00
        -11   -1    0    0    0    0  0.00000000000E+00  0.00000000000E+00  0.45593999997E+02  0.45594000000E+02  0.51100000000E-03 0.  1.
         11   -1    0    0    0    0 -0.00000000000E+00 -0.00000000000E+00 -0.45593999997E+02  0.45594000000E+02  0.51100000000E-03 0. -1.
    9900012    2    1    2    0    0 -0.21823166151E+02 -0.34567989103E+00 -0.23245441803E+02  0.59301942858E+02  0.49999997867E+02 0.  0.
        -12    1    1    2    0    0  0.21823166151E+02  0.34567989103E+00  0.23245441803E+02  0.31886057142E+02  0.00000000000E+00 0.  1.
         11    1    3    3    0    0 -0.31856474508E+02  0.54859802859E+01 -0.10277551866E+02  0.33919891221E+02  0.51100000000E-03 0. -1.
        -11    1    3    3    0    0  0.74987626925E+00  0.22296001418E+01  0.38725411046E+01  0.45310049746E+01  0.51100000000E-03 0.  1.
         12    1    3    3    0    0  0.92834320883E+01 -0.80612603187E+01 -0.16840431042E+02  0.20851046663E+02  0.00000000000E+00 0. -1.
</event>
<event>
 7    1  0.6953847E-012  0.5930186E+02  0.7816164E-02  0.1266605E+00
        -11   -1    0    0    0    0  0.00000000000E+00  0.00000000000E+00  0.45593999997E+02  0.45594000000E+02  0.51100000000E-03 0.  1.
         11   -1    0    0    0    0 -0.00000000000E+00 -0.00000000000E+00 -0.45593999997E+02  0.45594000000E+02  0.51100000000E-03 0. -1.
    9900012    2    1    2    0    0  0.30588174412E+01  0.36210338823E+01 -0.31531855410E+02  0.59301856362E+02  0.49999840118E+02 0.  0.
        -12    1    1    2    0    0 -0.30588174412E+01 -0.36210338823E+01  0.31531855410E+02  0.31886143638E+02  0.00000000000E+00 0.  1.
         11    1    3    3    0    0 -0.18321194561E+01  0.43391913804E+01 -0.92621391488E+01  0.10390980002E+02  0.51100000000E-03 0. -1.
        -11    1    3    3    0    0 -0.43952774506E+00  0.18000756213E+02 -0.23268931356E+02  0.29422161301E+02  0.51100000000E-03 0.  1.
        -12    1    3    3    0    0  0.53304646424E+01 -0.18718913712E+02  0.99921509460E+00  0.19488715059E+02  0.00000000000E+00 0.  1.
</event>
<event>
 7    1  0.6953847E-012  0.5930198E+02  0.7816164E-02  0.1266605E+00
        -11   -1    0    0    0    0  0.00000000000E+00  0.00000000000E+00  0.45593999997E+02  0.45594000000E+02  0.51100000000E-03 0.  1.
         11   -1    0    0    0    0 -0.00000000000E+00 -0.00000000000E+00 -0.45593999997E+02  0.45594000000E+02  0.51100000000E-03 0. -1.
    9900012    2    1    2    0    0  0.12641684718E+02  0.25746593439E+02 -0.13929073428E+02  0.59301978725E+02  0.50000063279E+02 0.  0.
        -12    1    1    2    0    0 -0.12641684718E+02 -0.25746593439E+02  0.13929073428E+02  0.31886021275E+02  0.00000000000E+00 0.  1.
         11    1    3    3    0    0  0.38906278478E+01  0.11092596904E+02 -0.77826574271E+01  0.14097959001E+02  0.51100000000E-03 0. -1.
        -11    1    3    3    0    0  0.36474559192E+01  0.29139529268E+02 -0.29318214349E+01  0.29512906970E+02  0.51100000000E-03 0.  1.
         12    1    3    3    0    0  0.51036009506E+01 -0.14485532733E+02 -0.32145945657E+01  0.15691112753E+02  0.00000000000E+00 0. -1.
</event>
<event>
 7    1  0.6953847E-012  0.5930194E+02  0.7816164E-02  0.1266605E+00
        -11   -1    0    0    0    0  0.00000000000E+00  0.00000000000E+00  0.45593999997E+02  0.45594000000E+02  0.51100000000E-03 0.  1.
         11   -1    0    0    0    0 -0.00000000000E+00 -0.00000000000E+00 -0.45593999997E+02  0.45594000000E+02  0.51100000000E-03 0. -1.
    9900012    2    1    2    0    0 -0.16466081849E+01  0.25206045167E+02 -0.19459307386E+02  0.59301942303E+02  0.49999996855E+02 0.  0.
        -12    1    1    2    0    0  0.16466081849E+01 -0.25206045167E+02  0.19459307386E+02  0.31886057697E+02  0.00000000000E+00 0.  1.
         11    1    3    3    0    0 -0.10005549271E+02  0.12625913467E+02 -0.12833742768E+02  0.20596836184E+02  0.51100000000E-03 0. -1.
        -11    1    3    3    0    0 -0.93349510764E+01  0.17965955464E+01 -0.13817276143E+02  0.16771588697E+02  0.51100000000E-03 0.  1.
        -12    1    3    3    0    0  0.17693892163E+02  0.10783536153E+02  0.71917115249E+01  0.21933517422E+02  0.00000000000E+00 0.  1.
</event>
<event>
 7    1  0.6953847E-012  0.5930195E+02  0.7816164E-02  0.1266605E+00
        -11   -1    0    0    0    0  0.00000000000E+00  0.00000000000E+00  0.45593999997E+02  0.45594000000E+02  0.51100000000E-03 0.  1.
         11   -1    0    0    0    0 -0.00000000000E+00 -0.00000000000E+00 -0.45593999997E+02  0.45594000000E+02  0.51100000000E-03 0. -1.
    9900012    2    1    2    0    0  0.63634607476E+01  0.20251926314E+02 -0.23792564034E+02  0.59301948890E+02  0.50000008867E+02 0.  0.
        -12    1    1    2    0    0 -0.63634607476E+01 -0.20251926314E+02  0.23792564034E+02  0.31886051110E+02  0.00000000000E+00 0.  1.
         11    1    3    3    0    0  0.95724247701E+01  0.20807176677E+02  0.44985778362E+01  0.23341103660E+02  0.51100000000E-03 0. -1.
        -11    1    3    3    0    0  0.52155222672E+01  0.11643381788E+01  0.99749933111E+00  0.54362083377E+01  0.51100000000E-03 0.  1.
         12    1    3    3    0    0 -0.84244862897E+01 -0.17195885415E+01 -0.29288641201E+02  0.30524636892E+02  0.00000000000E+00 0. -1.
</event>
<event>
 7    1  0.6953847E-012  0.5930195E+02  0.7816164E-02  0.1266605E+00
        -11   -1    0    0    0    0  0.00000000000E+00  0.00000000000E+00  0.45593999997E+02  0.45594000000E+02  0.51100000000E-03 0.  1.
         11   -1    0    0    0    0 -0.00000000000E+00 -0.00000000000E+00 -0.45593999997E+02  0.45594000000E+02  0.51100000000E-03 0. -1.
    9900012    2    1    2    0    0 -0.25721955028E+02 -0.18821183992E+02  0.92957882797E+00  0.59301952046E+02  0.50000014624E+02 0.  0.
        -12    1    1    2    0    0  0.25721955028E+02  0.18821183992E+02 -0.92957882797E+00  0.31886047954E+02  0.00000000000E+00 0.  1.
         11    1    3    3    0    0 -0.87803629658E+01 -0.43167920145E+01 -0.17619621816E+02  0.20153921215E+02  0.51100000000E-03 0. -1.
        -11    1    3    3    0    0  0.15044581375E+01 -0.14113136554E+02  0.19436242233E+01  0.14325560829E+02  0.51100000000E-03 0.  1.
        -12    1    3    3    0    0 -0.18446050199E+02 -0.39125542337E+00  0.16605576421E+02  0.24822470003E+02  0.00000000000E+00 0.  1.
</event>
<event>
 7    1  0.6953847E-012  0.5930195E+02  0.7816164E-02  0.1266605E+00
        -11   -1    0    0    0    0  0.00000000000E+00  0.00000000000E+00  0.45593999997E+02  0.45594000000E+02  0.51100000000E-03 0.  1.
         11   -1    0    0    0    0 -0.00000000000E+00 -0.00000000000E+00 -0.45593999997E+02  0.45594000000E+02  0.51100000000E-03 0. -1.
    9900012    2    1    2    0    0 -0.15438803054E+02 -0.26711681551E+02  0.80529121076E+01  0.59301953452E+02  0.50000017188E+02 0.  0.
        -12    1    1    2    0    0  0.15438803054E+02  0.26711681551E+02 -0.80529121076E+01  0.31886046548E+02  0.00000000000E+00 0.  1.
         11    1    3    3    0    0 -0.16955421040E+02  0.69660455349E+01 -0.37086326735E+01  0.18702033301E+02  0.51100000000E-03 0. -1.
        -11    1    3    3    0    0 -0.71070733408E+01 -0.19351682863E+02  0.12044645441E+02  0.23876172330E+02  0.51100000000E-03 0.  1.
        -12    1    3    3    0    0  0.86236913265E+01 -0.14326044223E+02 -0.28310065984E+00  0.16723747821E+02  0.00000000000E+00 0.  1.
</event>
<event>
 7    1  0.6953847E-012  0.5930198E+02  0.7816164E-02  0.1266605E+00
        -11   -1    0    0    0    0  0.00000000000E+00  0.00000000000E+00  0.45593999997E+02  0.45594000000E+02  0.51100000000E-03 0.  1.
         11   -1    0    0    0    0 -0.00000000000E+00 -0.00000000000E+00 -0.45593999997E+02  0.45594000000E+02  0.51100000000E-03 0. -1.
    9900012    2    1    2    0    0  0.49798594055E+01 -0.17615529644E+02 -0.26107709590E+02  0.59301978229E+02  0.50000062374E+02 0.  0.
        -12    1    1    2    0    0 -0.49798594055E+01  0.17615529644E+02  0.26107709590E+02  0.31886021771E+02  0.00000000000E+00 0.  1.
         11    1    3    3    0    0  0.12474313171E+02 -0.71326898855E+00 -0.10531361422E+02  0.16340955156E+02  0.51100000000E-03 0. -1.
        -11    1    3    3    0    0  0.14166108114E+02 -0.94372509929E+01 -0.81850219479E+01  0.18887427298E+02  0.51100000000E-03 0.  1.
        -12    1    3    3    0    0 -0.21660561880E+02 -0.74650096629E+01 -0.73913262203E+01  0.24073595774E+02  0.00000000000E+00 0.  1.
</event>
<event>
 7    1  0.6953847E-012  0.5930193E+02  0.7816164E-02  0.1266605E+00
        -11   -1    0    0    0    0  0.00000000000E+00  0.00000000000E+00  0.45593999997E+02  0.45594000000E+02  0.51100000000E-03 0. -1.
         11   -1    0    0    0    0 -0.00000000000E+00 -0.00000000000E+00 -0.45593999997E+02  0.45594000000E+02  0.51100000000E-03 0.  1.
    9900012    2    1    2    0    0  0.23308153523E+02  0.21679848593E+02  0.18535546787E+01  0.59301929050E+02  0.49999972684E+02 0.  0.
        -12    1    1    2    0    0 -0.23308153523E+02 -0.21679848593E+02 -0.18535546787E+01  0.31886070950E+02  0.00000000000E+00 0.  1.
         11    1    3    3    0    0  0.12685369522E+02 -0.66028442628E+01 -0.31595715579E+00  0.14304404267E+02  0.51100000000E-03 0. -1.
        -11    1    3    3    0    0  0.15611525436E+02  0.54413825518E+00  0.56249659493E+01  0.16602892973E+02  0.51100000000E-03 0.  1.
         12    1    3    3    0    0 -0.49887414349E+01  0.27738554601E+02 -0.34554541148E+01  0.28394631810E+02  0.00000000000E+00 0. -1.
</event>
<event>
 7    1  0.6953847E-012  0.5930193E+02  0.7816164E-02  0.1266605E+00
        -11   -1    0    0    0    0  0.00000000000E+00  0.00000000000E+00  0.45593999997E+02  0.45594000000E+02  0.51100000000E-03 0. -1.
         11   -1    0    0    0    0 -0.00000000000E+00 -0.00000000000E+00 -0.45593999997E+02  0.45594000000E+02  0.51100000000E-03 0.  1.
    9900012    2    1    2    0    0  0.42544062191E+00 -0.28060844064E+02  0.15137022290E+02  0.59301930735E+02  0.49999975758E+02 0.  0.
        -12    1    1    2    0    0 -0.42544062191E+00  0.28060844064E+02 -0.15137022290E+02  0.31886069265E+02  0.00000000000E+00 0.  1.
         11    1    3    3    0    0  0.73448207084E+01 -0.28997854657E+02  0.13848343940E+02  0.32963595011E+02  0.51100000000E-03 0. -1.
        -11    1    3    3    0    0  0.56029786463E+01 -0.81237434218E+01  0.39951080231E+01  0.10646570587E+02  0.51100000000E-03 0.  1.
        -12    1    3    3    0    0 -0.12522358733E+02  0.90607540141E+01 -0.27064296728E+01  0.15691765137E+02  0.00000000000E+00 0.  1.
</event>
<event>
 7    1  0.6953847E-012  0.5930194E+02  0.7816164E-02  0.1266605E+00
        -11   -1    0    0    0    0  0.00000000000E+00  0.00000000000E+00  0.45593999997E+02  0.45594000000E+02  0.51100000000E-03 0. -1.
         11   -1    0    0    0    0 -0.00000000000E+00 -0.00000000000E+00 -0.45593999997E+02  0.45594000000E+02  0.51100000000E-03 0.  1.
    9900012    2    1    2    0    0 -0.13122469408E+02  0.12473223580E+02  0.26247670658E+02  0.59301941529E+02  0.49999995444E+02 0.  0.
        -12    1    1    2    0    0  0.13122469408E+02 -0.12473223580E+02 -0.26247670658E+02  0.31886058471E+02  0.00000000000E+00 0.  1.
         11    1    3    3    0    0  0.40223604941E+01  0.15762524998E+02  0.24359501357E+02  0.29292010598E+02  0.51100000000E-03 0. -1.
        -11    1    3    3    0    0 -0.25641256933E+01  0.71224717642E+01  0.80625466838E+01  0.11059340120E+02  0.51100000000E-03 0.  1.
        -12    1    3    3    0    0 -0.14580704209E+02 -0.10411773182E+02 -0.61743773830E+01  0.18950590811E+02  0.00000000000E+00 0.  1.
</event>
<event>
 7    1  0.6953847E-012  0.5930195E+02  0.7816164E-02  0.1266605E+00
        -11   -1    0    0    0    0  0.00000000000E+00  0.00000000000E+00  0.45593999997E+02  0.45594000000E+02  0.51100000000E-03 0.  1.
         11   -1    0    0    0    0 -0.00000000000E+00 -0.00000000000E+00 -0.45593999997E+02  0.45594000000E+02  0.51100000000E-03 0. -1.
    9900012    2    1    2    0    0 -0.85344968796E+01  0.86981626748E+01 -0.29465644457E+02  0.59301954867E+02  0.50000019769E+02 0.  0.
        -12    1    1    2    0    0  0.85344968796E+01 -0.86981626748E+01  0.29465644457E+02  0.31886045133E+02  0.00000000000E+00 0.  1.
         11    1    3    3    0    0 -0.57701867026E+01 -0.72164494497E+01 -0.11081510062E+02  0.14428169071E+02  0.51100000000E-03 0. -1.
        -11    1    3    3    0    0 -0.11939076620E+02  0.57811466438E+01 -0.26027004777E+02  0.29212466260E+02  0.51100000000E-03 0.  1.
         12    1    3    3    0    0  0.91747664431E+01  0.10133465481E+02  0.76428703817E+01  0.15661319536E+02  0.00000000000E+00 0. -1.
</event>
<event>
 7    1  0.6953847E-012  0.5930200E+02  0.7816164E-02  0.1266605E+00
        -11   -1    0    0    0    0  0.00000000000E+00  0.00000000000E+00  0.45593999997E+02  0.45594000000E+02  0.51100000000E-03 0. -1.
         11   -1    0    0    0    0 -0.00000000000E+00 -0.00000000000E+00 -0.45593999997E+02  0.45594000000E+02  0.51100000000E-03 0.  1.
    9900012    2    1    2    0    0 -0.19679709612E+01  0.95690103241E+01  0.30352566111E+02  0.59301997776E+02  0.50000098025E+02 0.  0.
        -12    1    1    2    0    0  0.19679709612E+01 -0.95690103241E+01 -0.30352566111E+02  0.31886002224E+02  0.00000000000E+00 0.  1.
         11    1    3    3    0    0 -0.77200934828E+01  0.66558111196E-01  0.19042620763E+02  0.20548130795E+02  0.51100000000E-03 0. -1.
        -11    1    3    3    0    0 -0.33994954260E+01  0.19900593944E+02  0.14098231267E+02  0.24624181887E+02  0.51100000000E-03 0.  1.
        -12    1    3    3    0    0  0.91516179476E+01 -0.10398141731E+02 -0.27882859193E+01  0.14129685095E+02  0.00000000000E+00 0.  1.
</event>
<event>
 7    1  0.6953847E-012  0.5930195E+02  0.7816164E-02  0.1266605E+00
        -11   -1    0    0    0    0  0.00000000000E+00  0.00000000000E+00  0.45593999997E+02  0.45594000000E+02  0.51100000000E-03 0. -1.
         11   -1    0    0    0    0 -0.00000000000E+00 -0.00000000000E+00 -0.45593999997E+02  0.45594000000E+02  0.51100000000E-03 0.  1.
    9900012    2    1    2    0    0  0.22136147014E+02 -0.17311449970E+02 -0.15067343894E+02  0.59301950438E+02  0.50000011690E+02 0.  0.
        -12    1    1    2    0    0 -0.22136147014E+02  0.17311449970E+02  0.15067343894E+02  0.31886049562E+02  0.00000000000E+00 0.  1.
         11    1    3    3    0    0  0.43909115692E+01  0.14413450771E+02 -0.78975693576E+01  0.17011739169E+02  0.51100000000E-03 0. -1.
        -11    1    3    3    0    0  0.30252478485E+00 -0.20103519130E+00 -0.62398504811E+01  0.62504136409E+01  0.51100000000E-03 0.  1.
         12    1    3    3    0    0  0.17442710660E+02 -0.31523865549E+02 -0.92992405536E+00  0.36039797628E+02  0.00000000000E+00 0. -1.
</event>
<event>
 7    1  0.6953847E-012  0.5930197E+02  0.7816164E-02  0.1266605E+00
        -11   -1    0    0    0    0  0.00000000000E+00  0.00000000000E+00  0.45593999997E+02  0.45594000000E+02  0.51100000000E-03 0.  1.
         11   -1    0    0    0    0 -0.00000000000E+00 -0.00000000000E+00 -0.45593999997E+02  0.45594000000E+02  0.51100000000E-03 0. -1.
    9900012    2    1    2    0    0 -0.20213146198E+02  0.24589233467E+02 -0.18753468330E+01  0.59301974731E+02  0.50000055996E+02 0.  0.
        -12    1    1    2    0    0  0.20213146198E+02 -0.24589233467E+02  0.18753468330E+01  0.31886025269E+02  0.00000000000E+00 0.  1.
         11    1    3    3    0    0 -0.13365863541E+02  0.79614950863E+01 -0.38846138996E+01  0.16035022220E+02  0.51100000000E-03 0. -1.
        -11    1    3    3    0    0 -0.45246586248E+01  0.15817160138E+02  0.19551982151E+02  0.25552594718E+02  0.51100000000E-03 0.  1.
         12    1    3    3    0    0 -0.23226240325E+01  0.81057824262E+00 -0.17542715085E+02  0.17714357793E+02  0.00000000000E+00 0. -1.
</event>
<event>
 7    1  0.6953847E-012  0.5930173E+02  0.7816164E-02  0.1266605E+00
        -11   -1    0    0    0    0  0.00000000000E+00  0.00000000000E+00  0.45593999997E+02  0.45594000000E+02  0.51100000000E-03 0.  1.
         11   -1    0    0    0    0 -0.00000000000E+00 -0.00000000000E+00 -0.45593999997E+02  0.45594000000E+02  0.51100000000E-03 0. -1.
    9900012    2    1    2    0    0  0.22203576806E+02 -0.22365044401E+02 -0.48517907870E+01  0.59301734808E+02  0.49999618432E+02 0.  0.
        -12    1    1    2    0    0 -0.22203576806E+02  0.22365044401E+02  0.48517907870E+01  0.31886265192E+02  0.00000000000E+00 0.  1.
         11    1    3    3    0    0 -0.95408231194E+01 -0.74051814179E+01 -0.72214590586E+01  0.14071726576E+02  0.51100000000E-03 0.  1.
        -11    1    3    3    0    0 -0.37422774480E+01 -0.55279424591E+01 -0.42580194505E+01  0.79179238586E+01  0.51100000000E-03 0. -1.
         12    1    3    3    0    0  0.35486677373E+02 -0.94319205244E+01  0.66276877221E+01  0.37312084374E+02  0.00000000000E+00 0. -1.
</event>
<event>
 7    1  0.6953847E-012  0.5930165E+02  0.7816164E-02  0.1266606E+00
        -11   -1    0    0    0    0  0.00000000000E+00  0.00000000000E+00  0.45593999997E+02  0.45594000000E+02  0.51100000000E-03 0. -1.
         11   -1    0    0    0    0 -0.00000000000E+00 -0.00000000000E+00 -0.45593999997E+02  0.45594000000E+02  0.51100000000E-03 0.  1.
    9900012    2    1    2    0    0  0.59107215683E+01 -0.23916580333E+02  0.20243520050E+02  0.59301646362E+02  0.49999457127E+02 0.  0.
        -12    1    1    2    0    0 -0.59107215683E+01  0.23916580333E+02 -0.20243520050E+02  0.31886353638E+02  0.00000000000E+00 0.  1.
         11    1    3    3    0    0 -0.47393139983E+01 -0.14880485037E+02  0.95696217394E+00  0.15646268212E+02  0.51100000000E-03 0. -1.
        -11    1    3    3    0    0  0.12080043024E+01 -0.22312826947E+02  0.75889531416E+01  0.23599019701E+02  0.51100000000E-03 0.  1.
        -12    1    3    3    0    0  0.94420312642E+01  0.13276731651E+02  0.11697604734E+02  0.20056358449E+02  0.00000000000E+00 0.  1.
</event>
<event>
 7    1  0.6953847E-012  0.5930204E+02  0.7816164E-02  0.1266604E+00
        -11   -1    0    0    0    0  0.00000000000E+00  0.00000000000E+00  0.45593999997E+02  0.45594000000E+02  0.51100000000E-03 0.  1.
         11   -1    0    0    0    0 -0.00000000000E+00 -0.00000000000E+00 -0.45593999997E+02  0.45594000000E+02  0.51100000000E-03 0. -1.
    9900012    2    1    2    0    0  0.13710429605E+02  0.16677954418E+02 -0.23464529975E+02  0.59302043680E+02  0.50000181741E+02 0.  0.
        -12    1    1    2    0    0 -0.13710429605E+02 -0.16677954418E+02  0.23464529975E+02  0.31885956320E+02  0.00000000000E+00 0.  1.
         11    1    3    3    0    0  0.44365728159E+01 -0.13114158262E+01 -0.19243243457E+01  0.50105902116E+01  0.51100000000E-03 0. -1.
        -11    1    3    3    0    0  0.51228181448E+01 -0.15249952597E+02 -0.95741978690E+01  0.18720832916E+02  0.51100000000E-03 0.  1.
         12    1    3    3    0    0  0.41510386443E+01  0.33239322841E+02 -0.11966007760E+02  0.35570620552E+02  0.00000000000E+00 0. -1.
</event>
<event>
 7    1  0.6953847E-012  0.5930194E+02  0.7816164E-02  0.1266605E+00
        -11   -1    0    0    0    0  0.00000000000E+00  0.00000000000E+00  0.45593999997E+02  0.45594000000E+02  0.51100000000E-03 0.  1.
         11   -1    0    0    0    0 -0.00000000000E+00 -0.00000000000E+00 -0.45593999997E+02  0.45594000000E+02  0.51100000000E-03 0. -1.
    9900012    2    1    2    0    0 -0.13803109964E+02  0.17364627313E+02 -0.22905556349E+02  0.59301942890E+02  0.49999997925E+02 0.  0.
        -12    1    1    2    0    0  0.13803109964E+02 -0.17364627313E+02  0.22905556349E+02  0.31886057110E+02  0.00000000000E+00 0.  1.
         11    1    3    3    0    0  0.29236724416E+01 -0.23328842976E+01 -0.10758994675E+02  0.11390617910E+02  0.51100000000E-03 0. -1.
        -11    1    3    3    0    0 -0.10413996023E+02 -0.40271664328E+01  0.98943504431E+01  0.14918698120E+02  0.51100000000E-03 0.  1.
         12    1    3    3    0    0 -0.63127863819E+01  0.23724678043E+02 -0.22040912117E+02  0.32992626860E+02  0.00000000000E+00 0. -1.
</event>
<event>
 7    1  0.6953847E-012  0.5930193E+02  0.7816164E-02  0.1266605E+00
        -11   -1    0    0    0    0  0.00000000000E+00  0.00000000000E+00  0.45593999997E+02  0.45594000000E+02  0.51100000000E-03 0.  1.
         11   -1    0    0    0    0 -0.00000000000E+00 -0.00000000000E+00 -0.45593999997E+02  0.45594000000E+02  0.51100000000E-03 0. -1.
    9900012    2    1    2    0    0  0.10693318139E+02 -0.23565557314E+02 -0.18628983345E+02  0.59301928358E+02  0.49999971422E+02 0.  0.
        -12    1    1    2    0    0 -0.10693318139E+02  0.23565557314E+02  0.18628983345E+02  0.31886071642E+02  0.00000000000E+00 0.  1.
         11    1    3    3    0    0 -0.12756818358E+02  0.56641438623E+01  0.21394801949E+01  0.14120776044E+02  0.51100000000E-03 0. -1.
        -11    1    3    3    0    0  0.25068764329E+01 -0.35734354214E+01 -0.90543314685E+01  0.10051606278E+02  0.51100000000E-03 0.  1.
        -12    1    3    3    0    0  0.20943260064E+02 -0.25656265754E+02 -0.11714132071E+02  0.35129546037E+02  0.00000000000E+00 0.  1.
</event>
<event>
 7    1  0.6953847E-012  0.5930195E+02  0.7816164E-02  0.1266605E+00
        -11   -1    0    0    0    0  0.00000000000E+00  0.00000000000E+00  0.45593999997E+02  0.45594000000E+02  0.51100000000E-03 0. -1.
         11   -1    0    0    0    0 -0.00000000000E+00 -0.00000000000E+00 -0.45593999997E+02  0.45594000000E+02  0.51100000000E-03 0.  1.
    9900012    2    1    2    0    0 -0.28293256674E+01 -0.95817510552E+01  0.30280440330E+02  0.59301951270E+02  0.50000013208E+02 0.  0.
        -12    1    1    2    0    0  0.28293256674E+01  0.95817510552E+01 -0.30280440330E+02  0.31886048730E+02  0.00000000000E+00 0.  1.
         11    1    3    3    0    0 -0.10201564996E+02  0.55700340546E+01  0.60656675731E+01  0.13110664785E+02  0.51100000000E-03 0. -1.
        -11    1    3    3    0    0  0.46769534094E+01  0.64510725678E+01 -0.52604533831E+01  0.95479107937E+01  0.51100000000E-03 0.  1.
         12    1    3    3    0    0  0.26952859191E+01 -0.21602857678E+02  0.29475226140E+02  0.36643375691E+02  0.00000000000E+00 0. -1.
</event>
<event>
 7    1  0.6953847E-012  0.5930196E+02  0.7816164E-02  0.1266605E+00
        -11   -1    0    0    0    0  0.00000000000E+00  0.00000000000E+00  0.45593999997E+02  0.45594000000E+02  0.51100000000E-03 0.  1.
         11   -1    0    0    0    0 -0.00000000000E+00 -0.00000000000E+00 -0.45593999997E+02  0.45594000000E+02  0.51100000000E-03 0. -1.
    9900012    2    1    2    0    0  0.21334499304E+02 -0.22216894790E+02 -0.82442774849E+01  0.59301962524E+02  0.50000033733E+02 0.  0.
        -12    1    1    2    0    0 -0.21334499304E+02  0.22216894790E+02  0.82442774849E+01  0.31886037476E+02  0.00000000000E+00 0.  1.
         11    1    3    3    0    0 -0.17868364378E+01 -0.21979560213E+02  0.87049263793E-01  0.22052243184E+02  0.51100000000E-03 0. -1.
        -11    1    3    3    0    0  0.21302674383E+01 -0.11231803448E+02  0.16250211007E+01  0.11546953793E+02  0.51100000000E-03 0.  1.
         12    1    3    3    0    0  0.20991068303E+02  0.10994468871E+02 -0.99563478494E+01  0.25702765547E+02  0.00000000000E+00 0. -1.
</event>
<event>
 7    1  0.6953847E-012  0.5930191E+02  0.7816164E-02  0.1266605E+00
        -11   -1    0    0    0    0  0.00000000000E+00  0.00000000000E+00  0.45593999997E+02  0.45594000000E+02  0.51100000000E-03 0.  1.
         11   -1    0    0    0    0 -0.00000000000E+00 -0.00000000000E+00 -0.45593999997E+02  0.45594000000E+02  0.51100000000E-03 0. -1.
    9900012    2    1    2    0    0 -0.24051994465E+02  0.12360573244E+02 -0.16894979472E+02  0.59301913065E+02  0.49999943531E+02 0.  0.
        -12    1    1    2    0    0  0.24051994465E+02 -0.12360573244E+02  0.16894979472E+02  0.31886086935E+02  0.00000000000E+00 0.  1.
         11    1    3    3    0    0  0.83456983526E+01  0.16486266238E+01 -0.25081132293E+01  0.88690068761E+01  0.51100000000E-03 0. -1.
        -11    1    3    3    0    0  0.40875023499E+01  0.51198135586E+01  0.54563268905E+01  0.85259409881E+01  0.51100000000E-03 0.  1.
         12    1    3    3    0    0 -0.36485195168E+02  0.55921330621E+01 -0.19843193133E+02  0.41906965201E+02  0.00000000000E+00 0. -1.
</event>
<event>
 7    1  0.6953847E-012  0.5930195E+02  0.7816164E-02  0.1266605E+00
        -11   -1    0    0    0    0  0.00000000000E+00  0.00000000000E+00  0.45593999997E+02  0.45594000000E+02  0.51100000000E-03 0. -1.
         11   -1    0    0    0    0 -0.00000000000E+00 -0.00000000000E+00 -0.45593999997E+02  0.45594000000E+02  0.51100000000E-03 0.  1.
    9900012    2    1    2    0    0  0.21071398563E+02  0.10957560759E+02  0.21275531788E+02  0.59301949318E+02  0.50000009649E+02 0.  0.
        -12    1    1    2    0    0 -0.21071398563E+02 -0.10957560759E+02 -0.21275531788E+02  0.31886050682E+02  0.00000000000E+00 0.  1.
         11    1    3    3    0    0  0.19105470146E+02  0.19093443714E+02  0.17994238284E+00  0.27011311739E+02  0.51100000000E-03 0. -1.
        -11    1    3    3    0    0 -0.66799939996E+01  0.40335224528E+01  0.20056503841E+01  0.80569384344E+01  0.51100000000E-03 0.  1.
        -12    1    3    3    0    0  0.86459224171E+01 -0.12169405407E+02  0.19089939021E+02  0.24233699145E+02  0.00000000000E+00 0.  1.
</event>
<event>
 7    1  0.6953847E-012  0.5930195E+02  0.7816164E-02  0.1266605E+00
        -11   -1    0    0    0    0  0.00000000000E+00  0.00000000000E+00  0.45593999997E+02  0.45594000000E+02  0.51100000000E-03 0.  1.
         11   -1    0    0    0    0 -0.00000000000E+00 -0.00000000000E+00 -0.45593999997E+02  0.45594000000E+02  0.51100000000E-03 0. -1.
    9900012    2    1    2    0    0  0.18131701500E+02 -0.51351959881E+01 -0.25721415520E+02  0.59301952056E+02  0.50000014642E+02 0.  0.
        -12    1    1    2    0    0 -0.18131701500E+02  0.51351959881E+01  0.25721415520E+02  0.31886047944E+02  0.00000000000E+00 0.  1.
         11    1    3    3    0    0 -0.33749123609E+01  0.10684949284E+02  0.73483337897E+01  0.13399857626E+02  0.51100000000E-03 0. -1.
        -11    1    3    3    0    0  0.37248097374E+01  0.30454990020E+01 -0.10417586077E+02  0.11474988962E+02  0.51100000000E-03 0.  1.
         12    1    3    3    0    0  0.17781804123E+02 -0.18865644274E+02 -0.22652163233E+02  0.34427105468E+02  0.00000000000E+00 0. -1.
</event>
<event>
 7    1  0.6953847E-012  0.5930200E+02  0.7816164E-02  0.1266605E+00
        -11   -1    0    0    0    0  0.00000000000E+00  0.00000000000E+00  0.45593999997E+02  0.45594000000E+02  0.51100000000E-03 0.  1.
         11   -1    0    0    0    0 -0.00000000000E+00 -0.00000000000E+00 -0.45593999997E+02  0.45594000000E+02  0.51100000000E-03 0. -1.
    9900012    2    1    2    0    0 -0.20067201412E+01  0.28891949929E+02 -0.13339625065E+02  0.59301995338E+02  0.50000093577E+02 0.  0.
        -12    1    1    2    0    0  0.20067201412E+01 -0.28891949929E+02  0.13339625065E+02  0.31886004662E+02  0.00000000000E+00 0.  1.
         11    1    3    3    0    0  0.60281903144E+01 -0.26266541950E+01 -0.12096154731E+02  0.13767910164E+02  0.51100000000E-03 0. -1.
        -11    1    3    3    0    0  0.74619864890E+01  0.15160307680E+00 -0.68150739947E+01  0.10106901586E+02  0.51100000000E-03 0.  1.
         12    1    3    3    0    0 -0.15496896945E+02  0.31367001048E+02  0.55716036616E+01  0.35427183588E+02  0.00000000000E+00 0. -1.
</event>
<event>
 7    1  0.6953847E-012  0.5930208E+02  0.7816164E-02  0.1266604E+00
        -11   -1    0    0    0    0  0.00000000000E+00  0.00000000000E+00  0.45593999997E+02  0.45594000000E+02  0.51100000000E-03 0. -1.
         11   -1    0    0    0    0 -0.00000000000E+00 -0.00000000000E+00 -0.45593999997E+02  0.45594000000E+02  0.51100000000E-03 0.  1.
    9900012    2    1    2    0    0  0.29865994793E+02  0.43278429490E+01  0.10295840327E+02  0.59302075243E+02  0.50000239304E+02 0.  0.
        -12    1    1    2    0    0 -0.29865994793E+02 -0.43278429490E+01 -0.10295840327E+02  0.31885924757E+02  0.00000000000E+00 0.  1.
         11    1    3    3    0    0  0.13170293855E+02 -0.11326702357E+02  0.68269106018E+01  0.18664338594E+02  0.51100000000E-03 0. -1.
        -11    1    3    3    0    0  0.22507458202E+01 -0.87662576497E+01  0.77851223257E+01  0.11938226829E+02  0.51100000000E-03 0.  1.
        -12    1    3    3    0    0  0.14444955118E+02  0.24420802956E+02 -0.43161926004E+01  0.28699509820E+02  0.00000000000E+00 0.  1.
</event>
<event>
 7    1  0.6953847E-012  0.5930194E+02  0.7816164E-02  0.1266605E+00
        -11   -1    0    0    0    0  0.00000000000E+00  0.00000000000E+00  0.45593999997E+02  0.45594000000E+02  0.51100000000E-03 0.  1.
         11   -1    0    0    0    0 -0.00000000000E+00 -0.00000000000E+00 -0.45593999997E+02  0.45594000000E+02  0.51100000000E-03 0. -1.
    9900012    2    1    2    0    0 -0.27907906446E+02  0.15417909786E+02 -0.39669416642E+00  0.59301944260E+02  0.50000000424E+02 0.  0.
        -12    1    1    2    0    0  0.27907906446E+02 -0.15417909786E+02  0.39669416642E+00  0.31886055740E+02  0.00000000000E+00 0.  1.
         11    1    3    3    0    0 -0.15883626978E+02 -0.76861182267E+01 -0.31108352002E+01  0.17917681638E+02  0.51100000000E-03 0. -1.
        -11    1    3    3    0    0 -0.73853366548E+01 -0.73682253739E+01 -0.98998246458E-01  0.10432820500E+02  0.51100000000E-03 0.  1.
        -12    1    3    3    0    0 -0.46389428138E+01  0.30472253386E+02  0.28131392802E+01  0.30951442123E+02  0.00000000000E+00 0.  1.
</event>
<event>
 7    1  0.6953847E-012  0.5930194E+02  0.7816164E-02  0.1266605E+00
        -11   -1    0    0    0    0  0.00000000000E+00  0.00000000000E+00  0.45593999997E+02  0.45594000000E+02  0.51100000000E-03 0.  1.
         11   -1    0    0    0    0 -0.00000000000E+00 -0.00000000000E+00 -0.45593999997E+02  0.45594000000E+02  0.51100000000E-03 0. -1.
    9900012    2    1    2    0    0 -0.21168729618E+02 -0.23814902203E+02 -0.12067945830E+01  0.59301936684E+02  0.49999986608E+02 0.  0.
        -12    1    1    2    0    0  0.21168729618E+02  0.23814902203E+02  0.12067945830E+01  0.31886063316E+02  0.00000000000E+00 0.  1.
         11    1    3    3    0    0  0.95099451629E+01 -0.10435236342E+01  0.68048122489E+01  0.11740249937E+02  0.51100000000E-03 0.  1.
        -11    1    3    3    0    0  0.49794325211E+01 -0.29105115692E+01 -0.28090731928E+01  0.64153502079E+01  0.51100000000E-03 0. -1.
         12    1    3    3    0    0 -0.35658107302E+02 -0.19860867000E+02 -0.52025336391E+01  0.41146336540E+02  0.00000000000E+00 0. -1.
</event>
<event>
 7    1  0.6953847E-012  0.5930191E+02  0.7816164E-02  0.1266605E+00
        -11   -1    0    0    0    0  0.00000000000E+00  0.00000000000E+00  0.45593999997E+02  0.45594000000E+02  0.51100000000E-03 0. -1.
         11   -1    0    0    0    0 -0.00000000000E+00 -0.00000000000E+00 -0.45593999997E+02  0.45594000000E+02  0.51100000000E-03 0.  1.
    9900012    2    1    2    0    0  0.17792557782E+02 -0.57020708247E+01  0.25838612045E+02  0.59301912179E+02  0.49999941916E+02 0.  0.
        -12    1    1    2    0    0 -0.17792557782E+02  0.57020708247E+01 -0.25838612045E+02  0.31886087821E+02  0.00000000000E+00 0.  1.
         11    1    3    3    0    0  0.13650685783E+01 -0.10054867944E+02  0.89498090077E+00  0.10186499530E+02  0.51100000000E-03 0. -1.
        -11    1    3    3    0    0 -0.38073682282E+01  0.56664167694E+01 -0.79469131660E+01  0.10476533824E+02  0.51100000000E-03 0.  1.
         12    1    3    3    0    0  0.20234857432E+02 -0.13136196496E+01  0.32890544310E+02  0.38638878825E+02  0.00000000000E+00 0. -1.
</event>
<event>
 7    1  0.6953847E-012  0.5930202E+02  0.7816164E-02  0.1266604E+00
        -11   -1    0    0    0    0  0.00000000000E+00  0.00000000000E+00  0.45593999997E+02  0.45594000000E+02  0.51100000000E-03 0. -1.
         11   -1    0    0    0    0 -0.00000000000E+00 -0.00000000000E+00 -0.45593999997E+02  0.45594000000E+02  0.51100000000E-03 0.  1.
    9900012    2    1    2    0    0 -0.11446516742E+02  0.11314237861E+01  0.29739075548E+02  0.59302023776E+02  0.50000145441E+02 0.  0.
        -12    1    1    2    0    0  0.11446516742E+02 -0.11314237861E+01 -0.29739075548E+02  0.31885976224E+02  0.00000000000E+00 0.  1.
         11    1    3    3    0    0 -0.12113932391E+01 -0.57240937855E+01  0.22939561458E+02  0.23673956226E+02  0.51100000000E-03 0. -1.
        -11    1    3    3    0    0  0.10441993775E+01 -0.73454219549E+01  0.14215414995E+02  0.16035074049E+02  0.51100000000E-03 0.  1.
        -12    1    3    3    0    0 -0.11279322881E+02  0.14200939526E+02 -0.74159009042E+01  0.19592993500E+02  0.00000000000E+00 0.  1.
</event>
<event>
 7    1  0.6953847E-012  0.5930193E+02  0.7816164E-02  0.1266605E+00
        -11   -1    0    0    0    0  0.00000000000E+00  0.00000000000E+00  0.45593999997E+02  0.45594000000E+02  0.51100000000E-03 0. -1.
         11   -1    0    0    0    0 -0.00000000000E+00 -0.00000000000E+00 -0.45593999997E+02  0.45594000000E+02  0.51100000000E-03 0.  1.
    9900012    2    1    2    0    0 -0.16013847798E+02  0.26658820074E+01  0.27443966171E+02  0.59301928944E+02  0.49999972491E+02 0.  0.
        -12    1    1    2    0    0  0.16013847798E+02 -0.26658820074E+01 -0.27443966171E+02  0.31886071056E+02  0.00000000000E+00 0.  1.
         11    1    3    3    0    0 -0.34972412011E-01 -0.14272454348E+02  0.29759352977E+02  0.33004897607E+02  0.51100000000E-03 0. -1.
        -11    1    3    3    0    0 -0.96309451334E+01  0.83581492307E+01  0.46260797060E+01  0.13565189878E+02  0.51100000000E-03 0.  1.
        -12    1    3    3    0    0 -0.63479302526E+01  0.85801871250E+01 -0.69414665116E+01  0.12731841458E+02  0.00000000000E+00 0.  1.
</event>
