<event>
 7    1  0.2459936E-009  0.4778727E+02  0.7816164E-02  0.1312668E+00
        -11   -1    0    0    0    0  0.00000000000E+00  0.00000000000E+00  0.45593999997E+02  0.45594000000E+02  0.51100000000E-03 0.  1.
         11   -1    0    0    0    0 -0.00000000000E+00 -0.00000000000E+00 -0.45593999997E+02  0.45594000000E+02  0.51100000000E-03 0. -1.
    9900012    2    1    2    0    0  0.13541991772E+02  0.21816882870E+02  0.34989445513E+02  0.47787271704E+02  0.20000003009E+02 0.  0.
         12    1    1    2    0    0 -0.13541991772E+02 -0.21816882870E+02 -0.34989445513E+02  0.43400728296E+02  0.00000000000E+00 0. -1.
         11    1    3    3    0    0  0.20022754017E+01  0.82685696136E+01  0.17141905960E+02  0.19136961369E+02  0.51100000000E-03 0. -1.
        -11    1    3    3    0    0  0.25687357144E+01  0.11908223908E+02  0.14494042167E+02  0.18933606588E+02  0.51100000000E-03 0.  1.
         12    1    3    3    0    0  0.89709806562E+01  0.16400893478E+01  0.33534973856E+01  0.97167037475E+01  0.00000000000E+00 0. -1.
</event>
<event>
 7    1  0.2459936E-009  0.4778729E+02  0.7816164E-02  0.1312668E+00
        -11   -1    0    0    0    0  0.00000000000E+00  0.00000000000E+00  0.45593999997E+02  0.45594000000E+02  0.51100000000E-03 0.  1.
         11   -1    0    0    0    0 -0.00000000000E+00 -0.00000000000E+00 -0.45593999997E+02  0.45594000000E+02  0.51100000000E-03 0. -1.
    9900012    2    1    2    0    0 -0.88488223381E+01 -0.22710347280E+01  0.42428321635E+02  0.47787288804E+02  0.20000080974E+02 0.  0.
         12    1    1    2    0    0  0.88488223381E+01  0.22710347280E+01 -0.42428321635E+02  0.43400711196E+02  0.00000000000E+00 0. -1.
         11    1    3    3    0    0 -0.61909779345E+00  0.32933385663E+01  0.18013547506E+02  0.18322588654E+02  0.51100000000E-03 0. -1.
        -11    1    3    3    0    0  0.12139909184E+01 -0.42196383057E+01  0.16486222789E+02  0.17060910394E+02  0.51100000000E-03 0.  1.
         12    1    3    3    0    0 -0.94437154631E+01 -0.13447349887E+01  0.79285513404E+01  0.12403789755E+02  0.00000000000E+00 0. -1.
</event>
<event>
 7    1  0.2459936E-009  0.4778727E+02  0.7816164E-02  0.1312668E+00
        -11   -1    0    0    0    0  0.00000000000E+00  0.00000000000E+00  0.45593999997E+02  0.45594000000E+02  0.51100000000E-03 0.  1.
         11   -1    0    0    0    0 -0.00000000000E+00 -0.00000000000E+00 -0.45593999997E+02  0.45594000000E+02  0.51100000000E-03 0. -1.
    9900012    2    1    2    0    0  0.29050003279E+02  0.29882191691E+02  0.12115101863E+02  0.47787265399E+02  0.19999974260E+02 0.  0.
         12    1    1    2    0    0 -0.29050003279E+02 -0.29882191691E+02 -0.12115101863E+02  0.43400734601E+02  0.00000000000E+00 0. -1.
         11    1    3    3    0    0 -0.10844975027E+01 -0.55031561639E-01 -0.16724821614E+01  0.19940812791E+01  0.51100000000E-03 0. -1.
        -11    1    3    3    0    0  0.14675641537E+01 -0.10838324888E+00  0.22574701793E+01  0.26947473621E+01  0.51100000000E-03 0.  1.
        -12    1    3    3    0    0  0.28666936628E+02  0.30045606502E+02  0.11530113845E+02  0.43098436758E+02  0.00000000000E+00 0.  1.
</event>
<event>
 7    1  0.2459936E-009  0.4778727E+02  0.7816164E-02  0.1312668E+00
        -11   -1    0    0    0    0  0.00000000000E+00  0.00000000000E+00  0.45593999997E+02  0.45594000000E+02  0.51100000000E-03 0.  1.
         11   -1    0    0    0    0 -0.00000000000E+00 -0.00000000000E+00 -0.45593999997E+02  0.45594000000E+02  0.51100000000E-03 0. -1.
    9900012    2    1    2    0    0  0.18166551876E+02 -0.38935146890E+02  0.61362678856E+01  0.47787273578E+02  0.20000011552E+02 0.  0.
         12    1    1    2    0    0 -0.18166551876E+02  0.38935146890E+02 -0.61362678856E+01  0.43400726422E+02  0.00000000000E+00 0. -1.
         11    1    3    3    0    0  0.14391792152E+02 -0.11646531927E+02 -0.14393075248E+01  0.18569787120E+02  0.51100000000E-03 0. -1.
        -11    1    3    3    0    0  0.17473107800E+01 -0.55347979739E+01  0.40725968946E+01  0.70903546668E+01  0.51100000000E-03 0.  1.
         12    1    3    3    0    0  0.20274489433E+01 -0.21753816989E+02  0.35029785158E+01  0.22127131791E+02  0.00000000000E+00 0. -1.
</event>
<event>
 7    1  0.2459936E-009  0.4778727E+02  0.7816164E-02  0.1312668E+00
        -11   -1    0    0    0    0  0.00000000000E+00  0.00000000000E+00  0.45593999997E+02  0.45594000000E+02  0.51100000000E-03 0.  1.
         11   -1    0    0    0    0 -0.00000000000E+00 -0.00000000000E+00 -0.45593999997E+02  0.45594000000E+02  0.51100000000E-03 0. -1.
    9900012    2    1    2    0    0 -0.15482352943E+02 -0.39534127806E+02  0.89984910879E+01  0.47787270100E+02  0.19999995692E+02 0.  0.
         12    1    1    2    0    0  0.15482352943E+02  0.39534127806E+02 -0.89984910879E+01  0.43400729900E+02  0.00000000000E+00 0. -1.
         11    1    3    3    0    0 -0.80660615180E+01 -0.35377715140E+01 -0.23805719094E+01  0.91238313539E+01  0.51100000000E-03 0. -1.
        -11    1    3    3    0    0 -0.31832599130E+01 -0.10501274227E+02  0.19035351728E+01  0.11137026106E+02  0.51100000000E-03 0.  1.
        -12    1    3    3    0    0 -0.42330315118E+01 -0.25495082065E+02  0.94755278245E+01  0.27526412640E+02  0.00000000000E+00 0.  1.
</event>
<event>
 7    1  0.2459936E-009  0.4778727E+02  0.7816164E-02  0.1312668E+00
        -11   -1    0    0    0    0  0.00000000000E+00  0.00000000000E+00  0.45593999997E+02  0.45594000000E+02  0.51100000000E-03 0.  1.
         11   -1    0    0    0    0 -0.00000000000E+00 -0.00000000000E+00 -0.45593999997E+02  0.45594000000E+02  0.51100000000E-03 0. -1.
    9900012    2    1    2    0    0 -0.25306415418E+02  0.20551723101E+02  0.28650221578E+02  0.47787272123E+02  0.20000004920E+02 0.  0.
         12    1    1    2    0    0  0.25306415418E+02 -0.20551723101E+02 -0.28650221578E+02  0.43400727877E+02  0.00000000000E+00 0. -1.
         11    1    3    3    0    0 -0.35525055263E+01  0.30052239575E+01  0.28225789003E+01  0.54422990049E+01  0.51100000000E-03 0. -1.
        -11    1    3    3    0    0 -0.69691206044E+01 -0.19613243883E+01  0.71250781771E+00  0.72748266650E+01  0.51100000000E-03 0.  1.
        -12    1    3    3    0    0 -0.14784789287E+02  0.19507823532E+02  0.25115134860E+02  0.35070146454E+02  0.00000000000E+00 0.  1.
</event>
<event>
 7    1  0.2459936E-009  0.4778728E+02  0.7816164E-02  0.1312668E+00
        -11   -1    0    0    0    0  0.00000000000E+00  0.00000000000E+00  0.45593999997E+02  0.45594000000E+02  0.51100000000E-03 0. -1.
         11   -1    0    0    0    0 -0.00000000000E+00 -0.00000000000E+00 -0.45593999997E+02  0.45594000000E+02  0.51100000000E-03 0.  1.
    9900012    2    1    2    0    0 -0.10770633627E+02 -0.44285531167E+01 -0.41809137308E+02  0.47787278879E+02  0.20000035719E+02 0.  0.
         12    1    1    2    0    0  0.10770633627E+02  0.44285531167E+01  0.41809137308E+02  0.43400721121E+02  0.00000000000E+00 0. -1.
         11    1    3    3    0    0 -0.44290105536E+01 -0.86972161665E+00 -0.17626694366E+01  0.48455705523E+01  0.51100000000E-03 0. -1.
        -11    1    3    3    0    0 -0.12624778004E+01 -0.72592102938E+01 -0.11113538687E+02  0.13334193890E+02  0.51100000000E-03 0.  1.
         12    1    3    3    0    0 -0.50791452734E+01  0.37003787938E+01 -0.28932929185E+02  0.29607514437E+02  0.00000000000E+00 0. -1.
</event>
<event>
 7    1  0.2459936E-009  0.4778727E+02  0.7816164E-02  0.1312668E+00
        -11   -1    0    0    0    0  0.00000000000E+00  0.00000000000E+00  0.45593999997E+02  0.45594000000E+02  0.51100000000E-03 0.  1.
         11   -1    0    0    0    0 -0.00000000000E+00 -0.00000000000E+00 -0.45593999997E+02  0.45594000000E+02  0.51100000000E-03 0. -1.
    9900012    2    1    2    0    0 -0.23206073851E+02 -0.36643087205E+02 -0.15445531076E+01  0.47787270193E+02  0.19999996117E+02 0.  0.
         12    1    1    2    0    0  0.23206073851E+02  0.36643087205E+02  0.15445531076E+01  0.43400729807E+02  0.00000000000E+00 0. -1.
         11    1    3    3    0    0 -0.11006120309E+02 -0.36696376006E+01 -0.24111740925E-01  0.11601788915E+02  0.51100000000E-03 0. -1.
        -11    1    3    3    0    0 -0.23404285863E+01 -0.12267181432E+01  0.10507318172E+01  0.28436738531E+01  0.51100000000E-03 0.  1.
        -12    1    3    3    0    0 -0.98595249559E+01 -0.31746731461E+02 -0.25711731839E+01  0.33341807425E+02  0.00000000000E+00 0.  1.
</event>
<event>
 7    1  0.2459936E-009  0.4778727E+02  0.7816164E-02  0.1312668E+00
        -11   -1    0    0    0    0  0.00000000000E+00  0.00000000000E+00  0.45593999997E+02  0.45594000000E+02  0.51100000000E-03 0. -1.
         11   -1    0    0    0    0 -0.00000000000E+00 -0.00000000000E+00 -0.45593999997E+02  0.45594000000E+02  0.51100000000E-03 0.  1.
    9900012    2    1    2    0    0  0.47081935768E+01  0.64803187857E+01 -0.42655146139E+02  0.47787272927E+02  0.20000008584E+02 0.  0.
         12    1    1    2    0    0 -0.47081935768E+01 -0.64803187857E+01  0.42655146139E+02  0.43400727073E+02  0.00000000000E+00 0. -1.
         11    1    3    3    0    0 -0.36165044927E+01  0.47656902240E+01 -0.74550941378E+01  0.95587309263E+01  0.51100000000E-03 0. -1.
        -11    1    3    3    0    0  0.65322324023E+01 -0.17398317301E+01 -0.33145270101E+02  0.33827592361E+02  0.51100000000E-03 0.  1.
        -12    1    3    3    0    0  0.17924656672E+01  0.34544602918E+01 -0.20547818998E+01  0.44009496398E+01  0.00000000000E+00 0.  1.
</event>
<event>
 7    1  0.2459936E-009  0.4778729E+02  0.7816164E-02  0.1312668E+00
        -11   -1    0    0    0    0  0.00000000000E+00  0.00000000000E+00  0.45593999997E+02  0.45594000000E+02  0.51100000000E-03 0. -1.
         11   -1    0    0    0    0 -0.00000000000E+00 -0.00000000000E+00 -0.45593999997E+02  0.45594000000E+02  0.51100000000E-03 0.  1.
    9900012    2    1    2    0    0  0.34620627109E+02 -0.24119020183E+02  0.10164001439E+02  0.47787287088E+02  0.20000073149E+02 0.  0.
         12    1    1    2    0    0 -0.34620627109E+02  0.24119020183E+02 -0.10164001439E+02  0.43400712912E+02  0.00000000000E+00 0. -1.
         11    1    3    3    0    0  0.58451552833E+01 -0.44314928356E+01 -0.10123692240E+01  0.74046512912E+01  0.51100000000E-03 0. -1.
        -11    1    3    3    0    0  0.23389446631E+02 -0.17166233760E+02  0.15627891346E+02  0.32954161852E+02  0.51100000000E-03 0.  1.
        -12    1    3    3    0    0  0.53860251943E+01 -0.25212935881E+01 -0.44515206830E+01  0.74284739444E+01  0.00000000000E+00 0.  1.
</event>
<event>
 7    1  0.2459936E-009  0.4778727E+02  0.7816164E-02  0.1312668E+00
        -11   -1    0    0    0    0  0.00000000000E+00  0.00000000000E+00  0.45593999997E+02  0.45594000000E+02  0.51100000000E-03 0.  1.
         11   -1    0    0    0    0 -0.00000000000E+00 -0.00000000000E+00 -0.45593999997E+02  0.45594000000E+02  0.51100000000E-03 0. -1.
    9900012    2    1    2    0    0 -0.51541635475E+01  0.32081200180E+02  0.28772465050E+02  0.47787267841E+02  0.19999985395E+02 0.  0.
         12    1    1    2    0    0  0.51541635475E+01 -0.32081200180E+02 -0.28772465050E+02  0.43400732159E+02  0.00000000000E+00 0. -1.
         11    1    3    3    0    0 -0.38814550175E+01  0.12473069087E+02  0.91316321861E+01  0.15938313968E+02  0.51100000000E-03 0.  1.
        -11    1    3    3    0    0  0.33267010278E+01  0.94717342740E+01  0.93579992246E+00  0.10082480431E+02  0.51100000000E-03 0. -1.
         12    1    3    3    0    0 -0.45994095579E+01  0.10136396818E+02  0.18705032942E+02  0.21766473442E+02  0.00000000000E+00 0. -1.
</event>
<event>
 7    1  0.2459936E-009  0.4778721E+02  0.7816164E-02  0.1312668E+00
        -11   -1    0    0    0    0  0.00000000000E+00  0.00000000000E+00  0.45593999997E+02  0.45594000000E+02  0.51100000000E-03 0. -1.
         11   -1    0    0    0    0 -0.00000000000E+00 -0.00000000000E+00 -0.45593999997E+02  0.45594000000E+02  0.51100000000E-03 0.  1.
    9900012    2    1    2    0    0  0.18336069792E+01  0.38583722548E+02 -0.19787954156E+02  0.47787206345E+02  0.19999705006E+02 0.  0.
         12    1    1    2    0    0 -0.18336069792E+01 -0.38583722548E+02  0.19787954156E+02  0.43400793655E+02  0.00000000000E+00 0. -1.
         11    1    3    3    0    0  0.44740309824E+01  0.48592785647E+01 -0.56473011063E+01  0.86903136564E+01  0.51100000000E-03 0. -1.
        -11    1    3    3    0    0  0.18046459662E+01  0.24572308614E+02 -0.15067093989E+02  0.28880311965E+02  0.51100000000E-03 0.  1.
         12    1    3    3    0    0 -0.44450699694E+01  0.91521353698E+01  0.92644093917E+00  0.10216580723E+02  0.00000000000E+00 0. -1.
</event>
<event>
 7    1  0.2528039E-009  0.4778727E+02  0.7816164E-02  0.1312668E+00
        -11   -1    0    0    0    0  0.00000000000E+00  0.00000000000E+00  0.45593999997E+02  0.45594000000E+02  0.51100000000E-03 0. -1.
         11   -1    0    0    0    0 -0.00000000000E+00 -0.00000000000E+00 -0.45593999997E+02  0.45594000000E+02  0.51100000000E-03 0.  1.
    9900012    2    1    2    0    0  0.25790650673E+02 -0.11047964078E+02 -0.33112055605E+02  0.47787269605E+02  0.19999993438E+02 0.  0.
         12    1    1    2    0    0 -0.25790650673E+02  0.11047964078E+02  0.33112055605E+02  0.43400730395E+02  0.00000000000E+00 0. -1.
         11    1    3    3    0    0 -0.25892514190E+00  0.25036273611E+01 -0.16427284899E+01  0.30056196275E+01  0.51100000000E-03 0. -1.
        -11    1    3    3    0    0  0.77922240992E+01  0.17943474606E+01 -0.73326717446E+01  0.10849263311E+02  0.51100000000E-03 0.  1.
        -12    1    3    3    0    0  0.18257351716E+02 -0.15345938900E+02 -0.24136655371E+02  0.33932386666E+02  0.00000000000E+00 0.  1.
</event>
<event>
 7    1  0.2459936E-009  0.4778727E+02  0.7816164E-02  0.1312668E+00
        -11   -1    0    0    0    0  0.00000000000E+00  0.00000000000E+00  0.45593999997E+02  0.45594000000E+02  0.51100000000E-03 0. -1.
         11   -1    0    0    0    0 -0.00000000000E+00 -0.00000000000E+00 -0.45593999997E+02  0.45594000000E+02  0.51100000000E-03 0.  1.
    9900012    2    1    2    0    0 -0.14621200380E+02  0.18927357928E+02 -0.36216007154E+02  0.47787267830E+02  0.19999985345E+02 0.  0.
         12    1    1    2    0    0  0.14621200380E+02 -0.18927357928E+02  0.36216007154E+02  0.43400732170E+02  0.00000000000E+00 0. -1.
         11    1    3    3    0    0  0.19936093017E+01  0.20812356846E+01 -0.11259355860E+01  0.30941479001E+01  0.51100000000E-03 0. -1.
        -11    1    3    3    0    0  0.11102201072E+01  0.19668994182E+01 -0.11224836659E+02  0.11449813985E+02  0.51100000000E-03 0.  1.
         12    1    3    3    0    0 -0.17725029789E+02  0.14879222826E+02 -0.23865234909E+02  0.33243305945E+02  0.00000000000E+00 0. -1.
</event>
<event>
 7    1  0.2459936E-009  0.4778726E+02  0.7816164E-02  0.1312668E+00
        -11   -1    0    0    0    0  0.00000000000E+00  0.00000000000E+00  0.45593999997E+02  0.45594000000E+02  0.51100000000E-03 0.  1.
         11   -1    0    0    0    0 -0.00000000000E+00 -0.00000000000E+00 -0.45593999997E+02  0.45594000000E+02  0.51100000000E-03 0. -1.
    9900012    2    1    2    0    0 -0.28455697704E+02 -0.27255055871E+02  0.18195028445E+02  0.47787264263E+02  0.19999969081E+02 0.  0.
         12    1    1    2    0    0  0.28455697704E+02  0.27255055871E+02 -0.18195028445E+02  0.43400735737E+02  0.00000000000E+00 0. -1.
         11    1    3    3    0    0 -0.35910407320E+01 -0.69479815779E+01 -0.75484625457E-01  0.78214908896E+01  0.51100000000E-03 0. -1.
        -11    1    3    3    0    0 -0.80946032986E+01 -0.13400232928E+02  0.14711999121E+02  0.21483290332E+02  0.51100000000E-03 0.  1.
         12    1    3    3    0    0 -0.16770053674E+02 -0.69068413659E+01  0.35585139496E+01  0.18482483042E+02  0.00000000000E+00 0. -1.
</event>
<event>
 7    1  0.2459936E-009  0.4778727E+02  0.7816164E-02  0.1312668E+00
        -11   -1    0    0    0    0  0.00000000000E+00  0.00000000000E+00  0.45593999997E+02  0.45594000000E+02  0.51100000000E-03 0.  1.
         11   -1    0    0    0    0 -0.00000000000E+00 -0.00000000000E+00 -0.45593999997E+02  0.45594000000E+02  0.51100000000E-03 0. -1.
    9900012    2    1    2    0    0  0.29211233304E+02  0.23550353973E+02  0.21810730050E+02  0.47787271104E+02  0.20000000271E+02 0.  0.
         12    1    1    2    0    0 -0.29211233304E+02 -0.23550353973E+02 -0.21810730050E+02  0.43400728896E+02  0.00000000000E+00 0. -1.
         11    1    3    3    0    0  0.16531936254E+01  0.71808664761E+01 -0.94656479847E+00  0.74292582194E+01  0.51100000000E-03 0. -1.
        -11    1    3    3    0    0  0.10019823616E+02  0.28034100952E+01  0.34626988761E+01  0.10965685442E+02  0.51100000000E-03 0.  1.
         12    1    3    3    0    0  0.17538216063E+02  0.13566077402E+02  0.19294595972E+02  0.29392327442E+02  0.00000000000E+00 0. -1.
</event>
<event>
 7    1  0.2459936E-009  0.4778726E+02  0.7816164E-02  0.1312668E+00
        -11   -1    0    0    0    0  0.00000000000E+00  0.00000000000E+00  0.45593999997E+02  0.45594000000E+02  0.51100000000E-03 0.  1.
         11   -1    0    0    0    0 -0.00000000000E+00 -0.00000000000E+00 -0.45593999997E+02  0.45594000000E+02  0.51100000000E-03 0. -1.
    9900012    2    1    2    0    0  0.31806888258E+02 -0.14974506349E+02  0.25450149143E+02  0.47787261844E+02  0.19999958051E+02 0.  0.
         12    1    1    2    0    0 -0.31806888258E+02  0.14974506349E+02 -0.25450149143E+02  0.43400738156E+02  0.00000000000E+00 0. -1.
         11    1    3    3    0    0 -0.78644498169E+00 -0.45758099185E+01  0.26882264750E+01  0.53649877876E+01  0.51100000000E-03 0. -1.
        -11    1    3    3    0    0  0.12444480405E+02 -0.94412059458E+01  0.95326794052E+01  0.18299547512E+02  0.51100000000E-03 0.  1.
         12    1    3    3    0    0  0.20148852835E+02 -0.95749048515E+00  0.13229243263E+02  0.24122726544E+02  0.00000000000E+00 0. -1.
</event>
<event>
 7    1  0.2459936E-009  0.4778728E+02  0.7816164E-02  0.1312668E+00
        -11   -1    0    0    0    0  0.00000000000E+00  0.00000000000E+00  0.45593999997E+02  0.45594000000E+02  0.51100000000E-03 0.  1.
         11   -1    0    0    0    0 -0.00000000000E+00 -0.00000000000E+00 -0.45593999997E+02  0.45594000000E+02  0.51100000000E-03 0. -1.
    9900012    2    1    2    0    0  0.77702274848E+01  0.20373437098E+02  0.37525581300E+02  0.47787278505E+02  0.20000034017E+02 0.  0.
         12    1    1    2    0    0 -0.77702274848E+01 -0.20373437098E+02 -0.37525581300E+02  0.43400721495E+02  0.00000000000E+00 0. -1.
         11    1    3    3    0    0  0.38073125001E+01  0.79916194176E+01  0.82322558881E+01  0.12088492324E+02  0.51100000000E-03 0.  1.
        -11    1    3    3    0    0  0.19118784001E+01  0.11679920075E+02  0.30841810756E+02  0.33034725713E+02  0.51100000000E-03 0. -1.
         12    1    3    3    0    0  0.20510365846E+01  0.70189760570E+00 -0.15484853439E+01  0.26640604686E+01  0.00000000000E+00 0. -1.
</event>
<event>
 7    1  0.2459936E-009  0.4778727E+02  0.7816164E-02  0.1312668E+00
        -11   -1    0    0    0    0  0.00000000000E+00  0.00000000000E+00  0.45593999997E+02  0.45594000000E+02  0.51100000000E-03 0.  1.
         11   -1    0    0    0    0 -0.00000000000E+00 -0.00000000000E+00 -0.45593999997E+02  0.45594000000E+02  0.51100000000E-03 0. -1.
    9900012    2    1    2    0    0 -0.15230301417E+02  0.40255584817E+02 -0.55811726357E+01  0.47787266386E+02  0.19999978760E+02 0.  0.
         12    1    1    2    0    0  0.15230301417E+02 -0.40255584817E+02  0.55811726357E+01  0.43400733614E+02  0.00000000000E+00 0. -1.
         11    1    3    3    0    0  0.13125081907E+01  0.18066948173E+01  0.21628820572E+00  0.22435696473E+01  0.51100000000E-03 0. -1.
        -11    1    3    3    0    0 -0.59058169774E+01  0.27591571926E+02 -0.97240785708E+01  0.29845120536E+02  0.51100000000E-03 0.  1.
         12    1    3    3    0    0 -0.10636992631E+02  0.10857318074E+02  0.39266177294E+01  0.15698576202E+02  0.00000000000E+00 0. -1.
</event>
<event>
 7    1  0.2459936E-009  0.4778727E+02  0.7816164E-02  0.1312668E+00
        -11   -1    0    0    0    0  0.00000000000E+00  0.00000000000E+00  0.45593999997E+02  0.45594000000E+02  0.51100000000E-03 0. -1.
         11   -1    0    0    0    0 -0.00000000000E+00 -0.00000000000E+00 -0.45593999997E+02  0.45594000000E+02  0.51100000000E-03 0.  1.
    9900012    2    1    2    0    0  0.19517139057E+02  0.59731328271E+01 -0.38301780810E+02  0.47787269062E+02  0.19999990961E+02 0.  0.
         12    1    1    2    0    0 -0.19517139057E+02 -0.59731328271E+01  0.38301780810E+02  0.43400730938E+02  0.00000000000E+00 0. -1.
         11    1    3    3    0    0  0.14091329997E+02 -0.12392129845E+01 -0.16198673065E+02  0.21505772231E+02  0.51100000000E-03 0. -1.
        -11    1    3    3    0    0  0.34254958625E+01 -0.24893002669E+01 -0.54036327740E+01  0.68651209123E+01  0.51100000000E-03 0.  1.
        -12    1    3    3    0    0  0.20003131978E+01  0.97016460785E+01 -0.16699474971E+02  0.19416375919E+02  0.00000000000E+00 0.  1.
</event>
<event>
 7    1  0.2459936E-009  0.4778726E+02  0.7816164E-02  0.1312668E+00
        -11   -1    0    0    0    0  0.00000000000E+00  0.00000000000E+00  0.45593999997E+02  0.45594000000E+02  0.51100000000E-03 0.  1.
         11   -1    0    0    0    0 -0.00000000000E+00 -0.00000000000E+00 -0.45593999997E+02  0.45594000000E+02  0.51100000000E-03 0. -1.
    9900012    2    1    2    0    0 -0.28068711565E+02 -0.22341257393E+02  0.24426206082E+02  0.47787263896E+02  0.19999967406E+02 0.  0.
         12    1    1    2    0    0  0.28068711565E+02  0.22341257393E+02 -0.24426206082E+02  0.43400736104E+02  0.00000000000E+00 0. -1.
         11    1    3    3    0    0 -0.16205924043E+02 -0.68446411392E+01  0.51082177502E+01  0.18318705611E+02  0.51100000000E-03 0. -1.
        -11    1    3    3    0    0 -0.13499418029E+02 -0.10829290633E+02  0.15145048910E+02  0.22997398320E+02  0.51100000000E-03 0.  1.
         12    1    3    3    0    0  0.16366305074E+01 -0.46673256208E+01  0.41729394224E+01  0.64711599649E+01  0.00000000000E+00 0. -1.
</event>
<event>
 7    1  0.2459936E-009  0.4778727E+02  0.7816164E-02  0.1312668E+00
        -11   -1    0    0    0    0  0.00000000000E+00  0.00000000000E+00  0.45593999997E+02  0.45594000000E+02  0.51100000000E-03 0.  1.
         11   -1    0    0    0    0 -0.00000000000E+00 -0.00000000000E+00 -0.45593999997E+02  0.45594000000E+02  0.51100000000E-03 0. -1.
    9900012    2    1    2    0    0  0.97940213869E+01 -0.35794252964E+02  0.22504931011E+02  0.47787270513E+02  0.19999997579E+02 0.  0.
         12    1    1    2    0    0 -0.97940213869E+01  0.35794252964E+02 -0.22504931011E+02  0.43400729487E+02  0.00000000000E+00 0. -1.
         11    1    3    3    0    0  0.16009946266E+01 -0.28706575742E+02  0.94572575042E+01  0.30266654827E+02  0.51100000000E-03 0.  1.
        -11    1    3    3    0    0  0.39824059613E+01 -0.62298619594E+01  0.84110253378E+01  0.11198932305E+02  0.51100000000E-03 0. -1.
        -12    1    3    3    0    0  0.42106207990E+01 -0.85781526188E+00  0.46366481690E+01  0.63216833818E+01  0.00000000000E+00 0.  1.
</event>
<event>
 7    1  0.2459936E-009  0.4778727E+02  0.7816164E-02  0.1312668E+00
        -11   -1    0    0    0    0  0.00000000000E+00  0.00000000000E+00  0.45593999997E+02  0.45594000000E+02  0.51100000000E-03 0.  1.
         11   -1    0    0    0    0 -0.00000000000E+00 -0.00000000000E+00 -0.45593999997E+02  0.45594000000E+02  0.51100000000E-03 0. -1.
    9900012    2    1    2    0    0  0.41509254528E+02  0.93728817333E+01  0.85295930330E+01  0.47787273269E+02  0.20000010142E+02 0.  0.
         12    1    1    2    0    0 -0.41509254528E+02 -0.93728817333E+01 -0.85295930330E+01  0.43400726731E+02  0.00000000000E+00 0. -1.
         11    1    3    3    0    0  0.29126609023E+02  0.38322477706E+01  0.85408141515E+01  0.30593969712E+02  0.51100000000E-03 0.  1.
        -11    1    3    3    0    0  0.63601178854E+01  0.10590522373E+01  0.50069709346E+01  0.81634826734E+01  0.51100000000E-03 0. -1.
        -12    1    3    3    0    0  0.60225276203E+01  0.44815817254E+01 -0.50181920531E+01  0.90298208831E+01  0.00000000000E+00 0.  1.
</event>
<event>
 7    1  0.2459936E-009  0.4778727E+02  0.7816164E-02  0.1312668E+00
        -11   -1    0    0    0    0  0.00000000000E+00  0.00000000000E+00  0.45593999997E+02  0.45594000000E+02  0.51100000000E-03 0.  1.
         11   -1    0    0    0    0 -0.00000000000E+00 -0.00000000000E+00 -0.45593999997E+02  0.45594000000E+02  0.51100000000E-03 0. -1.
    9900012    2    1    2    0    0 -0.36114213434E+01 -0.43250188454E+02 -0.44264374092E-01  0.47787272762E+02  0.20000007831E+02 0.  0.
         12    1    1    2    0    0  0.36114213434E+01  0.43250188454E+02  0.44264374092E-01  0.43400727238E+02  0.00000000000E+00 0. -1.
         11    1    3    3    0    0 -0.51121476863E+01 -0.31228211640E+01  0.13122528659E+01  0.61325421999E+01  0.51100000000E-03 0.  1.
        -11    1    3    3    0    0  0.42226813795E+01 -0.74313914412E+01  0.16608765696E+01  0.87071882962E+01  0.51100000000E-03 0. -1.
        -12    1    3    3    0    0 -0.27219550367E+01 -0.32695975849E+02 -0.30173938096E+01  0.32947542266E+02  0.00000000000E+00 0.  1.
</event>
<event>
 7    1  0.2459936E-009  0.4778727E+02  0.7816164E-02  0.1312668E+00
        -11   -1    0    0    0    0  0.00000000000E+00  0.00000000000E+00  0.45593999997E+02  0.45594000000E+02  0.51100000000E-03 0.  1.
         11   -1    0    0    0    0 -0.00000000000E+00 -0.00000000000E+00 -0.45593999997E+02  0.45594000000E+02  0.51100000000E-03 0. -1.
    9900012    2    1    2    0    0  0.33002453101E+02 -0.10734904165E+02  0.26061914185E+02  0.47787269026E+02  0.19999990797E+02 0.  0.
         12    1    1    2    0    0 -0.33002453101E+02  0.10734904165E+02 -0.26061914185E+02  0.43400730974E+02  0.00000000000E+00 0. -1.
         11    1    3    3    0    0  0.52364514601E+00  0.78410382587E+00  0.23060648253E+01  0.24913767857E+01  0.51100000000E-03 0. -1.
        -11    1    3    3    0    0  0.19402135618E+02 -0.13772756410E+02  0.89683471787E+01  0.25427601873E+02  0.51100000000E-03 0.  1.
        -12    1    3    3    0    0  0.13076672338E+02  0.22537484197E+01  0.14787502180E+02  0.19868290367E+02  0.00000000000E+00 0.  1.
</event>
<event>
 7    1  0.2459936E-009  0.4778727E+02  0.7816164E-02  0.1312668E+00
        -11   -1    0    0    0    0  0.00000000000E+00  0.00000000000E+00  0.45593999997E+02  0.45594000000E+02  0.51100000000E-03 0.  1.
         11   -1    0    0    0    0 -0.00000000000E+00 -0.00000000000E+00 -0.45593999997E+02  0.45594000000E+02  0.51100000000E-03 0. -1.
    9900012    2    1    2    0    0 -0.57216019500E+00  0.24858311969E+02  0.35571900477E+02  0.47787272531E+02  0.20000006779E+02 0.  0.
         12    1    1    2    0    0  0.57216019500E+00 -0.24858311969E+02 -0.35571900477E+02  0.43400727469E+02  0.00000000000E+00 0. -1.
         11    1    3    3    0    0  0.63309227319E+01  0.30483224025E+01  0.93408082610E+01  0.11688607759E+02  0.51100000000E-03 0. -1.
        -11    1    3    3    0    0  0.92819288824E+00 -0.52721385918E+00  0.17185764068E+01  0.20231168079E+01  0.51100000000E-03 0.  1.
        -12    1    3    3    0    0 -0.78312758151E+01  0.22337203426E+02  0.24512515809E+02  0.34075547965E+02  0.00000000000E+00 0.  1.
</event>
<event>
 7    1  0.2459936E-009  0.4778727E+02  0.7816164E-02  0.1312668E+00
        -11   -1    0    0    0    0  0.00000000000E+00  0.00000000000E+00  0.45593999997E+02  0.45594000000E+02  0.51100000000E-03 0. -1.
         11   -1    0    0    0    0 -0.00000000000E+00 -0.00000000000E+00 -0.45593999997E+02  0.45594000000E+02  0.51100000000E-03 0.  1.
    9900012    2    1    2    0    0 -0.22462281073E+02 -0.36656652023E+02 -0.59463615282E+01  0.47787269316E+02  0.19999992118E+02 0.  0.
         12    1    1    2    0    0  0.22462281073E+02  0.36656652023E+02  0.59463615282E+01  0.43400730684E+02  0.00000000000E+00 0. -1.
         11    1    3    3    0    0 -0.15577525620E+01 -0.78147291877E+00  0.24870081913E+01  0.30368574171E+01  0.51100000000E-03 0. -1.
        -11    1    3    3    0    0 -0.12805366638E+02 -0.12330657029E+02  0.17223697127E+01  0.17860265261E+02  0.51100000000E-03 0.  1.
         12    1    3    3    0    0 -0.80991618729E+01 -0.23544522075E+02 -0.10155739432E+02  0.26890146637E+02  0.00000000000E+00 0. -1.
</event>
<event>
 7    1  0.2459936E-009  0.4778728E+02  0.7816164E-02  0.1312668E+00
        -11   -1    0    0    0    0  0.00000000000E+00  0.00000000000E+00  0.45593999997E+02  0.45594000000E+02  0.51100000000E-03 0.  1.
         11   -1    0    0    0    0 -0.00000000000E+00 -0.00000000000E+00 -0.45593999997E+02  0.45594000000E+02  0.51100000000E-03 0. -1.
    9900012    2    1    2    0    0  0.93478601851E+01 -0.24312566683E+02  0.34715119670E+02  0.47787275092E+02  0.20000018457E+02 0.  0.
         12    1    1    2    0    0 -0.93478601851E+01  0.24312566683E+02 -0.34715119670E+02  0.43400724908E+02  0.00000000000E+00 0. -1.
         11    1    3    3    0    0 -0.19158463404E+01  0.14794520224E+01  0.20266671648E+01  0.31569962852E+01  0.51100000000E-03 0. -1.
        -11    1    3    3    0    0  0.49582402925E+01 -0.78678315558E+01  0.19183723033E+02  0.21319056027E+02  0.51100000000E-03 0.  1.
        -12    1    3    3    0    0  0.63054662330E+01 -0.17924187150E+02  0.13504729472E+02  0.23311222780E+02  0.00000000000E+00 0.  1.
</event>
<event>
 7    1  0.2459936E-009  0.4778727E+02  0.7816164E-02  0.1312668E+00
        -11   -1    0    0    0    0  0.00000000000E+00  0.00000000000E+00  0.45593999997E+02  0.45594000000E+02  0.51100000000E-03 0.  1.
         11   -1    0    0    0    0 -0.00000000000E+00 -0.00000000000E+00 -0.45593999997E+02  0.45594000000E+02  0.51100000000E-03 0. -1.
    9900012    2    1    2    0    0  0.21897250072E+02 -0.17706300742E+02  0.33024549206E+02  0.47787268475E+02  0.19999988283E+02 0.  0.
         12    1    1    2    0    0 -0.21897250072E+02  0.17706300742E+02 -0.33024549206E+02  0.43400731525E+02  0.00000000000E+00 0. -1.
         11    1    3    3    0    0  0.31250608485E+01 -0.19500905706E+01  0.64161828504E+01  0.73983958513E+01  0.51100000000E-03 0. -1.
        -11    1    3    3    0    0  0.99965935349E+01  0.96112863245E+00  0.36999594495E+01  0.10702586171E+02  0.51100000000E-03 0.  1.
         12    1    3    3    0    0  0.87755956882E+01 -0.16717338804E+02  0.22908406906E+02  0.29686286453E+02  0.00000000000E+00 0. -1.
</event>
<event>
 7    1  0.2459936E-009  0.4778725E+02  0.7816164E-02  0.1312668E+00
        -11   -1    0    0    0    0  0.00000000000E+00  0.00000000000E+00  0.45593999997E+02  0.45594000000E+02  0.51100000000E-03 0.  1.
         11   -1    0    0    0    0 -0.00000000000E+00 -0.00000000000E+00 -0.45593999997E+02  0.45594000000E+02  0.51100000000E-03 0. -1.
    9900012    2    1    2    0    0 -0.86680513811E+01  0.42324222589E+02  0.41412630024E+01  0.47787251253E+02  0.19999909764E+02 0.  0.
         12    1    1    2    0    0  0.86680513811E+01 -0.42324222589E+02 -0.41412630024E+01  0.43400748747E+02  0.00000000000E+00 0. -1.
         11    1    3    3    0    0  0.18841772046E+01  0.95202186376E+01  0.29216065878E+01  0.10135110851E+02  0.51100000000E-03 0. -1.
        -11    1    3    3    0    0 -0.24265509869E+01  0.14516974487E+02  0.77091892789E+01  0.16615122556E+02  0.51100000000E-03 0.  1.
         12    1    3    3    0    0 -0.81256775989E+01  0.18287029465E+02 -0.64895328642E+01  0.21037017847E+02  0.00000000000E+00 0. -1.
</event>
<event>
 7    1  0.2459936E-009  0.4778727E+02  0.7816164E-02  0.1312668E+00
        -11   -1    0    0    0    0  0.00000000000E+00  0.00000000000E+00  0.45593999997E+02  0.45594000000E+02  0.51100000000E-03 0.  1.
         11   -1    0    0    0    0 -0.00000000000E+00 -0.00000000000E+00 -0.45593999997E+02  0.45594000000E+02  0.51100000000E-03 0. -1.
    9900012    2    1    2    0    0  0.75279152286E+01  0.40871655426E+02  0.12508453053E+02  0.47787272786E+02  0.20000007940E+02 0.  0.
         12    1    1    2    0    0 -0.75279152286E+01 -0.40871655426E+02 -0.12508453053E+02  0.43400727214E+02  0.00000000000E+00 0. -1.
         11    1    3    3    0    0 -0.22494104087E+01  0.10536814851E+01  0.82934578465E+00  0.26187604989E+01  0.51100000000E-03 0. -1.
        -11    1    3    3    0    0  0.53822941263E+01  0.16226485949E+02  0.12466055851E+02  0.21158224998E+02  0.51100000000E-03 0.  1.
         12    1    3    3    0    0  0.43950315110E+01  0.23591487991E+02 -0.78694858270E+00  0.24010287289E+02  0.00000000000E+00 0. -1.
</event>
<event>
 7    1  0.2459936E-009  0.4778727E+02  0.7816164E-02  0.1312668E+00
        -11   -1    0    0    0    0  0.00000000000E+00  0.00000000000E+00  0.45593999997E+02  0.45594000000E+02  0.51100000000E-03 0. -1.
         11   -1    0    0    0    0 -0.00000000000E+00 -0.00000000000E+00 -0.45593999997E+02  0.45594000000E+02  0.51100000000E-03 0.  1.
    9900012    2    1    2    0    0 -0.42635937727E+02  0.75852603767E+01 -0.28746717481E+01  0.47787273065E+02  0.20000009211E+02 0.  0.
         12    1    1    2    0    0  0.42635937727E+02 -0.75852603767E+01  0.28746717481E+01  0.43400726935E+02  0.00000000000E+00 0. -1.
         11    1    3    3    0    0 -0.17027067440E+02  0.48437057082E+01 -0.36986654181E+01  0.18084873147E+02  0.51100000000E-03 0. -1.
        -11    1    3    3    0    0 -0.13706151698E+02  0.32513618556E+01 -0.67135664012E+01  0.15604548131E+02  0.51100000000E-03 0.  1.
         12    1    3    3    0    0 -0.11902718589E+02 -0.50980718715E+00  0.75375600712E+01  0.14097851787E+02  0.00000000000E+00 0. -1.
</event>
<event>
 7    1  0.2459936E-009  0.4778727E+02  0.7816164E-02  0.1312668E+00
        -11   -1    0    0    0    0  0.00000000000E+00  0.00000000000E+00  0.45593999997E+02  0.45594000000E+02  0.51100000000E-03 0.  1.
         11   -1    0    0    0    0 -0.00000000000E+00 -0.00000000000E+00 -0.45593999997E+02  0.45594000000E+02  0.51100000000E-03 0. -1.
    9900012    2    1    2    0    0  0.14373975751E+02  0.18700590426E+02  0.36432131405E+02  0.47787268901E+02  0.19999990229E+02 0.  0.
         12    1    1    2    0    0 -0.14373975751E+02 -0.18700590426E+02 -0.36432131405E+02  0.43400731099E+02  0.00000000000E+00 0. -1.
         11    1    3    3    0    0  0.12136636987E+01 -0.16022525170E+01  0.13724117433E+01  0.24338666677E+01  0.51100000000E-03 0. -1.
        -11    1    3    3    0    0  0.51808437532E+01 -0.12048008410E+01  0.10348877723E+02  0.11635804976E+02  0.51100000000E-03 0.  1.
         12    1    3    3    0    0  0.79794682992E+01  0.21507643784E+02  0.24710841939E+02  0.33717597257E+02  0.00000000000E+00 0. -1.
</event>
<event>
 7    1  0.2459936E-009  0.4778728E+02  0.7816164E-02  0.1312668E+00
        -11   -1    0    0    0    0  0.00000000000E+00  0.00000000000E+00  0.45593999997E+02  0.45594000000E+02  0.51100000000E-03 0.  1.
         11   -1    0    0    0    0 -0.00000000000E+00 -0.00000000000E+00 -0.45593999997E+02  0.45594000000E+02  0.51100000000E-03 0. -1.
    9900012    2    1    2    0    0  0.14386459288E+02  0.29588858750E+02  0.28304629890E+02  0.47787275972E+02  0.20000022467E+02 0.  0.
         12    1    1    2    0    0 -0.14386459288E+02 -0.29588858750E+02 -0.28304629890E+02  0.43400724028E+02  0.00000000000E+00 0. -1.
         11    1    3    3    0    0  0.57556986197E+01  0.21042296207E+01  0.50502215722E+01  0.79410696438E+01  0.51100000000E-03 0. -1.
        -11    1    3    3    0    0  0.22385662166E+01  0.13377633319E+02  0.19763248987E+02  0.23969944988E+02  0.51100000000E-03 0.  1.
        -12    1    3    3    0    0  0.63921944515E+01  0.14106995810E+02  0.34911593307E+01  0.15876261341E+02  0.00000000000E+00 0.  1.
</event>
<event>
 7    1  0.2459936E-009  0.4778728E+02  0.7816164E-02  0.1312668E+00
        -11   -1    0    0    0    0  0.00000000000E+00  0.00000000000E+00  0.45593999997E+02  0.45594000000E+02  0.51100000000E-03 0.  1.
         11   -1    0    0    0    0 -0.00000000000E+00 -0.00000000000E+00 -0.45593999997E+02  0.45594000000E+02  0.51100000000E-03 0. -1.
    9900012    2    1    2    0    0 -0.19829028936E+02 -0.39106060824E+01  0.38407547116E+02  0.47787275307E+02  0.20000019433E+02 0.  0.
         12    1    1    2    0    0  0.19829028936E+02  0.39106060824E+01 -0.38407547116E+02  0.43400724693E+02  0.00000000000E+00 0. -1.
         11    1    3    3    0    0 -0.13193291387E+02 -0.47002453102E+01  0.16609083639E+02  0.21725949995E+02  0.51100000000E-03 0. -1.
        -11    1    3    3    0    0 -0.20520042764E+01 -0.11021006006E+01 -0.11398217366E+01  0.25931720221E+01  0.51100000000E-03 0.  1.
        -12    1    3    3    0    0 -0.45837332723E+01  0.18917398283E+01  0.22938285213E+02  0.23468153289E+02  0.00000000000E+00 0.  1.
</event>
<event>
 7    1  0.2459936E-009  0.4778727E+02  0.7816164E-02  0.1312668E+00
        -11   -1    0    0    0    0  0.00000000000E+00  0.00000000000E+00  0.45593999997E+02  0.45594000000E+02  0.51100000000E-03 0.  1.
         11   -1    0    0    0    0 -0.00000000000E+00 -0.00000000000E+00 -0.45593999997E+02  0.45594000000E+02  0.51100000000E-03 0. -1.
    9900012    2    1    2    0    0 -0.24652952208E+02 -0.63750137994E+01  0.35145617634E+02  0.47787270831E+02  0.19999999028E+02 0.  0.
         12    1    1    2    0    0  0.24652952208E+02  0.63750137994E+01 -0.35145617634E+02  0.43400729169E+02  0.00000000000E+00 0. -1.
         11    1    3    3    0    0  0.10669272449E+01 -0.48315266145E+01  0.51417502372E+01  0.71357956063E+01  0.51100000000E-03 0. -1.
        -11    1    3    3    0    0 -0.73744423514E+01 -0.85370645738E+00  0.15740761462E+02  0.17403527987E+02  0.51100000000E-03 0.  1.
         12    1    3    3    0    0 -0.18345437101E+02 -0.68978072751E+00  0.14263105935E+02  0.23247947238E+02  0.00000000000E+00 0. -1.
</event>
<event>
 7    1  0.2459936E-009  0.4778727E+02  0.7816164E-02  0.1312668E+00
        -11   -1    0    0    0    0  0.00000000000E+00  0.00000000000E+00  0.45593999997E+02  0.45594000000E+02  0.51100000000E-03 0. -1.
         11   -1    0    0    0    0 -0.00000000000E+00 -0.00000000000E+00 -0.45593999997E+02  0.45594000000E+02  0.51100000000E-03 0.  1.
    9900012    2    1    2    0    0  0.12639187181E+02  0.12818224894E+02 -0.39491355954E+02  0.47787272620E+02  0.20000007182E+02 0.  0.
         12    1    1    2    0    0 -0.12639187181E+02 -0.12818224894E+02  0.39491355954E+02  0.43400727380E+02  0.00000000000E+00 0. -1.
         11    1    3    3    0    0 -0.28966226249E+01  0.39128492730E+00 -0.45525987733E+01  0.54101462436E+01  0.51100000000E-03 0. -1.
        -11    1    3    3    0    0 -0.20718074338E+01  0.10796650911E+01 -0.75065235428E+01  0.78616765840E+01  0.51100000000E-03 0.  1.
        -12    1    3    3    0    0  0.17607617239E+02  0.11347274876E+02 -0.27432233638E+02  0.34515449792E+02  0.00000000000E+00 0.  1.
</event>
<event>
 7    1  0.2459936E-009  0.4778727E+02  0.7816164E-02  0.1312668E+00
        -11   -1    0    0    0    0  0.00000000000E+00  0.00000000000E+00  0.45593999997E+02  0.45594000000E+02  0.51100000000E-03 0.  1.
         11   -1    0    0    0    0 -0.00000000000E+00 -0.00000000000E+00 -0.45593999997E+02  0.45594000000E+02  0.51100000000E-03 0. -1.
    9900012    2    1    2    0    0 -0.21867745900E+02  0.53857263101E+01  0.37100119475E+02  0.47787271622E+02  0.20000002635E+02 0.  0.
         12    1    1    2    0    0  0.21867745900E+02 -0.53857263101E+01 -0.37100119475E+02  0.43400728378E+02  0.00000000000E+00 0. -1.
         11    1    3    3    0    0  0.12451823755E+01 -0.14924429197E+01 -0.56639209957E+00  0.20245160628E+01  0.51100000000E-03 0. -1.
        -11    1    3    3    0    0 -0.70716745630E+01 -0.23727825383E+01  0.11477114887E+02  0.13688054810E+02  0.51100000000E-03 0.  1.
        -12    1    3    3    0    0 -0.16041253712E+02  0.92509517681E+01  0.26189396688E+02  0.32074700749E+02  0.00000000000E+00 0.  1.
</event>
<event>
 7    1  0.2459936E-009  0.4778727E+02  0.7816164E-02  0.1312668E+00
        -11   -1    0    0    0    0  0.00000000000E+00  0.00000000000E+00  0.45593999997E+02  0.45594000000E+02  0.51100000000E-03 0.  1.
         11   -1    0    0    0    0 -0.00000000000E+00 -0.00000000000E+00 -0.45593999997E+02  0.45594000000E+02  0.51100000000E-03 0. -1.
    9900012    2    1    2    0    0 -0.41472139705E+02 -0.12180406202E+02  0.39144322361E+01  0.47787269053E+02  0.19999990921E+02 0.  0.
         12    1    1    2    0    0  0.41472139705E+02  0.12180406202E+02 -0.39144322361E+01  0.43400730947E+02  0.00000000000E+00 0. -1.
         11    1    3    3    0    0 -0.56967142554E+01 -0.49088978219E+00  0.30076078399E+01  0.64605906282E+01  0.51100000000E-03 0. -1.
        -11    1    3    3    0    0 -0.35212052497E+02 -0.98804803718E+01  0.49076900887E+01  0.36899836798E+02  0.51100000000E-03 0.  1.
         12    1    3    3    0    0 -0.56337295324E+00 -0.18090360475E+01 -0.40008656925E+01  0.44268416275E+01  0.00000000000E+00 0. -1.
</event>
<event>
 7    1  0.2459936E-009  0.4778726E+02  0.7816164E-02  0.1312668E+00
        -11   -1    0    0    0    0  0.00000000000E+00  0.00000000000E+00  0.45593999997E+02  0.45594000000E+02  0.51100000000E-03 0.  1.
         11   -1    0    0    0    0 -0.00000000000E+00 -0.00000000000E+00 -0.45593999997E+02  0.45594000000E+02  0.51100000000E-03 0. -1.
    9900012    2    1    2    0    0 -0.27036073704E+00 -0.33391971449E+02  0.27722320721E+02  0.47787263620E+02  0.19999966148E+02 0.  0.
         12    1    1    2    0    0  0.27036073704E+00  0.33391971449E+02 -0.27722320721E+02  0.43400736380E+02  0.00000000000E+00 0. -1.
         11    1    3    3    0    0  0.53965286486E+01 -0.15557820586E+02  0.52964189688E+01  0.17297987079E+02  0.51100000000E-03 0. -1.
        -11    1    3    3    0    0 -0.74808147602E+00 -0.14920219565E+02  0.16204783700E+02  0.22040135952E+02  0.51100000000E-03 0.  1.
        -12    1    3    3    0    0 -0.49188079096E+01 -0.29139312983E+01  0.62211180522E+01  0.84491405884E+01  0.00000000000E+00 0.  1.
</event>
<event>
 7    1  0.2459936E-009  0.4778727E+02  0.7816164E-02  0.1312668E+00
        -11   -1    0    0    0    0  0.00000000000E+00  0.00000000000E+00  0.45593999997E+02  0.45594000000E+02  0.51100000000E-03 0.  1.
         11   -1    0    0    0    0 -0.00000000000E+00 -0.00000000000E+00 -0.45593999997E+02  0.45594000000E+02  0.51100000000E-03 0. -1.
    9900012    2    1    2    0    0 -0.22205540805E+02 -0.37191167968E+02  0.27118677058E+01  0.47787271392E+02  0.20000001586E+02 0.  0.
         12    1    1    2    0    0  0.22205540805E+02  0.37191167968E+02 -0.27118677058E+01  0.43400728608E+02  0.00000000000E+00 0. -1.
         11    1    3    3    0    0 -0.28635218634E+01 -0.74611751505E+00 -0.33661711306E+00  0.29782142553E+01  0.51100000000E-03 0. -1.
        -11    1    3    3    0    0 -0.29532134866E+01 -0.23039827176E+02 -0.10116919481E+01  0.23250346816E+02  0.51100000000E-03 0.  1.
        -12    1    3    3    0    0 -0.16388805455E+02 -0.13405223276E+02  0.40601767670E+01  0.21558710321E+02  0.00000000000E+00 0.  1.
</event>
<event>
 7    1  0.2459936E-009  0.4778727E+02  0.7816164E-02  0.1312668E+00
        -11   -1    0    0    0    0  0.00000000000E+00  0.00000000000E+00  0.45593999997E+02  0.45594000000E+02  0.51100000000E-03 0. -1.
         11   -1    0    0    0    0 -0.00000000000E+00 -0.00000000000E+00 -0.45593999997E+02  0.45594000000E+02  0.51100000000E-03 0.  1.
    9900012    2    1    2    0    0 -0.12605188177E+02  0.21608571613E+02 -0.35465511046E+02  0.47787267173E+02  0.19999982349E+02 0.  0.
         12    1    1    2    0    0  0.12605188177E+02 -0.21608571613E+02  0.35465511046E+02  0.43400732827E+02  0.00000000000E+00 0. -1.
         11    1    3    3    0    0  0.62184439267E+00 -0.13283570796E+01 -0.21395099091E+01  0.25939787763E+01  0.51100000000E-03 0. -1.
        -11    1    3    3    0    0 -0.25918710962E+01  0.35029523747E+01 -0.17326848506E+02  0.17866397245E+02  0.51100000000E-03 0.  1.
        -12    1    3    3    0    0 -0.10635161474E+02  0.19433976318E+02 -0.15999152631E+02  0.27326891152E+02  0.00000000000E+00 0.  1.
</event>
<event>
 7    1  0.2459936E-009  0.4778727E+02  0.7816164E-02  0.1312668E+00
        -11   -1    0    0    0    0  0.00000000000E+00  0.00000000000E+00  0.45593999997E+02  0.45594000000E+02  0.51100000000E-03 0.  1.
         11   -1    0    0    0    0 -0.00000000000E+00 -0.00000000000E+00 -0.45593999997E+02  0.45594000000E+02  0.51100000000E-03 0. -1.
    9900012    2    1    2    0    0  0.11906622449E+00  0.25685171551E+02  0.34984013568E+02  0.47787269364E+02  0.19999992338E+02 0.  0.
         12    1    1    2    0    0 -0.11906622449E+00 -0.25685171551E+02 -0.34984013568E+02  0.43400730636E+02  0.00000000000E+00 0. -1.
         11    1    3    3    0    0 -0.71305096552E+01  0.52957605984E+01  0.15986395496E+02  0.18288085998E+02  0.51100000000E-03 0. -1.
        -11    1    3    3    0    0 -0.60573609917E-01  0.10854885165E+01  0.35625877308E+01  0.37247800046E+01  0.51100000000E-03 0.  1.
         12    1    3    3    0    0  0.73101494896E+01  0.19303922436E+02  0.15435030342E+02  0.25774403361E+02  0.00000000000E+00 0. -1.
</event>
<event>
 7    1  0.2459936E-009  0.4778727E+02  0.7816164E-02  0.1312668E+00
        -11   -1    0    0    0    0  0.00000000000E+00  0.00000000000E+00  0.45593999997E+02  0.45594000000E+02  0.51100000000E-03 0. -1.
         11   -1    0    0    0    0 -0.00000000000E+00 -0.00000000000E+00 -0.45593999997E+02  0.45594000000E+02  0.51100000000E-03 0.  1.
    9900012    2    1    2    0    0 -0.87075273391E+01  0.40013301381E+02 -0.14378400035E+02  0.47787266051E+02  0.19999977233E+02 0.  0.
         12    1    1    2    0    0  0.87075273391E+01 -0.40013301381E+02  0.14378400035E+02  0.43400733949E+02  0.00000000000E+00 0. -1.
         11    1    3    3    0    0 -0.58714880373E+01  0.53294537907E+01  0.32270779423E+01  0.85610444331E+01  0.51100000000E-03 0. -1.
        -11    1    3    3    0    0 -0.15614369847E+01  0.50687945144E+01 -0.38120682332E+01  0.65316634758E+01  0.51100000000E-03 0.  1.
        -12    1    3    3    0    0 -0.12746023172E+01  0.29615053076E+02 -0.13793409744E+02  0.32694558142E+02  0.00000000000E+00 0.  1.
</event>
<event>
 7    1  0.2459936E-009  0.4778727E+02  0.7816164E-02  0.1312668E+00
        -11   -1    0    0    0    0  0.00000000000E+00  0.00000000000E+00  0.45593999997E+02  0.45594000000E+02  0.51100000000E-03 0.  1.
         11   -1    0    0    0    0 -0.00000000000E+00 -0.00000000000E+00 -0.45593999997E+02  0.45594000000E+02  0.51100000000E-03 0. -1.
    9900012    2    1    2    0    0  0.23629069863E+02 -0.81252377950E+00  0.36395469952E+02  0.47787269931E+02  0.19999994923E+02 0.  0.
         12    1    1    2    0    0 -0.23629069863E+02  0.81252377950E+00 -0.36395469952E+02  0.43400730069E+02  0.00000000000E+00 0. -1.
         11    1    3    3    0    0  0.48619129303E+01  0.54704192771E+01  0.54945629348E+01  0.91517160421E+01  0.51100000000E-03 0. -1.
        -11    1    3    3    0    0  0.14852387931E+02  0.91382623162E+00  0.21749127938E+02  0.26352477530E+02  0.51100000000E-03 0.  1.
         12    1    3    3    0    0  0.39147690018E+01 -0.71967692882E+01  0.91517790791E+01  0.12283076359E+02  0.00000000000E+00 0. -1.
</event>
<event>
 7    1  0.2459936E-009  0.4778727E+02  0.7816164E-02  0.1312668E+00
        -11   -1    0    0    0    0  0.00000000000E+00  0.00000000000E+00  0.45593999997E+02  0.45594000000E+02  0.51100000000E-03 0.  1.
         11   -1    0    0    0    0 -0.00000000000E+00 -0.00000000000E+00 -0.45593999997E+02  0.45594000000E+02  0.51100000000E-03 0. -1.
    9900012    2    1    2    0    0  0.66043613839E+01  0.39103116550E+02  0.17633827692E+02  0.47787271985E+02  0.20000004288E+02 0.  0.
         12    1    1    2    0    0 -0.66043613839E+01 -0.39103116550E+02 -0.17633827692E+02  0.43400728015E+02  0.00000000000E+00 0. -1.
         11    1    3    3    0    0  0.87208985164E+01  0.15397745730E+02  0.75575363555E+01  0.19242167251E+02  0.51100000000E-03 0.  1.
        -11    1    3    3    0    0  0.26318223175E+00  0.15852043699E+02  0.40203698536E+00  0.15859324964E+02  0.51100000000E-03 0. -1.
         12    1    3    3    0    0 -0.23797193642E+01  0.78533271207E+01  0.96742543509E+01  0.12685779770E+02  0.00000000000E+00 0. -1.
</event>
<event>
 7    1  0.2459936E-009  0.4778728E+02  0.7816164E-02  0.1312668E+00
        -11   -1    0    0    0    0  0.00000000000E+00  0.00000000000E+00  0.45593999997E+02  0.45594000000E+02  0.51100000000E-03 0.  1.
         11   -1    0    0    0    0 -0.00000000000E+00 -0.00000000000E+00 -0.45593999997E+02  0.45594000000E+02  0.51100000000E-03 0. -1.
    9900012    2    1    2    0    0  0.58597212812E+01 -0.20999733487E+02  0.37527287778E+02  0.47787280329E+02  0.20000042330E+02 0.  0.
         12    1    1    2    0    0 -0.58597212812E+01  0.20999733487E+02 -0.37527287778E+02  0.43400719671E+02  0.00000000000E+00 0. -1.
         11    1    3    3    0    0 -0.39045754737E+01 -0.73189114042E+01  0.69197772963E+01  0.10802568762E+02  0.51100000000E-03 0. -1.
        -11    1    3    3    0    0  0.18367911663E+01  0.22724686171E+01  0.37031740366E+01  0.47171404061E+01  0.51100000000E-03 0.  1.
         12    1    3    3    0    0  0.79275055886E+01 -0.15953290700E+02  0.26904336445E+02  0.32267571160E+02  0.00000000000E+00 0. -1.
</event>
<event>
 7    1  0.2459936E-009  0.4778727E+02  0.7816164E-02  0.1312668E+00
        -11   -1    0    0    0    0  0.00000000000E+00  0.00000000000E+00  0.45593999997E+02  0.45594000000E+02  0.51100000000E-03 0. -1.
         11   -1    0    0    0    0 -0.00000000000E+00 -0.00000000000E+00 -0.45593999997E+02  0.45594000000E+02  0.51100000000E-03 0.  1.
    9900012    2    1    2    0    0 -0.52345511260E+01  0.25653543299E+02 -0.34613846604E+02  0.47787272057E+02  0.20000004617E+02 0.  0.
         12    1    1    2    0    0  0.52345511260E+01 -0.25653543299E+02  0.34613846604E+02  0.43400727943E+02  0.00000000000E+00 0. -1.
         11    1    3    3    0    0 -0.30608430035E+01  0.19429264318E+02 -0.17484800949E+02  0.26316978100E+02  0.51100000000E-03 0.  1.
        -11    1    3    3    0    0 -0.79747663853E+00  0.93892556919E+01 -0.11500996551E+02  0.14868322480E+02  0.51100000000E-03 0. -1.
         12    1    3    3    0    0 -0.13762314840E+01 -0.31649767105E+01 -0.56280491035E+01  0.66019714773E+01  0.00000000000E+00 0. -1.
</event>
<event>
 7    1  0.2459936E-009  0.4778728E+02  0.7816164E-02  0.1312668E+00
        -11   -1    0    0    0    0  0.00000000000E+00  0.00000000000E+00  0.45593999997E+02  0.45594000000E+02  0.51100000000E-03 0.  1.
         11   -1    0    0    0    0 -0.00000000000E+00 -0.00000000000E+00 -0.45593999997E+02  0.45594000000E+02  0.51100000000E-03 0. -1.
    9900012    2    1    2    0    0  0.18897311809E+02 -0.39061017723E+02 -0.86678196616E+00  0.47787276386E+02  0.20000024356E+02 0.  0.
         12    1    1    2    0    0 -0.18897311809E+02  0.39061017723E+02  0.86678196616E+00  0.43400723614E+02  0.00000000000E+00 0. -1.
         11    1    3    3    0    0 -0.28100423239E+01 -0.21790105891E+01 -0.26591309857E+01  0.44402030212E+01  0.51100000000E-03 0. -1.
        -11    1    3    3    0    0 -0.48814412493E+00 -0.67901766504E+00 -0.83446807975E-01  0.84042448026E+00  0.51100000000E-03 0.  1.
        -12    1    3    3    0    0  0.22195498258E+02 -0.36202989469E+02  0.18757958276E+01  0.42506648885E+02  0.00000000000E+00 0.  1.
</event>
<event>
 7    1  0.2459936E-009  0.4778727E+02  0.7816164E-02  0.1312668E+00
        -11   -1    0    0    0    0  0.00000000000E+00  0.00000000000E+00  0.45593999997E+02  0.45594000000E+02  0.51100000000E-03 0.  1.
         11   -1    0    0    0    0 -0.00000000000E+00 -0.00000000000E+00 -0.45593999997E+02  0.45594000000E+02  0.51100000000E-03 0. -1.
    9900012    2    1    2    0    0 -0.28368038931E+02  0.17693738893E+02  0.27673260054E+02  0.47787270158E+02  0.19999995960E+02 0.  0.
         12    1    1    2    0    0  0.28368038931E+02 -0.17693738893E+02 -0.27673260054E+02  0.43400729842E+02  0.00000000000E+00 0. -1.
         11    1    3    3    0    0 -0.11942236485E+02  0.87904757621E+01  0.42569589355E+01  0.15427610833E+02  0.51100000000E-03 0.  1.
        -11    1    3    3    0    0 -0.16446170613E+02  0.44698353168E+01  0.14397965706E+02  0.22310476739E+02  0.51100000000E-03 0. -1.
         12    1    3    3    0    0  0.20368166731E-01  0.44334278139E+01  0.90183354124E+01  0.10049182586E+02  0.00000000000E+00 0. -1.
</event>
<event>
 7    1  0.2459936E-009  0.4778727E+02  0.7816164E-02  0.1312668E+00
        -11   -1    0    0    0    0  0.00000000000E+00  0.00000000000E+00  0.45593999997E+02  0.45594000000E+02  0.51100000000E-03 0.  1.
         11   -1    0    0    0    0 -0.00000000000E+00 -0.00000000000E+00 -0.45593999997E+02  0.45594000000E+02  0.51100000000E-03 0. -1.
    9900012    2    1    2    0    0 -0.23018071676E+02  0.32907231793E+02  0.16459228381E+02  0.47787265826E+02  0.19999976205E+02 0.  0.
         12    1    1    2    0    0  0.23018071676E+02 -0.32907231793E+02 -0.16459228381E+02  0.43400734174E+02  0.00000000000E+00 0. -1.
         11    1    3    3    0    0  0.59993236423E+00  0.80201430140E+01  0.68745280046E+01  0.10580252755E+02  0.51100000000E-03 0. -1.
        -11    1    3    3    0    0 -0.10092740815E+02  0.17996018117E+02  0.71303274223E+01  0.21830292133E+02  0.51100000000E-03 0.  1.
        -12    1    3    3    0    0 -0.13525263225E+02  0.68910706623E+01  0.24543729544E+01  0.15376720937E+02  0.00000000000E+00 0.  1.
</event>
<event>
 7    1  0.2459936E-009  0.4778727E+02  0.7816164E-02  0.1312668E+00
        -11   -1    0    0    0    0  0.00000000000E+00  0.00000000000E+00  0.45593999997E+02  0.45594000000E+02  0.51100000000E-03 0.  1.
         11   -1    0    0    0    0 -0.00000000000E+00 -0.00000000000E+00 -0.45593999997E+02  0.45594000000E+02  0.51100000000E-03 0. -1.
    9900012    2    1    2    0    0  0.33471571650E+02  0.10800339969E+02  0.25428918792E+02  0.47787270016E+02  0.19999995312E+02 0.  0.
         12    1    1    2    0    0 -0.33471571650E+02 -0.10800339969E+02 -0.25428918792E+02  0.43400729984E+02  0.00000000000E+00 0. -1.
         11    1    3    3    0    0  0.58932286426E+01  0.39978816306E+01 -0.10161532937E+00  0.71220451629E+01  0.51100000000E-03 0. -1.
        -11    1    3    3    0    0  0.24895460759E+01 -0.16705065099E+01 -0.10194777606E+01  0.31666649379E+01  0.51100000000E-03 0.  1.
        -12    1    3    3    0    0  0.25088796932E+02  0.84729648485E+01  0.26550011882E+02  0.37498559916E+02  0.00000000000E+00 0.  1.
</event>
<event>
 7    1  0.2459936E-009  0.4778727E+02  0.7816164E-02  0.1312668E+00
        -11   -1    0    0    0    0  0.00000000000E+00  0.00000000000E+00  0.45593999997E+02  0.45594000000E+02  0.51100000000E-03 0.  1.
         11   -1    0    0    0    0 -0.00000000000E+00 -0.00000000000E+00 -0.45593999997E+02  0.45594000000E+02  0.51100000000E-03 0. -1.
    9900012    2    1    2    0    0  0.27572005573E+01  0.20750426092E+02  0.38018952524E+02  0.47787273175E+02  0.20000009713E+02 0.  0.
         12    1    1    2    0    0 -0.27572005573E+01 -0.20750426092E+02 -0.38018952524E+02  0.43400726825E+02  0.00000000000E+00 0. -1.
         11    1    3    3    0    0  0.64572227938E+00  0.50220166644E+01  0.11132986347E+02  0.12230330899E+02  0.51100000000E-03 0.  1.
        -11    1    3    3    0    0 -0.62149244224E+00  0.18934608226E+02  0.23256707647E+02  0.29996334649E+02  0.51100000000E-03 0. -1.
         12    1    3    3    0    0  0.27329707202E+01 -0.32061987989E+01  0.36292585299E+01  0.55606076262E+01  0.00000000000E+00 0. -1.
</event>
<event>
 7    1  0.2459936E-009  0.4778727E+02  0.7816164E-02  0.1312668E+00
        -11   -1    0    0    0    0  0.00000000000E+00  0.00000000000E+00  0.45593999997E+02  0.45594000000E+02  0.51100000000E-03 0. -1.
         11   -1    0    0    0    0 -0.00000000000E+00 -0.00000000000E+00 -0.45593999997E+02  0.45594000000E+02  0.51100000000E-03 0.  1.
    9900012    2    1    2    0    0 -0.41911746792E+02 -0.39250166070E+01 -0.10565179657E+02  0.47787270793E+02  0.19999998853E+02 0.  0.
         12    1    1    2    0    0  0.41911746792E+02  0.39250166070E+01  0.10565179657E+02  0.43400729207E+02  0.00000000000E+00 0. -1.
         11    1    3    3    0    0 -0.67968817358E+01 -0.50523343763E+01  0.68979290154E+00  0.84970288035E+01  0.51100000000E-03 0. -1.
        -11    1    3    3    0    0 -0.24109138284E+02 -0.49873165214E+01 -0.45869868734E+01  0.25043249065E+02  0.51100000000E-03 0.  1.
        -12    1    3    3    0    0 -0.11005726772E+02  0.61146342907E+01 -0.66679856848E+01  0.14246992925E+02  0.00000000000E+00 0.  1.
</event>
<event>
 7    1  0.2459936E-009  0.4778727E+02  0.7816164E-02  0.1312668E+00
        -11   -1    0    0    0    0  0.00000000000E+00  0.00000000000E+00  0.45593999997E+02  0.45594000000E+02  0.51100000000E-03 0.  1.
         11   -1    0    0    0    0 -0.00000000000E+00 -0.00000000000E+00 -0.45593999997E+02  0.45594000000E+02  0.51100000000E-03 0. -1.
    9900012    2    1    2    0    0  0.39678003380E+02 -0.14868098414E+02  0.93924937386E+01  0.47787271420E+02  0.20000001713E+02 0.  0.
         12    1    1    2    0    0 -0.39678003380E+02  0.14868098414E+02 -0.93924937386E+01  0.43400728580E+02  0.00000000000E+00 0. -1.
         11    1    3    3    0    0  0.79638173779E+01 -0.18284866515E+01 -0.24418269576E+01  0.85280871135E+01  0.51100000000E-03 0. -1.
        -11    1    3    3    0    0  0.14982265168E+02 -0.24246702715E+01 -0.16866506326E+01  0.15270628216E+02  0.51100000000E-03 0.  1.
         12    1    3    3    0    0  0.16731920834E+02 -0.10614941491E+02  0.13520971329E+02  0.23988556091E+02  0.00000000000E+00 0. -1.
</event>
<event>
 7    1  0.2459936E-009  0.4778727E+02  0.7816164E-02  0.1312668E+00
        -11   -1    0    0    0    0  0.00000000000E+00  0.00000000000E+00  0.45593999997E+02  0.45594000000E+02  0.51100000000E-03 0.  1.
         11   -1    0    0    0    0 -0.00000000000E+00 -0.00000000000E+00 -0.45593999997E+02  0.45594000000E+02  0.51100000000E-03 0. -1.
    9900012    2    1    2    0    0 -0.28537595011E+01  0.11435441498E+02  0.41769724886E+02  0.47787272096E+02  0.20000004794E+02 0.  0.
         12    1    1    2    0    0  0.28537595011E+01 -0.11435441498E+02 -0.41769724886E+02  0.43400727904E+02  0.00000000000E+00 0. -1.
         11    1    3    3    0    0  0.16803403176E+01  0.83246301294E+01  0.19640590390E+02  0.21398032655E+02  0.51100000000E-03 0. -1.
        -11    1    3    3    0    0 -0.72793886119E+01  0.60645127483E+01  0.19182866499E+02  0.21395097121E+02  0.51100000000E-03 0.  1.
         12    1    3    3    0    0  0.27452887932E+01 -0.29537013800E+01  0.29462679977E+01  0.49941423202E+01  0.00000000000E+00 0. -1.
</event>
<event>
 7    1  0.2459936E-009  0.4778728E+02  0.7816164E-02  0.1312668E+00
        -11   -1    0    0    0    0  0.00000000000E+00  0.00000000000E+00  0.45593999997E+02  0.45594000000E+02  0.51100000000E-03 0.  1.
         11   -1    0    0    0    0 -0.00000000000E+00 -0.00000000000E+00 -0.45593999997E+02  0.45594000000E+02  0.51100000000E-03 0. -1.
    9900012    2    1    2    0    0  0.13220928215E+02  0.22339483056E+02  0.34781849622E+02  0.47787279854E+02  0.20000040167E+02 0.  0.
         12    1    1    2    0    0 -0.13220928215E+02 -0.22339483056E+02 -0.34781849622E+02  0.43400720146E+02  0.00000000000E+00 0. -1.
         11    1    3    3    0    0  0.67154663208E+01  0.16138120064E+02  0.89672111707E+01  0.19645541060E+02  0.51100000000E-03 0. -1.
        -11    1    3    3    0    0  0.19261767852E+01  0.56873595214E+01  0.99505051419E+01  0.11621908973E+02  0.51100000000E-03 0.  1.
         12    1    3    3    0    0  0.45792851090E+01  0.51400347075E+00  0.15864133309E+02  0.16519829821E+02  0.00000000000E+00 0. -1.
</event>
<event>
 7    1  0.2459936E-009  0.4778727E+02  0.7816164E-02  0.1312668E+00
        -11   -1    0    0    0    0  0.00000000000E+00  0.00000000000E+00  0.45593999997E+02  0.45594000000E+02  0.51100000000E-03 0.  1.
         11   -1    0    0    0    0 -0.00000000000E+00 -0.00000000000E+00 -0.45593999997E+02  0.45594000000E+02  0.51100000000E-03 0. -1.
    9900012    2    1    2    0    0 -0.18763016880E+02 -0.19584714158E+02  0.33882318907E+02  0.47787269988E+02  0.19999995182E+02 0.  0.
         12    1    1    2    0    0  0.18763016880E+02  0.19584714158E+02 -0.33882318907E+02  0.43400730012E+02  0.00000000000E+00 0. -1.
         11    1    3    3    0    0 -0.20664949110E+01 -0.24560753213E+00 -0.20662431152E+00  0.20912718963E+01  0.51100000000E-03 0. -1.
        -11    1    3    3    0    0 -0.11378625755E+02 -0.21434526419E+02  0.24185846770E+02  0.34261745885E+02  0.51100000000E-03 0.  1.
        -12    1    3    3    0    0 -0.53178962148E+01  0.20954197925E+01  0.99030964484E+01  0.11434252207E+02  0.00000000000E+00 0.  1.
</event>
<event>
 7    1  0.2459936E-009  0.4778727E+02  0.7816164E-02  0.1312668E+00
        -11   -1    0    0    0    0  0.00000000000E+00  0.00000000000E+00  0.45593999997E+02  0.45594000000E+02  0.51100000000E-03 0.  1.
         11   -1    0    0    0    0 -0.00000000000E+00 -0.00000000000E+00 -0.45593999997E+02  0.45594000000E+02  0.51100000000E-03 0. -1.
    9900012    2    1    2    0    0  0.36604532312E+02  0.22502524213E+02  0.61129598156E+01  0.47787266602E+02  0.19999979746E+02 0.  0.
         12    1    1    2    0    0 -0.36604532312E+02 -0.22502524213E+02 -0.61129598156E+01  0.43400733398E+02  0.00000000000E+00 0. -1.
         11    1    3    3    0    0  0.16365201031E+02  0.15527128655E+02  0.45177779431E+01  0.23006995607E+02  0.51100000000E-03 0. -1.
        -11    1    3    3    0    0  0.95465256716E+01  0.38389497282E+01  0.69503537622E+01  0.12416968434E+02  0.51100000000E-03 0.  1.
         12    1    3    3    0    0  0.10692805610E+02  0.31364458293E+01 -0.53551718897E+01  0.12363302561E+02  0.00000000000E+00 0. -1.
</event>
<event>
 7    1  0.2459936E-009  0.4778727E+02  0.7816164E-02  0.1312668E+00
        -11   -1    0    0    0    0  0.00000000000E+00  0.00000000000E+00  0.45593999997E+02  0.45594000000E+02  0.51100000000E-03 0.  1.
         11   -1    0    0    0    0 -0.00000000000E+00 -0.00000000000E+00 -0.45593999997E+02  0.45594000000E+02  0.51100000000E-03 0. -1.
    9900012    2    1    2    0    0  0.25452698574E+02  0.13450083514E+02  0.32478896764E+02  0.47787270211E+02  0.19999996201E+02 0.  0.
         12    1    1    2    0    0 -0.25452698574E+02 -0.13450083514E+02 -0.32478896764E+02  0.43400729789E+02  0.00000000000E+00 0. -1.
         11    1    3    3    0    0  0.98288270959E+01  0.55517726482E+01  0.17992714230E+01  0.11430896707E+02  0.51100000000E-03 0. -1.
        -11    1    3    3    0    0  0.10439634368E+02  0.78424269996E+01  0.15234907071E+02  0.20064695879E+02  0.51100000000E-03 0.  1.
        -12    1    3    3    0    0  0.51842371095E+01  0.55883865742E-01  0.15444718269E+02  0.16291677625E+02  0.00000000000E+00 0.  1.
</event>
<event>
 7    1  0.2459936E-009  0.4778727E+02  0.7816164E-02  0.1312668E+00
        -11   -1    0    0    0    0  0.00000000000E+00  0.00000000000E+00  0.45593999997E+02  0.45594000000E+02  0.51100000000E-03 0. -1.
         11   -1    0    0    0    0 -0.00000000000E+00 -0.00000000000E+00 -0.45593999997E+02  0.45594000000E+02  0.51100000000E-03 0.  1.
    9900012    2    1    2    0    0  0.26562074144E+01 -0.42592023252E+02 -0.79049010547E+01  0.47787270246E+02  0.19999996360E+02 0.  0.
         12    1    1    2    0    0 -0.26562074144E+01  0.42592023252E+02  0.79049010547E+01  0.43400729754E+02  0.00000000000E+00 0. -1.
         11    1    3    3    0    0 -0.12838337887E+01 -0.12117193761E+02 -0.44329078404E+01  0.12966313509E+02  0.51100000000E-03 0. -1.
        -11    1    3    3    0    0 -0.38047602579E+01 -0.12781600879E+02 -0.71925219499E+01  0.15151828071E+02  0.51100000000E-03 0.  1.
         12    1    3    3    0    0  0.77448014611E+01 -0.17693228612E+02  0.37205287356E+01  0.19669128666E+02  0.00000000000E+00 0. -1.
</event>
<event>
 7    1  0.2459936E-009  0.4778728E+02  0.7816164E-02  0.1312668E+00
        -11   -1    0    0    0    0  0.00000000000E+00  0.00000000000E+00  0.45593999997E+02  0.45594000000E+02  0.51100000000E-03 0.  1.
         11   -1    0    0    0    0 -0.00000000000E+00 -0.00000000000E+00 -0.45593999997E+02  0.45594000000E+02  0.51100000000E-03 0. -1.
    9900012    2    1    2    0    0  0.11703665138E+02  0.34763128035E+01  0.41648074897E+02  0.47787277990E+02  0.20000031668E+02 0.  0.
         12    1    1    2    0    0 -0.11703665138E+02 -0.34763128035E+01 -0.41648074897E+02  0.43400722010E+02  0.00000000000E+00 0. -1.
         11    1    3    3    0    0  0.46126926216E+01 -0.59522081366E+01  0.21268712361E+02  0.22562443145E+02  0.51100000000E-03 0. -1.
        -11    1    3    3    0    0  0.77286634596E+01  0.40587846293E+01  0.85550610810E+01  0.12222726451E+02  0.51100000000E-03 0.  1.
        -12    1    3    3    0    0 -0.63769094318E+00  0.53697363108E+01  0.11824301455E+02  0.13002108394E+02  0.00000000000E+00 0.  1.
</event>
<event>
 7    1  0.2459936E-009  0.4778727E+02  0.7816164E-02  0.1312668E+00
        -11   -1    0    0    0    0  0.00000000000E+00  0.00000000000E+00  0.45593999997E+02  0.45594000000E+02  0.51100000000E-03 0. -1.
         11   -1    0    0    0    0 -0.00000000000E+00 -0.00000000000E+00 -0.45593999997E+02  0.45594000000E+02  0.51100000000E-03 0.  1.
    9900012    2    1    2    0    0  0.15654473752E+02 -0.24527830258E+01 -0.40404755818E+02  0.47787274364E+02  0.20000015135E+02 0.  0.
         12    1    1    2    0    0 -0.15654473752E+02  0.24527830258E+01  0.40404755818E+02  0.43400725636E+02  0.00000000000E+00 0. -1.
         11    1    3    3    0    0  0.29403089833E+01  0.49564326786E+01 -0.78231595665E+01  0.97166592859E+01  0.51100000000E-03 0. -1.
        -11    1    3    3    0    0  0.26890585271E+01 -0.15402976113E+01 -0.22430721060E+02  0.22643780603E+02  0.51100000000E-03 0.  1.
        -12    1    3    3    0    0  0.10025106242E+02 -0.58689180931E+01 -0.10150875192E+02  0.15426834474E+02  0.00000000000E+00 0.  1.
</event>
<event>
 7    1  0.2459936E-009  0.4778727E+02  0.7816164E-02  0.1312668E+00
        -11   -1    0    0    0    0  0.00000000000E+00  0.00000000000E+00  0.45593999997E+02  0.45594000000E+02  0.51100000000E-03 0.  1.
         11   -1    0    0    0    0 -0.00000000000E+00 -0.00000000000E+00 -0.45593999997E+02  0.45594000000E+02  0.51100000000E-03 0. -1.
    9900012    2    1    2    0    0  0.10334230511E+02 -0.39989078439E+02  0.13330446751E+02  0.47787268148E+02  0.19999986796E+02 0.  0.
         12    1    1    2    0    0 -0.10334230511E+02  0.39989078439E+02 -0.13330446751E+02  0.43400731852E+02  0.00000000000E+00 0. -1.
         11    1    3    3    0    0  0.60479885362E+01 -0.16449423282E+02  0.23623939241E+01  0.17684529877E+02  0.51100000000E-03 0. -1.
        -11    1    3    3    0    0  0.22302479216E+01 -0.24467983177E+02  0.12307024112E+02  0.27479429566E+02  0.51100000000E-03 0.  1.
        -12    1    3    3    0    0  0.20559940534E+01  0.92832802007E+00 -0.13389712850E+01  0.26233087052E+01  0.00000000000E+00 0.  1.
</event>
<event>
 7    1  0.2459936E-009  0.4778728E+02  0.7816164E-02  0.1312668E+00
        -11   -1    0    0    0    0  0.00000000000E+00  0.00000000000E+00  0.45593999997E+02  0.45594000000E+02  0.51100000000E-03 0.  1.
         11   -1    0    0    0    0 -0.00000000000E+00 -0.00000000000E+00 -0.45593999997E+02  0.45594000000E+02  0.51100000000E-03 0. -1.
    9900012    2    1    2    0    0 -0.35346867223E+02 -0.54405503115E+01  0.24589053667E+02  0.47787283757E+02  0.20000057963E+02 0.  0.
         12    1    1    2    0    0  0.35346867223E+02  0.54405503115E+01 -0.24589053667E+02  0.43400716243E+02  0.00000000000E+00 0. -1.
         11    1    3    3    0    0 -0.14308113543E+02  0.47238044945E+01  0.44218666767E+01  0.15703163606E+02  0.51100000000E-03 0. -1.
        -11    1    3    3    0    0 -0.11578012051E+02 -0.10905241715E+01  0.11590593434E+02  0.16418936093E+02  0.51100000000E-03 0.  1.
        -12    1    3    3    0    0 -0.94607416293E+01 -0.90738306345E+01  0.85765935558E+01  0.15665184058E+02  0.00000000000E+00 0.  1.
</event>
<event>
 7    1  0.2459936E-009  0.4778727E+02  0.7816164E-02  0.1312668E+00
        -11   -1    0    0    0    0  0.00000000000E+00  0.00000000000E+00  0.45593999997E+02  0.45594000000E+02  0.51100000000E-03 0. -1.
         11   -1    0    0    0    0 -0.00000000000E+00 -0.00000000000E+00 -0.45593999997E+02  0.45594000000E+02  0.51100000000E-03 0.  1.
    9900012    2    1    2    0    0 -0.12503208639E+02 -0.21119436397E+02 -0.35794729091E+02  0.47787269007E+02  0.19999990710E+02 0.  0.
         12    1    1    2    0    0  0.12503208639E+02  0.21119436397E+02  0.35794729091E+02  0.43400730993E+02  0.00000000000E+00 0. -1.
         11    1    3    3    0    0  0.14605370014E+01  0.10336492624E+01 -0.45496202517E+01  0.48888284717E+01  0.51100000000E-03 0. -1.
        -11    1    3    3    0    0 -0.70689779919E+01 -0.20290185429E+02 -0.18801834600E+02  0.28551200661E+02  0.51100000000E-03 0.  1.
         12    1    3    3    0    0 -0.68947676486E+01 -0.18629002305E+01 -0.12443274240E+02  0.14347239874E+02  0.00000000000E+00 0. -1.
</event>
<event>
 7    1  0.2459936E-009  0.4778727E+02  0.7816164E-02  0.1312668E+00
        -11   -1    0    0    0    0  0.00000000000E+00  0.00000000000E+00  0.45593999997E+02  0.45594000000E+02  0.51100000000E-03 0.  1.
         11   -1    0    0    0    0 -0.00000000000E+00 -0.00000000000E+00 -0.45593999997E+02  0.45594000000E+02  0.51100000000E-03 0. -1.
    9900012    2    1    2    0    0  0.70845899364E+00  0.42976431068E+02  0.60122806531E+01  0.47787273507E+02  0.20000011229E+02 0.  0.
         12    1    1    2    0    0 -0.70845899364E+00 -0.42976431068E+02 -0.60122806531E+01  0.43400726493E+02  0.00000000000E+00 0. -1.
         11    1    3    3    0    0 -0.14039425786E+01  0.56851414852E+01 -0.36106984186E+01  0.68796098583E+01  0.51100000000E-03 0. -1.
        -11    1    3    3    0    0 -0.88251803560E+00 -0.10033444770E+01  0.14536925518E+00  0.13441245122E+01  0.51100000000E-03 0.  1.
        -12    1    3    3    0    0  0.29949196079E+01  0.38294634059E+02  0.94776098165E+01  0.39563539137E+02  0.00000000000E+00 0.  1.
</event>
<event>
 7    1  0.2459936E-009  0.4778727E+02  0.7816164E-02  0.1312668E+00
        -11   -1    0    0    0    0  0.00000000000E+00  0.00000000000E+00  0.45593999997E+02  0.45594000000E+02  0.51100000000E-03 0.  1.
         11   -1    0    0    0    0 -0.00000000000E+00 -0.00000000000E+00 -0.45593999997E+02  0.45594000000E+02  0.51100000000E-03 0. -1.
    9900012    2    1    2    0    0 -0.12916481024E+02 -0.14061307299E+02  0.38975215451E+02  0.47787271153E+02  0.20000000494E+02 0.  0.
         12    1    1    2    0    0  0.12916481024E+02  0.14061307299E+02 -0.38975215451E+02  0.43400728847E+02  0.00000000000E+00 0. -1.
         11    1    3    3    0    0  0.25748702670E+01 -0.50799604326E+01  0.14425313326E+01  0.58751044072E+01  0.51100000000E-03 0. -1.
        -11    1    3    3    0    0 -0.17390695330E+01 -0.16563574714E+01  0.20444159355E+01  0.31539688794E+01  0.51100000000E-03 0.  1.
        -12    1    3    3    0    0 -0.13752281758E+02 -0.73249893947E+01  0.35488268183E+02  0.38758197866E+02  0.00000000000E+00 0.  1.
</event>
<event>
 7    1  0.2459936E-009  0.4778727E+02  0.7816164E-02  0.1312668E+00
        -11   -1    0    0    0    0  0.00000000000E+00  0.00000000000E+00  0.45593999997E+02  0.45594000000E+02  0.51100000000E-03 0.  1.
         11   -1    0    0    0    0 -0.00000000000E+00 -0.00000000000E+00 -0.45593999997E+02  0.45594000000E+02  0.51100000000E-03 0. -1.
    9900012    2    1    2    0    0 -0.16075502352E+02 -0.18240427602E+01  0.40272503205E+02  0.47787269335E+02  0.19999992204E+02 0.  0.
         12    1    1    2    0    0  0.16075502352E+02  0.18240427602E+01 -0.40272503205E+02  0.43400730665E+02  0.00000000000E+00 0. -1.
         11    1    3    3    0    0 -0.14185996516E+02 -0.37823360985E+01  0.22911065894E+02  0.27211495809E+02  0.51100000000E-03 0. -1.
        -11    1    3    3    0    0 -0.43104210408E+01 -0.14052675817E+01  0.15279659228E+02  0.15938083101E+02  0.51100000000E-03 0.  1.
         12    1    3    3    0    0  0.24209152044E+01  0.33635609200E+01  0.20817780827E+01  0.46376904246E+01  0.00000000000E+00 0. -1.
</event>
<event>
 7    1  0.2459936E-009  0.4778727E+02  0.7816164E-02  0.1312668E+00
        -11   -1    0    0    0    0  0.00000000000E+00  0.00000000000E+00  0.45593999997E+02  0.45594000000E+02  0.51100000000E-03 0.  1.
         11   -1    0    0    0    0 -0.00000000000E+00 -0.00000000000E+00 -0.45593999997E+02  0.45594000000E+02  0.51100000000E-03 0. -1.
    9900012    2    1    2    0    0 -0.39340588587E+01  0.38490355470E+02  0.19663147714E+02  0.47787266581E+02  0.19999979647E+02 0.  0.
         12    1    1    2    0    0  0.39340588587E+01 -0.38490355470E+02 -0.19663147714E+02  0.43400733419E+02  0.00000000000E+00 0. -1.
         11    1    3    3    0    0 -0.32625146561E+00  0.83037167860E+01  0.64290416228E+01  0.10506699240E+02  0.51100000000E-03 0. -1.
        -11    1    3    3    0    0  0.17664116053E+01  0.23022217136E+02  0.23855461837E+01  0.23212787912E+02  0.51100000000E-03 0.  1.
        -12    1    3    3    0    0 -0.53742189984E+01  0.71644215485E+01  0.10848559907E+02  0.14067779428E+02  0.00000000000E+00 0.  1.
</event>
<event>
 7    1  0.2459936E-009  0.4778727E+02  0.7816164E-02  0.1312668E+00
        -11   -1    0    0    0    0  0.00000000000E+00  0.00000000000E+00  0.45593999997E+02  0.45594000000E+02  0.51100000000E-03 0.  1.
         11   -1    0    0    0    0 -0.00000000000E+00 -0.00000000000E+00 -0.45593999997E+02  0.45594000000E+02  0.51100000000E-03 0. -1.
    9900012    2    1    2    0    0 -0.13663833752E+02  0.59565869111E+01  0.40760788062E+02  0.47787272773E+02  0.20000007880E+02 0.  0.
         12    1    1    2    0    0  0.13663833752E+02 -0.59565869111E+01 -0.40760788062E+02  0.43400727227E+02  0.00000000000E+00 0. -1.
         11    1    3    3    0    0 -0.11693664659E+01  0.29212821465E+01  0.19901923472E+02  0.20149140563E+02  0.51100000000E-03 0. -1.
        -11    1    3    3    0    0 -0.10383894579E+02  0.18283080245E+00  0.21641507940E+02  0.24004448752E+02  0.51100000000E-03 0.  1.
         12    1    3    3    0    0 -0.21105727062E+01  0.28524739621E+01 -0.78264334925E+00  0.36336834569E+01  0.00000000000E+00 0. -1.
</event>
<event>
 7    1  0.2459936E-009  0.4778727E+02  0.7816164E-02  0.1312668E+00
        -11   -1    0    0    0    0  0.00000000000E+00  0.00000000000E+00  0.45593999997E+02  0.45594000000E+02  0.51100000000E-03 0.  1.
         11   -1    0    0    0    0 -0.00000000000E+00 -0.00000000000E+00 -0.45593999997E+02  0.45594000000E+02  0.51100000000E-03 0. -1.
    9900012    2    1    2    0    0 -0.52369070691E+01 -0.30631207926E+01  0.42974593650E+02  0.47787267241E+02  0.19999982657E+02 0.  0.
         12    1    1    2    0    0  0.52369070691E+01  0.30631207926E+01 -0.42974593650E+02  0.43400732759E+02  0.00000000000E+00 0. -1.
         11    1    3    3    0    0  0.44141373879E+01  0.99769593535E+00  0.50427222979E+01  0.67756220743E+01  0.51100000000E-03 0. -1.
        -11    1    3    3    0    0 -0.20860475266E+01  0.17255004500E+01  0.23899491131E+02  0.24052330920E+02  0.51100000000E-03 0.  1.
        -12    1    3    3    0    0 -0.75649969304E+01 -0.57863171779E+01  0.14032380221E+02  0.16959314247E+02  0.00000000000E+00 0.  1.
</event>
<event>
 7    1  0.2459936E-009  0.4778727E+02  0.7816164E-02  0.1312668E+00
        -11   -1    0    0    0    0  0.00000000000E+00  0.00000000000E+00  0.45593999997E+02  0.45594000000E+02  0.51100000000E-03 0. -1.
         11   -1    0    0    0    0 -0.00000000000E+00 -0.00000000000E+00 -0.45593999997E+02  0.45594000000E+02  0.51100000000E-03 0.  1.
    9900012    2    1    2    0    0 -0.19621311523E+01  0.25529216708E+02 -0.35043292918E+02  0.47787271401E+02  0.20000001626E+02 0.  0.
         12    1    1    2    0    0  0.19621311523E+01 -0.25529216708E+02  0.35043292918E+02  0.43400728599E+02  0.00000000000E+00 0. -1.
         11    1    3    3    0    0  0.95656436021E+00  0.85810207645E+01 -0.20774500997E+02  0.22497307053E+02  0.51100000000E-03 0. -1.
        -11    1    3    3    0    0 -0.16718057174E+01  0.14787374200E+02 -0.16300996307E+02  0.22072241638E+02  0.51100000000E-03 0.  1.
         12    1    3    3    0    0 -0.12468897951E+01  0.21608217438E+01  0.20322043857E+01  0.32177227094E+01  0.00000000000E+00 0. -1.
</event>
<event>
 7    1  0.2459936E-009  0.4778725E+02  0.7816164E-02  0.1312668E+00
        -11   -1    0    0    0    0  0.00000000000E+00  0.00000000000E+00  0.45593999997E+02  0.45594000000E+02  0.51100000000E-03 0. -1.
         11   -1    0    0    0    0 -0.00000000000E+00 -0.00000000000E+00 -0.45593999997E+02  0.45594000000E+02  0.51100000000E-03 0.  1.
    9900012    2    1    2    0    0 -0.57228084452E+00 -0.38438931771E+01 -0.43226409372E+02  0.47787245544E+02  0.19999883733E+02 0.  0.
         12    1    1    2    0    0  0.57228084452E+00  0.38438931771E+01  0.43226409372E+02  0.43400754456E+02  0.00000000000E+00 0. -1.
         11    1    3    3    0    0 -0.27848197256E+00 -0.25088780514E+01 -0.28301182054E+02  0.28413534226E+02  0.51100000000E-03 0. -1.
        -11    1    3    3    0    0  0.46832680633E+01 -0.10998260595E+01 -0.13283208841E+02  0.14127499937E+02  0.51100000000E-03 0.  1.
         12    1    3    3    0    0 -0.49770669352E+01 -0.23518906623E+00 -0.16420184780E+01  0.52462113812E+01  0.00000000000E+00 0. -1.
</event>
<event>
 7    1  0.2459936E-009  0.4778726E+02  0.7816164E-02  0.1312668E+00
        -11   -1    0    0    0    0  0.00000000000E+00  0.00000000000E+00  0.45593999997E+02  0.45594000000E+02  0.51100000000E-03 0. -1.
         11   -1    0    0    0    0 -0.00000000000E+00 -0.00000000000E+00 -0.45593999997E+02  0.45594000000E+02  0.51100000000E-03 0.  1.
    9900012    2    1    2    0    0 -0.15964292678E+02  0.39473790617E+02 -0.84015008057E+01  0.47787262653E+02  0.19999961742E+02 0.  0.
         12    1    1    2    0    0  0.15964292678E+02 -0.39473790617E+02  0.84015008057E+01  0.43400737347E+02  0.00000000000E+00 0. -1.
         11    1    3    3    0    0  0.19716944664E+01 -0.98016352189E-01 -0.19932875257E+01  0.28054200569E+01  0.51100000000E-03 0.  1.
        -11    1    3    3    0    0 -0.11788530544E+02  0.14878500161E+02 -0.41806385693E+01  0.19437514207E+02  0.51100000000E-03 0. -1.
        -12    1    3    3    0    0 -0.61474566008E+01  0.24693306808E+02 -0.22275747106E+01  0.25544328390E+02  0.00000000000E+00 0.  1.
</event>
<event>
 7    1  0.2459936E-009  0.4778732E+02  0.7816164E-02  0.1312668E+00
        -11   -1    0    0    0    0  0.00000000000E+00  0.00000000000E+00  0.45593999997E+02  0.45594000000E+02  0.51100000000E-03 0. -1.
         11   -1    0    0    0    0 -0.00000000000E+00 -0.00000000000E+00 -0.45593999997E+02  0.45594000000E+02  0.51100000000E-03 0.  1.
    9900012    2    1    2    0    0  0.30673715075E+02  0.18754715914E+02 -0.24310548843E+02  0.47787320851E+02  0.20000227085E+02 0.  0.
         12    1    1    2    0    0 -0.30673715075E+02 -0.18754715914E+02  0.24310548843E+02  0.43400679149E+02  0.00000000000E+00 0. -1.
         11    1    3    3    0    0  0.11506469886E+01  0.40216207093E+01 -0.61735369377E+01  0.74572099477E+01  0.51100000000E-03 0. -1.
        -11    1    3    3    0    0  0.69237555271E+01 -0.25696820079E+01 -0.21825553395E+01  0.77009872284E+01  0.51100000000E-03 0.  1.
        -12    1    3    3    0    0  0.22599312560E+02  0.17302777213E+02 -0.15954456566E+02  0.32629123675E+02  0.00000000000E+00 0.  1.
</event>
<event>
 7    1  0.2459936E-009  0.4778727E+02  0.7816164E-02  0.1312668E+00
        -11   -1    0    0    0    0  0.00000000000E+00  0.00000000000E+00  0.45593999997E+02  0.45594000000E+02  0.51100000000E-03 0. -1.
         11   -1    0    0    0    0 -0.00000000000E+00 -0.00000000000E+00 -0.45593999997E+02  0.45594000000E+02  0.51100000000E-03 0.  1.
    9900012    2    1    2    0    0 -0.53579254749E+01 -0.43031837173E+02 -0.17823862903E+01  0.47787271011E+02  0.19999999849E+02 0.  0.
         12    1    1    2    0    0  0.53579254749E+01  0.43031837173E+02  0.17823862903E+01  0.43400728989E+02  0.00000000000E+00 0. -1.
         11    1    3    3    0    0 -0.18613317649E+01 -0.51674792135E+01  0.54826858000E+01  0.77606211867E+01  0.51100000000E-03 0. -1.
        -11    1    3    3    0    0 -0.30090410519E+01 -0.37702241324E+01 -0.29569315691E+01  0.56579468561E+01  0.51100000000E-03 0.  1.
         12    1    3    3    0    0 -0.48755265801E+00 -0.34094133827E+02 -0.43081405211E+01  0.34368702969E+02  0.00000000000E+00 0. -1.
</event>
<event>
 7    1  0.2459936E-009  0.4778727E+02  0.7816164E-02  0.1312668E+00
        -11   -1    0    0    0    0  0.00000000000E+00  0.00000000000E+00  0.45593999997E+02  0.45594000000E+02  0.51100000000E-03 0.  1.
         11   -1    0    0    0    0 -0.00000000000E+00 -0.00000000000E+00 -0.45593999997E+02  0.45594000000E+02  0.51100000000E-03 0. -1.
    9900012    2    1    2    0    0  0.10835265662E+02 -0.56210032355E+01  0.41648823978E+02  0.47787271918E+02  0.20000003981E+02 0.  0.
         12    1    1    2    0    0 -0.10835265662E+02  0.56210032355E+01 -0.41648823978E+02  0.43400728082E+02  0.00000000000E+00 0. -1.
         11    1    3    3    0    0  0.45110533819E+01  0.65019323394E+01  0.15097994244E+02  0.17046235867E+02  0.51100000000E-03 0.  1.
        -11    1    3    3    0    0 -0.75760789129E+00 -0.29337828579E+01  0.21275313959E+01  0.37023562329E+01  0.51100000000E-03 0. -1.
        -12    1    3    3    0    0  0.70818201711E+01 -0.91891527170E+01  0.24423298338E+02  0.27038679818E+02  0.00000000000E+00 0.  1.
</event>
<event>
 7    1  0.2459936E-009  0.4778727E+02  0.7816164E-02  0.1312668E+00
        -11   -1    0    0    0    0  0.00000000000E+00  0.00000000000E+00  0.45593999997E+02  0.45594000000E+02  0.51100000000E-03 0.  1.
         11   -1    0    0    0    0 -0.00000000000E+00 -0.00000000000E+00 -0.45593999997E+02  0.45594000000E+02  0.51100000000E-03 0. -1.
    9900012    2    1    2    0    0  0.26306805263E+02  0.15839648165E+02  0.30670521838E+02  0.47787269973E+02  0.19999995113E+02 0.  0.
         12    1    1    2    0    0 -0.26306805263E+02 -0.15839648165E+02 -0.30670521838E+02  0.43400730027E+02  0.00000000000E+00 0. -1.
         11    1    3    3    0    0  0.24965271676E+01  0.86438855377E+01  0.11309007295E+02  0.14451403092E+02  0.51100000000E-03 0. -1.
        -11    1    3    3    0    0  0.58200251454E+01  0.69545788738E+01  0.53255328137E+01  0.10516661068E+02  0.51100000000E-03 0.  1.
         12    1    3    3    0    0  0.17990252950E+02  0.24118375349E+00  0.14035981729E+02  0.22819205812E+02  0.00000000000E+00 0. -1.
</event>
<event>
 7    1  0.2459936E-009  0.4778727E+02  0.7816164E-02  0.1312668E+00
        -11   -1    0    0    0    0  0.00000000000E+00  0.00000000000E+00  0.45593999997E+02  0.45594000000E+02  0.51100000000E-03 0.  1.
         11   -1    0    0    0    0 -0.00000000000E+00 -0.00000000000E+00 -0.45593999997E+02  0.45594000000E+02  0.51100000000E-03 0. -1.
    9900012    2    1    2    0    0  0.18158944424E+02 -0.38189457576E+02  0.97694153729E+01  0.47787269485E+02  0.19999992890E+02 0.  0.
         12    1    1    2    0    0 -0.18158944424E+02  0.38189457576E+02 -0.97694153729E+01  0.43400730515E+02  0.00000000000E+00 0. -1.
         11    1    3    3    0    0  0.48243973482E+01 -0.31024978486E+01  0.45349996916E+01  0.73120807666E+01  0.51100000000E-03 0. -1.
        -11    1    3    3    0    0  0.64322274245E+01 -0.77681218825E+01 -0.39609510463E+01  0.10835423419E+02  0.51100000000E-03 0.  1.
        -12    1    3    3    0    0  0.69023196511E+01 -0.27318837844E+02  0.91953667276E+01  0.29639765299E+02  0.00000000000E+00 0.  1.
</event>
<event>
 7    1  0.2459936E-009  0.4778727E+02  0.7816164E-02  0.1312668E+00
        -11   -1    0    0    0    0  0.00000000000E+00  0.00000000000E+00  0.45593999997E+02  0.45594000000E+02  0.51100000000E-03 0.  1.
         11   -1    0    0    0    0 -0.00000000000E+00 -0.00000000000E+00 -0.45593999997E+02  0.45594000000E+02  0.51100000000E-03 0. -1.
    9900012    2    1    2    0    0 -0.16894922867E+02  0.39086499337E+02  0.83922824607E+01  0.47787271273E+02  0.20000001043E+02 0.  0.
         12    1    1    2    0    0  0.16894922867E+02 -0.39086499337E+02 -0.83922824607E+01  0.43400728727E+02  0.00000000000E+00 0. -1.
         11    1    3    3    0    0 -0.88239550398E+01  0.18392404570E+02 -0.75548410908E+00  0.20413561299E+02  0.51100000000E-03 0. -1.
        -11    1    3    3    0    0 -0.68531032710E+01  0.22532437600E+02  0.79069133262E+01  0.24843410540E+02  0.51100000000E-03 0.  1.
         12    1    3    3    0    0 -0.12178645562E+01 -0.18383428337E+01  0.12408532436E+01  0.25302994336E+01  0.00000000000E+00 0. -1.
</event>
<event>
 7    1  0.2459936E-009  0.4778727E+02  0.7816164E-02  0.1312668E+00
        -11   -1    0    0    0    0  0.00000000000E+00  0.00000000000E+00  0.45593999997E+02  0.45594000000E+02  0.51100000000E-03 0.  1.
         11   -1    0    0    0    0 -0.00000000000E+00 -0.00000000000E+00 -0.45593999997E+02  0.45594000000E+02  0.51100000000E-03 0. -1.
    9900012    2    1    2    0    0 -0.45048683094E+01 -0.85022619482E+01  0.42320688593E+02  0.47787274433E+02  0.20000015450E+02 0.  0.
         12    1    1    2    0    0  0.45048683094E+01  0.85022619482E+01 -0.42320688593E+02  0.43400725567E+02  0.00000000000E+00 0. -1.
         11    1    3    3    0    0  0.16422504378E+01 -0.55618071285E+01  0.17963389270E+02  0.18876282456E+02  0.51100000000E-03 0. -1.
        -11    1    3    3    0    0 -0.84060833072E-01 -0.36190299321E+01  0.22117717205E+02  0.22412002554E+02  0.51100000000E-03 0.  1.
         12    1    3    3    0    0 -0.60630579142E+01  0.67857511241E+00  0.22395821189E+01  0.64989894231E+01  0.00000000000E+00 0. -1.
</event>
<event>
 7    1  0.2459936E-009  0.4778727E+02  0.7816164E-02  0.1312668E+00
        -11   -1    0    0    0    0  0.00000000000E+00  0.00000000000E+00  0.45593999997E+02  0.45594000000E+02  0.51100000000E-03 0.  1.
         11   -1    0    0    0    0 -0.00000000000E+00 -0.00000000000E+00 -0.45593999997E+02  0.45594000000E+02  0.51100000000E-03 0. -1.
    9900012    2    1    2    0    0  0.33546694099E+02 -0.26586048710E+02 -0.71710858872E+01  0.47787272543E+02  0.20000006832E+02 0.  0.
         12    1    1    2    0    0 -0.33546694099E+02  0.26586048710E+02  0.71710858872E+01  0.43400727457E+02  0.00000000000E+00 0. -1.
         11    1    3    3    0    0 -0.64900942785E+00 -0.25815371753E+01  0.11675301905E+01  0.29066603571E+01  0.51100000000E-03 0. -1.
        -11    1    3    3    0    0  0.22030460172E+02 -0.22115023836E+02 -0.26774094633E+01  0.31330240605E+02  0.51100000000E-03 0.  1.
         12    1    3    3    0    0  0.12165243354E+02 -0.18894876985E+01 -0.56612066145E+01  0.13550371580E+02  0.00000000000E+00 0. -1.
</event>
<event>
 7    1  0.2459936E-009  0.4778727E+02  0.7816164E-02  0.1312668E+00
        -11   -1    0    0    0    0  0.00000000000E+00  0.00000000000E+00  0.45593999997E+02  0.45594000000E+02  0.51100000000E-03 0. -1.
         11   -1    0    0    0    0 -0.00000000000E+00 -0.00000000000E+00 -0.45593999997E+02  0.45594000000E+02  0.51100000000E-03 0.  1.
    9900012    2    1    2    0    0 -0.38018696125E+02 -0.39287356456E+01  0.20561297164E+02  0.47787272358E+02  0.20000005989E+02 0.  0.
         12    1    1    2    0    0  0.38018696125E+02  0.39287356456E+01 -0.20561297164E+02  0.43400727642E+02  0.00000000000E+00 0. -1.
         11    1    3    3    0    0  0.31868629885E+00  0.60922099128E+00  0.18454886710E+01  0.19694008910E+01  0.51100000000E-03 0. -1.
        -11    1    3    3    0    0 -0.53806023301E+01  0.51166143674E+01  0.24505409721E+01  0.78189369697E+01  0.51100000000E-03 0.  1.
        -12    1    3    3    0    0 -0.32956780093E+02 -0.96545710043E+01  0.16265267521E+02  0.37998934497E+02  0.00000000000E+00 0.  1.
</event>
<event>
 7    1  0.2459936E-009  0.4778727E+02  0.7816164E-02  0.1312668E+00
        -11   -1    0    0    0    0  0.00000000000E+00  0.00000000000E+00  0.45593999997E+02  0.45594000000E+02  0.51100000000E-03 0. -1.
         11   -1    0    0    0    0 -0.00000000000E+00 -0.00000000000E+00 -0.45593999997E+02  0.45594000000E+02  0.51100000000E-03 0.  1.
    9900012    2    1    2    0    0  0.39656288434E+02 -0.87711175524E+01 -0.15299332304E+02  0.47787270923E+02  0.19999999445E+02 0.  0.
         12    1    1    2    0    0 -0.39656288434E+02  0.87711175524E+01  0.15299332304E+02  0.43400729077E+02  0.00000000000E+00 0. -1.
         11    1    3    3    0    0  0.67192835402E+01  0.11330615235E+01 -0.29436162569E+00  0.68205020883E+01  0.51100000000E-03 0. -1.
        -11    1    3    3    0    0  0.32474910106E+02 -0.92928739529E+01 -0.17721068272E+02  0.38144639907E+02  0.51100000000E-03 0.  1.
         12    1    3    3    0    0  0.46209478779E+00 -0.61130512296E+00  0.27160975931E+01  0.28221289272E+01  0.00000000000E+00 0. -1.
</event>
<event>
 7    1  0.2459936E-009  0.4778727E+02  0.7816164E-02  0.1312668E+00
        -11   -1    0    0    0    0  0.00000000000E+00  0.00000000000E+00  0.45593999997E+02  0.45594000000E+02  0.51100000000E-03 0.  1.
         11   -1    0    0    0    0 -0.00000000000E+00 -0.00000000000E+00 -0.45593999997E+02  0.45594000000E+02  0.51100000000E-03 0. -1.
    9900012    2    1    2    0    0 -0.33145391818E+02 -0.23392515974E+02  0.15420651659E+02  0.47787270744E+02  0.19999998631E+02 0.  0.
         12    1    1    2    0    0  0.33145391818E+02  0.23392515974E+02 -0.15420651659E+02  0.43400729256E+02  0.00000000000E+00 0. -1.
         11    1    3    3    0    0 -0.65180455005E+01 -0.32581212156E+01 -0.14964741747E+00  0.72885297292E+01  0.51100000000E-03 0. -1.
        -11    1    3    3    0    0 -0.17635361766E+02 -0.36327380412E+01  0.11199732672E+02  0.21204640588E+02  0.51100000000E-03 0.  1.
         12    1    3    3    0    0 -0.89919845516E+01 -0.16501656717E+02  0.43705664050E+01  0.19294100427E+02  0.00000000000E+00 0. -1.
</event>
<event>
 7    1  0.2459936E-009  0.4778727E+02  0.7816164E-02  0.1312668E+00
        -11   -1    0    0    0    0  0.00000000000E+00  0.00000000000E+00  0.45593999997E+02  0.45594000000E+02  0.51100000000E-03 0. -1.
         11   -1    0    0    0    0 -0.00000000000E+00 -0.00000000000E+00 -0.45593999997E+02  0.45594000000E+02  0.51100000000E-03 0.  1.
    9900012    2    1    2    0    0 -0.98015399446E+00  0.26729771794E+02 -0.34178677684E+02  0.47787269474E+02  0.19999992838E+02 0.  0.
         12    1    1    2    0    0  0.98015399446E+00 -0.26729771794E+02  0.34178677684E+02  0.43400730526E+02  0.00000000000E+00 0. -1.
         11    1    3    3    0    0 -0.19252883584E+01  0.12190089907E+02 -0.64720069804E+01  0.13935275448E+02  0.51100000000E-03 0.  1.
        -11    1    3    3    0    0  0.41581623378E+01  0.73790483166E+01 -0.50194757138E+01  0.98455982443E+01  0.51100000000E-03 0. -1.
         12    1    3    3    0    0 -0.32130279739E+01  0.71606335701E+01 -0.22687194990E+02  0.24006395781E+02  0.00000000000E+00 0. -1.
</event>
<event>
 7    1  0.2459936E-009  0.4778727E+02  0.7816164E-02  0.1312668E+00
        -11   -1    0    0    0    0  0.00000000000E+00  0.00000000000E+00  0.45593999997E+02  0.45594000000E+02  0.51100000000E-03 0. -1.
         11   -1    0    0    0    0 -0.00000000000E+00 -0.00000000000E+00 -0.45593999997E+02  0.45594000000E+02  0.51100000000E-03 0.  1.
    9900012    2    1    2    0    0  0.42396047684E+01 -0.43136251190E+02 -0.22165961170E+01  0.47787265978E+02  0.19999976898E+02 0.  0.
         12    1    1    2    0    0 -0.42396047684E+01  0.43136251190E+02  0.22165961170E+01  0.43400734022E+02  0.00000000000E+00 0. -1.
         11    1    3    3    0    0 -0.33552354255E+01 -0.10497666307E+02 -0.42024985225E+01  0.11794897064E+02  0.51100000000E-03 0. -1.
        -11    1    3    3    0    0 -0.18033713524E+01 -0.98123319722E-01 -0.86430405304E+00  0.20021983363E+01  0.51100000000E-03 0.  1.
        -12    1    3    3    0    0  0.93982115463E+01 -0.32540461563E+02  0.28502064585E+01  0.33990170577E+02  0.00000000000E+00 0.  1.
</event>
<event>
 7    1  0.2459936E-009  0.4778727E+02  0.7816164E-02  0.1312668E+00
        -11   -1    0    0    0    0  0.00000000000E+00  0.00000000000E+00  0.45593999997E+02  0.45594000000E+02  0.51100000000E-03 0.  1.
         11   -1    0    0    0    0 -0.00000000000E+00 -0.00000000000E+00 -0.45593999997E+02  0.45594000000E+02  0.51100000000E-03 0. -1.
    9900012    2    1    2    0    0  0.38167376689E+02  0.14464112715E+02  0.14753442628E+02  0.47787271097E+02  0.20000000239E+02 0.  0.
         12    1    1    2    0    0 -0.38167376689E+02 -0.14464112715E+02 -0.14753442628E+02  0.43400728903E+02  0.00000000000E+00 0. -1.
         11    1    3    3    0    0  0.11590429405E+02  0.79891878483E+01  0.12885066641E+02  0.19083765846E+02  0.51100000000E-03 0. -1.
        -11    1    3    3    0    0  0.82534323398E+01 -0.10628984212E+01  0.30301089524E+01  0.88560972762E+01  0.51100000000E-03 0.  1.
         12    1    3    3    0    0  0.18323514944E+02  0.75378232876E+01 -0.11617329650E+01  0.19847407974E+02  0.00000000000E+00 0. -1.
</event>
<event>
 7    1  0.2459936E-009  0.4778727E+02  0.7816164E-02  0.1312668E+00
        -11   -1    0    0    0    0  0.00000000000E+00  0.00000000000E+00  0.45593999997E+02  0.45594000000E+02  0.51100000000E-03 0. -1.
         11   -1    0    0    0    0 -0.00000000000E+00 -0.00000000000E+00 -0.45593999997E+02  0.45594000000E+02  0.51100000000E-03 0.  1.
    9900012    2    1    2    0    0 -0.25021869007E+02  0.73182675903E+01 -0.34698305452E+02  0.47787269933E+02  0.19999994932E+02 0.  0.
         12    1    1    2    0    0  0.25021869007E+02 -0.73182675903E+01  0.34698305452E+02  0.43400730067E+02  0.00000000000E+00 0. -1.
         11    1    3    3    0    0 -0.69352186810E+01  0.47438043964E+01 -0.15694293249E+02  0.17802016154E+02  0.51100000000E-03 0. -1.
        -11    1    3    3    0    0  0.65090561027E+00 -0.33545857362E+01 -0.39899995820E+01  0.52532866380E+01  0.51100000000E-03 0.  1.
        -12    1    3    3    0    0 -0.18737555936E+02  0.59290489300E+01 -0.15014012621E+02  0.24731967141E+02  0.00000000000E+00 0.  1.
</event>
<event>
 7    1  0.2459936E-009  0.4778728E+02  0.7816164E-02  0.1312668E+00
        -11   -1    0    0    0    0  0.00000000000E+00  0.00000000000E+00  0.45593999997E+02  0.45594000000E+02  0.51100000000E-03 0. -1.
         11   -1    0    0    0    0 -0.00000000000E+00 -0.00000000000E+00 -0.45593999997E+02  0.45594000000E+02  0.51100000000E-03 0.  1.
    9900012    2    1    2    0    0  0.14093225235E+02 -0.11520638922E+02 -0.39398964590E+02  0.47787279620E+02  0.20000039101E+02 0.  0.
         12    1    1    2    0    0 -0.14093225235E+02  0.11520638922E+02  0.39398964590E+02  0.43400720380E+02  0.00000000000E+00 0. -1.
         11    1    3    3    0    0  0.52706774998E+01 -0.79413913902E+01 -0.24106865965E+02  0.25922706753E+02  0.51100000000E-03 0. -1.
        -11    1    3    3    0    0  0.14989254630E+01 -0.69258200133E+01 -0.98966953706E+01  0.12172031052E+02  0.51100000000E-03 0.  1.
         12    1    3    3    0    0  0.73236222719E+01  0.33465724817E+01 -0.53954032550E+01  0.96925418152E+01  0.00000000000E+00 0. -1.
</event>
<event>
 7    1  0.2459936E-009  0.4778727E+02  0.7816164E-02  0.1312668E+00
        -11   -1    0    0    0    0  0.00000000000E+00  0.00000000000E+00  0.45593999997E+02  0.45594000000E+02  0.51100000000E-03 0. -1.
         11   -1    0    0    0    0 -0.00000000000E+00 -0.00000000000E+00 -0.45593999997E+02  0.45594000000E+02  0.51100000000E-03 0.  1.
    9900012    2    1    2    0    0 -0.62320928746E+01 -0.65873982573E+01 -0.42442790311E+02  0.47787271357E+02  0.20000001423E+02 0.  0.
         12    1    1    2    0    0  0.62320928746E+01  0.65873982573E+01  0.42442790311E+02  0.43400728643E+02  0.00000000000E+00 0. -1.
         11    1    3    3    0    0  0.39451519744E+01  0.26123147362E+01 -0.33086960370E+01  0.57737234181E+01  0.51100000000E-03 0. -1.
        -11    1    3    3    0    0 -0.98740695953E+00 -0.32110127119E+01 -0.40894357732E+01  0.52923586749E+01  0.51100000000E-03 0.  1.
        -12    1    3    3    0    0 -0.91898378894E+01 -0.59887002816E+01 -0.35044658501E+02  0.36721189264E+02  0.00000000000E+00 0.  1.
</event>
<event>
 7    1  0.2459936E-009  0.4778727E+02  0.7816164E-02  0.1312668E+00
        -11   -1    0    0    0    0  0.00000000000E+00  0.00000000000E+00  0.45593999997E+02  0.45594000000E+02  0.51100000000E-03 0.  1.
         11   -1    0    0    0    0 -0.00000000000E+00 -0.00000000000E+00 -0.45593999997E+02  0.45594000000E+02  0.51100000000E-03 0. -1.
    9900012    2    1    2    0    0  0.37784891593E+02 -0.11871209122E+02  0.17748226414E+02  0.47787272132E+02  0.20000004957E+02 0.  0.
         12    1    1    2    0    0 -0.37784891593E+02  0.11871209122E+02 -0.17748226414E+02  0.43400727868E+02  0.00000000000E+00 0. -1.
         11    1    3    3    0    0  0.69240660983E+01  0.36086001048E+01  0.23058126143E+01  0.81413425259E+01  0.51100000000E-03 0. -1.
        -11    1    3    3    0    0  0.14162442586E+02 -0.71418722515E+00  0.69572432267E+01  0.15795191578E+02  0.51100000000E-03 0.  1.
         12    1    3    3    0    0  0.16698382908E+02 -0.14765622002E+02  0.84851705726E+01  0.23850738028E+02  0.00000000000E+00 0. -1.
</event>
<event>
 7    1  0.2459936E-009  0.4778727E+02  0.7816164E-02  0.1312668E+00
        -11   -1    0    0    0    0  0.00000000000E+00  0.00000000000E+00  0.45593999997E+02  0.45594000000E+02  0.51100000000E-03 0. -1.
         11   -1    0    0    0    0 -0.00000000000E+00 -0.00000000000E+00 -0.45593999997E+02  0.45594000000E+02  0.51100000000E-03 0.  1.
    9900012    2    1    2    0    0  0.33425759659E+02  0.21683703346E+02 -0.17209279357E+02  0.47787266186E+02  0.19999977849E+02 0.  0.
         12    1    1    2    0    0 -0.33425759659E+02 -0.21683703346E+02  0.17209279357E+02  0.43400733814E+02  0.00000000000E+00 0. -1.
         11    1    3    3    0    0  0.19752669025E+02  0.12234044908E+02 -0.55930690123E+01  0.23898163311E+02  0.51100000000E-03 0. -1.
        -11    1    3    3    0    0  0.12324506316E+02  0.14171330265E+01 -0.49229140458E+01  0.13346790060E+02  0.51100000000E-03 0.  1.
        -12    1    3    3    0    0  0.13485843194E+01  0.80325254113E+01 -0.66932962987E+01  0.10542312815E+02  0.00000000000E+00 0.  1.
</event>
<event>
 7    1  0.2459936E-009  0.4778727E+02  0.7816164E-02  0.1312668E+00
        -11   -1    0    0    0    0  0.00000000000E+00  0.00000000000E+00  0.45593999997E+02  0.45594000000E+02  0.51100000000E-03 0. -1.
         11   -1    0    0    0    0 -0.00000000000E+00 -0.00000000000E+00 -0.45593999997E+02  0.45594000000E+02  0.51100000000E-03 0.  1.
    9900012    2    1    2    0    0 -0.14263374289E+02  0.21864557157E+02 -0.34671611235E+02  0.47787270382E+02  0.19999996980E+02 0.  0.
         12    1    1    2    0    0  0.14263374289E+02 -0.21864557157E+02  0.34671611235E+02  0.43400729618E+02  0.00000000000E+00 0. -1.
         11    1    3    3    0    0 -0.21699277661E+00  0.66720120146E+01 -0.26710418236E+01  0.71900830922E+01  0.51100000000E-03 0. -1.
        -11    1    3    3    0    0 -0.15264157428E+02  0.82050909183E+01 -0.18513387025E+02  0.25358697095E+02  0.51100000000E-03 0.  1.
         12    1    3    3    0    0  0.12177759157E+01  0.69874542237E+01 -0.13487182386E+02  0.15238490195E+02  0.00000000000E+00 0. -1.
</event>
<event>
 7    1  0.2459936E-009  0.4778727E+02  0.7816164E-02  0.1312668E+00
        -11   -1    0    0    0    0  0.00000000000E+00  0.00000000000E+00  0.45593999997E+02  0.45594000000E+02  0.51100000000E-03 0.  1.
         11   -1    0    0    0    0 -0.00000000000E+00 -0.00000000000E+00 -0.45593999997E+02  0.45594000000E+02  0.51100000000E-03 0. -1.
    9900012    2    1    2    0    0 -0.25169342517E+02  0.33752951516E+02  0.10529303150E+02  0.47787265402E+02  0.19999974274E+02 0.  0.
         12    1    1    2    0    0  0.25169342517E+02 -0.33752951516E+02 -0.10529303150E+02  0.43400734598E+02  0.00000000000E+00 0. -1.
         11    1    3    3    0    0 -0.87554446317E+01  0.11546479437E+02  0.13256359098E+01  0.14551161772E+02  0.51100000000E-03 0. -1.
        -11    1    3    3    0    0 -0.17657628390E+02  0.14518733194E+02  0.25664146301E+01  0.23003737484E+02  0.51100000000E-03 0.  1.
         12    1    3    3    0    0  0.12437305046E+01  0.76877388849E+01  0.66372526099E+01  0.10232366146E+02  0.00000000000E+00 0. -1.
</event>
<event>
 7    1  0.2459936E-009  0.4778727E+02  0.7816164E-02  0.1312668E+00
        -11   -1    0    0    0    0  0.00000000000E+00  0.00000000000E+00  0.45593999997E+02  0.45594000000E+02  0.51100000000E-03 0.  1.
         11   -1    0    0    0    0 -0.00000000000E+00 -0.00000000000E+00 -0.45593999997E+02  0.45594000000E+02  0.51100000000E-03 0. -1.
    9900012    2    1    2    0    0  0.65593251001E+01 -0.45926344688E+00  0.42899740325E+02  0.47787269722E+02  0.19999993971E+02 0.  0.
         12    1    1    2    0    0 -0.65593251001E+01  0.45926344688E+00 -0.42899740325E+02  0.43400730278E+02  0.00000000000E+00 0. -1.
         11    1    3    3    0    0 -0.36173574653E+01  0.33982024416E+01  0.40015772284E+01  0.63753961008E+01  0.51100000000E-03 0. -1.
        -11    1    3    3    0    0  0.12123000405E+01  0.10168005130E+01  0.46784110937E+00  0.16499788593E+01  0.51100000000E-03 0.  1.
        -12    1    3    3    0    0  0.89643825250E+01 -0.48742664015E+01  0.38430321987E+02  0.39761894762E+02  0.00000000000E+00 0.  1.
</event>
<event>
 7    1  0.2459936E-009  0.4778727E+02  0.7816164E-02  0.1312668E+00
        -11   -1    0    0    0    0  0.00000000000E+00  0.00000000000E+00  0.45593999997E+02  0.45594000000E+02  0.51100000000E-03 0. -1.
         11   -1    0    0    0    0 -0.00000000000E+00 -0.00000000000E+00 -0.45593999997E+02  0.45594000000E+02  0.51100000000E-03 0.  1.
    9900012    2    1    2    0    0  0.34615245819E+02  0.17207131258E+02 -0.19731263038E+02  0.47787270164E+02  0.19999995984E+02 0.  0.
         12    1    1    2    0    0 -0.34615245819E+02 -0.17207131258E+02  0.19731263038E+02  0.43400729836E+02  0.00000000000E+00 0. -1.
         11    1    3    3    0    0  0.14105038389E+02  0.35032750458E+01 -0.11404050441E+02  0.18473695102E+02  0.51100000000E-03 0. -1.
        -11    1    3    3    0    0  0.50244616632E+01  0.28258547804E+01 -0.86398592113E+01  0.10386425646E+02  0.51100000000E-03 0.  1.
        -12    1    3    3    0    0  0.15485745767E+02  0.10878001432E+02  0.31264661388E+00  0.18927149416E+02  0.00000000000E+00 0.  1.
</event>
<event>
 7    1  0.2459936E-009  0.4778725E+02  0.7816164E-02  0.1312668E+00
        -11   -1    0    0    0    0  0.00000000000E+00  0.00000000000E+00  0.45593999997E+02  0.45594000000E+02  0.51100000000E-03 0. -1.
         11   -1    0    0    0    0 -0.00000000000E+00 -0.00000000000E+00 -0.45593999997E+02  0.45594000000E+02  0.51100000000E-03 0.  1.
    9900012    2    1    2    0    0  0.38663782520E+02 -0.14750163630E+01  0.19661152767E+02  0.47787254844E+02  0.19999926134E+02 0.  0.
         12    1    1    2    0    0 -0.38663782520E+02  0.14750163630E+01 -0.19661152767E+02  0.43400745156E+02  0.00000000000E+00 0. -1.
         11    1    3    3    0    0  0.22804021660E+02 -0.63051575119E+01  0.13265891177E+02  0.27124938416E+02  0.51100000000E-03 0.  1.
        -11    1    3    3    0    0  0.44235865488E+01 -0.31000308718E+01  0.35326106092E+01  0.64542735717E+01  0.51100000000E-03 0. -1.
         12    1    3    3    0    0  0.11436174311E+02  0.79301720207E+01  0.28626509807E+01  0.14208042856E+02  0.00000000000E+00 0. -1.
</event>
<event>
 7    1  0.2459936E-009  0.4778726E+02  0.7816164E-02  0.1312668E+00
        -11   -1    0    0    0    0  0.00000000000E+00  0.00000000000E+00  0.45593999997E+02  0.45594000000E+02  0.51100000000E-03 0.  1.
         11   -1    0    0    0    0 -0.00000000000E+00 -0.00000000000E+00 -0.45593999997E+02  0.45594000000E+02  0.51100000000E-03 0. -1.
    9900012    2    1    2    0    0 -0.28972206433E+02  0.14064300440E+02 -0.29093484409E+02  0.47787261210E+02  0.19999955160E+02 0.  0.
         12    1    1    2    0    0  0.28972206433E+02 -0.14064300440E+02  0.29093484409E+02  0.43400738790E+02  0.00000000000E+00 0. -1.
         11    1    3    3    0    0 -0.15646091344E+01  0.15529441899E+01 -0.36592422006E+01  0.42719657236E+01  0.51100000000E-03 0. -1.
        -11    1    3    3    0    0 -0.22409726951E+02  0.16439312640E+02 -0.24577328257E+02  0.37101104116E+02  0.51100000000E-03 0.  1.
         12    1    3    3    0    0 -0.49978703475E+01 -0.39279563901E+01 -0.85691395149E+00  0.64141913701E+01  0.00000000000E+00 0. -1.
</event>
<event>
 7    1  0.2459936E-009  0.4778727E+02  0.7816164E-02  0.1312668E+00
        -11   -1    0    0    0    0  0.00000000000E+00  0.00000000000E+00  0.45593999997E+02  0.45594000000E+02  0.51100000000E-03 0. -1.
         11   -1    0    0    0    0 -0.00000000000E+00 -0.00000000000E+00 -0.45593999997E+02  0.45594000000E+02  0.51100000000E-03 0.  1.
    9900012    2    1    2    0    0  0.19596979688E+02  0.21246984753E+02 -0.32375108809E+02  0.47787266776E+02  0.19999980538E+02 0.  0.
         12    1    1    2    0    0 -0.19596979688E+02 -0.21246984753E+02  0.32375108809E+02  0.43400733224E+02  0.00000000000E+00 0. -1.
         11    1    3    3    0    0  0.15926205126E+01  0.29417615714E+01 -0.10108362012E+02  0.10647506002E+02  0.51100000000E-03 0. -1.
        -11    1    3    3    0    0  0.85166517780E+01  0.88325083110E+01 -0.20114009410E+02  0.23560983328E+02  0.51100000000E-03 0.  1.
         12    1    3    3    0    0  0.94877073974E+01  0.94727148707E+01 -0.21527373876E+01  0.13578777446E+02  0.00000000000E+00 0. -1.
</event>
<event>
 7    1  0.2459936E-009  0.4778727E+02  0.7816164E-02  0.1312668E+00
        -11   -1    0    0    0    0  0.00000000000E+00  0.00000000000E+00  0.45593999997E+02  0.45594000000E+02  0.51100000000E-03 0. -1.
         11   -1    0    0    0    0 -0.00000000000E+00 -0.00000000000E+00 -0.45593999997E+02  0.45594000000E+02  0.51100000000E-03 0.  1.
    9900012    2    1    2    0    0  0.34778651348E+02 -0.12421750010E+02 -0.22798442733E+02  0.47787268970E+02  0.19999990542E+02 0.  0.
         12    1    1    2    0    0 -0.34778651348E+02  0.12421750010E+02  0.22798442733E+02  0.43400731030E+02  0.00000000000E+00 0. -1.
         11    1    3    3    0    0  0.10729532072E+02 -0.48169381013E+00 -0.20984603258E+01  0.10943419183E+02  0.51100000000E-03 0.  1.
        -11    1    3    3    0    0  0.28632631976E+01  0.12023772441E+01 -0.85761457272E+01  0.91210889137E+01  0.51100000000E-03 0. -1.
         12    1    3    3    0    0  0.21185856078E+02 -0.13142433444E+02 -0.12123836680E+02  0.27722760873E+02  0.00000000000E+00 0. -1.
</event>
<event>
 7    1  0.2459936E-009  0.4778728E+02  0.7816164E-02  0.1312668E+00
        -11   -1    0    0    0    0  0.00000000000E+00  0.00000000000E+00  0.45593999997E+02  0.45594000000E+02  0.51100000000E-03 0.  1.
         11   -1    0    0    0    0 -0.00000000000E+00 -0.00000000000E+00 -0.45593999997E+02  0.45594000000E+02  0.51100000000E-03 0. -1.
    9900012    2    1    2    0    0 -0.33485919961E+02  0.27557543574E+02  0.17022536012E+01  0.47787277532E+02  0.20000029579E+02 0.  0.
         12    1    1    2    0    0  0.33485919961E+02 -0.27557543574E+02 -0.17022536012E+01  0.43400722468E+02  0.00000000000E+00 0. -1.
         11    1    3    3    0    0 -0.34539304677E+01  0.10139024071E+02 -0.17205924172E+01  0.10848496823E+02  0.51100000000E-03 0. -1.
        -11    1    3    3    0    0 -0.77499873149E+01  0.46370134130E+01 -0.44549881561E+01  0.10070308660E+02  0.51100000000E-03 0.  1.
         12    1    3    3    0    0 -0.22282002178E+02  0.12781506090E+02  0.78778341745E+01  0.26868472049E+02  0.00000000000E+00 0. -1.
</event>
<event>
 7    1  0.2459936E-009  0.4778727E+02  0.7816164E-02  0.1312668E+00
        -11   -1    0    0    0    0  0.00000000000E+00  0.00000000000E+00  0.45593999997E+02  0.45594000000E+02  0.51100000000E-03 0.  1.
         11   -1    0    0    0    0 -0.00000000000E+00 -0.00000000000E+00 -0.45593999997E+02  0.45594000000E+02  0.51100000000E-03 0. -1.
    9900012    2    1    2    0    0 -0.19336218781E+02 -0.38783298999E+02  0.23642412359E+01  0.47787271036E+02  0.19999999963E+02 0.  0.
         12    1    1    2    0    0  0.19336218781E+02  0.38783298999E+02 -0.23642412359E+01  0.43400728964E+02  0.00000000000E+00 0. -1.
         11    1    3    3    0    0 -0.47040758942E+01 -0.62642851432E+01  0.40127451254E+01  0.88018022062E+01  0.51100000000E-03 0. -1.
        -11    1    3    3    0    0  0.95274366913E+00 -0.24653637754E+01  0.38679241874E+01  0.46847173687E+01  0.51100000000E-03 0.  1.
        -12    1    3    3    0    0 -0.15584886556E+02 -0.30053650080E+02 -0.55164280769E+01  0.34300751461E+02  0.00000000000E+00 0.  1.
</event>
<event>
 7    1  0.2459936E-009  0.4778727E+02  0.7816164E-02  0.1312668E+00
        -11   -1    0    0    0    0  0.00000000000E+00  0.00000000000E+00  0.45593999997E+02  0.45594000000E+02  0.51100000000E-03 0.  1.
         11   -1    0    0    0    0 -0.00000000000E+00 -0.00000000000E+00 -0.45593999997E+02  0.45594000000E+02  0.51100000000E-03 0. -1.
    9900012    2    1    2    0    0 -0.43092385493E+02  0.35751340285E+00  0.51518806726E+01  0.47787269848E+02  0.19999994543E+02 0.  0.
         12    1    1    2    0    0  0.43092385493E+02 -0.35751340285E+00 -0.51518806726E+01  0.43400730152E+02  0.00000000000E+00 0. -1.
         11    1    3    3    0    0 -0.13220314165E+02  0.58223816122E+01  0.27970154580E+01  0.14713943387E+02  0.51100000000E-03 0. -1.
        -11    1    3    3    0    0 -0.19662619267E+02  0.27416523928E+01  0.21917721933E+01  0.19973460389E+02  0.51100000000E-03 0.  1.
        -12    1    3    3    0    0 -0.10209452060E+02 -0.82065206021E+01  0.16309302127E+00  0.13099866072E+02  0.00000000000E+00 0.  1.
</event>
<event>
 7    1  0.2459936E-009  0.4778727E+02  0.7816164E-02  0.1312668E+00
        -11   -1    0    0    0    0  0.00000000000E+00  0.00000000000E+00  0.45593999997E+02  0.45594000000E+02  0.51100000000E-03 0. -1.
         11   -1    0    0    0    0 -0.00000000000E+00 -0.00000000000E+00 -0.45593999997E+02  0.45594000000E+02  0.51100000000E-03 0.  1.
    9900012    2    1    2    0    0 -0.37016112439E+02 -0.13377352535E+02 -0.18288713123E+02  0.47787272257E+02  0.20000005527E+02 0.  0.
         12    1    1    2    0    0  0.37016112439E+02  0.13377352535E+02  0.18288713123E+02  0.43400727743E+02  0.00000000000E+00 0. -1.
         11    1    3    3    0    0 -0.13193337233E+02 -0.12629190254E+02 -0.10014912734E+02  0.20829283981E+02  0.51100000000E-03 0. -1.
        -11    1    3    3    0    0 -0.13819335389E+02 -0.15979910313E+01 -0.94973867256E+01  0.16844226335E+02  0.51100000000E-03 0.  1.
         12    1    3    3    0    0 -0.10003439817E+02  0.84982875068E+00  0.12235863369E+01  0.10113761941E+02  0.00000000000E+00 0. -1.
</event>
<event>
 7    1  0.2459936E-009  0.4778728E+02  0.7816164E-02  0.1312668E+00
        -11   -1    0    0    0    0  0.00000000000E+00  0.00000000000E+00  0.45593999997E+02  0.45594000000E+02  0.51100000000E-03 0.  1.
         11   -1    0    0    0    0 -0.00000000000E+00 -0.00000000000E+00 -0.45593999997E+02  0.45594000000E+02  0.51100000000E-03 0. -1.
    9900012    2    1    2    0    0  0.22950453493E+02  0.45136579980E+01  0.36558533219E+02  0.47787276790E+02  0.20000026195E+02 0.  0.
         12    1    1    2    0    0 -0.22950453493E+02 -0.45136579980E+01 -0.36558533219E+02  0.43400723210E+02  0.00000000000E+00 0. -1.
         11    1    3    3    0    0  0.71537685897E+01 -0.29168671082E-01  0.42438774038E+01  0.83179174994E+01  0.51100000000E-03 0. -1.
        -11    1    3    3    0    0  0.16811430677E+02  0.73857693637E+01  0.31292926747E+02  0.36282517211E+02  0.51100000000E-03 0.  1.
        -12    1    3    3    0    0 -0.10147457737E+01 -0.28429426945E+01  0.10217290680E+01  0.31868420793E+01  0.00000000000E+00 0.  1.
</event>
<event>
 7    1  0.2459936E-009  0.4778729E+02  0.7816164E-02  0.1312668E+00
        -11   -1    0    0    0    0  0.00000000000E+00  0.00000000000E+00  0.45593999997E+02  0.45594000000E+02  0.51100000000E-03 0.  1.
         11   -1    0    0    0    0 -0.00000000000E+00 -0.00000000000E+00 -0.45593999997E+02  0.45594000000E+02  0.51100000000E-03 0. -1.
    9900012    2    1    2    0    0  0.21155768316E+01  0.45558897112E+01  0.43109043729E+02  0.47787292084E+02  0.20000095929E+02 0.  0.
         12    1    1    2    0    0 -0.21155768316E+01 -0.45558897112E+01 -0.43109043729E+02  0.43400707916E+02  0.00000000000E+00 0. -1.
         11    1    3    3    0    0  0.57351197276E+00  0.56172304456E+00  0.13349665835E+02  0.13373781325E+02  0.51100000000E-03 0.  1.
        -11    1    3    3    0    0 -0.39147498912E+01  0.10885953055E+00  0.69107915863E-02  0.39162692869E+01  0.51100000000E-03 0. -1.
         12    1    3    3    0    0  0.54568147500E+01  0.38853071360E+01  0.29752467102E+02  0.30497241472E+02  0.00000000000E+00 0. -1.
</event>
<event>
 7    1  0.2459936E-009  0.4778727E+02  0.7816164E-02  0.1312668E+00
        -11   -1    0    0    0    0  0.00000000000E+00  0.00000000000E+00  0.45593999997E+02  0.45594000000E+02  0.51100000000E-03 0. -1.
         11   -1    0    0    0    0 -0.00000000000E+00 -0.00000000000E+00 -0.45593999997E+02  0.45594000000E+02  0.51100000000E-03 0.  1.
    9900012    2    1    2    0    0  0.29054953173E+02  0.64501329706E+01 -0.31588429762E+02  0.47787269430E+02  0.19999992637E+02 0.  0.
         12    1    1    2    0    0 -0.29054953173E+02 -0.64501329706E+01  0.31588429762E+02  0.43400730570E+02  0.00000000000E+00 0. -1.
         11    1    3    3    0    0  0.43334642703E+01  0.24143909581E+01  0.31582803693E+00  0.49707085904E+01  0.51100000000E-03 0. -1.
        -11    1    3    3    0    0  0.21957300047E+02  0.77983390548E+01 -0.22880906555E+02  0.32656898236E+02  0.51100000000E-03 0.  1.
         12    1    3    3    0    0  0.27641888554E+01 -0.37625970423E+01 -0.90233512445E+01  0.10159662603E+02  0.00000000000E+00 0. -1.
</event>
<event>
 7    1  0.2459936E-009  0.4778727E+02  0.7816164E-02  0.1312668E+00
        -11   -1    0    0    0    0  0.00000000000E+00  0.00000000000E+00  0.45593999997E+02  0.45594000000E+02  0.51100000000E-03 0. -1.
         11   -1    0    0    0    0 -0.00000000000E+00 -0.00000000000E+00 -0.45593999997E+02  0.45594000000E+02  0.51100000000E-03 0.  1.
    9900012    2    1    2    0    0  0.32561325298E+02  0.22714421869E+02 -0.17533916588E+02  0.47787273083E+02  0.20000009294E+02 0.  0.
         12    1    1    2    0    0 -0.32561325298E+02 -0.22714421869E+02  0.17533916588E+02  0.43400726917E+02  0.00000000000E+00 0. -1.
         11    1    3    3    0    0  0.34871540361E+02  0.20988237885E+02 -0.13751353247E+02  0.42960798096E+02  0.51100000000E-03 0. -1.
        -11    1    3    3    0    0 -0.19483552228E+00  0.29877198228E+00 -0.94555245364E+00  0.10105915504E+01  0.51100000000E-03 0.  1.
        -12    1    3    3    0    0 -0.21153795406E+01  0.14274120014E+01 -0.28370108873E+01  0.38158834360E+01  0.00000000000E+00 0.  1.
</event>
<event>
 7    1  0.2459936E-009  0.4778727E+02  0.7816164E-02  0.1312668E+00
        -11   -1    0    0    0    0  0.00000000000E+00  0.00000000000E+00  0.45593999997E+02  0.45594000000E+02  0.51100000000E-03 0.  1.
         11   -1    0    0    0    0 -0.00000000000E+00 -0.00000000000E+00 -0.45593999997E+02  0.45594000000E+02  0.51100000000E-03 0. -1.
    9900012    2    1    2    0    0  0.37661892369E+02 -0.21435438906E+02 -0.23931183938E+01  0.47787271970E+02  0.20000004221E+02 0.  0.
         12    1    1    2    0    0 -0.37661892369E+02  0.21435438906E+02  0.23931183938E+01  0.43400728030E+02  0.00000000000E+00 0. -1.
         11    1    3    3    0    0  0.58451662261E+01  0.13274569284E+01 -0.91353271717E+00  0.60632212886E+01  0.51100000000E-03 0. -1.
        -11    1    3    3    0    0  0.19992558015E+02 -0.54361219366E+01 -0.50576687635E+00  0.20724613340E+02  0.51100000000E-03 0.  1.
         12    1    3    3    0    0  0.11824168127E+02 -0.17326773898E+02 -0.97381880033E+00  0.20999437341E+02  0.00000000000E+00 0. -1.
</event>
<event>
 7    1  0.2459936E-009  0.4778726E+02  0.7816164E-02  0.1312668E+00
        -11   -1    0    0    0    0  0.00000000000E+00  0.00000000000E+00  0.45593999997E+02  0.45594000000E+02  0.51100000000E-03 0.  1.
         11   -1    0    0    0    0 -0.00000000000E+00 -0.00000000000E+00 -0.45593999997E+02  0.45594000000E+02  0.51100000000E-03 0. -1.
    9900012    2    1    2    0    0 -0.36977735017E+02 -0.17409061876E+01  0.22654808653E+02  0.47787262720E+02  0.19999962045E+02 0.  0.
         12    1    1    2    0    0  0.36977735017E+02  0.17409061876E+01 -0.22654808653E+02  0.43400737280E+02  0.00000000000E+00 0. -1.
         11    1    3    3    0    0 -0.31188444199E+02 -0.47771389129E+01  0.94032872680E+01  0.32923576954E+02  0.51100000000E-03 0. -1.
        -11    1    3    3    0    0 -0.15206114661E+01  0.13538572741E+01  0.29259944765E+01  0.35646364032E+01  0.51100000000E-03 0.  1.
         12    1    3    3    0    0 -0.42686793525E+01  0.16823754511E+01  0.10325526908E+02  0.11299049363E+02  0.00000000000E+00 0. -1.
</event>
<event>
 7    1  0.2459936E-009  0.4778727E+02  0.7816164E-02  0.1312668E+00
        -11   -1    0    0    0    0  0.00000000000E+00  0.00000000000E+00  0.45593999997E+02  0.45594000000E+02  0.51100000000E-03 0.  1.
         11   -1    0    0    0    0 -0.00000000000E+00 -0.00000000000E+00 -0.45593999997E+02  0.45594000000E+02  0.51100000000E-03 0. -1.
    9900012    2    1    2    0    0 -0.37548764649E+02  0.21639480244E+02  0.23338004582E+01  0.47787268941E+02  0.19999990410E+02 0.  0.
         12    1    1    2    0    0  0.37548764649E+02 -0.21639480244E+02 -0.23338004582E+01  0.43400731059E+02  0.00000000000E+00 0. -1.
         11    1    3    3    0    0 -0.24465485831E+01  0.10194802008E+02  0.34158310784E+00  0.10489817312E+02  0.51100000000E-03 0. -1.
        -11    1    3    3    0    0 -0.31402441291E+01 -0.33504940677E+00  0.53194063245E+00  0.32025540421E+01  0.51100000000E-03 0.  1.
         12    1    3    3    0    0 -0.31961971936E+02  0.11779727643E+02  0.14602767179E+01  0.34094897587E+02  0.00000000000E+00 0. -1.
</event>
<event>
 7    1  0.2459936E-009  0.4778727E+02  0.7816164E-02  0.1312668E+00
        -11   -1    0    0    0    0  0.00000000000E+00  0.00000000000E+00  0.45593999997E+02  0.45594000000E+02  0.51100000000E-03 0.  1.
         11   -1    0    0    0    0 -0.00000000000E+00 -0.00000000000E+00 -0.45593999997E+02  0.45594000000E+02  0.51100000000E-03 0. -1.
    9900012    2    1    2    0    0 -0.32779797260E+02  0.24281187623E+02  0.14816623854E+02  0.47787268172E+02  0.19999986903E+02 0.  0.
         12    1    1    2    0    0  0.32779797260E+02 -0.24281187623E+02 -0.14816623854E+02  0.43400731828E+02  0.00000000000E+00 0. -1.
         11    1    3    3    0    0 -0.74097209560E-01  0.47286656505E+01  0.10811819171E+01  0.48512600249E+01  0.51100000000E-03 0. -1.
        -11    1    3    3    0    0 -0.64334707682E+01  0.68943245728E+00  0.76612198700E+01  0.10027918697E+02  0.51100000000E-03 0.  1.
         12    1    3    3    0    0 -0.26272229282E+02  0.18863089515E+02  0.60742220669E+01  0.32908089450E+02  0.00000000000E+00 0. -1.
</event>
<event>
 7    1  0.2459936E-009  0.4778727E+02  0.7816164E-02  0.1312668E+00
        -11   -1    0    0    0    0  0.00000000000E+00  0.00000000000E+00  0.45593999997E+02  0.45594000000E+02  0.51100000000E-03 0.  1.
         11   -1    0    0    0    0 -0.00000000000E+00 -0.00000000000E+00 -0.45593999997E+02  0.45594000000E+02  0.51100000000E-03 0. -1.
    9900012    2    1    2    0    0  0.66143496494E+01 -0.33070674377E+02  0.27316736800E+02  0.47787271498E+02  0.20000002069E+02 0.  0.
         12    1    1    2    0    0 -0.66143496494E+01  0.33070674377E+02 -0.27316736800E+02  0.43400728502E+02  0.00000000000E+00 0. -1.
         11    1    3    3    0    0  0.88869408065E+00 -0.18978250016E+02  0.67515049361E+01  0.20163000025E+02  0.51100000000E-03 0.  1.
        -11    1    3    3    0    0  0.37734710071E+01 -0.74959813759E+01  0.32622903914E+01  0.90039635211E+01  0.51100000000E-03 0. -1.
        -12    1    3    3    0    0  0.19521845616E+01 -0.65964429850E+01  0.17302941473E+02  0.18620307952E+02  0.00000000000E+00 0.  1.
</event>
<event>
 7    1  0.2459936E-009  0.4778727E+02  0.7816164E-02  0.1312668E+00
        -11   -1    0    0    0    0  0.00000000000E+00  0.00000000000E+00  0.45593999997E+02  0.45594000000E+02  0.51100000000E-03 0.  1.
         11   -1    0    0    0    0 -0.00000000000E+00 -0.00000000000E+00 -0.45593999997E+02  0.45594000000E+02  0.51100000000E-03 0. -1.
    9900012    2    1    2    0    0  0.33148941946E+02  0.23856031908E+01  0.27912008769E+02  0.47787266271E+02  0.19999978235E+02 0.  0.
         12    1    1    2    0    0 -0.33148941946E+02 -0.23856031908E+01 -0.27912008769E+02  0.43400733729E+02  0.00000000000E+00 0. -1.
         11    1    3    3    0    0  0.81029640482E+01 -0.24749027552E+01  0.29055775819E+01  0.89568717396E+01  0.51100000000E-03 0.  1.
        -11    1    3    3    0    0  0.12346955006E+02  0.36399869457E+01  0.27286742991E+01  0.13158361090E+02  0.51100000000E-03 0. -1.
         12    1    3    3    0    0  0.12699022892E+02  0.12205190003E+01  0.22277756888E+02  0.25672033441E+02  0.00000000000E+00 0. -1.
</event>
<event>
 7    1  0.2459936E-009  0.4778727E+02  0.7816164E-02  0.1312668E+00
        -11   -1    0    0    0    0  0.00000000000E+00  0.00000000000E+00  0.45593999997E+02  0.45594000000E+02  0.51100000000E-03 0. -1.
         11   -1    0    0    0    0 -0.00000000000E+00 -0.00000000000E+00 -0.45593999997E+02  0.45594000000E+02  0.51100000000E-03 0.  1.
    9900012    2    1    2    0    0 -0.10330398108E+02 -0.11755182525E+01 -0.42136976808E+02  0.47787265182E+02  0.19999973271E+02 0.  0.
         12    1    1    2    0    0  0.10330398108E+02  0.11755182525E+01  0.42136976808E+02  0.43400734818E+02  0.00000000000E+00 0. -1.
         11    1    3    3    0    0  0.10788362743E+01  0.24057778706E+00 -0.99879746013E-01  0.11098385483E+01  0.51100000000E-03 0. -1.
        -11    1    3    3    0    0 -0.57638820710E+01  0.21863355844E+01 -0.38713438703E+02  0.39201182843E+02  0.51100000000E-03 0.  1.
        -12    1    3    3    0    0 -0.56453523118E+01 -0.36024316239E+01 -0.33236583586E+01  0.74762437904E+01  0.00000000000E+00 0.  1.
</event>
<event>
 7    1  0.2459936E-009  0.4778727E+02  0.7816164E-02  0.1312668E+00
        -11   -1    0    0    0    0  0.00000000000E+00  0.00000000000E+00  0.45593999997E+02  0.45594000000E+02  0.51100000000E-03 0. -1.
         11   -1    0    0    0    0 -0.00000000000E+00 -0.00000000000E+00 -0.45593999997E+02  0.45594000000E+02  0.51100000000E-03 0.  1.
    9900012    2    1    2    0    0  0.28870277085E+02  0.27392972988E+02 -0.17313443103E+02  0.47787272124E+02  0.20000004922E+02 0.  0.
         12    1    1    2    0    0 -0.28870277085E+02 -0.27392972988E+02  0.17313443103E+02  0.43400727876E+02  0.00000000000E+00 0. -1.
         11    1    3    3    0    0  0.26031850641E+01  0.10100872832E+02 -0.27394939591E+01  0.10784666516E+02  0.51100000000E-03 0. -1.
        -11    1    3    3    0    0  0.21248966129E+02  0.14341021309E+02 -0.16930971977E+02  0.30721999709E+02  0.51100000000E-03 0.  1.
         12    1    3    3    0    0  0.50181258919E+01  0.29510788462E+01  0.23570228329E+01  0.62806058989E+01  0.00000000000E+00 0. -1.
</event>
<event>
 7    1  0.2459936E-009  0.4778728E+02  0.7816164E-02  0.1312668E+00
        -11   -1    0    0    0    0  0.00000000000E+00  0.00000000000E+00  0.45593999997E+02  0.45594000000E+02  0.51100000000E-03 0.  1.
         11   -1    0    0    0    0 -0.00000000000E+00 -0.00000000000E+00 -0.45593999997E+02  0.45594000000E+02  0.51100000000E-03 0. -1.
    9900012    2    1    2    0    0 -0.21224461691E+02  0.35718392297E+02  0.12543571710E+02  0.47787279804E+02  0.20000039936E+02 0.  0.
         12    1    1    2    0    0  0.21224461691E+02 -0.35718392297E+02 -0.12543571710E+02  0.43400720196E+02  0.00000000000E+00 0. -1.
         11    1    3    3    0    0 -0.13773542762E+02  0.20577346650E+02  0.53490460861E+01  0.25332784483E+02  0.51100000000E-03 0.  1.
        -11    1    3    3    0    0 -0.24753879669E+01  0.14606948649E+02  0.15266270091E+01  0.14893659212E+02  0.51100000000E-03 0. -1.
         12    1    3    3    0    0 -0.49755309623E+01  0.53409699715E+00  0.56678986144E+01  0.75608361086E+01  0.00000000000E+00 0. -1.
</event>
<event>
 7    1  0.2459936E-009  0.4778727E+02  0.7816164E-02  0.1312668E+00
        -11   -1    0    0    0    0  0.00000000000E+00  0.00000000000E+00  0.45593999997E+02  0.45594000000E+02  0.51100000000E-03 0.  1.
         11   -1    0    0    0    0 -0.00000000000E+00 -0.00000000000E+00 -0.45593999997E+02  0.45594000000E+02  0.51100000000E-03 0. -1.
    9900012    2    1    2    0    0  0.32892579846E+02  0.28153777257E+02  0.30111053738E+01  0.47787265693E+02  0.19999975602E+02 0.  0.
         12    1    1    2    0    0 -0.32892579846E+02 -0.28153777257E+02 -0.30111053738E+01  0.43400734307E+02  0.00000000000E+00 0. -1.
         11    1    3    3    0    0  0.11212396303E+01  0.12399512864E+01 -0.35995201543E+01  0.39687785405E+01  0.51100000000E-03 0. -1.
        -11    1    3    3    0    0  0.11056847228E+01  0.62082542082E+01  0.12894740615E+01  0.64364355537E+01  0.51100000000E-03 0.  1.
         12    1    3    3    0    0  0.30665655493E+02  0.20705571762E+02  0.53211514666E+01  0.37382051599E+02  0.00000000000E+00 0. -1.
</event>
<event>
 7    1  0.2459936E-009  0.4778727E+02  0.7816164E-02  0.1312668E+00
        -11   -1    0    0    0    0  0.00000000000E+00  0.00000000000E+00  0.45593999997E+02  0.45594000000E+02  0.51100000000E-03 0. -1.
         11   -1    0    0    0    0 -0.00000000000E+00 -0.00000000000E+00 -0.45593999997E+02  0.45594000000E+02  0.51100000000E-03 0.  1.
    9900012    2    1    2    0    0  0.36170193258E+02  0.18200036296E+02  0.15623662977E+02  0.47787273666E+02  0.20000011953E+02 0.  0.
         12    1    1    2    0    0 -0.36170193258E+02 -0.18200036296E+02 -0.15623662977E+02  0.43400726334E+02  0.00000000000E+00 0. -1.
         11    1    3    3    0    0  0.99350766627E+00 -0.11799605784E+01  0.26811680534E+01  0.30932227274E+01  0.51100000000E-03 0. -1.
        -11    1    3    3    0    0  0.33130049687E+02  0.12799955037E+02  0.85805230789E+01  0.36538533328E+02  0.51100000000E-03 0.  1.
        -12    1    3    3    0    0  0.20466359043E+01  0.65800418380E+01  0.43619718450E+01  0.81555176103E+01  0.00000000000E+00 0.  1.
</event>
<event>
 7    1  0.2459936E-009  0.4778727E+02  0.7816164E-02  0.1312668E+00
        -11   -1    0    0    0    0  0.00000000000E+00  0.00000000000E+00  0.45593999997E+02  0.45594000000E+02  0.51100000000E-03 0.  1.
         11   -1    0    0    0    0 -0.00000000000E+00 -0.00000000000E+00 -0.45593999997E+02  0.45594000000E+02  0.51100000000E-03 0. -1.
    9900012    2    1    2    0    0  0.14634290541E+02  0.20471987683E+02  0.35360412538E+02  0.47787268275E+02  0.19999987375E+02 0.  0.
         12    1    1    2    0    0 -0.14634290541E+02 -0.20471987683E+02 -0.35360412538E+02  0.43400731725E+02  0.00000000000E+00 0. -1.
         11    1    3    3    0    0 -0.43423377528E+00  0.47236761360E+00 -0.12502749684E+01  0.14053034874E+01  0.51100000000E-03 0. -1.
        -11    1    3    3    0    0  0.88525837117E+01  0.20294842036E+01  0.84669003265E+01  0.12416740551E+02  0.51100000000E-03 0.  1.
        -12    1    3    3    0    0  0.62159406050E+01  0.17970135866E+02  0.28143787180E+02  0.33965224237E+02  0.00000000000E+00 0.  1.
</event>
<event>
 7    1  0.2459936E-009  0.4778727E+02  0.7816164E-02  0.1312668E+00
        -11   -1    0    0    0    0  0.00000000000E+00  0.00000000000E+00  0.45593999997E+02  0.45594000000E+02  0.51100000000E-03 0.  1.
         11   -1    0    0    0    0 -0.00000000000E+00 -0.00000000000E+00 -0.45593999997E+02  0.45594000000E+02  0.51100000000E-03 0. -1.
    9900012    2    1    2    0    0 -0.39670225520E+02  0.34484287257E+01  0.17262816461E+02  0.47787270908E+02  0.19999999379E+02 0.  0.
         12    1    1    2    0    0  0.39670225520E+02 -0.34484287257E+01 -0.17262816461E+02  0.43400729092E+02  0.00000000000E+00 0. -1.
         11    1    3    3    0    0 -0.90935830633E+01  0.45997638654E+01  0.56770574323E+01  0.11665335910E+02  0.51100000000E-03 0. -1.
        -11    1    3    3    0    0 -0.27359567958E+02  0.18942037370E+01  0.45386567423E+01  0.27798082163E+02  0.51100000000E-03 0.  1.
         12    1    3    3    0    0 -0.32170744987E+01 -0.30455388767E+01  0.70471022866E+01  0.83238528349E+01  0.00000000000E+00 0. -1.
</event>
<event>
 7    1  0.2459936E-009  0.4778726E+02  0.7816164E-02  0.1312668E+00
        -11   -1    0    0    0    0  0.00000000000E+00  0.00000000000E+00  0.45593999997E+02  0.45594000000E+02  0.51100000000E-03 0.  1.
         11   -1    0    0    0    0 -0.00000000000E+00 -0.00000000000E+00 -0.45593999997E+02  0.45594000000E+02  0.51100000000E-03 0. -1.
    9900012    2    1    2    0    0 -0.25488778728E+02 -0.61802590024E+01  0.34579632771E+02  0.47787257553E+02  0.19999938486E+02 0.  0.
         12    1    1    2    0    0  0.25488778728E+02  0.61802590024E+01 -0.34579632771E+02  0.43400742447E+02  0.00000000000E+00 0. -1.
         11    1    3    3    0    0 -0.17817270110E+02 -0.71181741179E+01  0.23315229876E+02  0.30194758839E+02  0.51100000000E-03 0.  1.
        -11    1    3    3    0    0 -0.99587223661E+01  0.23199245005E+01  0.10813259098E+02  0.14882364511E+02  0.51100000000E-03 0. -1.
        -12    1    3    3    0    0  0.22872137483E+01 -0.13820093850E+01  0.45114379762E+00  0.27101342027E+01  0.00000000000E+00 0.  1.
</event>
<event>
 7    1  0.2459936E-009  0.4778727E+02  0.7816164E-02  0.1312668E+00
        -11   -1    0    0    0    0  0.00000000000E+00  0.00000000000E+00  0.45593999997E+02  0.45594000000E+02  0.51100000000E-03 0.  1.
         11   -1    0    0    0    0 -0.00000000000E+00 -0.00000000000E+00 -0.45593999997E+02  0.45594000000E+02  0.51100000000E-03 0. -1.
    9900012    2    1    2    0    0  0.37175481502E+02 -0.20456387227E+02  0.91182757667E+01  0.47787272400E+02  0.20000006179E+02 0.  0.
         12    1    1    2    0    0 -0.37175481502E+02  0.20456387227E+02 -0.91182757667E+01  0.43400727600E+02  0.00000000000E+00 0. -1.
         11    1    3    3    0    0  0.10222564410E+02 -0.39874909550E+01 -0.22476250359E+01  0.11200568102E+02  0.51100000000E-03 0. -1.
        -11    1    3    3    0    0  0.16386111665E+02 -0.15480314579E+01  0.61905006472E+01  0.17584747806E+02  0.51100000000E-03 0.  1.
        -12    1    3    3    0    0  0.10566805426E+02 -0.14920864815E+02  0.51754001554E+01  0.19001956491E+02  0.00000000000E+00 0.  1.
</event>
<event>
 7    1  0.2459936E-009  0.4778727E+02  0.7816164E-02  0.1312668E+00
        -11   -1    0    0    0    0  0.00000000000E+00  0.00000000000E+00  0.45593999997E+02  0.45594000000E+02  0.51100000000E-03 0.  1.
         11   -1    0    0    0    0 -0.00000000000E+00 -0.00000000000E+00 -0.45593999997E+02  0.45594000000E+02  0.51100000000E-03 0. -1.
    9900012    2    1    2    0    0  0.29707986515E+02 -0.23320596235E+02  0.21382444653E+02  0.47787267162E+02  0.19999982297E+02 0.  0.
         12    1    1    2    0    0 -0.29707986515E+02  0.23320596235E+02 -0.21382444653E+02  0.43400732838E+02  0.00000000000E+00 0. -1.
         11    1    3    3    0    0  0.11833899549E+02 -0.61064458684E+00  0.33071867596E+01  0.12302501773E+02  0.51100000000E-03 0. -1.
        -11    1    3    3    0    0 -0.43460417274E+00 -0.11645784288E+01  0.34190797070E+01  0.36380255645E+01  0.51100000000E-03 0.  1.
        -12    1    3    3    0    0  0.18308691138E+02 -0.21545373219E+02  0.14656178187E+02  0.31846739824E+02  0.00000000000E+00 0.  1.
</event>
<event>
 7    1  0.2459936E-009  0.4778727E+02  0.7816164E-02  0.1312668E+00
        -11   -1    0    0    0    0  0.00000000000E+00  0.00000000000E+00  0.45593999997E+02  0.45594000000E+02  0.51100000000E-03 0. -1.
         11   -1    0    0    0    0 -0.00000000000E+00 -0.00000000000E+00 -0.45593999997E+02  0.45594000000E+02  0.51100000000E-03 0.  1.
    9900012    2    1    2    0    0  0.67380562874E+01 -0.11830865262E+02 -0.41209857719E+02  0.47787272488E+02  0.20000006581E+02 0.  0.
         12    1    1    2    0    0 -0.67380562874E+01  0.11830865262E+02  0.41209857719E+02  0.43400727512E+02  0.00000000000E+00 0. -1.
         11    1    3    3    0    0 -0.32318113955E+00 -0.10749042335E+02 -0.15581449838E+02  0.18932193123E+02  0.51100000000E-03 0.  1.
        -11    1    3    3    0    0  0.22068895376E+01 -0.59305329305E+01 -0.13781240099E+02  0.15164569272E+02  0.51100000000E-03 0. -1.
        -12    1    3    3    0    0  0.48543478893E+01  0.48487100036E+01 -0.11847167782E+02  0.13690510092E+02  0.00000000000E+00 0.  1.
</event>
<event>
 7    1  0.2459936E-009  0.4778727E+02  0.7816164E-02  0.1312668E+00
        -11   -1    0    0    0    0  0.00000000000E+00  0.00000000000E+00  0.45593999997E+02  0.45594000000E+02  0.51100000000E-03 0.  1.
         11   -1    0    0    0    0 -0.00000000000E+00 -0.00000000000E+00 -0.45593999997E+02  0.45594000000E+02  0.51100000000E-03 0. -1.
    9900012    2    1    2    0    0 -0.24888023654E+02  0.35457106772E+02 -0.26463445671E+01  0.47787270956E+02  0.19999999595E+02 0.  0.
         12    1    1    2    0    0  0.24888023654E+02 -0.35457106772E+02  0.26463445671E+01  0.43400729044E+02  0.00000000000E+00 0. -1.
         11    1    3    3    0    0 -0.30436677208E+01  0.37064977105E+01 -0.56682259802E+01  0.74250134341E+01  0.51100000000E-03 0. -1.
        -11    1    3    3    0    0 -0.52893527782E+01  0.76185298002E+01 -0.42583804499E+01  0.10205540331E+02  0.51100000000E-03 0.  1.
         12    1    3    3    0    0 -0.16555003155E+02  0.24132079261E+02  0.72802618630E+01  0.30156717191E+02  0.00000000000E+00 0. -1.
</event>
<event>
 7    1  0.2459936E-009  0.4778727E+02  0.7816164E-02  0.1312668E+00
        -11   -1    0    0    0    0  0.00000000000E+00  0.00000000000E+00  0.45593999997E+02  0.45594000000E+02  0.51100000000E-03 0.  1.
         11   -1    0    0    0    0 -0.00000000000E+00 -0.00000000000E+00 -0.45593999997E+02  0.45594000000E+02  0.51100000000E-03 0. -1.
    9900012    2    1    2    0    0  0.42380023469E+02 -0.91566422637E+01 -0.19268707052E+01  0.47787270542E+02  0.19999997707E+02 0.  0.
         12    1    1    2    0    0 -0.42380023469E+02  0.91566422637E+01  0.19268707052E+01  0.43400729458E+02  0.00000000000E+00 0. -1.
         11    1    3    3    0    0  0.15562574429E+02 -0.57804909764E+01  0.24378729554E+01  0.16779482221E+02  0.51100000000E-03 0. -1.
        -11    1    3    3    0    0  0.12578711081E+02 -0.56843486541E+01  0.39510522777E+01  0.14357806463E+02  0.51100000000E-03 0.  1.
         12    1    3    3    0    0  0.14238737960E+02  0.23081973669E+01 -0.83157959384E+01  0.16649981858E+02  0.00000000000E+00 0. -1.
</event>
<event>
 7    1  0.2459936E-009  0.4778727E+02  0.7816164E-02  0.1312668E+00
        -11   -1    0    0    0    0  0.00000000000E+00  0.00000000000E+00  0.45593999997E+02  0.45594000000E+02  0.51100000000E-03 0.  1.
         11   -1    0    0    0    0 -0.00000000000E+00 -0.00000000000E+00 -0.45593999997E+02  0.45594000000E+02  0.51100000000E-03 0. -1.
    9900012    2    1    2    0    0 -0.26635573352E+02  0.13781820173E+02  0.31372458752E+02  0.47787268402E+02  0.19999987953E+02 0.  0.
         12    1    1    2    0    0  0.26635573352E+02 -0.13781820173E+02 -0.31372458752E+02  0.43400731598E+02  0.00000000000E+00 0. -1.
         11    1    3    3    0    0 -0.52928331829E+01  0.71900296540E-01  0.27717518268E+00  0.53005734687E+01  0.51100000000E-03 0. -1.
        -11    1    3    3    0    0 -0.21454040657E-01 -0.15220360472E+01  0.60525613235E+01  0.62410378016E+01  0.51100000000E-03 0.  1.
        -12    1    3    3    0    0 -0.21321286129E+02  0.15231955924E+02  0.25042722246E+02  0.36245657132E+02  0.00000000000E+00 0.  1.
</event>
<event>
 7    1  0.2459936E-009  0.4778727E+02  0.7816164E-02  0.1312668E+00
        -11   -1    0    0    0    0  0.00000000000E+00  0.00000000000E+00  0.45593999997E+02  0.45594000000E+02  0.51100000000E-03 0. -1.
         11   -1    0    0    0    0 -0.00000000000E+00 -0.00000000000E+00 -0.45593999997E+02  0.45594000000E+02  0.51100000000E-03 0.  1.
    9900012    2    1    2    0    0 -0.40846810667E+02  0.10972957768E+02 -0.97342565826E+01  0.47787268497E+02  0.19999988384E+02 0.  0.
         12    1    1    2    0    0  0.40846810667E+02 -0.10972957768E+02  0.97342565826E+01  0.43400731503E+02  0.00000000000E+00 0. -1.
         11    1    3    3    0    0 -0.95405021051E+01  0.30438246708E+01 -0.20871870444E+01  0.10229486745E+02  0.51100000000E-03 0. -1.
        -11    1    3    3    0    0 -0.15250171938E+02 -0.43839104972E+01 -0.69193568625E+01  0.17310803420E+02  0.51100000000E-03 0.  1.
         12    1    3    3    0    0 -0.16056136623E+02  0.12313043595E+02 -0.72771267570E+00  0.20246978332E+02  0.00000000000E+00 0. -1.
</event>
<event>
 7    1  0.2459936E-009  0.4778734E+02  0.7816164E-02  0.1312667E+00
        -11   -1    0    0    0    0  0.00000000000E+00  0.00000000000E+00  0.45593999997E+02  0.45594000000E+02  0.51100000000E-03 0.  1.
         11   -1    0    0    0    0 -0.00000000000E+00 -0.00000000000E+00 -0.45593999997E+02  0.45594000000E+02  0.51100000000E-03 0. -1.
    9900012    2    1    2    0    0  0.25701093540E+02  0.23372256412E+02  0.26015555205E+02  0.47787335356E+02  0.20000293218E+02 0.  0.
         12    1    1    2    0    0 -0.25701093540E+02 -0.23372256412E+02 -0.26015555205E+02  0.43400664644E+02  0.00000000000E+00 0. -1.
         11    1    3    3    0    0  0.91861970777E+01  0.56933072414E+01  0.12655993193E+02  0.16642539712E+02  0.51100000000E-03 0. -1.
        -11    1    3    3    0    0  0.20828612824E+01  0.10089306269E+02  0.10273846669E+02  0.14549375855E+02  0.51100000000E-03 0.  1.
         12    1    3    3    0    0  0.14432035180E+02  0.75896429013E+01  0.30857153429E+01  0.16595419789E+02  0.00000000000E+00 0. -1.
</event>
<event>
 7    1  0.2459936E-009  0.4778728E+02  0.7816164E-02  0.1312668E+00
        -11   -1    0    0    0    0  0.00000000000E+00  0.00000000000E+00  0.45593999997E+02  0.45594000000E+02  0.51100000000E-03 0. -1.
         11   -1    0    0    0    0 -0.00000000000E+00 -0.00000000000E+00 -0.45593999997E+02  0.45594000000E+02  0.51100000000E-03 0.  1.
    9900012    2    1    2    0    0  0.20115364431E+02  0.30944737608E+02 -0.22834577542E+02  0.47787278769E+02  0.20000035221E+02 0.  0.
         12    1    1    2    0    0 -0.20115364431E+02 -0.30944737608E+02  0.22834577542E+02  0.43400721231E+02  0.00000000000E+00 0. -1.
         11    1    3    3    0    0 -0.34649547270E-01  0.36507073714E+01 -0.41919961555E+00  0.36748596546E+01  0.51100000000E-03 0. -1.
        -11    1    3    3    0    0  0.22859528714E+02  0.20998497542E+02 -0.19549791795E+02  0.36683638199E+02  0.51100000000E-03 0.  1.
        -12    1    3    3    0    0 -0.27095147358E+01  0.62955326948E+01 -0.28655861318E+01  0.74287809157E+01  0.00000000000E+00 0.  1.
</event>
<event>
 7    1  0.2459936E-009  0.4778727E+02  0.7816164E-02  0.1312668E+00
        -11   -1    0    0    0    0  0.00000000000E+00  0.00000000000E+00  0.45593999997E+02  0.45594000000E+02  0.51100000000E-03 0. -1.
         11   -1    0    0    0    0 -0.00000000000E+00 -0.00000000000E+00 -0.45593999997E+02  0.45594000000E+02  0.51100000000E-03 0.  1.
    9900012    2    1    2    0    0 -0.27334312203E+01 -0.18197423334E+02 -0.39306561634E+02  0.47787266714E+02  0.19999980256E+02 0.  0.
         12    1    1    2    0    0  0.27334312203E+01  0.18197423334E+02  0.39306561634E+02  0.43400733286E+02  0.00000000000E+00 0. -1.
         11    1    3    3    0    0  0.12653569376E+01  0.19980455860E+01 -0.18794422103E+01  0.30208637219E+01  0.51100000000E-03 0. -1.
        -11    1    3    3    0    0 -0.10946335664E+01  0.79120368228E+00 -0.10091935849E+02  0.10181915113E+02  0.51100000000E-03 0.  1.
         12    1    3    3    0    0 -0.29041545915E+01 -0.20986672603E+02 -0.27335183575E+02  0.34584487879E+02  0.00000000000E+00 0. -1.
</event>
<event>
 7    1  0.2459936E-009  0.4778727E+02  0.7816164E-02  0.1312668E+00
        -11   -1    0    0    0    0  0.00000000000E+00  0.00000000000E+00  0.45593999997E+02  0.45594000000E+02  0.51100000000E-03 0.  1.
         11   -1    0    0    0    0 -0.00000000000E+00 -0.00000000000E+00 -0.45593999997E+02  0.45594000000E+02  0.51100000000E-03 0. -1.
    9900012    2    1    2    0    0  0.26260320800E+01  0.32289280553E+01  0.43200709672E+02  0.47787270317E+02  0.19999996681E+02 0.  0.
         12    1    1    2    0    0 -0.26260320800E+01 -0.32289280553E+01 -0.43200709672E+02  0.43400729683E+02  0.00000000000E+00 0. -1.
         11    1    3    3    0    0  0.18938328040E+01 -0.22703703279E+01  0.76500550780E+01  0.82014954169E+01  0.51100000000E-03 0. -1.
        -11    1    3    3    0    0 -0.41961595845E+01 -0.36869461816E+01  0.20706818608E+02  0.21446996631E+02  0.51100000000E-03 0.  1.
         12    1    3    3    0    0  0.49283588604E+01  0.91862445648E+01  0.14843835987E+02  0.18138778268E+02  0.00000000000E+00 0. -1.
</event>
<event>
 7    1  0.2459936E-009  0.4778727E+02  0.7816164E-02  0.1312668E+00
        -11   -1    0    0    0    0  0.00000000000E+00  0.00000000000E+00  0.45593999997E+02  0.45594000000E+02  0.51100000000E-03 0. -1.
         11   -1    0    0    0    0 -0.00000000000E+00 -0.00000000000E+00 -0.45593999997E+02  0.45594000000E+02  0.51100000000E-03 0.  1.
    9900012    2    1    2    0    0 -0.13980835735E+02  0.16960875584E+02 -0.37423096279E+02  0.47787271855E+02  0.20000003694E+02 0.  0.
         12    1    1    2    0    0  0.13980835735E+02 -0.16960875584E+02  0.37423096279E+02  0.43400728145E+02  0.00000000000E+00 0. -1.
         11    1    3    3    0    0  0.16905807265E+01  0.10267253292E+02 -0.17088191299E+02  0.20007019655E+02  0.51100000000E-03 0.  1.
        -11    1    3    3    0    0 -0.84089699474E-01 -0.13648954275E+01 -0.17421939023E+01  0.22147800026E+01  0.51100000000E-03 0. -1.
        -12    1    3    3    0    0 -0.15587326762E+02  0.80585177198E+01 -0.18592711078E+02  0.25565472197E+02  0.00000000000E+00 0.  1.
</event>
<event>
 7    1  0.2459936E-009  0.4778728E+02  0.7816164E-02  0.1312668E+00
        -11   -1    0    0    0    0  0.00000000000E+00  0.00000000000E+00  0.45593999997E+02  0.45594000000E+02  0.51100000000E-03 0. -1.
         11   -1    0    0    0    0 -0.00000000000E+00 -0.00000000000E+00 -0.45593999997E+02  0.45594000000E+02  0.51100000000E-03 0.  1.
    9900012    2    1    2    0    0  0.15299791191E+01 -0.71315079204E+01 -0.42783442236E+02  0.47787283752E+02  0.20000057938E+02 0.  0.
         12    1    1    2    0    0 -0.15299791191E+01  0.71315079204E+01  0.42783442236E+02  0.43400716248E+02  0.00000000000E+00 0. -1.
         11    1    3    3    0    0 -0.15674627856E+01 -0.70269617273E+01 -0.49604100794E+01  0.87430428981E+01  0.51100000000E-03 0. -1.
        -11    1    3    3    0    0 -0.10501567718E+01 -0.37596699599E+01 -0.20225718883E+02  0.20598972111E+02  0.51100000000E-03 0.  1.
        -12    1    3    3    0    0  0.41475986764E+01  0.36551237668E+01 -0.17597313273E+02  0.18445268742E+02  0.00000000000E+00 0.  1.
</event>
<event>
 7    1  0.2459936E-009  0.4778727E+02  0.7816164E-02  0.1312668E+00
        -11   -1    0    0    0    0  0.00000000000E+00  0.00000000000E+00  0.45593999997E+02  0.45594000000E+02  0.51100000000E-03 0. -1.
         11   -1    0    0    0    0 -0.00000000000E+00 -0.00000000000E+00 -0.45593999997E+02  0.45594000000E+02  0.51100000000E-03 0.  1.
    9900012    2    1    2    0    0  0.41888485403E+02 -0.11112875489E+02 -0.23413921771E+01  0.47787270417E+02  0.19999997138E+02 0.  0.
         12    1    1    2    0    0 -0.41888485403E+02  0.11112875489E+02  0.23413921771E+01  0.43400729583E+02  0.00000000000E+00 0. -1.
         11    1    3    3    0    0  0.28002369813E+01 -0.33684360866E+01  0.10892778721E+01  0.45137806067E+01  0.51100000000E-03 0. -1.
        -11    1    3    3    0    0  0.17867740824E+02 -0.91785350217E+00 -0.93809017699E+01  0.20201483497E+02  0.51100000000E-03 0.  1.
        -12    1    3    3    0    0  0.21220507598E+02 -0.68265859002E+01  0.59502317207E+01  0.23072006313E+02  0.00000000000E+00 0.  1.
</event>
<event>
 7    1  0.2459936E-009  0.4778731E+02  0.7816164E-02  0.1312668E+00
        -11   -1    0    0    0    0  0.00000000000E+00  0.00000000000E+00  0.45593999997E+02  0.45594000000E+02  0.51100000000E-03 0.  1.
         11   -1    0    0    0    0 -0.00000000000E+00 -0.00000000000E+00 -0.45593999997E+02  0.45594000000E+02  0.51100000000E-03 0. -1.
    9900012    2    1    2    0    0 -0.67371632075E+01  0.30662135784E+02  0.29967708733E+02  0.47787314457E+02  0.20000197934E+02 0.  0.
         12    1    1    2    0    0  0.67371632075E+01 -0.30662135784E+02 -0.29967708733E+02  0.43400685543E+02  0.00000000000E+00 0. -1.
         11    1    3    3    0    0 -0.14501028556E+01  0.12007695251E+02  0.19931394798E+01  0.12258064642E+02  0.51100000000E-03 0. -1.
        -11    1    3    3    0    0 -0.37383777093E+01  0.74027734510E+01  0.44622964759E+01  0.94174631809E+01  0.51100000000E-03 0.  1.
        -12    1    3    3    0    0 -0.15486826426E+01  0.11251667082E+02  0.23512272777E+02  0.26111786634E+02  0.00000000000E+00 0.  1.
</event>
<event>
 7    1  0.2459936E-009  0.4778727E+02  0.7816164E-02  0.1312668E+00
        -11   -1    0    0    0    0  0.00000000000E+00  0.00000000000E+00  0.45593999997E+02  0.45594000000E+02  0.51100000000E-03 0. -1.
         11   -1    0    0    0    0 -0.00000000000E+00 -0.00000000000E+00 -0.45593999997E+02  0.45594000000E+02  0.51100000000E-03 0.  1.
    9900012    2    1    2    0    0 -0.66086170421E+01 -0.36657933982E+02 -0.22274321035E+02  0.47787270506E+02  0.19999997547E+02 0.  0.
         12    1    1    2    0    0  0.66086170421E+01  0.36657933982E+02  0.22274321035E+02  0.43400729494E+02  0.00000000000E+00 0. -1.
         11    1    3    3    0    0 -0.26858613697E+01 -0.23895899903E+01 -0.26410259055E+01  0.44608306081E+01  0.51100000000E-03 0.  1.
        -11    1    3    3    0    0 -0.92281316986E+01 -0.15077530781E+02 -0.14236560481E+02  0.22697356755E+02  0.51100000000E-03 0. -1.
         12    1    3    3    0    0  0.53053760262E+01 -0.19190813210E+02 -0.53967346487E+01  0.20629083143E+02  0.00000000000E+00 0. -1.
</event>
<event>
 7    1  0.2459936E-009  0.4778727E+02  0.7816164E-02  0.1312668E+00
        -11   -1    0    0    0    0  0.00000000000E+00  0.00000000000E+00  0.45593999997E+02  0.45594000000E+02  0.51100000000E-03 0. -1.
         11   -1    0    0    0    0 -0.00000000000E+00 -0.00000000000E+00 -0.45593999997E+02  0.45594000000E+02  0.51100000000E-03 0.  1.
    9900012    2    1    2    0    0  0.19599902390E+02  0.79500462963E+01 -0.37898071718E+02  0.47787271322E+02  0.20000001266E+02 0.  0.
         12    1    1    2    0    0 -0.19599902390E+02 -0.79500462963E+01  0.37898071718E+02  0.43400728678E+02  0.00000000000E+00 0. -1.
         11    1    3    3    0    0 -0.31657479179E+01  0.15291764636E+01 -0.44166329764E+01  0.56450852647E+01  0.51100000000E-03 0. -1.
        -11    1    3    3    0    0  0.17637517596E+01  0.30592292991E+01 -0.92451816829E+01  0.98966200687E+01  0.51100000000E-03 0.  1.
        -12    1    3    3    0    0  0.21001898548E+02  0.33616405336E+01 -0.24236257059E+02  0.32245565989E+02  0.00000000000E+00 0.  1.
</event>
<event>
 7    1  0.2459936E-009  0.4778729E+02  0.7816164E-02  0.1312668E+00
        -11   -1    0    0    0    0  0.00000000000E+00  0.00000000000E+00  0.45593999997E+02  0.45594000000E+02  0.51100000000E-03 0.  1.
         11   -1    0    0    0    0 -0.00000000000E+00 -0.00000000000E+00 -0.45593999997E+02  0.45594000000E+02  0.51100000000E-03 0. -1.
    9900012    2    1    2    0    0  0.18052644749E+02 -0.94903463853E+01  0.38310014380E+02  0.47787287348E+02  0.20000074333E+02 0.  0.
         12    1    1    2    0    0 -0.18052644749E+02  0.94903463853E+01 -0.38310014380E+02  0.43400712652E+02  0.00000000000E+00 0. -1.
         11    1    3    3    0    0  0.72102874275E+01  0.86966409324E-02  0.16222182901E+02  0.17752395297E+02  0.51100000000E-03 0. -1.
        -11    1    3    3    0    0  0.72320809992E+01  0.26243704389E+01  0.79137859164E+01  0.11037133848E+02  0.51100000000E-03 0.  1.
         12    1    3    3    0    0  0.36102763228E+01 -0.12123413465E+02  0.14174045562E+02  0.18997758204E+02  0.00000000000E+00 0. -1.
</event>
<event>
 7    1  0.2459936E-009  0.4778731E+02  0.7816164E-02  0.1312668E+00
        -11   -1    0    0    0    0  0.00000000000E+00  0.00000000000E+00  0.45593999997E+02  0.45594000000E+02  0.51100000000E-03 0.  1.
         11   -1    0    0    0    0 -0.00000000000E+00 -0.00000000000E+00 -0.45593999997E+02  0.45594000000E+02  0.51100000000E-03 0. -1.
    9900012    2    1    2    0    0 -0.31028674245E+01 -0.43012162965E+02 -0.48934498109E+01  0.47787311062E+02  0.20000182457E+02 0.  0.
         12    1    1    2    0    0  0.31028674245E+01  0.43012162965E+02  0.48934498109E+01  0.43400688938E+02  0.00000000000E+00 0. -1.
         11    1    3    3    0    0 -0.47321866930E+00 -0.20997062099E+02  0.20229123491E+01  0.21099590691E+02  0.51100000000E-03 0. -1.
        -11    1    3    3    0    0  0.18752699036E+01 -0.14879627773E+02  0.11142746329E+01  0.15038669093E+02  0.51100000000E-03 0.  1.
         12    1    3    3    0    0 -0.45049186588E+01 -0.71354730939E+01 -0.80306367929E+01  0.11649051279E+02  0.00000000000E+00 0. -1.
</event>
<event>
 7    1  0.2459936E-009  0.4778727E+02  0.7816164E-02  0.1312668E+00
        -11   -1    0    0    0    0  0.00000000000E+00  0.00000000000E+00  0.45593999997E+02  0.45594000000E+02  0.51100000000E-03 0.  1.
         11   -1    0    0    0    0 -0.00000000000E+00 -0.00000000000E+00 -0.45593999997E+02  0.45594000000E+02  0.51100000000E-03 0. -1.
    9900012    2    1    2    0    0  0.20908617753E+02  0.15980636822E+02  0.34511920224E+02  0.47787266284E+02  0.19999978294E+02 0.  0.
         12    1    1    2    0    0 -0.20908617753E+02 -0.15980636822E+02 -0.34511920224E+02  0.43400733716E+02  0.00000000000E+00 0. -1.
         11    1    3    3    0    0  0.59687547970E+01  0.61147294902E+00  0.16247739061E+02  0.17320189313E+02  0.51100000000E-03 0. -1.
        -11    1    3    3    0    0  0.46737874255E+01  0.89194752231E+01  0.14721646848E+02  0.17836149062E+02  0.51100000000E-03 0.  1.
         12    1    3    3    0    0  0.10266075530E+02  0.64496886502E+01  0.35425343148E+01  0.12630927909E+02  0.00000000000E+00 0. -1.
</event>
<event>
 7    1  0.2459936E-009  0.4778726E+02  0.7816164E-02  0.1312668E+00
        -11   -1    0    0    0    0  0.00000000000E+00  0.00000000000E+00  0.45593999997E+02  0.45594000000E+02  0.51100000000E-03 0. -1.
         11   -1    0    0    0    0 -0.00000000000E+00 -0.00000000000E+00 -0.45593999997E+02  0.45594000000E+02  0.51100000000E-03 0.  1.
    9900012    2    1    2    0    0 -0.62649561529E+00 -0.33992680281E+02 -0.26976455805E+02  0.47787262942E+02  0.19999963056E+02 0.  0.
         12    1    1    2    0    0  0.62649561529E+00  0.33992680281E+02  0.26976455805E+02  0.43400737058E+02  0.00000000000E+00 0. -1.
         11    1    3    3    0    0 -0.16818697311E+01 -0.94488593480E+01 -0.13136774559E+02  0.16269126431E+02  0.51100000000E-03 0. -1.
        -11    1    3    3    0    0  0.82184466538E+00 -0.11524548915E+02 -0.14427391787E+02  0.18483514017E+02  0.51100000000E-03 0.  1.
         12    1    3    3    0    0  0.23352945047E+00 -0.13019272017E+02  0.58771054132E+00  0.13034622493E+02  0.00000000000E+00 0. -1.
</event>
<event>
 7    1  0.2459936E-009  0.4778727E+02  0.7816164E-02  0.1312668E+00
        -11   -1    0    0    0    0  0.00000000000E+00  0.00000000000E+00  0.45593999997E+02  0.45594000000E+02  0.51100000000E-03 0. -1.
         11   -1    0    0    0    0 -0.00000000000E+00 -0.00000000000E+00 -0.45593999997E+02  0.45594000000E+02  0.51100000000E-03 0.  1.
    9900012    2    1    2    0    0 -0.32112866322E+02  0.27508733430E+02 -0.97804151449E+01  0.47787272831E+02  0.20000008148E+02 0.  0.
         12    1    1    2    0    0  0.32112866322E+02 -0.27508733430E+02  0.97804151449E+01  0.43400727169E+02  0.00000000000E+00 0. -1.
         11    1    3    3    0    0  0.17843081756E+00  0.55167622537E+01 -0.54069911683E+01  0.77267106246E+01  0.51100000000E-03 0.  1.
        -11    1    3    3    0    0 -0.11048917930E+02  0.11872850074E+02 -0.29781747711E+01  0.16489775060E+02  0.51100000000E-03 0. -1.
        -12    1    3    3    0    0 -0.21242379210E+02  0.10119121102E+02 -0.13952492054E+01  0.23570787147E+02  0.00000000000E+00 0.  1.
</event>
<event>
 7    1  0.2459936E-009  0.4778727E+02  0.7816164E-02  0.1312668E+00
        -11   -1    0    0    0    0  0.00000000000E+00  0.00000000000E+00  0.45593999997E+02  0.45594000000E+02  0.51100000000E-03 0.  1.
         11   -1    0    0    0    0 -0.00000000000E+00 -0.00000000000E+00 -0.45593999997E+02  0.45594000000E+02  0.51100000000E-03 0. -1.
    9900012    2    1    2    0    0  0.41212627530E+02 -0.36601039495E+01  0.13105203870E+02  0.47787269622E+02  0.19999993514E+02 0.  0.
         12    1    1    2    0    0 -0.41212627530E+02  0.36601039495E+01 -0.13105203870E+02  0.43400730378E+02  0.00000000000E+00 0. -1.
         11    1    3    3    0    0  0.16552661183E+02 -0.57794424128E+01  0.14594241582E+02  0.22811936228E+02  0.51100000000E-03 0. -1.
        -11    1    3    3    0    0  0.48596458173E+01 -0.76931550467E+00 -0.37450162026E+00  0.49343951545E+01  0.51100000000E-03 0.  1.
         12    1    3    3    0    0  0.19800320530E+02  0.28886539680E+01 -0.11145360917E+01  0.20040938240E+02  0.00000000000E+00 0. -1.
</event>
<event>
 7    1  0.2459936E-009  0.4778727E+02  0.7816164E-02  0.1312668E+00
        -11   -1    0    0    0    0  0.00000000000E+00  0.00000000000E+00  0.45593999997E+02  0.45594000000E+02  0.51100000000E-03 0.  1.
         11   -1    0    0    0    0 -0.00000000000E+00 -0.00000000000E+00 -0.45593999997E+02  0.45594000000E+02  0.51100000000E-03 0. -1.
    9900012    2    1    2    0    0 -0.14457715683E+02 -0.40688167346E+02  0.43670090599E+01  0.47787271056E+02  0.20000000053E+02 0.  0.
         12    1    1    2    0    0  0.14457715683E+02  0.40688167346E+02 -0.43670090599E+01  0.43400728944E+02  0.00000000000E+00 0. -1.
         11    1    3    3    0    0 -0.12760396826E+02 -0.13392228129E+02  0.16241594765E+01  0.18569259427E+02  0.51100000000E-03 0. -1.
        -11    1    3    3    0    0 -0.48582782437E+00 -0.61546387060E+01  0.49693777406E+01  0.79252963141E+01  0.51100000000E-03 0.  1.
         12    1    3    3    0    0 -0.12114910319E+01 -0.21141300511E+02 -0.22265281573E+01  0.21292715315E+02  0.00000000000E+00 0. -1.
</event>
<event>
 7    1  0.2459936E-009  0.4778727E+02  0.7816164E-02  0.1312668E+00
        -11   -1    0    0    0    0  0.00000000000E+00  0.00000000000E+00  0.45593999997E+02  0.45594000000E+02  0.51100000000E-03 0.  1.
         11   -1    0    0    0    0 -0.00000000000E+00 -0.00000000000E+00 -0.45593999997E+02  0.45594000000E+02  0.51100000000E-03 0. -1.
    9900012    2    1    2    0    0  0.14255337407E+02 -0.37127733354E+02  0.17376415028E+02  0.47787273879E+02  0.20000012922E+02 0.  0.
         12    1    1    2    0    0 -0.14255337407E+02  0.37127733354E+02 -0.17376415028E+02  0.43400726121E+02  0.00000000000E+00 0. -1.
         11    1    3    3    0    0  0.99455833147E+00 -0.83602314183E+01  0.99952027188E+01  0.13068538300E+02  0.51100000000E-03 0. -1.
        -11    1    3    3    0    0  0.35572543186E+01 -0.18357095742E+02  0.82993563295E+01  0.20457671864E+02  0.51100000000E-03 0.  1.
        -12    1    3    3    0    0  0.97035247566E+01 -0.10410406194E+02 -0.91814401981E+00  0.14261063715E+02  0.00000000000E+00 0.  1.
</event>
<event>
 7    1  0.2459936E-009  0.4778727E+02  0.7816164E-02  0.1312668E+00
        -11   -1    0    0    0    0  0.00000000000E+00  0.00000000000E+00  0.45593999997E+02  0.45594000000E+02  0.51100000000E-03 0.  1.
         11   -1    0    0    0    0 -0.00000000000E+00 -0.00000000000E+00 -0.45593999997E+02  0.45594000000E+02  0.51100000000E-03 0. -1.
    9900012    2    1    2    0    0 -0.20915883683E+02 -0.11563141415E+02  0.36227653103E+02  0.47787270986E+02  0.19999999733E+02 0.  0.
         12    1    1    2    0    0  0.20915883683E+02  0.11563141415E+02 -0.36227653103E+02  0.43400729014E+02  0.00000000000E+00 0. -1.
         11    1    3    3    0    0 -0.43392788966E+01 -0.45776080379E+01  0.83240081822E+01  0.10443799556E+02  0.51100000000E-03 0. -1.
        -11    1    3    3    0    0 -0.19032184089E+02 -0.33588032477E+01  0.17566782005E+02  0.26116994864E+02  0.51100000000E-03 0.  1.
         12    1    3    3    0    0  0.24555793027E+01 -0.36267301292E+01  0.10336862915E+02  0.11226476565E+02  0.00000000000E+00 0. -1.
</event>
<event>
 7    1  0.2459936E-009  0.4778727E+02  0.7816164E-02  0.1312668E+00
        -11   -1    0    0    0    0  0.00000000000E+00  0.00000000000E+00  0.45593999997E+02  0.45594000000E+02  0.51100000000E-03 0.  1.
         11   -1    0    0    0    0 -0.00000000000E+00 -0.00000000000E+00 -0.45593999997E+02  0.45594000000E+02  0.51100000000E-03 0. -1.
    9900012    2    1    2    0    0  0.37862249546E+02  0.16835564797E+02  0.12908808423E+02  0.47787268237E+02  0.19999987198E+02 0.  0.
         12    1    1    2    0    0 -0.37862249546E+02 -0.16835564797E+02 -0.12908808423E+02  0.43400731763E+02  0.00000000000E+00 0. -1.
         11    1    3    3    0    0  0.13170689262E+02  0.61399558883E+01  0.94021700589E+00  0.14561940882E+02  0.51100000000E-03 0. -1.
        -11    1    3    3    0    0  0.18814990206E+01  0.77624353376E+01  0.34502049822E+01  0.87005376624E+01  0.51100000000E-03 0.  1.
         12    1    3    3    0    0  0.22810061263E+02  0.29331735708E+01  0.85183864350E+01  0.24524789693E+02  0.00000000000E+00 0. -1.
</event>
<event>
 7    1  0.2459936E-009  0.4778726E+02  0.7816164E-02  0.1312668E+00
        -11   -1    0    0    0    0  0.00000000000E+00  0.00000000000E+00  0.45593999997E+02  0.45594000000E+02  0.51100000000E-03 0. -1.
         11   -1    0    0    0    0 -0.00000000000E+00 -0.00000000000E+00 -0.45593999997E+02  0.45594000000E+02  0.51100000000E-03 0.  1.
    9900012    2    1    2    0    0 -0.18666084655E+01 -0.26689878942E+02 -0.34172942367E+02  0.47787264348E+02  0.19999969470E+02 0.  0.
         12    1    1    2    0    0  0.18666084655E+01  0.26689878942E+02  0.34172942367E+02  0.43400735652E+02  0.00000000000E+00 0. -1.
         11    1    3    3    0    0 -0.11782221354E+01 -0.20512884245E+02 -0.22044709640E+02  0.30135292447E+02  0.51100000000E-03 0. -1.
        -11    1    3    3    0    0 -0.46675678549E+01 -0.48720278617E+01 -0.11615641200E+02  0.13433017752E+02  0.51100000000E-03 0.  1.
         12    1    3    3    0    0  0.39791815248E+01 -0.13049668351E+01 -0.51259152617E+00  0.42189541501E+01  0.00000000000E+00 0. -1.
</event>
<event>
 7    1  0.2459936E-009  0.4778727E+02  0.7816164E-02  0.1312668E+00
        -11   -1    0    0    0    0  0.00000000000E+00  0.00000000000E+00  0.45593999997E+02  0.45594000000E+02  0.51100000000E-03 0.  1.
         11   -1    0    0    0    0 -0.00000000000E+00 -0.00000000000E+00 -0.45593999997E+02  0.45594000000E+02  0.51100000000E-03 0. -1.
    9900012    2    1    2    0    0 -0.39490972714E+00 -0.41286371957E+02 -0.13375451553E+02  0.47787272272E+02  0.20000005599E+02 0.  0.
         12    1    1    2    0    0  0.39490972714E+00  0.41286371957E+02  0.13375451553E+02  0.43400727728E+02  0.00000000000E+00 0. -1.
         11    1    3    3    0    0  0.10529397964E+01 -0.12581432817E+02 -0.66910784344E+01  0.14288865064E+02  0.51100000000E-03 0. -1.
        -11    1    3    3    0    0 -0.76321837251E+01 -0.20060544252E+02 -0.77423121428E+01  0.22817078290E+02  0.51100000000E-03 0.  1.
         12    1    3    3    0    0  0.61843342015E+01 -0.86443948882E+01  0.10579390240E+01  0.10681328919E+02  0.00000000000E+00 0. -1.
</event>
<event>
 7    1  0.2459936E-009  0.4778728E+02  0.7816164E-02  0.1312668E+00
        -11   -1    0    0    0    0  0.00000000000E+00  0.00000000000E+00  0.45593999997E+02  0.45594000000E+02  0.51100000000E-03 0. -1.
         11   -1    0    0    0    0 -0.00000000000E+00 -0.00000000000E+00 -0.45593999997E+02  0.45594000000E+02  0.51100000000E-03 0.  1.
    9900012    2    1    2    0    0 -0.30594024995E+02 -0.16988519919E+02 -0.25671358213E+02  0.47787276423E+02  0.20000024525E+02 0.  0.
         12    1    1    2    0    0  0.30594024995E+02  0.16988519919E+02  0.25671358213E+02  0.43400723577E+02  0.00000000000E+00 0. -1.
         11    1    3    3    0    0 -0.18852901404E+02 -0.54858135944E+01 -0.13153473203E+02  0.23633448747E+02  0.51100000000E-03 0. -1.
        -11    1    3    3    0    0 -0.14212053517E+02 -0.82954371288E+01 -0.11161052489E+02  0.19883808369E+02  0.51100000000E-03 0.  1.
         12    1    3    3    0    0  0.24709299255E+01 -0.32072691958E+01 -0.13568325214E+01  0.42700193070E+01  0.00000000000E+00 0. -1.
</event>
<event>
 7    1  0.2459936E-009  0.4778729E+02  0.7816164E-02  0.1312668E+00
        -11   -1    0    0    0    0  0.00000000000E+00  0.00000000000E+00  0.45593999997E+02  0.45594000000E+02  0.51100000000E-03 0. -1.
         11   -1    0    0    0    0 -0.00000000000E+00 -0.00000000000E+00 -0.45593999997E+02  0.45594000000E+02  0.51100000000E-03 0.  1.
    9900012    2    1    2    0    0  0.15094154830E+02 -0.42673574839E+01 -0.40466994460E+02  0.47787291589E+02  0.20000093673E+02 0.  0.
         12    1    1    2    0    0 -0.15094154830E+02  0.42673574839E+01  0.40466994460E+02  0.43400708411E+02  0.00000000000E+00 0. -1.
         11    1    3    3    0    0  0.18644090435E+01 -0.16723252158E+00  0.18346665919E+01  0.26210664933E+01  0.51100000000E-03 0. -1.
        -11    1    3    3    0    0  0.52598208268E+01 -0.40153305043E+01 -0.10750127482E+02  0.12623542899E+02  0.51100000000E-03 0.  1.
        -12    1    3    3    0    0  0.79699249598E+01 -0.84794457984E-01 -0.31551533570E+02  0.32542682197E+02  0.00000000000E+00 0.  1.
</event>
<event>
 7    1  0.2459936E-009  0.4778727E+02  0.7816164E-02  0.1312668E+00
        -11   -1    0    0    0    0  0.00000000000E+00  0.00000000000E+00  0.45593999997E+02  0.45594000000E+02  0.51100000000E-03 0. -1.
         11   -1    0    0    0    0 -0.00000000000E+00 -0.00000000000E+00 -0.45593999997E+02  0.45594000000E+02  0.51100000000E-03 0.  1.
    9900012    2    1    2    0    0 -0.28680383359E+02 -0.13627369388E+02 -0.29586379025E+02  0.47787269477E+02  0.19999992855E+02 0.  0.
         12    1    1    2    0    0  0.28680383359E+02  0.13627369388E+02  0.29586379025E+02  0.43400730523E+02  0.00000000000E+00 0. -1.
         11    1    3    3    0    0 -0.80253498967E+00  0.11463400938E+01  0.53473221729E+00  0.14980309829E+01  0.51100000000E-03 0. -1.
        -11    1    3    3    0    0 -0.18908573561E+02 -0.46152235783E+01 -0.25267374647E+02  0.31894743526E+02  0.51100000000E-03 0.  1.
         12    1    3    3    0    0 -0.89692748089E+01 -0.10158485904E+02 -0.48537365953E+01  0.14394494968E+02  0.00000000000E+00 0. -1.
</event>
<event>
 7    1  0.2459936E-009  0.4778727E+02  0.7816164E-02  0.1312668E+00
        -11   -1    0    0    0    0  0.00000000000E+00  0.00000000000E+00  0.45593999997E+02  0.45594000000E+02  0.51100000000E-03 0.  1.
         11   -1    0    0    0    0 -0.00000000000E+00 -0.00000000000E+00 -0.45593999997E+02  0.45594000000E+02  0.51100000000E-03 0. -1.
    9900012    2    1    2    0    0 -0.30232361275E+02 -0.22231278725E+02  0.21803622314E+02  0.47787269960E+02  0.19999995056E+02 0.  0.
         12    1    1    2    0    0  0.30232361275E+02  0.22231278725E+02 -0.21803622314E+02  0.43400730040E+02  0.00000000000E+00 0. -1.
         11    1    3    3    0    0 -0.13307460584E+02 -0.14219126180E+02  0.12898202316E+02  0.23358845857E+02  0.51100000000E-03 0.  1.
        -11    1    3    3    0    0 -0.58434787420E+01 -0.23219895470E+01 -0.32026727551E+01  0.70565566888E+01  0.51100000000E-03 0. -1.
         12    1    3    3    0    0 -0.11081421948E+02 -0.56901629979E+01  0.12108092753E+02  0.17371867414E+02  0.00000000000E+00 0. -1.
</event>
<event>
 7    1  0.2459936E-009  0.4778728E+02  0.7816164E-02  0.1312668E+00
        -11   -1    0    0    0    0  0.00000000000E+00  0.00000000000E+00  0.45593999997E+02  0.45594000000E+02  0.51100000000E-03 0. -1.
         11   -1    0    0    0    0 -0.00000000000E+00 -0.00000000000E+00 -0.45593999997E+02  0.45594000000E+02  0.51100000000E-03 0.  1.
    9900012    2    1    2    0    0 -0.31950899837E+01  0.40065218049E+02  0.16376577406E+02  0.47787278982E+02  0.20000036192E+02 0.  0.
         12    1    1    2    0    0  0.31950899837E+01 -0.40065218049E+02 -0.16376577406E+02  0.43400721018E+02  0.00000000000E+00 0. -1.
         11    1    3    3    0    0  0.24717678498E+01  0.95537041411E+01  0.12501137066E+02  0.15926748799E+02  0.51100000000E-03 0. -1.
        -11    1    3    3    0    0 -0.35897667764E+00  0.30561303716E+00 -0.70861717630E+00  0.85111817466E+00  0.51100000000E-03 0.  1.
        -12    1    3    3    0    0 -0.53078811559E+01  0.30205900871E+02  0.45840575162E+01  0.31009412008E+02  0.00000000000E+00 0.  1.
</event>
<event>
 7    1  0.2459936E-009  0.4778728E+02  0.7816164E-02  0.1312668E+00
        -11   -1    0    0    0    0  0.00000000000E+00  0.00000000000E+00  0.45593999997E+02  0.45594000000E+02  0.51100000000E-03 0.  1.
         11   -1    0    0    0    0 -0.00000000000E+00 -0.00000000000E+00 -0.45593999997E+02  0.45594000000E+02  0.51100000000E-03 0. -1.
    9900012    2    1    2    0    0 -0.29033982478E+02 -0.29281052717E+02 -0.13537750973E+02  0.47787275488E+02  0.20000020261E+02 0.  0.
         12    1    1    2    0    0  0.29033982478E+02  0.29281052717E+02  0.13537750973E+02  0.43400724512E+02  0.00000000000E+00 0. -1.
         11    1    3    3    0    0 -0.50291698886E+01 -0.18651361387E+01  0.30044989521E+01  0.61480319451E+01  0.51100000000E-03 0. -1.
        -11    1    3    3    0    0  0.73187977536E+00 -0.35667403811E+01 -0.36156712535E+00  0.36589637876E+01  0.51100000000E-03 0.  1.
         12    1    3    3    0    0 -0.24736692365E+02 -0.23849176197E+02 -0.16180682800E+02  0.37980279755E+02  0.00000000000E+00 0. -1.
</event>
<event>
 7    1  0.2459936E-009  0.4778726E+02  0.7816164E-02  0.1312668E+00
        -11   -1    0    0    0    0  0.00000000000E+00  0.00000000000E+00  0.45593999997E+02  0.45594000000E+02  0.51100000000E-03 0.  1.
         11   -1    0    0    0    0 -0.00000000000E+00 -0.00000000000E+00 -0.45593999997E+02  0.45594000000E+02  0.51100000000E-03 0. -1.
    9900012    2    1    2    0    0  0.15606172724E+02 -0.40496711998E+02 -0.29707752286E+00  0.47787256172E+02  0.19999932193E+02 0.  0.
         12    1    1    2    0    0 -0.15606172724E+02  0.40496711998E+02  0.29707752286E+00  0.43400743828E+02  0.00000000000E+00 0. -1.
         11    1    3    3    0    0  0.25374889839E+01  0.10494114965E+01  0.49772218038E+00  0.27906706116E+01  0.51100000000E-03 0. -1.
        -11    1    3    3    0    0  0.16938668772E+01 -0.21417712795E+02 -0.33176607796E+01  0.21739238249E+02  0.51100000000E-03 0.  1.
         12    1    3    3    0    0  0.11374816862E+02 -0.20128410700E+02  0.25228610763E+01  0.23257347311E+02  0.00000000000E+00 0. -1.
</event>
<event>
 7    1  0.2459936E-009  0.4778727E+02  0.7816164E-02  0.1312668E+00
        -11   -1    0    0    0    0  0.00000000000E+00  0.00000000000E+00  0.45593999997E+02  0.45594000000E+02  0.51100000000E-03 0. -1.
         11   -1    0    0    0    0 -0.00000000000E+00 -0.00000000000E+00 -0.45593999997E+02  0.45594000000E+02  0.51100000000E-03 0.  1.
    9900012    2    1    2    0    0  0.30191507631E+02 -0.98470659076E+01 -0.29582623927E+02  0.47787268688E+02  0.19999989254E+02 0.  0.
         12    1    1    2    0    0 -0.30191507631E+02  0.98470659076E+01  0.29582623927E+02  0.43400731312E+02  0.00000000000E+00 0. -1.
         11    1    3    3    0    0  0.16258329738E+02 -0.77681744719E+01 -0.14838364769E+02  0.23342126934E+02  0.51100000000E-03 0. -1.
        -11    1    3    3    0    0  0.12617196696E+02 -0.17723040838E+01 -0.17340644997E+02  0.21518194241E+02  0.51100000000E-03 0.  1.
         12    1    3    3    0    0  0.13159811968E+01 -0.30658735196E+00  0.25963858391E+01  0.29269475123E+01  0.00000000000E+00 0. -1.
</event>
<event>
 7    1  0.2459936E-009  0.4778727E+02  0.7816164E-02  0.1312668E+00
        -11   -1    0    0    0    0  0.00000000000E+00  0.00000000000E+00  0.45593999997E+02  0.45594000000E+02  0.51100000000E-03 0. -1.
         11   -1    0    0    0    0 -0.00000000000E+00 -0.00000000000E+00 -0.45593999997E+02  0.45594000000E+02  0.51100000000E-03 0.  1.
    9900012    2    1    2    0    0 -0.35640659934E+02 -0.24412560596E+02 -0.41705526107E+01  0.47787271153E+02  0.20000000496E+02 0.  0.
         12    1    1    2    0    0  0.35640659934E+02  0.24412560596E+02  0.41705526107E+01  0.43400728847E+02  0.00000000000E+00 0. -1.
         11    1    3    3    0    0 -0.63394601964E+01 -0.10406438556E+02 -0.25404796066E+01  0.12447359394E+02  0.51100000000E-03 0. -1.
        -11    1    3    3    0    0 -0.11782087126E+02 -0.80484946304E+01  0.57960920326E+01  0.15400991071E+02  0.51100000000E-03 0.  1.
        -12    1    3    3    0    0 -0.17519112612E+02 -0.59576274096E+01 -0.74261650368E+01  0.19938920688E+02  0.00000000000E+00 0.  1.
</event>
<event>
 7    1  0.2459936E-009  0.4778728E+02  0.7816164E-02  0.1312668E+00
        -11   -1    0    0    0    0  0.00000000000E+00  0.00000000000E+00  0.45593999997E+02  0.45594000000E+02  0.51100000000E-03 0. -1.
         11   -1    0    0    0    0 -0.00000000000E+00 -0.00000000000E+00 -0.45593999997E+02  0.45594000000E+02  0.51100000000E-03 0.  1.
    9900012    2    1    2    0    0 -0.15140570819E+02 -0.28100115993E+02 -0.29406962222E+02  0.47787276151E+02  0.20000023281E+02 0.  0.
         12    1    1    2    0    0  0.15140570819E+02  0.28100115993E+02  0.29406962222E+02  0.43400723849E+02  0.00000000000E+00 0. -1.
         11    1    3    3    0    0 -0.13836755389E+01  0.39420615113E+00 -0.57558913850E+01  0.59329792165E+01  0.51100000000E-03 0. -1.
        -11    1    3    3    0    0 -0.42240808997E+01 -0.18402716058E+02 -0.19990304099E+02  0.27497546727E+02  0.51100000000E-03 0.  1.
        -12    1    3    3    0    0 -0.95328143808E+01 -0.10091606086E+02 -0.36607667377E+01  0.14356750208E+02  0.00000000000E+00 0.  1.
</event>
<event>
 7    1  0.2459936E-009  0.4778728E+02  0.7816164E-02  0.1312668E+00
        -11   -1    0    0    0    0  0.00000000000E+00  0.00000000000E+00  0.45593999997E+02  0.45594000000E+02  0.51100000000E-03 0.  1.
         11   -1    0    0    0    0 -0.00000000000E+00 -0.00000000000E+00 -0.45593999997E+02  0.45594000000E+02  0.51100000000E-03 0. -1.
    9900012    2    1    2    0    0  0.94303489485E+01  0.16469168236E+02  0.39031498944E+02  0.47787275427E+02  0.20000019982E+02 0.  0.
         12    1    1    2    0    0 -0.94303489485E+01 -0.16469168236E+02 -0.39031498944E+02  0.43400724573E+02  0.00000000000E+00 0. -1.
         11    1    3    3    0    0  0.13034004519E+01 -0.32294871637E+01  0.44726183091E+01  0.56685760891E+01  0.51100000000E-03 0. -1.
        -11    1    3    3    0    0  0.75325896150E+01  0.53695056248E+01  0.17807041687E+02  0.20066445397E+02  0.51100000000E-03 0.  1.
         12    1    3    3    0    0  0.59435888151E+00  0.14329149775E+02  0.16751838947E+02  0.22052253941E+02  0.00000000000E+00 0. -1.
</event>
<event>
 7    1  0.2459936E-009  0.4778726E+02  0.7816164E-02  0.1312668E+00
        -11   -1    0    0    0    0  0.00000000000E+00  0.00000000000E+00  0.45593999997E+02  0.45594000000E+02  0.51100000000E-03 0.  1.
         11   -1    0    0    0    0 -0.00000000000E+00 -0.00000000000E+00 -0.45593999997E+02  0.45594000000E+02  0.51100000000E-03 0. -1.
    9900012    2    1    2    0    0  0.31065637036E+00  0.88825275361E+00  0.43390535982E+02  0.47787261375E+02  0.19999955914E+02 0.  0.
         12    1    1    2    0    0 -0.31065637036E+00 -0.88825275361E+00 -0.43390535982E+02  0.43400738625E+02  0.00000000000E+00 0. -1.
         11    1    3    3    0    0 -0.42140628403E+01 -0.24549435518E+01  0.28401960625E+01  0.56437387784E+01  0.51100000000E-03 0.  1.
        -11    1    3    3    0    0  0.20115767971E+01 -0.18788225775E+00  0.82472568940E+00  0.21821809452E+01  0.51100000000E-03 0. -1.
        -12    1    3    3    0    0  0.25131424135E+01  0.35310785632E+01  0.39725614231E+02  0.39961341652E+02  0.00000000000E+00 0.  1.
</event>
<event>
 7    1  0.2459936E-009  0.4778727E+02  0.7816164E-02  0.1312668E+00
        -11   -1    0    0    0    0  0.00000000000E+00  0.00000000000E+00  0.45593999997E+02  0.45594000000E+02  0.51100000000E-03 0.  1.
         11   -1    0    0    0    0 -0.00000000000E+00 -0.00000000000E+00 -0.45593999997E+02  0.45594000000E+02  0.51100000000E-03 0. -1.
    9900012    2    1    2    0    0  0.26442623861E+02 -0.11118222038E+01  0.34397307623E+02  0.47787271009E+02  0.19999999837E+02 0.  0.
         12    1    1    2    0    0 -0.26442623861E+02  0.11118222038E+01 -0.34397307623E+02  0.43400728991E+02  0.00000000000E+00 0. -1.
         11    1    3    3    0    0  0.24663701465E+01 -0.19485829900E+01  0.21171367993E+00  0.31503619335E+01  0.51100000000E-03 0. -1.
        -11    1    3    3    0    0  0.92426241874E+01 -0.26819975659E+01  0.31917125763E+01  0.10139341312E+02  0.51100000000E-03 0.  1.
        -12    1    3    3    0    0  0.14733629527E+02  0.35187583521E+01  0.30993881367E+02  0.34497567763E+02  0.00000000000E+00 0.  1.
</event>
<event>
 7    1  0.2459936E-009  0.4778727E+02  0.7816164E-02  0.1312668E+00
        -11   -1    0    0    0    0  0.00000000000E+00  0.00000000000E+00  0.45593999997E+02  0.45594000000E+02  0.51100000000E-03 0.  1.
         11   -1    0    0    0    0 -0.00000000000E+00 -0.00000000000E+00 -0.45593999997E+02  0.45594000000E+02  0.51100000000E-03 0. -1.
    9900012    2    1    2    0    0  0.10159659354E+01  0.42691480159E+02  0.77478007241E+01  0.47787273266E+02  0.20000010129E+02 0.  0.
         12    1    1    2    0    0 -0.10159659354E+01 -0.42691480159E+02 -0.77478007241E+01  0.43400726734E+02  0.00000000000E+00 0. -1.
         11    1    3    3    0    0 -0.72250676207E+00 -0.51137287585E+00  0.15128272478E+01  0.17527591911E+01  0.51100000000E-03 0. -1.
        -11    1    3    3    0    0  0.69543615962E+01  0.11210297896E+02  0.20501715349E+01  0.13350547843E+02  0.51100000000E-03 0.  1.
        -12    1    3    3    0    0 -0.52158888987E+01  0.31992555139E+02  0.41848019415E+01  0.32683966231E+02  0.00000000000E+00 0.  1.
</event>
<event>
 7    1  0.2459936E-009  0.4778728E+02  0.7816164E-02  0.1312668E+00
        -11   -1    0    0    0    0  0.00000000000E+00  0.00000000000E+00  0.45593999997E+02  0.45594000000E+02  0.51100000000E-03 0.  1.
         11   -1    0    0    0    0 -0.00000000000E+00 -0.00000000000E+00 -0.45593999997E+02  0.45594000000E+02  0.51100000000E-03 0. -1.
    9900012    2    1    2    0    0 -0.64991081047E+00 -0.14249176592E+02  0.40989771615E+02  0.47787276566E+02  0.20000025174E+02 0.  0.
         12    1    1    2    0    0  0.64991081047E+00  0.14249176592E+02 -0.40989771615E+02  0.43400723434E+02  0.00000000000E+00 0. -1.
         11    1    3    3    0    0  0.81324802744E+00  0.26455438522E+01  0.33956697813E+01  0.43807360287E+01  0.51100000000E-03 0. -1.
        -11    1    3    3    0    0 -0.26484336477E+01  0.16365272817E+01  0.59987749270E+01  0.67585296637E+01  0.51100000000E-03 0.  1.
         12    1    3    3    0    0  0.11852748098E+01 -0.18531247726E+02  0.31595326906E+02  0.36648010873E+02  0.00000000000E+00 0. -1.
</event>
<event>
 7    1  0.2459936E-009  0.4778727E+02  0.7816164E-02  0.1312668E+00
        -11   -1    0    0    0    0  0.00000000000E+00  0.00000000000E+00  0.45593999997E+02  0.45594000000E+02  0.51100000000E-03 0. -1.
         11   -1    0    0    0    0 -0.00000000000E+00 -0.00000000000E+00 -0.45593999997E+02  0.45594000000E+02  0.51100000000E-03 0.  1.
    9900012    2    1    2    0    0  0.20838091237E+02 -0.10415601850E+02 -0.36618474072E+02  0.47787268996E+02  0.19999990661E+02 0.  0.
         12    1    1    2    0    0 -0.20838091237E+02  0.10415601850E+02  0.36618474072E+02  0.43400731004E+02  0.00000000000E+00 0. -1.
         11    1    3    3    0    0  0.72523966363E+01  0.56008707552E+01 -0.14347139735E+02  0.17023731348E+02  0.51100000000E-03 0. -1.
        -11    1    3    3    0    0  0.34646725449E+01 -0.42662708072E+01 -0.78758262520E+01  0.96038357887E+01  0.51100000000E-03 0.  1.
         12    1    3    3    0    0  0.10121022056E+02 -0.11750201798E+02 -0.14395508085E+02  0.21159701859E+02  0.00000000000E+00 0. -1.
</event>
<event>
 7    1  0.2459936E-009  0.4778728E+02  0.7816164E-02  0.1312668E+00
        -11   -1    0    0    0    0  0.00000000000E+00  0.00000000000E+00  0.45593999997E+02  0.45594000000E+02  0.51100000000E-03 0.  1.
         11   -1    0    0    0    0 -0.00000000000E+00 -0.00000000000E+00 -0.45593999997E+02  0.45594000000E+02  0.51100000000E-03 0. -1.
    9900012    2    1    2    0    0 -0.29668014274E+02 -0.15532499634E+02  0.27607483716E+02  0.47787276816E+02  0.20000026314E+02 0.  0.
         12    1    1    2    0    0  0.29668014274E+02  0.15532499634E+02 -0.27607483716E+02  0.43400723184E+02  0.00000000000E+00 0. -1.
         11    1    3    3    0    0 -0.67233711471E+00  0.42805122015E+00 -0.40837242122E+00  0.89556314039E+00  0.51100000000E-03 0. -1.
        -11    1    3    3    0    0 -0.26225594253E+02 -0.16680427478E+02  0.16828929105E+02  0.35344466468E+02  0.51100000000E-03 0.  1.
        -12    1    3    3    0    0 -0.27700829055E+01  0.71987662436E+00  0.11186927032E+02  0.11547247208E+02  0.00000000000E+00 0.  1.
</event>
<event>
 7    1  0.2459936E-009  0.4778728E+02  0.7816164E-02  0.1312668E+00
        -11   -1    0    0    0    0  0.00000000000E+00  0.00000000000E+00  0.45593999997E+02  0.45594000000E+02  0.51100000000E-03 0.  1.
         11   -1    0    0    0    0 -0.00000000000E+00 -0.00000000000E+00 -0.45593999997E+02  0.45594000000E+02  0.51100000000E-03 0. -1.
    9900012    2    1    2    0    0  0.50294370355E+01 -0.15842111406E+02  0.40091830828E+02  0.47787278464E+02  0.20000033831E+02 0.  0.
         12    1    1    2    0    0 -0.50294370355E+01  0.15842111406E+02 -0.40091830828E+02  0.43400721536E+02  0.00000000000E+00 0. -1.
         11    1    3    3    0    0 -0.10259788880E+01 -0.25070697137E+01  0.17737334163E+02  0.17942994585E+02  0.51100000000E-03 0. -1.
        -11    1    3    3    0    0 -0.11197510803E+01 -0.76101728934E+01  0.18219543735E+02  0.19776762832E+02  0.51100000000E-03 0.  1.
         12    1    3    3    0    0  0.71751670038E+01 -0.57248687990E+01  0.41349529298E+01  0.10067521047E+02  0.00000000000E+00 0. -1.
</event>
<event>
 7    1  0.2459936E-009  0.4778727E+02  0.7816164E-02  0.1312668E+00
        -11   -1    0    0    0    0  0.00000000000E+00  0.00000000000E+00  0.45593999997E+02  0.45594000000E+02  0.51100000000E-03 0.  1.
         11   -1    0    0    0    0 -0.00000000000E+00 -0.00000000000E+00 -0.45593999997E+02  0.45594000000E+02  0.51100000000E-03 0. -1.
    9900012    2    1    2    0    0  0.25542349688E+02  0.18070914299E+02  0.30077458464E+02  0.47787273291E+02  0.20000010243E+02 0.  0.
         12    1    1    2    0    0 -0.25542349688E+02 -0.18070914299E+02 -0.30077458464E+02  0.43400726709E+02  0.00000000000E+00 0. -1.
         11    1    3    3    0    0  0.12161759583E+02  0.41141134969E+01  0.70790201976E+01  0.14661065897E+02  0.51100000000E-03 0. -1.
        -11    1    3    3    0    0  0.15406809472E+02  0.78227435849E+01  0.18061640965E+02  0.24995759039E+02  0.51100000000E-03 0.  1.
        -12    1    3    3    0    0 -0.20262193662E+01  0.61340572175E+01  0.49367973012E+01  0.81304483554E+01  0.00000000000E+00 0.  1.
</event>
<event>
 7    1  0.2459936E-009  0.4778728E+02  0.7816164E-02  0.1312668E+00
        -11   -1    0    0    0    0  0.00000000000E+00  0.00000000000E+00  0.45593999997E+02  0.45594000000E+02  0.51100000000E-03 0. -1.
         11   -1    0    0    0    0 -0.00000000000E+00 -0.00000000000E+00 -0.45593999997E+02  0.45594000000E+02  0.51100000000E-03 0.  1.
    9900012    2    1    2    0    0  0.11980970209E+02  0.60977038829E+00 -0.41709797367E+02  0.47787278076E+02  0.20000032062E+02 0.  0.
         12    1    1    2    0    0 -0.11980970209E+02 -0.60977038829E+00  0.41709797367E+02  0.43400721924E+02  0.00000000000E+00 0. -1.
         11    1    3    3    0    0  0.35654847489E+01 -0.12040956332E+00 -0.52394882185E+01  0.63387236105E+01  0.51100000000E-03 0. -1.
        -11    1    3    3    0    0  0.20405806939E+01 -0.68624959980E+01 -0.26253830766E+02  0.27212523790E+02  0.51100000000E-03 0.  1.
        -12    1    3    3    0    0  0.63749047664E+01  0.75926759496E+01 -0.10216478383E+02  0.14236030676E+02  0.00000000000E+00 0.  1.
</event>
<event>
 7    1  0.2459936E-009  0.4778727E+02  0.7816164E-02  0.1312668E+00
        -11   -1    0    0    0    0  0.00000000000E+00  0.00000000000E+00  0.45593999997E+02  0.45594000000E+02  0.51100000000E-03 0. -1.
         11   -1    0    0    0    0 -0.00000000000E+00 -0.00000000000E+00 -0.45593999997E+02  0.45594000000E+02  0.51100000000E-03 0.  1.
    9900012    2    1    2    0    0 -0.13386405574E+02  0.29031435435E+02 -0.29353080303E+02  0.47787269350E+02  0.19999992276E+02 0.  0.
         12    1    1    2    0    0  0.13386405574E+02 -0.29031435435E+02  0.29353080303E+02  0.43400730650E+02  0.00000000000E+00 0. -1.
         11    1    3    3    0    0 -0.23019775287E-01  0.12728619442E+02 -0.14615039285E+02  0.19380857988E+02  0.51100000000E-03 0. -1.
        -11    1    3    3    0    0 -0.46195949554E+01  0.14505036714E+02 -0.78276223626E+01  0.17117488710E+02  0.51100000000E-03 0.  1.
         12    1    3    3    0    0 -0.87437908432E+01  0.17977792799E+01 -0.69104186557E+01  0.11288922652E+02  0.00000000000E+00 0. -1.
</event>
<event>
 7    1  0.2459936E-009  0.4778727E+02  0.7816164E-02  0.1312668E+00
        -11   -1    0    0    0    0  0.00000000000E+00  0.00000000000E+00  0.45593999997E+02  0.45594000000E+02  0.51100000000E-03 0. -1.
         11   -1    0    0    0    0 -0.00000000000E+00 -0.00000000000E+00 -0.45593999997E+02  0.45594000000E+02  0.51100000000E-03 0.  1.
    9900012    2    1    2    0    0 -0.26907486591E+02  0.88723521934E+01 -0.32876919686E+02  0.47787270558E+02  0.19999997780E+02 0.  0.
         12    1    1    2    0    0  0.26907486591E+02 -0.88723521934E+01  0.32876919686E+02  0.43400729442E+02  0.00000000000E+00 0. -1.
         11    1    3    3    0    0 -0.81066608270E+00  0.39684428443E+01 -0.14106131556E+02  0.14676125709E+02  0.51100000000E-03 0. -1.
        -11    1    3    3    0    0 -0.12795581241E+01  0.14269548512E+01 -0.28062717628E+01  0.33983276193E+01  0.51100000000E-03 0.  1.
        -12    1    3    3    0    0 -0.24817262384E+02  0.34769544979E+01 -0.15964516368E+02  0.29712817229E+02  0.00000000000E+00 0.  1.
</event>
<event>
 7    1  0.2459936E-009  0.4778727E+02  0.7816164E-02  0.1312668E+00
        -11   -1    0    0    0    0  0.00000000000E+00  0.00000000000E+00  0.45593999997E+02  0.45594000000E+02  0.51100000000E-03 0. -1.
         11   -1    0    0    0    0 -0.00000000000E+00 -0.00000000000E+00 -0.45593999997E+02  0.45594000000E+02  0.51100000000E-03 0.  1.
    9900012    2    1    2    0    0  0.30482299780E+02 -0.20796319091E+02  0.22846569105E+02  0.47787271809E+02  0.20000003485E+02 0.  0.
         12    1    1    2    0    0 -0.30482299780E+02  0.20796319091E+02 -0.22846569105E+02  0.43400728191E+02  0.00000000000E+00 0. -1.
         11    1    3    3    0    0  0.17981499678E+02 -0.96009540561E+01  0.18719892057E+02  0.27675747657E+02  0.51100000000E-03 0. -1.
        -11    1    3    3    0    0  0.13624731246E+01  0.10256640687E+01  0.31076911302E+01  0.35448644853E+01  0.51100000000E-03 0.  1.
        -12    1    3    3    0    0  0.11138326978E+02 -0.12221029104E+02  0.10189859178E+01  0.16566659667E+02  0.00000000000E+00 0.  1.
</event>
<event>
 7    1  0.2459936E-009  0.4778727E+02  0.7816164E-02  0.1312668E+00
        -11   -1    0    0    0    0  0.00000000000E+00  0.00000000000E+00  0.45593999997E+02  0.45594000000E+02  0.51100000000E-03 0.  1.
         11   -1    0    0    0    0 -0.00000000000E+00 -0.00000000000E+00 -0.45593999997E+02  0.45594000000E+02  0.51100000000E-03 0. -1.
    9900012    2    1    2    0    0  0.19424961689E+02 -0.38091247867E+02  0.74398294248E+01  0.47787270023E+02  0.19999995344E+02 0.  0.
         12    1    1    2    0    0 -0.19424961689E+02  0.38091247867E+02 -0.74398294248E+01  0.43400729977E+02  0.00000000000E+00 0. -1.
         11    1    3    3    0    0  0.19149207359E+01 -0.22987465076E+01 -0.50003625094E+01  0.58270732291E+01  0.51100000000E-03 0. -1.
        -11    1    3    3    0    0  0.13166706101E+00 -0.14929146266E+00  0.51446360007E+00  0.55163141018E+00  0.51100000000E-03 0.  1.
        -12    1    3    3    0    0  0.17378373892E+02 -0.35643209896E+02  0.11925728334E+02  0.41408565384E+02  0.00000000000E+00 0.  1.
</event>
<event>
 7    1  0.2459936E-009  0.4778722E+02  0.7816164E-02  0.1312668E+00
        -11   -1    0    0    0    0  0.00000000000E+00  0.00000000000E+00  0.45593999997E+02  0.45594000000E+02  0.51100000000E-03 0.  1.
         11   -1    0    0    0    0 -0.00000000000E+00 -0.00000000000E+00 -0.45593999997E+02  0.45594000000E+02  0.51100000000E-03 0. -1.
    9900012    2    1    2    0    0  0.73853168830E-01  0.38736104463E+02  0.19573880786E+02  0.47787215994E+02  0.19999749003E+02 0.  0.
         12    1    1    2    0    0 -0.73853168830E-01 -0.38736104463E+02 -0.19573880786E+02  0.43400784006E+02  0.00000000000E+00 0. -1.
         11    1    3    3    0    0  0.81151804617E+00  0.14326103700E+02 -0.18692966790E+00  0.14350287514E+02  0.51100000000E-03 0. -1.
        -11    1    3    3    0    0 -0.43172164829E+01  0.13345508595E+02  0.55751049462E+01  0.15093798503E+02  0.51100000000E-03 0.  1.
        -12    1    3    3    0    0  0.35795516056E+01  0.11064492168E+02  0.14185705507E+02  0.18343129977E+02  0.00000000000E+00 0.  1.
</event>
<event>
 7    1  0.2459936E-009  0.4778727E+02  0.7816164E-02  0.1312668E+00
        -11   -1    0    0    0    0  0.00000000000E+00  0.00000000000E+00  0.45593999997E+02  0.45594000000E+02  0.51100000000E-03 0. -1.
         11   -1    0    0    0    0 -0.00000000000E+00 -0.00000000000E+00 -0.45593999997E+02  0.45594000000E+02  0.51100000000E-03 0.  1.
    9900012    2    1    2    0    0 -0.20934860990E+02  0.35512248683E+02 -0.13573320650E+02  0.47787271381E+02  0.20000001534E+02 0.  0.
         12    1    1    2    0    0  0.20934860990E+02 -0.35512248683E+02  0.13573320650E+02  0.43400728619E+02  0.00000000000E+00 0. -1.
         11    1    3    3    0    0  0.36418979303E+01  0.45671320107E+01 -0.18322184656E+01  0.61220209167E+01  0.51100000000E-03 0. -1.
        -11    1    3    3    0    0 -0.53629100114E+01  0.10572642703E+02 -0.49691043140E+01  0.12854321276E+02  0.51100000000E-03 0.  1.
        -12    1    3    3    0    0 -0.19213848909E+02  0.20372473969E+02 -0.67719978702E+01  0.28810929188E+02  0.00000000000E+00 0.  1.
</event>
<event>
 7    1  0.2459936E-009  0.4778727E+02  0.7816164E-02  0.1312668E+00
        -11   -1    0    0    0    0  0.00000000000E+00  0.00000000000E+00  0.45593999997E+02  0.45594000000E+02  0.51100000000E-03 0.  1.
         11   -1    0    0    0    0 -0.00000000000E+00 -0.00000000000E+00 -0.45593999997E+02  0.45594000000E+02  0.51100000000E-03 0. -1.
    9900012    2    1    2    0    0 -0.29708815831E+02 -0.27292564655E+02 -0.16003914036E+02  0.47787273186E+02  0.20000009764E+02 0.  0.
         12    1    1    2    0    0  0.29708815831E+02  0.27292564655E+02  0.16003914036E+02  0.43400726814E+02  0.00000000000E+00 0. -1.
         11    1    3    3    0    0 -0.14736441246E+02 -0.14195656184E+02 -0.10866784420E+02  0.23168218727E+02  0.51100000000E-03 0. -1.
        -11    1    3    3    0    0 -0.10272574060E+02 -0.15313362809E+02 -0.19966890882E+01  0.18547550402E+02  0.51100000000E-03 0.  1.
        -12    1    3    3    0    0 -0.46998005255E+01  0.22164543381E+01 -0.31404405274E+01  0.60715040574E+01  0.00000000000E+00 0.  1.
</event>
<event>
 7    1  0.2459936E-009  0.4778727E+02  0.7816164E-02  0.1312668E+00
        -11   -1    0    0    0    0  0.00000000000E+00  0.00000000000E+00  0.45593999997E+02  0.45594000000E+02  0.51100000000E-03 0.  1.
         11   -1    0    0    0    0 -0.00000000000E+00 -0.00000000000E+00 -0.45593999997E+02  0.45594000000E+02  0.51100000000E-03 0. -1.
    9900012    2    1    2    0    0 -0.39680328144E+02  0.26623975964E+01  0.17378336219E+02  0.47787269911E+02  0.19999994832E+02 0.  0.
         12    1    1    2    0    0  0.39680328144E+02 -0.26623975964E+01 -0.17378336219E+02  0.43400730089E+02  0.00000000000E+00 0. -1.
         11    1    3    3    0    0 -0.48270790565E+01 -0.20842877108E+00 -0.24440430444E+01  0.54145619799E+01  0.51100000000E-03 0. -1.
        -11    1    3    3    0    0 -0.27959368224E+01  0.14499750361E+01 -0.18482699994E+01  0.36518204463E+01  0.51100000000E-03 0.  1.
         12    1    3    3    0    0 -0.32057312265E+02  0.14208513313E+01  0.21670649263E+02  0.38720887485E+02  0.00000000000E+00 0. -1.
</event>
<event>
 7    1  0.2459936E-009  0.4778727E+02  0.7816164E-02  0.1312668E+00
        -11   -1    0    0    0    0  0.00000000000E+00  0.00000000000E+00  0.45593999997E+02  0.45594000000E+02  0.51100000000E-03 0.  1.
         11   -1    0    0    0    0 -0.00000000000E+00 -0.00000000000E+00 -0.45593999997E+02  0.45594000000E+02  0.51100000000E-03 0. -1.
    9900012    2    1    2    0    0 -0.56023208258E+01  0.30824103871E+02  0.30035178179E+02  0.47787270671E+02  0.19999998295E+02 0.  0.
         12    1    1    2    0    0  0.56023208258E+01 -0.30824103871E+02 -0.30035178179E+02  0.43400729329E+02  0.00000000000E+00 0. -1.
         11    1    3    3    0    0 -0.51753552641E+01  0.41034764583E+00  0.17115155569E+01  0.54664406210E+01  0.51100000000E-03 0. -1.
        -11    1    3    3    0    0  0.33245164466E+01  0.14583805321E+02  0.11083698534E+02  0.18616878382E+02  0.51100000000E-03 0.  1.
        -12    1    3    3    0    0 -0.37514820083E+01  0.15829950904E+02  0.17239964089E+02  0.23703951668E+02  0.00000000000E+00 0.  1.
</event>
<event>
 7    1  0.2459936E-009  0.4778726E+02  0.7816164E-02  0.1312668E+00
        -11   -1    0    0    0    0  0.00000000000E+00  0.00000000000E+00  0.45593999997E+02  0.45594000000E+02  0.51100000000E-03 0.  1.
         11   -1    0    0    0    0 -0.00000000000E+00 -0.00000000000E+00 -0.45593999997E+02  0.45594000000E+02  0.51100000000E-03 0. -1.
    9900012    2    1    2    0    0 -0.88435701164E+01  0.28068384053E+02  0.31899544549E+02  0.47787264313E+02  0.19999969308E+02 0.  0.
         12    1    1    2    0    0  0.88435701164E+01 -0.28068384053E+02 -0.31899544549E+02  0.43400735687E+02  0.00000000000E+00 0. -1.
         11    1    3    3    0    0  0.33744373640E+01  0.21825374045E+01  0.41505496372E+01  0.57773142200E+01  0.51100000000E-03 0. -1.
        -11    1    3    3    0    0 -0.63403798198E+00  0.13892740060E+02  0.17816672466E+02  0.22601859405E+02  0.51100000000E-03 0.  1.
        -12    1    3    3    0    0 -0.11583969498E+02  0.11993106589E+02  0.99323224452E+01  0.19408090688E+02  0.00000000000E+00 0.  1.
</event>
<event>
 7    1  0.2459936E-009  0.4778728E+02  0.7816164E-02  0.1312668E+00
        -11   -1    0    0    0    0  0.00000000000E+00  0.00000000000E+00  0.45593999997E+02  0.45594000000E+02  0.51100000000E-03 0. -1.
         11   -1    0    0    0    0 -0.00000000000E+00 -0.00000000000E+00 -0.45593999997E+02  0.45594000000E+02  0.51100000000E-03 0.  1.
    9900012    2    1    2    0    0  0.13550861988E+02  0.11383301255E+02 -0.39628488155E+02  0.47787280173E+02  0.20000041621E+02 0.  0.
         12    1    1    2    0    0 -0.13550861988E+02 -0.11383301255E+02  0.39628488155E+02  0.43400719827E+02  0.00000000000E+00 0. -1.
         11    1    3    3    0    0  0.20790535840E+01  0.15901441200E+01  0.12214124863E+01  0.28884028199E+01  0.51100000000E-03 0. -1.
        -11    1    3    3    0    0  0.57915112565E+00  0.50574002731E+01 -0.50109967579E+01  0.71430247317E+01  0.51100000000E-03 0.  1.
        -12    1    3    3    0    0  0.10892657278E+02  0.47357568623E+01 -0.35838903883E+02  0.37755852621E+02  0.00000000000E+00 0.  1.
</event>
<event>
 7    1  0.2459936E-009  0.4778727E+02  0.7816164E-02  0.1312668E+00
        -11   -1    0    0    0    0  0.00000000000E+00  0.00000000000E+00  0.45593999997E+02  0.45594000000E+02  0.51100000000E-03 0.  1.
         11   -1    0    0    0    0 -0.00000000000E+00 -0.00000000000E+00 -0.45593999997E+02  0.45594000000E+02  0.51100000000E-03 0. -1.
    9900012    2    1    2    0    0  0.11816499742E+02  0.41739797993E+02  0.13352509910E+01  0.47787270769E+02  0.19999998742E+02 0.  0.
         12    1    1    2    0    0 -0.11816499742E+02 -0.41739797993E+02 -0.13352509910E+01  0.43400729231E+02  0.00000000000E+00 0. -1.
         11    1    3    3    0    0  0.94632825514E+00 -0.44973171751E+00  0.66409314638E+00  0.12404901259E+01  0.51100000000E-03 0. -1.
        -11    1    3    3    0    0  0.73365508632E+01  0.31394716532E+02  0.77553685753E+01  0.33160201246E+02  0.51100000000E-03 0.  1.
        -12    1    3    3    0    0  0.35336206234E+01  0.10794813179E+02 -0.70842107307E+01  0.13386579397E+02  0.00000000000E+00 0.  1.
</event>
<event>
 7    1  0.2459936E-009  0.4778727E+02  0.7816164E-02  0.1312668E+00
        -11   -1    0    0    0    0  0.00000000000E+00  0.00000000000E+00  0.45593999997E+02  0.45594000000E+02  0.51100000000E-03 0.  1.
         11   -1    0    0    0    0 -0.00000000000E+00 -0.00000000000E+00 -0.45593999997E+02  0.45594000000E+02  0.51100000000E-03 0. -1.
    9900012    2    1    2    0    0 -0.43180275651E+02 -0.43166009599E+01 -0.67404983896E+00  0.47787267375E+02  0.19999983272E+02 0.  0.
         12    1    1    2    0    0  0.43180275651E+02  0.43166009599E+01  0.67404983896E+00  0.43400732625E+02  0.00000000000E+00 0. -1.
         11    1    3    3    0    0 -0.14901514345E+02 -0.17695423602E+01  0.54635066487E-01  0.15006311845E+02  0.51100000000E-03 0. -1.
        -11    1    3    3    0    0 -0.24549889749E+02 -0.49139029339E+01 -0.61570917764E+01  0.25782810323E+02  0.51100000000E-03 0.  1.
         12    1    3    3    0    0 -0.37288715575E+01  0.23668443342E+01  0.54284068710E+01  0.69981452079E+01  0.00000000000E+00 0. -1.
</event>
<event>
 7    1  0.2459936E-009  0.4778727E+02  0.7816164E-02  0.1312668E+00
        -11   -1    0    0    0    0  0.00000000000E+00  0.00000000000E+00  0.45593999997E+02  0.45594000000E+02  0.51100000000E-03 0.  1.
         11   -1    0    0    0    0 -0.00000000000E+00 -0.00000000000E+00 -0.45593999997E+02  0.45594000000E+02  0.51100000000E-03 0. -1.
    9900012    2    1    2    0    0 -0.32942439489E+02  0.27750983634E+02 -0.53199578303E+01  0.47787270012E+02  0.19999995293E+02 0.  0.
         12    1    1    2    0    0  0.32942439489E+02 -0.27750983634E+02  0.53199578303E+01  0.43400729988E+02  0.00000000000E+00 0. -1.
         11    1    3    3    0    0 -0.43183850223E+01  0.72632806064E+01 -0.79282400698E+01  0.11587091319E+02  0.51100000000E-03 0. -1.
        -11    1    3    3    0    0 -0.11080349025E+02  0.97305913716E+01 -0.25960868484E+01  0.14973249819E+02  0.51100000000E-03 0.  1.
        -12    1    3    3    0    0 -0.17543705442E+02  0.10757111657E+02  0.52043690880E+01  0.21226928874E+02  0.00000000000E+00 0.  1.
</event>
<event>
 7    1  0.2459936E-009  0.4778728E+02  0.7816164E-02  0.1312668E+00
        -11   -1    0    0    0    0  0.00000000000E+00  0.00000000000E+00  0.45593999997E+02  0.45594000000E+02  0.51100000000E-03 0.  1.
         11   -1    0    0    0    0 -0.00000000000E+00 -0.00000000000E+00 -0.45593999997E+02  0.45594000000E+02  0.51100000000E-03 0. -1.
    9900012    2    1    2    0    0 -0.28158773551E+02  0.32922763882E+02  0.26072833787E+01  0.47787276088E+02  0.20000022994E+02 0.  0.
         12    1    1    2    0    0  0.28158773551E+02 -0.32922763882E+02 -0.26072833787E+01  0.43400723912E+02  0.00000000000E+00 0. -1.
         11    1    3    3    0    0 -0.90468280903E+01  0.66310540617E+01 -0.58372359076E+01  0.12644734073E+02  0.51100000000E-03 0. -1.
        -11    1    3    3    0    0 -0.48952836252E+01  0.86902240599E+00  0.88722289973E+00  0.50503630016E+01  0.51100000000E-03 0.  1.
        -12    1    3    3    0    0 -0.14216661835E+02  0.25422687414E+02  0.75572963866E+01  0.30092179013E+02  0.00000000000E+00 0.  1.
</event>
<event>
 7    1  0.2459936E-009  0.4778727E+02  0.7816164E-02  0.1312668E+00
        -11   -1    0    0    0    0  0.00000000000E+00  0.00000000000E+00  0.45593999997E+02  0.45594000000E+02  0.51100000000E-03 0. -1.
         11   -1    0    0    0    0 -0.00000000000E+00 -0.00000000000E+00 -0.45593999997E+02  0.45594000000E+02  0.51100000000E-03 0.  1.
    9900012    2    1    2    0    0 -0.22193441114E+02 -0.16936406615E+02 -0.33229995156E+02  0.47787271025E+02  0.19999999913E+02 0.  0.
         12    1    1    2    0    0  0.22193441114E+02  0.16936406615E+02  0.33229995156E+02  0.43400728975E+02  0.00000000000E+00 0. -1.
         11    1    3    3    0    0 -0.12084122784E+01 -0.18441480423E+01  0.73616047061E+00  0.23244514914E+01  0.51100000000E-03 0. -1.
        -11    1    3    3    0    0 -0.89054177033E+01 -0.90108887172E+01 -0.52352235956E+01  0.13708032182E+02  0.51100000000E-03 0.  1.
         12    1    3    3    0    0 -0.12079611132E+02 -0.60813698554E+01 -0.28730932031E+02  0.31754787352E+02  0.00000000000E+00 0. -1.
</event>
<event>
 7    1  0.2459936E-009  0.4778729E+02  0.7816164E-02  0.1312668E+00
        -11   -1    0    0    0    0  0.00000000000E+00  0.00000000000E+00  0.45593999997E+02  0.45594000000E+02  0.51100000000E-03 0.  1.
         11   -1    0    0    0    0 -0.00000000000E+00 -0.00000000000E+00 -0.45593999997E+02  0.45594000000E+02  0.51100000000E-03 0. -1.
    9900012    2    1    2    0    0  0.34294416273E+02 -0.15749802523E+02  0.21434971936E+02  0.47787293912E+02  0.20000104261E+02 0.  0.
         12    1    1    2    0    0 -0.34294416273E+02  0.15749802523E+02 -0.21434971936E+02  0.43400706088E+02  0.00000000000E+00 0. -1.
         11    1    3    3    0    0 -0.10897559904E+01  0.17734215536E+01  0.32023977914E+01  0.38194167095E+01  0.51100000000E-03 0. -1.
        -11    1    3    3    0    0  0.79284908896E+01 -0.64784258557E+01  0.65318165873E+01  0.12144776554E+02  0.51100000000E-03 0.  1.
        -12    1    3    3    0    0  0.27455681374E+02 -0.11044798221E+02  0.11700757558E+02  0.31823100648E+02  0.00000000000E+00 0.  1.
</event>
<event>
 7    1  0.2459936E-009  0.4778727E+02  0.7816164E-02  0.1312668E+00
        -11   -1    0    0    0    0  0.00000000000E+00  0.00000000000E+00  0.45593999997E+02  0.45594000000E+02  0.51100000000E-03 0.  1.
         11   -1    0    0    0    0 -0.00000000000E+00 -0.00000000000E+00 -0.45593999997E+02  0.45594000000E+02  0.51100000000E-03 0. -1.
    9900012    2    1    2    0    0 -0.40999002836E+02 -0.13641928240E+02 -0.40746870209E+01  0.47787268278E+02  0.19999987388E+02 0.  0.
         12    1    1    2    0    0  0.40999002836E+02  0.13641928240E+02  0.40746870209E+01  0.43400731722E+02  0.00000000000E+00 0. -1.
         11    1    3    3    0    0 -0.15628361130E+02  0.42944992472E+00 -0.87084153836E+01  0.17895993898E+02  0.51100000000E-03 0. -1.
        -11    1    3    3    0    0 -0.22896580190E+01 -0.33670680607E+01  0.97787436031E+00  0.41875911566E+01  0.51100000000E-03 0.  1.
         12    1    3    3    0    0 -0.23080983687E+02 -0.10704310104E+02  0.36558540024E+01  0.25703683223E+02  0.00000000000E+00 0. -1.
</event>
<event>
 7    1  0.2459936E-009  0.4778727E+02  0.7816164E-02  0.1312668E+00
        -11   -1    0    0    0    0  0.00000000000E+00  0.00000000000E+00  0.45593999997E+02  0.45594000000E+02  0.51100000000E-03 0.  1.
         11   -1    0    0    0    0 -0.00000000000E+00 -0.00000000000E+00 -0.45593999997E+02  0.45594000000E+02  0.51100000000E-03 0. -1.
    9900012    2    1    2    0    0 -0.14379462444E+02 -0.36536569127E+02 -0.18491445186E+02  0.47787269950E+02  0.19999995012E+02 0.  0.
         12    1    1    2    0    0  0.14379462444E+02  0.36536569127E+02  0.18491445186E+02  0.43400730050E+02  0.00000000000E+00 0. -1.
         11    1    3    3    0    0 -0.10138616328E+02 -0.14600841927E+02 -0.10853539105E+02  0.20827276283E+02  0.51100000000E-03 0. -1.
        -11    1    3    3    0    0 -0.21002562887E+01  0.82015948757E+00 -0.28040008630E+01  0.35980771482E+01  0.51100000000E-03 0.  1.
        -12    1    3    3    0    0 -0.21405898278E+01 -0.22755886688E+02 -0.48339052175E+01  0.23361916519E+02  0.00000000000E+00 0.  1.
</event>
<event>
 7    1  0.2459936E-009  0.4778728E+02  0.7816164E-02  0.1312668E+00
        -11   -1    0    0    0    0  0.00000000000E+00  0.00000000000E+00  0.45593999997E+02  0.45594000000E+02  0.51100000000E-03 0.  1.
         11   -1    0    0    0    0 -0.00000000000E+00 -0.00000000000E+00 -0.45593999997E+02  0.45594000000E+02  0.51100000000E-03 0. -1.
    9900012    2    1    2    0    0  0.36100723637E+02  0.23746832325E+02 -0.40556052862E+01  0.47787283107E+02  0.20000054997E+02 0.  0.
         12    1    1    2    0    0 -0.36100723637E+02 -0.23746832325E+02  0.40556052862E+01  0.43400716893E+02  0.00000000000E+00 0. -1.
         11    1    3    3    0    0  0.29953190039E+01  0.48149257006E+01  0.55141919481E+01  0.79095991390E+01  0.51100000000E-03 0. -1.
        -11    1    3    3    0    0  0.57383543681E+01  0.56661221019E+01 -0.38316033580E+01  0.89283164752E+01  0.51100000000E-03 0.  1.
        -12    1    3    3    0    0  0.27367050265E+02  0.13265784522E+02 -0.57381938763E+01  0.30949367493E+02  0.00000000000E+00 0.  1.
</event>
<event>
 7    1  0.2459936E-009  0.4778727E+02  0.7816164E-02  0.1312668E+00
        -11   -1    0    0    0    0  0.00000000000E+00  0.00000000000E+00  0.45593999997E+02  0.45594000000E+02  0.51100000000E-03 0.  1.
         11   -1    0    0    0    0 -0.00000000000E+00 -0.00000000000E+00 -0.45593999997E+02  0.45594000000E+02  0.51100000000E-03 0. -1.
    9900012    2    1    2    0    0 -0.55293526769E+01  0.18581347214E+02  0.38830182673E+02  0.47787270839E+02  0.19999999063E+02 0.  0.
         12    1    1    2    0    0  0.55293526769E+01 -0.18581347214E+02 -0.38830182673E+02  0.43400729161E+02  0.00000000000E+00 0. -1.
         11    1    3    3    0    0  0.20905544764E+01  0.11766632003E+02  0.20562626079E+02  0.23783305873E+02  0.51100000000E-03 0. -1.
        -11    1    3    3    0    0  0.24416150003E+01  0.11019465284E+01  0.38718092623E+00  0.27065992115E+01  0.51100000000E-03 0.  1.
         12    1    3    3    0    0 -0.10061522154E+02  0.57127686821E+01  0.17880375667E+02  0.21297365754E+02  0.00000000000E+00 0. -1.
</event>
<event>
 7    1  0.2459936E-009  0.4778727E+02  0.7816164E-02  0.1312668E+00
        -11   -1    0    0    0    0  0.00000000000E+00  0.00000000000E+00  0.45593999997E+02  0.45594000000E+02  0.51100000000E-03 0. -1.
         11   -1    0    0    0    0 -0.00000000000E+00 -0.00000000000E+00 -0.45593999997E+02  0.45594000000E+02  0.51100000000E-03 0.  1.
    9900012    2    1    2    0    0 -0.33442094325E+02  0.15101471725E+02 -0.23177468762E+02  0.47787272133E+02  0.20000004964E+02 0.  0.
         12    1    1    2    0    0  0.33442094325E+02 -0.15101471725E+02  0.23177468762E+02  0.43400727867E+02  0.00000000000E+00 0. -1.
         11    1    3    3    0    0 -0.10562738502E+01  0.34817900819E+01  0.12298148253E+01  0.38407058449E+01  0.51100000000E-03 0. -1.
        -11    1    3    3    0    0 -0.76315893938E+01  0.83334568132E+01 -0.10164869837E+02  0.15199086755E+02  0.51100000000E-03 0.  1.
        -12    1    3    3    0    0 -0.24754231081E+02  0.32862248302E+01 -0.14242413751E+02  0.28747479533E+02  0.00000000000E+00 0.  1.
</event>
<event>
 7    1  0.2459936E-009  0.4778727E+02  0.7816164E-02  0.1312668E+00
        -11   -1    0    0    0    0  0.00000000000E+00  0.00000000000E+00  0.45593999997E+02  0.45594000000E+02  0.51100000000E-03 0. -1.
         11   -1    0    0    0    0 -0.00000000000E+00 -0.00000000000E+00 -0.45593999997E+02  0.45594000000E+02  0.51100000000E-03 0.  1.
    9900012    2    1    2    0    0 -0.10233101290E+02  0.15692259254E+02 -0.39149200585E+02  0.47787271101E+02  0.20000000259E+02 0.  0.
         12    1    1    2    0    0  0.10233101290E+02 -0.15692259254E+02  0.39149200585E+02  0.43400728899E+02  0.00000000000E+00 0. -1.
         11    1    3    3    0    0 -0.38892621045E+01 -0.26470814986E+00 -0.42197665319E+01  0.57448115693E+01  0.51100000000E-03 0. -1.
        -11    1    3    3    0    0 -0.98301322001E+01  0.51226338644E+01 -0.23127110779E+02  0.25646366799E+02  0.51100000000E-03 0.  1.
         12    1    3    3    0    0  0.34862930148E+01  0.10834333539E+02 -0.11802323275E+02  0.16396092733E+02  0.00000000000E+00 0. -1.
</event>
<event>
 7    1  0.2459936E-009  0.4778727E+02  0.7816164E-02  0.1312668E+00
        -11   -1    0    0    0    0  0.00000000000E+00  0.00000000000E+00  0.45593999997E+02  0.45594000000E+02  0.51100000000E-03 0. -1.
         11   -1    0    0    0    0 -0.00000000000E+00 -0.00000000000E+00 -0.45593999997E+02  0.45594000000E+02  0.51100000000E-03 0.  1.
    9900012    2    1    2    0    0 -0.22245803913E+02  0.10893624324E+02 -0.35638126975E+02  0.47787274926E+02  0.20000017699E+02 0.  0.
         12    1    1    2    0    0  0.22245803913E+02 -0.10893624324E+02  0.35638126975E+02  0.43400725074E+02  0.00000000000E+00 0. -1.
         11    1    3    3    0    0 -0.12492757284E+02  0.99877182321E+01 -0.11388621275E+02  0.19634770049E+02  0.51100000000E-03 0. -1.
        -11    1    3    3    0    0 -0.25453756265E+01 -0.23297132102E+01 -0.99295774005E+00  0.35906080344E+01  0.51100000000E-03 0.  1.
        -12    1    3    3    0    0 -0.72076710020E+01  0.32356193024E+01 -0.23256547960E+02  0.24561896843E+02  0.00000000000E+00 0.  1.
</event>
<event>
 7    1  0.2459936E-009  0.4778727E+02  0.7816164E-02  0.1312668E+00
        -11   -1    0    0    0    0  0.00000000000E+00  0.00000000000E+00  0.45593999997E+02  0.45594000000E+02  0.51100000000E-03 0.  1.
         11   -1    0    0    0    0 -0.00000000000E+00 -0.00000000000E+00 -0.45593999997E+02  0.45594000000E+02  0.51100000000E-03 0. -1.
    9900012    2    1    2    0    0 -0.15669423122E+02  0.15853158747E+02  0.37239362220E+02  0.47787267728E+02  0.19999984877E+02 0.  0.
         12    1    1    2    0    0  0.15669423122E+02 -0.15853158747E+02 -0.37239362220E+02  0.43400732272E+02  0.00000000000E+00 0. -1.
         11    1    3    3    0    0 -0.48523116143E+01  0.60319634007E+01  0.52638408723E+01  0.93614919462E+01  0.51100000000E-03 0. -1.
        -11    1    3    3    0    0 -0.10446619526E+02  0.13253815058E+02  0.21118796153E+02  0.27033294737E+02  0.51100000000E-03 0.  1.
         12    1    3    3    0    0 -0.37049198158E+00 -0.34326197119E+01  0.10856725195E+02  0.11392481044E+02  0.00000000000E+00 0. -1.
</event>
<event>
 7    1  0.2459936E-009  0.4778727E+02  0.7816164E-02  0.1312668E+00
        -11   -1    0    0    0    0  0.00000000000E+00  0.00000000000E+00  0.45593999997E+02  0.45594000000E+02  0.51100000000E-03 0.  1.
         11   -1    0    0    0    0 -0.00000000000E+00 -0.00000000000E+00 -0.45593999997E+02  0.45594000000E+02  0.51100000000E-03 0. -1.
    9900012    2    1    2    0    0  0.34715011934E+02 -0.35195961220E+01  0.25808986348E+02  0.47787269744E+02  0.19999994073E+02 0.  0.
         12    1    1    2    0    0 -0.34715011934E+02  0.35195961220E+01 -0.25808986348E+02  0.43400730256E+02  0.00000000000E+00 0. -1.
         11    1    3    3    0    0  0.13045629040E+02 -0.11807844522E+00  0.13123569145E+02  0.18504876302E+02  0.51100000000E-03 0. -1.
        -11    1    3    3    0    0  0.84283671546E+01  0.58037379738E+01  0.56339334382E+01  0.11681693097E+02  0.51100000000E-03 0.  1.
         12    1    3    3    0    0  0.13241015739E+02 -0.92052556505E+01  0.70514837644E+01  0.17600700346E+02  0.00000000000E+00 0. -1.
</event>
<event>
 7    1  0.2459936E-009  0.4778727E+02  0.7816164E-02  0.1312668E+00
        -11   -1    0    0    0    0  0.00000000000E+00  0.00000000000E+00  0.45593999997E+02  0.45594000000E+02  0.51100000000E-03 0. -1.
         11   -1    0    0    0    0 -0.00000000000E+00 -0.00000000000E+00 -0.45593999997E+02  0.45594000000E+02  0.51100000000E-03 0.  1.
    9900012    2    1    2    0    0  0.38262615741E+02  0.19923860602E+02 -0.47576928471E+01  0.47787266989E+02  0.19999981510E+02 0.  0.
         12    1    1    2    0    0 -0.38262615741E+02 -0.19923860602E+02  0.47576928471E+01  0.43400733011E+02  0.00000000000E+00 0. -1.
         11    1    3    3    0    0  0.22878406519E+01  0.43482698716E+01 -0.56518946181E+00  0.49458169308E+01  0.51100000000E-03 0. -1.
        -11    1    3    3    0    0  0.73442926257E+01  0.50635057611E+01 -0.81542215587E+01  0.12085903121E+02  0.51100000000E-03 0.  1.
         12    1    3    3    0    0  0.28630482464E+02  0.10512084969E+02  0.39617181735E+01  0.30755546937E+02  0.00000000000E+00 0. -1.
</event>
<event>
 7    1  0.2459936E-009  0.4778728E+02  0.7816164E-02  0.1312668E+00
        -11   -1    0    0    0    0  0.00000000000E+00  0.00000000000E+00  0.45593999997E+02  0.45594000000E+02  0.51100000000E-03 0.  1.
         11   -1    0    0    0    0 -0.00000000000E+00 -0.00000000000E+00 -0.45593999997E+02  0.45594000000E+02  0.51100000000E-03 0. -1.
    9900012    2    1    2    0    0 -0.23858591955E+02  0.35079856346E+02  0.91539017589E+01  0.47787278246E+02  0.20000032835E+02 0.  0.
         12    1    1    2    0    0  0.23858591955E+02 -0.35079856346E+02 -0.91539017589E+01  0.43400721754E+02  0.00000000000E+00 0. -1.
         11    1    3    3    0    0 -0.12010149509E+01  0.53871430100E+01  0.58396755261E+00  0.55502040581E+01  0.51100000000E-03 0. -1.
        -11    1    3    3    0    0 -0.24921052994E+02  0.28619137582E+02  0.10140461644E+02  0.39280311619E+02  0.51100000000E-03 0.  1.
         12    1    3    3    0    0  0.22634759896E+01  0.10735757536E+01 -0.15705274380E+01  0.29567625687E+01  0.00000000000E+00 0. -1.
</event>
<event>
 7    1  0.2459936E-009  0.4778727E+02  0.7816164E-02  0.1312668E+00
        -11   -1    0    0    0    0  0.00000000000E+00  0.00000000000E+00  0.45593999997E+02  0.45594000000E+02  0.51100000000E-03 0.  1.
         11   -1    0    0    0    0 -0.00000000000E+00 -0.00000000000E+00 -0.45593999997E+02  0.45594000000E+02  0.51100000000E-03 0. -1.
    9900012    2    1    2    0    0  0.12572344068E+02  0.51032937898E+01  0.41225184814E+02  0.47787270676E+02  0.19999998322E+02 0.  0.
         12    1    1    2    0    0 -0.12572344068E+02 -0.51032937898E+01 -0.41225184814E+02  0.43400729324E+02  0.00000000000E+00 0. -1.
         11    1    3    3    0    0 -0.13751161479E+01 -0.35775192315E+01  0.49144892725E+00  0.38640795257E+01  0.51100000000E-03 0. -1.
        -11    1    3    3    0    0  0.35009380602E+01  0.20422017238E+01  0.10304459012E+02  0.11072896233E+02  0.51100000000E-03 0.  1.
         12    1    3    3    0    0  0.10446522156E+02  0.66386112974E+01  0.30429276874E+02  0.32850294918E+02  0.00000000000E+00 0. -1.
</event>
<event>
 7    1  0.2459936E-009  0.4778729E+02  0.7816164E-02  0.1312668E+00
        -11   -1    0    0    0    0  0.00000000000E+00  0.00000000000E+00  0.45593999997E+02  0.45594000000E+02  0.51100000000E-03 0.  1.
         11   -1    0    0    0    0 -0.00000000000E+00 -0.00000000000E+00 -0.45593999997E+02  0.45594000000E+02  0.51100000000E-03 0. -1.
    9900012    2    1    2    0    0  0.39642072750E+02 -0.10811902310E+02  0.13972489517E+02  0.47787290020E+02  0.20000086517E+02 0.  0.
         12    1    1    2    0    0 -0.39642072750E+02  0.10811902310E+02 -0.13972489517E+02  0.43400709980E+02  0.00000000000E+00 0. -1.
         11    1    3    3    0    0  0.10437776027E+02 -0.15140393615E+01  0.60613274684E+01  0.12164669108E+02  0.51100000000E-03 0. -1.
        -11    1    3    3    0    0  0.25618118219E+02 -0.88080281827E+01  0.12452795721E+02  0.29815121383E+02  0.51100000000E-03 0.  1.
        -12    1    3    3    0    0  0.35861785043E+01 -0.48983476603E+00 -0.45416336724E+01  0.58074995288E+01  0.00000000000E+00 0.  1.
</event>
<event>
 7    1  0.2459936E-009  0.4778726E+02  0.7816164E-02  0.1312668E+00
        -11   -1    0    0    0    0  0.00000000000E+00  0.00000000000E+00  0.45593999997E+02  0.45594000000E+02  0.51100000000E-03 0.  1.
         11   -1    0    0    0    0 -0.00000000000E+00 -0.00000000000E+00 -0.45593999997E+02  0.45594000000E+02  0.51100000000E-03 0. -1.
    9900012    2    1    2    0    0 -0.24680896665E+02  0.24804705245E+02  0.25674963441E+02  0.47787264866E+02  0.19999971830E+02 0.  0.
         12    1    1    2    0    0  0.24680896665E+02 -0.24804705245E+02 -0.25674963441E+02  0.43400735134E+02  0.00000000000E+00 0. -1.
         11    1    3    3    0    0 -0.83699948536E+01  0.34139935160E+01  0.82549443167E+01  0.12241579617E+02  0.51100000000E-03 0. -1.
        -11    1    3    3    0    0 -0.19169217339E+02  0.16451781721E+02  0.14661302265E+02  0.29207427130E+02  0.51100000000E-03 0.  1.
        -12    1    3    3    0    0  0.28583155277E+01  0.49389300073E+01  0.27587168593E+01  0.63382581189E+01  0.00000000000E+00 0.  1.
</event>
<event>
 7    1  0.2459936E-009  0.4778728E+02  0.7816164E-02  0.1312668E+00
        -11   -1    0    0    0    0  0.00000000000E+00  0.00000000000E+00  0.45593999997E+02  0.45594000000E+02  0.51100000000E-03 0.  1.
         11   -1    0    0    0    0 -0.00000000000E+00 -0.00000000000E+00 -0.45593999997E+02  0.45594000000E+02  0.51100000000E-03 0. -1.
    9900012    2    1    2    0    0 -0.58835096626E+01  0.22082113115E+02  0.36896984555E+02  0.47787275642E+02  0.20000020960E+02 0.  0.
         12    1    1    2    0    0  0.58835096626E+01 -0.22082113115E+02 -0.36896984555E+02  0.43400724358E+02  0.00000000000E+00 0. -1.
         11    1    3    3    0    0 -0.68935944391E+00  0.38148735941E+01  0.77915176961E+01  0.87026562182E+01  0.51100000000E-03 0. -1.
        -11    1    3    3    0    0 -0.58171335580E+01  0.13435875760E+02  0.30655692596E+02  0.33972537278E+02  0.51100000000E-03 0.  1.
         12    1    3    3    0    0  0.62298333934E+00  0.48313637604E+01 -0.15502257371E+01  0.51120821455E+01  0.00000000000E+00 0. -1.
</event>
<event>
 7    1  0.2459936E-009  0.4778728E+02  0.7816164E-02  0.1312668E+00
        -11   -1    0    0    0    0  0.00000000000E+00  0.00000000000E+00  0.45593999997E+02  0.45594000000E+02  0.51100000000E-03 0.  1.
         11   -1    0    0    0    0 -0.00000000000E+00 -0.00000000000E+00 -0.45593999997E+02  0.45594000000E+02  0.51100000000E-03 0. -1.
    9900012    2    1    2    0    0 -0.15696203023E+02 -0.21257909201E+02  0.34428957730E+02  0.47787278540E+02  0.20000034174E+02 0.  0.
         12    1    1    2    0    0  0.15696203023E+02  0.21257909201E+02 -0.34428957730E+02  0.43400721460E+02  0.00000000000E+00 0. -1.
         11    1    3    3    0    0 -0.74658324682E+01 -0.12920210509E+02  0.21144308498E+02  0.25879572565E+02  0.51100000000E-03 0. -1.
        -11    1    3    3    0    0 -0.11844011339E+01 -0.92593737688E+01  0.11035843957E+02  0.14454364765E+02  0.51100000000E-03 0.  1.
         12    1    3    3    0    0 -0.70459694210E+01  0.92167507744E+00  0.22488052742E+01  0.74533412099E+01  0.00000000000E+00 0. -1.
</event>
<event>
 7    1  0.2459936E-009  0.4778727E+02  0.7816164E-02  0.1312668E+00
        -11   -1    0    0    0    0  0.00000000000E+00  0.00000000000E+00  0.45593999997E+02  0.45594000000E+02  0.51100000000E-03 0. -1.
         11   -1    0    0    0    0 -0.00000000000E+00 -0.00000000000E+00 -0.45593999997E+02  0.45594000000E+02  0.51100000000E-03 0.  1.
    9900012    2    1    2    0    0  0.23925313668E+02  0.18618896485E+02 -0.31057035476E+02  0.47787269672E+02  0.19999993741E+02 0.  0.
         12    1    1    2    0    0 -0.23925313668E+02 -0.18618896485E+02  0.31057035476E+02  0.43400730328E+02  0.00000000000E+00 0. -1.
         11    1    3    3    0    0  0.65105784646E+01  0.11206377970E+02 -0.14567815955E+02  0.19498507663E+02  0.51100000000E-03 0. -1.
        -11    1    3    3    0    0  0.41682609376E+01  0.89481221568E+00 -0.12187585973E+02  0.12911713297E+02  0.51100000000E-03 0.  1.
         12    1    3    3    0    0  0.13246474266E+02  0.65177062995E+01 -0.43016335486E+01  0.15377048712E+02  0.00000000000E+00 0. -1.
</event>
<event>
 7    1  0.2459936E-009  0.4778727E+02  0.7816164E-02  0.1312668E+00
        -11   -1    0    0    0    0  0.00000000000E+00  0.00000000000E+00  0.45593999997E+02  0.45594000000E+02  0.51100000000E-03 0.  1.
         11   -1    0    0    0    0 -0.00000000000E+00 -0.00000000000E+00 -0.45593999997E+02  0.45594000000E+02  0.51100000000E-03 0. -1.
    9900012    2    1    2    0    0  0.41516758851E+02  0.49088479316E+00  0.12638881464E+02  0.47787267771E+02  0.19999985074E+02 0.  0.
         12    1    1    2    0    0 -0.41516758851E+02 -0.49088479316E+00 -0.12638881464E+02  0.43400732229E+02  0.00000000000E+00 0. -1.
         11    1    3    3    0    0  0.23645313380E+01 -0.27225145469E+00  0.21548539733E+01  0.32106892111E+01  0.51100000000E-03 0. -1.
        -11    1    3    3    0    0  0.38667592361E+02 -0.11153750913E+01  0.13516108624E+02  0.40976968570E+02  0.51100000000E-03 0.  1.
         12    1    3    3    0    0  0.48463515184E+00  0.18785113392E+01 -0.30320811329E+01  0.35996099897E+01  0.00000000000E+00 0. -1.
</event>
<event>
 7    1  0.2459936E-009  0.4778727E+02  0.7816164E-02  0.1312668E+00
        -11   -1    0    0    0    0  0.00000000000E+00  0.00000000000E+00  0.45593999997E+02  0.45594000000E+02  0.51100000000E-03 0.  1.
         11   -1    0    0    0    0 -0.00000000000E+00 -0.00000000000E+00 -0.45593999997E+02  0.45594000000E+02  0.51100000000E-03 0. -1.
    9900012    2    1    2    0    0  0.41358303380E+01 -0.11880231787E+02  0.41537675114E+02  0.47787268972E+02  0.19999990549E+02 0.  0.
         12    1    1    2    0    0 -0.41358303380E+01  0.11880231787E+02 -0.41537675114E+02  0.43400731028E+02  0.00000000000E+00 0. -1.
         11    1    3    3    0    0 -0.38138454038E+00  0.15989037920E+01  0.11142982119E+02  0.11263569518E+02  0.51100000000E-03 0. -1.
        -11    1    3    3    0    0  0.73690264259E+01 -0.25338978809E+01  0.67359944544E+01  0.10300330601E+02  0.51100000000E-03 0.  1.
        -12    1    3    3    0    0 -0.28518115475E+01 -0.10945237699E+02  0.23658698540E+02  0.26223368853E+02  0.00000000000E+00 0.  1.
</event>
<event>
 7    1  0.2459936E-009  0.4778727E+02  0.7816164E-02  0.1312668E+00
        -11   -1    0    0    0    0  0.00000000000E+00  0.00000000000E+00  0.45593999997E+02  0.45594000000E+02  0.51100000000E-03 0. -1.
         11   -1    0    0    0    0 -0.00000000000E+00 -0.00000000000E+00 -0.45593999997E+02  0.45594000000E+02  0.51100000000E-03 0.  1.
    9900012    2    1    2    0    0  0.93284256120E+00 -0.36481620231E+02 -0.23491370243E+02  0.47787270907E+02  0.19999999376E+02 0.  0.
         12    1    1    2    0    0 -0.93284256120E+00  0.36481620231E+02  0.23491370243E+02  0.43400729093E+02  0.00000000000E+00 0. -1.
         11    1    3    3    0    0  0.72374613232E+01 -0.14581801993E+02 -0.65951903055E+01  0.17564348300E+02  0.51100000000E-03 0. -1.
        -11    1    3    3    0    0  0.27006926256E+01 -0.74539881507E+01 -0.66998860506E+01  0.10379988119E+02  0.51100000000E-03 0.  1.
         12    1    3    3    0    0 -0.90053113876E+01 -0.14445830087E+02 -0.10196293886E+02  0.19842934488E+02  0.00000000000E+00 0. -1.
</event>
<event>
 7    1  0.2459936E-009  0.4778727E+02  0.7816164E-02  0.1312668E+00
        -11   -1    0    0    0    0  0.00000000000E+00  0.00000000000E+00  0.45593999997E+02  0.45594000000E+02  0.51100000000E-03 0. -1.
         11   -1    0    0    0    0 -0.00000000000E+00 -0.00000000000E+00 -0.45593999997E+02  0.45594000000E+02  0.51100000000E-03 0.  1.
    9900012    2    1    2    0    0  0.42325199258E+02  0.51522934939E+01 -0.81027457596E+01  0.47787272940E+02  0.20000008643E+02 0.  0.
         12    1    1    2    0    0 -0.42325199258E+02 -0.51522934939E+01  0.81027457596E+01  0.43400727060E+02  0.00000000000E+00 0. -1.
         11    1    3    3    0    0  0.11455415168E+02  0.15174844570E+00 -0.80104225223E+01  0.13979142803E+02  0.51100000000E-03 0. -1.
        -11    1    3    3    0    0  0.47023376720E+01 -0.38261550278E+01  0.11226620869E+01  0.61653720326E+01  0.51100000000E-03 0.  1.
         12    1    3    3    0    0  0.26167446418E+02  0.88267000759E+01 -0.12149853242E+01  0.27642758104E+02  0.00000000000E+00 0. -1.
</event>
<event>
 7    1  0.2459936E-009  0.4778727E+02  0.7816164E-02  0.1312668E+00
        -11   -1    0    0    0    0  0.00000000000E+00  0.00000000000E+00  0.45593999997E+02  0.45594000000E+02  0.51100000000E-03 0.  1.
         11   -1    0    0    0    0 -0.00000000000E+00 -0.00000000000E+00 -0.45593999997E+02  0.45594000000E+02  0.51100000000E-03 0. -1.
    9900012    2    1    2    0    0  0.30135077634E+01  0.43023177737E+02  0.48526245204E+01  0.47787274011E+02  0.20000013528E+02 0.  0.
         12    1    1    2    0    0 -0.30135077634E+01 -0.43023177737E+02 -0.48526245204E+01  0.43400725989E+02  0.00000000000E+00 0. -1.
         11    1    3    3    0    0  0.77232588260E+01  0.16747248256E+02  0.37695625744E+01  0.18823619559E+02  0.51100000000E-03 0. -1.
        -11    1    3    3    0    0 -0.22672053788E+00  0.81985679862E+01  0.54323883950E+01  0.98376197915E+01  0.51100000000E-03 0.  1.
        -12    1    3    3    0    0 -0.44830305248E+01  0.18077361494E+02 -0.43493264491E+01  0.19126034661E+02  0.00000000000E+00 0.  1.
</event>
<event>
 7    1  0.2459936E-009  0.4778727E+02  0.7816164E-02  0.1312668E+00
        -11   -1    0    0    0    0  0.00000000000E+00  0.00000000000E+00  0.45593999997E+02  0.45594000000E+02  0.51100000000E-03 0. -1.
         11   -1    0    0    0    0 -0.00000000000E+00 -0.00000000000E+00 -0.45593999997E+02  0.45594000000E+02  0.51100000000E-03 0.  1.
    9900012    2    1    2    0    0 -0.10881856154E+02  0.10280490879E+02 -0.40737203854E+02  0.47787273464E+02  0.20000011031E+02 0.  0.
         12    1    1    2    0    0  0.10881856154E+02 -0.10280490879E+02  0.40737203854E+02  0.43400726536E+02  0.00000000000E+00 0. -1.
         11    1    3    3    0    0  0.34806125551E+01  0.22471212729E+01 -0.19490237284E+02  0.19925701177E+02  0.51100000000E-03 0. -1.
        -11    1    3    3    0    0 -0.85526468667E+01  0.89458931284E+00 -0.12438585892E+02  0.15121722049E+02  0.51100000000E-03 0.  1.
        -12    1    3    3    0    0 -0.58098218422E+01  0.71387802931E+01 -0.88083806780E+01  0.12739850238E+02  0.00000000000E+00 0.  1.
</event>
<event>
 7    1  0.2459936E-009  0.4778727E+02  0.7816164E-02  0.1312668E+00
        -11   -1    0    0    0    0  0.00000000000E+00  0.00000000000E+00  0.45593999997E+02  0.45594000000E+02  0.51100000000E-03 0. -1.
         11   -1    0    0    0    0 -0.00000000000E+00 -0.00000000000E+00 -0.45593999997E+02  0.45594000000E+02  0.51100000000E-03 0.  1.
    9900012    2    1    2    0    0  0.76516587281E+00 -0.42893603163E+02 -0.65708868805E+01  0.47787271601E+02  0.20000002539E+02 0.  0.
         12    1    1    2    0    0 -0.76516587281E+00  0.42893603163E+02  0.65708868805E+01  0.43400728399E+02  0.00000000000E+00 0. -1.
         11    1    3    3    0    0  0.14269564349E+00 -0.13523685652E+02  0.25214755549E+01  0.13757480689E+02  0.51100000000E-03 0. -1.
        -11    1    3    3    0    0  0.14596648820E+01  0.84984431482E+00  0.12248446536E+01  0.20864087840E+01  0.51100000000E-03 0.  1.
        -12    1    3    3    0    0 -0.83719465269E+00 -0.30219761826E+02 -0.10317207089E+02  0.31943382129E+02  0.00000000000E+00 0.  1.
</event>
<event>
 7    1  0.2459936E-009  0.4778728E+02  0.7816164E-02  0.1312668E+00
        -11   -1    0    0    0    0  0.00000000000E+00  0.00000000000E+00  0.45593999997E+02  0.45594000000E+02  0.51100000000E-03 0.  1.
         11   -1    0    0    0    0 -0.00000000000E+00 -0.00000000000E+00 -0.45593999997E+02  0.45594000000E+02  0.51100000000E-03 0. -1.
    9900012    2    1    2    0    0  0.26409241989E+01 -0.39787164743E+02  0.17135615707E+02  0.47787282442E+02  0.20000051965E+02 0.  0.
         12    1    1    2    0    0 -0.26409241989E+01  0.39787164743E+02 -0.17135615707E+02  0.43400717558E+02  0.00000000000E+00 0. -1.
         11    1    3    3    0    0  0.31823601863E+01 -0.81524360873E+01 -0.60469896060E+00  0.87724165204E+01  0.51100000000E-03 0. -1.
        -11    1    3    3    0    0  0.18607350324E+01 -0.30236934307E+02  0.11901101662E+02  0.32547976161E+02  0.51100000000E-03 0.  1.
        -12    1    3    3    0    0 -0.24021710198E+01 -0.13977943484E+01  0.58392130051E+01  0.64668897600E+01  0.00000000000E+00 0.  1.
</event>
<event>
 7    1  0.2459936E-009  0.4778726E+02  0.7816164E-02  0.1312668E+00
        -11   -1    0    0    0    0  0.00000000000E+00  0.00000000000E+00  0.45593999997E+02  0.45594000000E+02  0.51100000000E-03 0.  1.
         11   -1    0    0    0    0 -0.00000000000E+00 -0.00000000000E+00 -0.45593999997E+02  0.45594000000E+02  0.51100000000E-03 0. -1.
    9900012    2    1    2    0    0 -0.25607621201E+02 -0.10032349072E+02  0.33574179382E+02  0.47787264837E+02  0.19999971699E+02 0.  0.
         12    1    1    2    0    0  0.25607621201E+02  0.10032349072E+02 -0.33574179382E+02  0.43400735163E+02  0.00000000000E+00 0. -1.
         11    1    3    3    0    0 -0.75729354305E+01 -0.16335021383E+01  0.59873577493E+01  0.97911252341E+01  0.51100000000E-03 0. -1.
        -11    1    3    3    0    0 -0.14292540721E+02 -0.63491779788E+01  0.29446362036E+02  0.33341820866E+02  0.51100000000E-03 0.  1.
         12    1    3    3    0    0 -0.37421450492E+01 -0.20496689548E+01 -0.18595404030E+01  0.46543187369E+01  0.00000000000E+00 0. -1.
</event>
<event>
 7    1  0.2459936E-009  0.4778728E+02  0.7816164E-02  0.1312668E+00
        -11   -1    0    0    0    0  0.00000000000E+00  0.00000000000E+00  0.45593999997E+02  0.45594000000E+02  0.51100000000E-03 0.  1.
         11   -1    0    0    0    0 -0.00000000000E+00 -0.00000000000E+00 -0.45593999997E+02  0.45594000000E+02  0.51100000000E-03 0. -1.
    9900012    2    1    2    0    0  0.41007192409E+02  0.13923725592E+02 -0.28570516691E+01  0.47787277565E+02  0.20000029731E+02 0.  0.
         12    1    1    2    0    0 -0.41007192409E+02 -0.13923725592E+02  0.28570516691E+01  0.43400722435E+02  0.00000000000E+00 0. -1.
         11    1    3    3    0    0  0.20637743493E+02  0.57344278875E+01  0.23618718008E+01  0.21549444502E+02  0.51100000000E-03 0. -1.
        -11    1    3    3    0    0  0.11765896530E+02  0.21513090398E+00  0.27138179540E+01  0.12076730129E+02  0.51100000000E-03 0.  1.
         12    1    3    3    0    0  0.86035523856E+01  0.79741668001E+01 -0.79327414238E+01  0.14161102934E+02  0.00000000000E+00 0. -1.
</event>
<event>
 7    1  0.2459936E-009  0.4778727E+02  0.7816164E-02  0.1312668E+00
        -11   -1    0    0    0    0  0.00000000000E+00  0.00000000000E+00  0.45593999997E+02  0.45594000000E+02  0.51100000000E-03 0. -1.
         11   -1    0    0    0    0 -0.00000000000E+00 -0.00000000000E+00 -0.45593999997E+02  0.45594000000E+02  0.51100000000E-03 0.  1.
    9900012    2    1    2    0    0  0.12231709722E+02  0.31755195570E+02 -0.26937264288E+02  0.47787269871E+02  0.19999994650E+02 0.  0.
         12    1    1    2    0    0 -0.12231709722E+02 -0.31755195570E+02  0.26937264288E+02  0.43400730129E+02  0.00000000000E+00 0. -1.
         11    1    3    3    0    0 -0.23427119680E+01 -0.20032409772E+00 -0.42978691548E+00  0.23902188525E+01  0.51100000000E-03 0. -1.
        -11    1    3    3    0    0  0.94758849260E+01  0.84792473583E+01 -0.74937439978E+01  0.14759614841E+02  0.51100000000E-03 0.  1.
         12    1    3    3    0    0  0.50985367638E+01  0.23476272309E+02 -0.19013733375E+02  0.30637436177E+02  0.00000000000E+00 0. -1.
</event>
<event>
 7    1  0.2459936E-009  0.4778727E+02  0.7816164E-02  0.1312668E+00
        -11   -1    0    0    0    0  0.00000000000E+00  0.00000000000E+00  0.45593999997E+02  0.45594000000E+02  0.51100000000E-03 0.  1.
         11   -1    0    0    0    0 -0.00000000000E+00 -0.00000000000E+00 -0.45593999997E+02  0.45594000000E+02  0.51100000000E-03 0. -1.
    9900012    2    1    2    0    0 -0.14112173589E+02  0.28336793275E+02  0.29689995888E+02  0.47787272444E+02  0.20000006383E+02 0.  0.
         12    1    1    2    0    0  0.14112173589E+02 -0.28336793275E+02 -0.29689995888E+02  0.43400727556E+02  0.00000000000E+00 0. -1.
         11    1    3    3    0    0 -0.60711711042E+01  0.31123536866E+01  0.79088232410E+01  0.10444871917E+02  0.51100000000E-03 0.  1.
        -11    1    3    3    0    0 -0.33455313524E+01  0.18598365349E+02  0.22269599780E+02  0.29206623364E+02  0.51100000000E-03 0. -1.
         12    1    3    3    0    0 -0.46954711328E+01  0.66260742399E+01 -0.48842713346E+00  0.81357771636E+01  0.00000000000E+00 0. -1.
</event>
<event>
 7    1  0.2459936E-009  0.4778727E+02  0.7816164E-02  0.1312668E+00
        -11   -1    0    0    0    0  0.00000000000E+00  0.00000000000E+00  0.45593999997E+02  0.45594000000E+02  0.51100000000E-03 0.  1.
         11   -1    0    0    0    0 -0.00000000000E+00 -0.00000000000E+00 -0.45593999997E+02  0.45594000000E+02  0.51100000000E-03 0. -1.
    9900012    2    1    2    0    0 -0.30482492970E+02 -0.18610693867E+02  0.24659339929E+02  0.47787270172E+02  0.19999996022E+02 0.  0.
         12    1    1    2    0    0  0.30482492970E+02  0.18610693867E+02 -0.24659339929E+02  0.43400729828E+02  0.00000000000E+00 0. -1.
         11    1    3    3    0    0 -0.14309060368E+02 -0.38546431350E+01  0.12945931986E+02  0.19677516041E+02  0.51100000000E-03 0. -1.
        -11    1    3    3    0    0 -0.90881349111E+01 -0.23808566618E+01  0.10043036326E+02  0.13752281756E+02  0.51100000000E-03 0.  1.
        -12    1    3    3    0    0 -0.70852976908E+01 -0.12375194070E+02  0.16703716179E+01  0.14357472375E+02  0.00000000000E+00 0.  1.
</event>
<event>
 7    1  0.2459936E-009  0.4778729E+02  0.7816164E-02  0.1312668E+00
        -11   -1    0    0    0    0  0.00000000000E+00  0.00000000000E+00  0.45593999997E+02  0.45594000000E+02  0.51100000000E-03 0.  1.
         11   -1    0    0    0    0 -0.00000000000E+00 -0.00000000000E+00 -0.45593999997E+02  0.45594000000E+02  0.51100000000E-03 0. -1.
    9900012    2    1    2    0    0 -0.27608985067E+02 -0.26141155402E+02  0.20928581294E+02  0.47787290592E+02  0.20000089124E+02 0.  0.
         12    1    1    2    0    0  0.27608985067E+02  0.26141155402E+02 -0.20928581294E+02  0.43400709408E+02  0.00000000000E+00 0. -1.
         11    1    3    3    0    0 -0.65011006698E+01 -0.58104030281E+01  0.42761620774E+00  0.87297164416E+01  0.51100000000E-03 0. -1.
        -11    1    3    3    0    0  0.23913546421E+01 -0.12159994638E+01  0.31908295570E+01  0.41687678327E+01  0.51100000000E-03 0.  1.
        -12    1    3    3    0    0 -0.23499239040E+02 -0.19114752910E+02  0.17310135529E+02  0.34888806318E+02  0.00000000000E+00 0.  1.
</event>
<event>
 7    1  0.2459936E-009  0.4778727E+02  0.7816164E-02  0.1312668E+00
        -11   -1    0    0    0    0  0.00000000000E+00  0.00000000000E+00  0.45593999997E+02  0.45594000000E+02  0.51100000000E-03 0.  1.
         11   -1    0    0    0    0 -0.00000000000E+00 -0.00000000000E+00 -0.45593999997E+02  0.45594000000E+02  0.51100000000E-03 0. -1.
    9900012    2    1    2    0    0 -0.26491505168E+02 -0.23864454723E+01  0.34294732938E+02  0.47787266419E+02  0.19999978913E+02 0.  0.
         12    1    1    2    0    0  0.26491505168E+02  0.23864454723E+01 -0.34294732938E+02  0.43400733581E+02  0.00000000000E+00 0. -1.
         11    1    3    3    0    0 -0.48341140535E+00  0.54098530932E+00 -0.84196749686E+00  0.11114230601E+01  0.51100000000E-03 0. -1.
        -11    1    3    3    0    0 -0.16121531265E+02 -0.91118268016E+01  0.17151730422E+02  0.25241058114E+02  0.51100000000E-03 0.  1.
        -12    1    3    3    0    0 -0.98865624973E+01  0.61843960200E+01  0.17984970012E+02  0.21434785245E+02  0.00000000000E+00 0.  1.
</event>
<event>
 7    1  0.2459936E-009  0.4778724E+02  0.7816164E-02  0.1312668E+00
        -11   -1    0    0    0    0  0.00000000000E+00  0.00000000000E+00  0.45593999997E+02  0.45594000000E+02  0.51100000000E-03 0.  1.
         11   -1    0    0    0    0 -0.00000000000E+00 -0.00000000000E+00 -0.45593999997E+02  0.45594000000E+02  0.51100000000E-03 0. -1.
    9900012    2    1    2    0    0 -0.13956126817E+02  0.27145691960E+02  0.30853912876E+02  0.47787239551E+02  0.19999856410E+02 0.  0.
         12    1    1    2    0    0  0.13956126817E+02 -0.27145691960E+02 -0.30853912876E+02  0.43400760449E+02  0.00000000000E+00 0. -1.
         11    1    3    3    0    0 -0.82315999887E+00  0.13328936755E+02  0.79360399698E+01  0.15534441672E+02  0.51100000000E-03 0. -1.
        -11    1    3    3    0    0 -0.32211783005E+00  0.62366044271E+01  0.12835820427E+02  0.14274357462E+02  0.51100000000E-03 0.  1.
        -12    1    3    3    0    0 -0.12810848988E+02  0.75801507783E+01  0.10082052480E+02  0.17978440417E+02  0.00000000000E+00 0.  1.
</event>
<event>
 7    1  0.2459936E-009  0.4778727E+02  0.7816164E-02  0.1312668E+00
        -11   -1    0    0    0    0  0.00000000000E+00  0.00000000000E+00  0.45593999997E+02  0.45594000000E+02  0.51100000000E-03 0. -1.
         11   -1    0    0    0    0 -0.00000000000E+00 -0.00000000000E+00 -0.45593999997E+02  0.45594000000E+02  0.51100000000E-03 0.  1.
    9900012    2    1    2    0    0  0.33278212373E+01 -0.17277996836E+02 -0.39673923575E+02  0.47787265206E+02  0.19999973378E+02 0.  0.
         12    1    1    2    0    0 -0.33278212373E+01  0.17277996836E+02  0.39673923575E+02  0.43400734794E+02  0.00000000000E+00 0. -1.
         11    1    3    3    0    0  0.68848853836E-01 -0.60650583898E+01 -0.97129617799E+01  0.11451257583E+02  0.51100000000E-03 0. -1.
        -11    1    3    3    0    0 -0.39121181961E+01 -0.83782332504E+01 -0.26145968920E+02  0.27732853301E+02  0.51100000000E-03 0.  1.
         12    1    3    3    0    0  0.71710905795E+01 -0.28347051954E+01 -0.38149928757E+01  0.86031543218E+01  0.00000000000E+00 0. -1.
</event>
<event>
 7    1  0.2459936E-009  0.4778727E+02  0.7816164E-02  0.1312668E+00
        -11   -1    0    0    0    0  0.00000000000E+00  0.00000000000E+00  0.45593999997E+02  0.45594000000E+02  0.51100000000E-03 0. -1.
         11   -1    0    0    0    0 -0.00000000000E+00 -0.00000000000E+00 -0.45593999997E+02  0.45594000000E+02  0.51100000000E-03 0.  1.
    9900012    2    1    2    0    0  0.11348343630E+02  0.32393787293E+02 -0.26560893090E+02  0.47787269591E+02  0.19999993372E+02 0.  0.
         12    1    1    2    0    0 -0.11348343630E+02 -0.32393787293E+02  0.26560893090E+02  0.43400730409E+02  0.00000000000E+00 0. -1.
         11    1    3    3    0    0  0.21226273259E+01 -0.83019917469E+00  0.11052531161E+01  0.25330539169E+01  0.51100000000E-03 0. -1.
        -11    1    3    3    0    0  0.93284031330E+00 -0.26840905862E+00 -0.20912577614E+01  0.23055571471E+01  0.51100000000E-03 0.  1.
        -12    1    3    3    0    0  0.82928759909E+01  0.33492395526E+02 -0.25574888445E+02  0.42948658527E+02  0.00000000000E+00 0.  1.
</event>
<event>
 7    1  0.2459936E-009  0.4778727E+02  0.7816164E-02  0.1312668E+00
        -11   -1    0    0    0    0  0.00000000000E+00  0.00000000000E+00  0.45593999997E+02  0.45594000000E+02  0.51100000000E-03 0.  1.
         11   -1    0    0    0    0 -0.00000000000E+00 -0.00000000000E+00 -0.45593999997E+02  0.45594000000E+02  0.51100000000E-03 0. -1.
    9900012    2    1    2    0    0  0.31850512295E+02  0.17597993225E+01  0.29429087099E+02  0.47787271957E+02  0.20000004163E+02 0.  0.
         12    1    1    2    0    0 -0.31850512295E+02 -0.17597993225E+01 -0.29429087099E+02  0.43400728043E+02  0.00000000000E+00 0. -1.
         11    1    3    3    0    0  0.45425678492E+01  0.93152737039E+00 -0.57487507456E+00  0.46725953729E+01  0.51100000000E-03 0. -1.
        -11    1    3    3    0    0  0.92977358353E+01  0.73025727999E+01  0.11321182259E+02  0.16369014300E+02  0.51100000000E-03 0.  1.
        -12    1    3    3    0    0  0.18010208611E+02 -0.64743008478E+01  0.18682779915E+02  0.26745662284E+02  0.00000000000E+00 0.  1.
</event>
<event>
 7    1  0.2459936E-009  0.4778727E+02  0.7816164E-02  0.1312668E+00
        -11   -1    0    0    0    0  0.00000000000E+00  0.00000000000E+00  0.45593999997E+02  0.45594000000E+02  0.51100000000E-03 0.  1.
         11   -1    0    0    0    0 -0.00000000000E+00 -0.00000000000E+00 -0.45593999997E+02  0.45594000000E+02  0.51100000000E-03 0. -1.
    9900012    2    1    2    0    0 -0.31114324518E+02 -0.30251010672E+02 -0.63140416109E+00  0.47787268346E+02  0.19999987699E+02 0.  0.
         12    1    1    2    0    0  0.31114324518E+02  0.30251010672E+02  0.63140416109E+00  0.43400731654E+02  0.00000000000E+00 0. -1.
         11    1    3    3    0    0 -0.13037597618E+02 -0.62969265614E+01 -0.24614478155E+01  0.14686352896E+02  0.51100000000E-03 0. -1.
        -11    1    3    3    0    0 -0.19475134557E+02 -0.22439175675E+02 -0.84459209395E+00  0.29723909686E+02  0.51100000000E-03 0.  1.
        -12    1    3    3    0    0  0.13984076576E+01 -0.15149084356E+01  0.26746357484E+01  0.33770057642E+01  0.00000000000E+00 0.  1.
</event>
<event>
 7    1  0.2459936E-009  0.4778727E+02  0.7816164E-02  0.1312668E+00
        -11   -1    0    0    0    0  0.00000000000E+00  0.00000000000E+00  0.45593999997E+02  0.45594000000E+02  0.51100000000E-03 0. -1.
         11   -1    0    0    0    0 -0.00000000000E+00 -0.00000000000E+00 -0.45593999997E+02  0.45594000000E+02  0.51100000000E-03 0.  1.
    9900012    2    1    2    0    0 -0.18114370244E+02  0.39419828300E+02  0.12529266044E+01  0.47787273075E+02  0.20000009257E+02 0.  0.
         12    1    1    2    0    0  0.18114370244E+02 -0.39419828300E+02 -0.12529266044E+01  0.43400726925E+02  0.00000000000E+00 0. -1.
         11    1    3    3    0    0  0.17545453633E+01  0.27791210161E+01  0.37952734832E+01  0.50205621326E+01  0.51100000000E-03 0. -1.
        -11    1    3    3    0    0 -0.95226792645E+01  0.11100721048E+02 -0.40296879836E+01  0.15170557460E+02  0.51100000000E-03 0.  1.
        -12    1    3    3    0    0 -0.10346236343E+02  0.25539986236E+02  0.14873411048E+01  0.27596153482E+02  0.00000000000E+00 0.  1.
</event>
<event>
 7    1  0.2459936E-009  0.4778728E+02  0.7816164E-02  0.1312668E+00
        -11   -1    0    0    0    0  0.00000000000E+00  0.00000000000E+00  0.45593999997E+02  0.45594000000E+02  0.51100000000E-03 0.  1.
         11   -1    0    0    0    0 -0.00000000000E+00 -0.00000000000E+00 -0.45593999997E+02  0.45594000000E+02  0.51100000000E-03 0. -1.
    9900012    2    1    2    0    0  0.18055125484E+02  0.39119732075E+02  0.52231502569E+01  0.47787282351E+02  0.20000051549E+02 0.  0.
         12    1    1    2    0    0 -0.18055125484E+02 -0.39119732075E+02 -0.52231502569E+01  0.43400717649E+02  0.00000000000E+00 0. -1.
         11    1    3    3    0    0 -0.91893517594E+00  0.41650212538E+01 -0.25377099099E+00  0.42727326009E+01  0.51100000000E-03 0. -1.
        -11    1    3    3    0    0  0.13542782772E+02  0.35206750790E+02  0.50927416356E+01  0.38063871112E+02  0.51100000000E-03 0.  1.
         12    1    3    3    0    0  0.54312778877E+01 -0.25203996842E+00  0.38417961226E+00  0.54506786379E+01  0.00000000000E+00 0. -1.
</event>
<event>
 7    1  0.2459936E-009  0.4778727E+02  0.7816164E-02  0.1312668E+00
        -11   -1    0    0    0    0  0.00000000000E+00  0.00000000000E+00  0.45593999997E+02  0.45594000000E+02  0.51100000000E-03 0.  1.
         11   -1    0    0    0    0 -0.00000000000E+00 -0.00000000000E+00 -0.45593999997E+02  0.45594000000E+02  0.51100000000E-03 0. -1.
    9900012    2    1    2    0    0  0.14461465636E+02  0.16704560021E+02  0.37355684576E+02  0.47787268624E+02  0.19999988965E+02 0.  0.
         12    1    1    2    0    0 -0.14461465636E+02 -0.16704560021E+02 -0.37355684576E+02  0.43400731376E+02  0.00000000000E+00 0. -1.
         11    1    3    3    0    0  0.52219831175E+01 -0.28057245652E+01  0.88706881561E+01  0.10669128673E+02  0.51100000000E-03 0. -1.
        -11    1    3    3    0    0  0.12498267758E+01  0.59214639322E+01  0.15685547816E+02  0.16812561156E+02  0.51100000000E-03 0.  1.
         12    1    3    3    0    0  0.79896557429E+01  0.13588820654E+02  0.12799448603E+02  0.20305578795E+02  0.00000000000E+00 0. -1.
</event>
<event>
 7    1  0.2459936E-009  0.4778727E+02  0.7816164E-02  0.1312668E+00
        -11   -1    0    0    0    0  0.00000000000E+00  0.00000000000E+00  0.45593999997E+02  0.45594000000E+02  0.51100000000E-03 0. -1.
         11   -1    0    0    0    0 -0.00000000000E+00 -0.00000000000E+00 -0.45593999997E+02  0.45594000000E+02  0.51100000000E-03 0.  1.
    9900012    2    1    2    0    0  0.39242003324E+02 -0.37335907371E+01  0.18158981305E+02  0.47787272740E+02  0.20000007729E+02 0.  0.
         12    1    1    2    0    0 -0.39242003324E+02  0.37335907371E+01 -0.18158981305E+02  0.43400727260E+02  0.00000000000E+00 0. -1.
         11    1    3    3    0    0  0.51962057270E+00 -0.25659652116E+01 -0.13730437593E+01  0.29562531070E+01  0.51100000000E-03 0. -1.
        -11    1    3    3    0    0  0.18934383738E+02 -0.61717591162E+01  0.88314103877E+01  0.21785208464E+02  0.51100000000E-03 0.  1.
         12    1    3    3    0    0  0.19787999013E+02  0.50041335908E+01  0.10700614677E+02  0.23045811168E+02  0.00000000000E+00 0. -1.
</event>
<event>
 7    1  0.2459936E-009  0.4778722E+02  0.7816164E-02  0.1312668E+00
        -11   -1    0    0    0    0  0.00000000000E+00  0.00000000000E+00  0.45593999997E+02  0.45594000000E+02  0.51100000000E-03 0.  1.
         11   -1    0    0    0    0 -0.00000000000E+00 -0.00000000000E+00 -0.45593999997E+02  0.45594000000E+02  0.51100000000E-03 0. -1.
    9900012    2    1    2    0    0 -0.33234127004E+02  0.14054841043E+01  0.27877318441E+02  0.47787222740E+02  0.19999779762E+02 0.  0.
         12    1    1    2    0    0  0.33234127004E+02 -0.14054841043E+01 -0.27877318441E+02  0.43400777260E+02  0.00000000000E+00 0. -1.
         11    1    3    3    0    0 -0.18032054882E+02 -0.26240020950E+01  0.88924869801E+01  0.20276013297E+02  0.51100000000E-03 0. -1.
        -11    1    3    3    0    0 -0.50938839863E+01 -0.39902980775E+01  0.95113486255E+01  0.11503733557E+02  0.51100000000E-03 0.  1.
        -12    1    3    3    0    0 -0.10108188136E+02  0.80197842768E+01  0.94734828352E+01  0.16007475887E+02  0.00000000000E+00 0.  1.
</event>
<event>
 7    1  0.2459936E-009  0.4778726E+02  0.7816164E-02  0.1312668E+00
        -11   -1    0    0    0    0  0.00000000000E+00  0.00000000000E+00  0.45593999997E+02  0.45594000000E+02  0.51100000000E-03 0.  1.
         11   -1    0    0    0    0 -0.00000000000E+00 -0.00000000000E+00 -0.45593999997E+02  0.45594000000E+02  0.51100000000E-03 0. -1.
    9900012    2    1    2    0    0 -0.21959796321E+02 -0.25205167498E+02  0.27678358684E+02  0.47787255047E+02  0.19999927059E+02 0.  0.
         12    1    1    2    0    0  0.21959796321E+02  0.25205167498E+02 -0.27678358684E+02  0.43400744953E+02  0.00000000000E+00 0. -1.
         11    1    3    3    0    0 -0.79250299079E+01 -0.21710822318E+02  0.13486878571E+02  0.26759331057E+02  0.51100000000E-03 0. -1.
        -11    1    3    3    0    0 -0.29558260923E+01 -0.18731235288E+01  0.83235147102E+00  0.35969860820E+01  0.51100000000E-03 0.  1.
        -12    1    3    3    0    0 -0.11078940321E+02 -0.16212216519E+01  0.13359128642E+02  0.17430937908E+02  0.00000000000E+00 0.  1.
</event>
<event>
 7    1  0.2459936E-009  0.4778727E+02  0.7816164E-02  0.1312668E+00
        -11   -1    0    0    0    0  0.00000000000E+00  0.00000000000E+00  0.45593999997E+02  0.45594000000E+02  0.51100000000E-03 0.  1.
         11   -1    0    0    0    0 -0.00000000000E+00 -0.00000000000E+00 -0.45593999997E+02  0.45594000000E+02  0.51100000000E-03 0. -1.
    9900012    2    1    2    0    0 -0.79785549115E+01  0.42050047929E+02  0.71944007890E+01  0.47787271066E+02  0.20000000099E+02 0.  0.
         12    1    1    2    0    0  0.79785549115E+01 -0.42050047929E+02 -0.71944007890E+01  0.43400728934E+02  0.00000000000E+00 0. -1.
         11    1    3    3    0    0  0.42096059005E+00  0.53534376604E+01  0.54520884016E+01  0.76525662887E+01  0.51100000000E-03 0. -1.
        -11    1    3    3    0    0  0.32524719171E+01  0.16162344262E+02  0.83012293830E+00  0.16507242349E+02  0.51100000000E-03 0.  1.
        -12    1    3    3    0    0 -0.11651987419E+02  0.20534266006E+02  0.91218944910E+00  0.23627462429E+02  0.00000000000E+00 0.  1.
</event>
<event>
 7    1  0.2459936E-009  0.4778727E+02  0.7816164E-02  0.1312668E+00
        -11   -1    0    0    0    0  0.00000000000E+00  0.00000000000E+00  0.45593999997E+02  0.45594000000E+02  0.51100000000E-03 0.  1.
         11   -1    0    0    0    0 -0.00000000000E+00 -0.00000000000E+00 -0.45593999997E+02  0.45594000000E+02  0.51100000000E-03 0. -1.
    9900012    2    1    2    0    0 -0.41249921065E+02  0.39653987041E+01 -0.12897407498E+02  0.47787268498E+02  0.19999988390E+02 0.  0.
         12    1    1    2    0    0  0.41249921065E+02 -0.39653987041E+01  0.12897407498E+02  0.43400731502E+02  0.00000000000E+00 0. -1.
         11    1    3    3    0    0 -0.24567193293E+01  0.46780087407E+00 -0.20756752904E+01  0.32500362603E+01  0.51100000000E-03 0. -1.
        -11    1    3    3    0    0 -0.25737966449E+02  0.79578371973E+01 -0.14027781956E+02  0.30373487726E+02  0.51100000000E-03 0.  1.
        -12    1    3    3    0    0 -0.13055235286E+02 -0.44602393672E+01  0.32060497483E+01  0.14163744511E+02  0.00000000000E+00 0.  1.
</event>
<event>
 7    1  0.2459936E-009  0.4778727E+02  0.7816164E-02  0.1312668E+00
        -11   -1    0    0    0    0  0.00000000000E+00  0.00000000000E+00  0.45593999997E+02  0.45594000000E+02  0.51100000000E-03 0.  1.
         11   -1    0    0    0    0 -0.00000000000E+00 -0.00000000000E+00 -0.45593999997E+02  0.45594000000E+02  0.51100000000E-03 0. -1.
    9900012    2    1    2    0    0 -0.24661627637E+02 -0.21264421210E+02  0.28692370404E+02  0.47787267212E+02  0.19999982526E+02 0.  0.
         12    1    1    2    0    0  0.24661627637E+02  0.21264421210E+02 -0.28692370404E+02  0.43400732788E+02  0.00000000000E+00 0. -1.
         11    1    3    3    0    0 -0.10126107358E+02 -0.42668149197E+01  0.89036935566E+01  0.14142825708E+02  0.51100000000E-03 0. -1.
        -11    1    3    3    0    0 -0.97431534427E+01 -0.73397936407E+01  0.19325069817E+02  0.22853007098E+02  0.51100000000E-03 0.  1.
         12    1    3    3    0    0 -0.47923668363E+01 -0.96578126499E+01  0.46360703024E+00  0.10791434407E+02  0.00000000000E+00 0. -1.
</event>
<event>
 7    1  0.2459936E-009  0.4778728E+02  0.7816164E-02  0.1312668E+00
        -11   -1    0    0    0    0  0.00000000000E+00  0.00000000000E+00  0.45593999997E+02  0.45594000000E+02  0.51100000000E-03 0.  1.
         11   -1    0    0    0    0 -0.00000000000E+00 -0.00000000000E+00 -0.45593999997E+02  0.45594000000E+02  0.51100000000E-03 0. -1.
    9900012    2    1    2    0    0  0.29662736808E+02  0.94348783420E+01  0.30244470829E+02  0.47787275352E+02  0.20000019638E+02 0.  0.
         12    1    1    2    0    0 -0.29662736808E+02 -0.94348783420E+01 -0.30244470829E+02  0.43400724648E+02  0.00000000000E+00 0. -1.
         11    1    3    3    0    0 -0.16426230612E+01  0.87356277341E+00 -0.90493966556E-01  0.18626625726E+01  0.51100000000E-03 0. -1.
        -11    1    3    3    0    0  0.11366319872E+02  0.81173908723E+01  0.16671689724E+02  0.21749264368E+02  0.51100000000E-03 0.  1.
        -12    1    3    3    0    0  0.19939039997E+02  0.44392469627E+00  0.13663275072E+02  0.24175348411E+02  0.00000000000E+00 0.  1.
</event>
<event>
 7    1  0.2459936E-009  0.4778727E+02  0.7816164E-02  0.1312668E+00
        -11   -1    0    0    0    0  0.00000000000E+00  0.00000000000E+00  0.45593999997E+02  0.45594000000E+02  0.51100000000E-03 0.  1.
         11   -1    0    0    0    0 -0.00000000000E+00 -0.00000000000E+00 -0.45593999997E+02  0.45594000000E+02  0.51100000000E-03 0. -1.
    9900012    2    1    2    0    0 -0.27153147512E+02 -0.29869317169E+02  0.15942191562E+02  0.47787274202E+02  0.20000014398E+02 0.  0.
         12    1    1    2    0    0  0.27153147512E+02  0.29869317169E+02 -0.15942191562E+02  0.43400725798E+02  0.00000000000E+00 0. -1.
         11    1    3    3    0    0 -0.45753610318E+01 -0.83008786314E+01  0.12184994070E+02  0.15437376570E+02  0.51100000000E-03 0. -1.
        -11    1    3    3    0    0 -0.11747852201E+02 -0.11178159595E+02  0.57598536611E+01  0.17208695410E+02  0.51100000000E-03 0.  1.
         12    1    3    3    0    0 -0.10829934279E+02 -0.10390278943E+02 -0.20026561685E+01  0.15141202222E+02  0.00000000000E+00 0. -1.
</event>
<event>
 7    1  0.2459936E-009  0.4778726E+02  0.7816164E-02  0.1312668E+00
        -11   -1    0    0    0    0  0.00000000000E+00  0.00000000000E+00  0.45593999997E+02  0.45594000000E+02  0.51100000000E-03 0.  1.
         11   -1    0    0    0    0 -0.00000000000E+00 -0.00000000000E+00 -0.45593999997E+02  0.45594000000E+02  0.51100000000E-03 0. -1.
    9900012    2    1    2    0    0  0.34681629521E+02  0.24367345720E+02  0.93296104355E+01  0.47787255829E+02  0.19999930628E+02 0.  0.
         12    1    1    2    0    0 -0.34681629521E+02 -0.24367345720E+02 -0.93296104355E+01  0.43400744171E+02  0.00000000000E+00 0. -1.
         11    1    3    3    0    0  0.42237027078E+01  0.53361774852E+01 -0.80975402688E+00  0.68534776984E+01  0.51100000000E-03 0.  1.
        -11    1    3    3    0    0  0.39170361700E+01  0.44648672930E+01  0.88152154671E+01  0.10629498403E+02  0.51100000000E-03 0. -1.
        -12    1    3    3    0    0  0.26540890643E+02  0.14566300942E+02  0.13241489953E+01  0.30304279728E+02  0.00000000000E+00 0.  1.
</event>
<event>
 7    1  0.2459936E-009  0.4778728E+02  0.7816164E-02  0.1312668E+00
        -11   -1    0    0    0    0  0.00000000000E+00  0.00000000000E+00  0.45593999997E+02  0.45594000000E+02  0.51100000000E-03 0. -1.
         11   -1    0    0    0    0 -0.00000000000E+00 -0.00000000000E+00 -0.45593999997E+02  0.45594000000E+02  0.51100000000E-03 0.  1.
    9900012    2    1    2    0    0  0.36839302363E+02  0.48664095395E+01 -0.22423351908E+02  0.47787275914E+02  0.20000022203E+02 0.  0.
         12    1    1    2    0    0 -0.36839302363E+02 -0.48664095395E+01  0.22423351908E+02  0.43400724086E+02  0.00000000000E+00 0. -1.
         11    1    3    3    0    0  0.34807912220E+01 -0.19040563890E+01 -0.87795993079E+00  0.40635147551E+01  0.51100000000E-03 0. -1.
        -11    1    3    3    0    0  0.11739824741E+02  0.92641869126E+01 -0.14549888677E+02  0.20864992329E+02  0.51100000000E-03 0.  1.
        -12    1    3    3    0    0  0.21618686400E+02 -0.24937209841E+01 -0.69955032997E+01  0.22858768830E+02  0.00000000000E+00 0.  1.
</event>
<event>
 7    1  0.2459936E-009  0.4778727E+02  0.7816164E-02  0.1312668E+00
        -11   -1    0    0    0    0  0.00000000000E+00  0.00000000000E+00  0.45593999997E+02  0.45594000000E+02  0.51100000000E-03 0.  1.
         11   -1    0    0    0    0 -0.00000000000E+00 -0.00000000000E+00 -0.45593999997E+02  0.45594000000E+02  0.51100000000E-03 0. -1.
    9900012    2    1    2    0    0  0.39581104325E+02 -0.13809802312E+01  0.17749708126E+02  0.47787273456E+02  0.20000010996E+02 0.  0.
         12    1    1    2    0    0 -0.39581104325E+02  0.13809802312E+01 -0.17749708126E+02  0.43400726544E+02  0.00000000000E+00 0. -1.
         11    1    3    3    0    0  0.17614707476E+02 -0.39657438836E+01  0.31787316401E+01  0.18333286097E+02  0.51100000000E-03 0. -1.
        -11    1    3    3    0    0  0.14980184013E+02 -0.44219491538E+01  0.77501267106E+01  0.17436284343E+02  0.51100000000E-03 0.  1.
         12    1    3    3    0    0  0.69862128362E+01  0.70067128062E+01  0.68208497753E+01  0.12017703017E+02  0.00000000000E+00 0. -1.
</event>
<event>
 7    1  0.2459936E-009  0.4778727E+02  0.7816164E-02  0.1312668E+00
        -11   -1    0    0    0    0  0.00000000000E+00  0.00000000000E+00  0.45593999997E+02  0.45594000000E+02  0.51100000000E-03 0.  1.
         11   -1    0    0    0    0 -0.00000000000E+00 -0.00000000000E+00 -0.45593999997E+02  0.45594000000E+02  0.51100000000E-03 0. -1.
    9900012    2    1    2    0    0 -0.13885857972E+02 -0.38321031885E+02  0.14909888124E+02  0.47787270741E+02  0.19999998618E+02 0.  0.
         12    1    1    2    0    0  0.13885857972E+02  0.38321031885E+02 -0.14909888124E+02  0.43400729259E+02  0.00000000000E+00 0. -1.
         11    1    3    3    0    0 -0.10336291931E+02 -0.82877804912E+01  0.21746188898E+01  0.13425915385E+02  0.51100000000E-03 0. -1.
        -11    1    3    3    0    0 -0.28398069340E+01 -0.91471506908E+01 -0.55712831443E+00  0.95940221702E+01  0.51100000000E-03 0.  1.
        -12    1    3    3    0    0 -0.70975910662E+00 -0.20886100703E+02  0.13292397548E+02  0.24767333186E+02  0.00000000000E+00 0.  1.
</event>
<event>
 7    1  0.2459936E-009  0.4778727E+02  0.7816164E-02  0.1312668E+00
        -11   -1    0    0    0    0  0.00000000000E+00  0.00000000000E+00  0.45593999997E+02  0.45594000000E+02  0.51100000000E-03 0.  1.
         11   -1    0    0    0    0 -0.00000000000E+00 -0.00000000000E+00 -0.45593999997E+02  0.45594000000E+02  0.51100000000E-03 0. -1.
    9900012    2    1    2    0    0 -0.27250278967E+02  0.20499607324E+02  0.26847935687E+02  0.47787271263E+02  0.20000000998E+02 0.  0.
         12    1    1    2    0    0  0.27250278967E+02 -0.20499607324E+02 -0.26847935687E+02  0.43400728737E+02  0.00000000000E+00 0. -1.
         11    1    3    3    0    0 -0.37631059231E+01  0.22678134789E+01  0.94424749666E+01  0.10414618472E+02  0.51100000000E-03 0. -1.
        -11    1    3    3    0    0 -0.12384107285E+02  0.26416505456E+01  0.12092353887E+02  0.17509124868E+02  0.51100000000E-03 0.  1.
         12    1    3    3    0    0 -0.11103065759E+02  0.15590143299E+02  0.53131068341E+01  0.19863527924E+02  0.00000000000E+00 0. -1.
</event>
<event>
 7    1  0.2459936E-009  0.4778727E+02  0.7816164E-02  0.1312668E+00
        -11   -1    0    0    0    0  0.00000000000E+00  0.00000000000E+00  0.45593999997E+02  0.45594000000E+02  0.51100000000E-03 0.  1.
         11   -1    0    0    0    0 -0.00000000000E+00 -0.00000000000E+00 -0.45593999997E+02  0.45594000000E+02  0.51100000000E-03 0. -1.
    9900012    2    1    2    0    0 -0.17541877479E+02  0.33426073358E+02 -0.21415025476E+02  0.47787272336E+02  0.20000005887E+02 0.  0.
         12    1    1    2    0    0  0.17541877479E+02 -0.33426073358E+02  0.21415025476E+02  0.43400727664E+02  0.00000000000E+00 0. -1.
         11    1    3    3    0    0  0.24658495935E+01  0.73143212003E+00 -0.19414784038E+01  0.32225371708E+01  0.51100000000E-03 0. -1.
        -11    1    3    3    0    0 -0.12404165997E+01  0.66976783021E+01  0.43162494657E+00  0.68252346725E+01  0.51100000000E-03 0.  1.
        -12    1    3    3    0    0 -0.18767310473E+02  0.25996962936E+02 -0.19905172019E+02  0.37739500492E+02  0.00000000000E+00 0.  1.
</event>
<event>
 7    1  0.2459936E-009  0.4778726E+02  0.7816164E-02  0.1312668E+00
        -11   -1    0    0    0    0  0.00000000000E+00  0.00000000000E+00  0.45593999997E+02  0.45594000000E+02  0.51100000000E-03 0.  1.
         11   -1    0    0    0    0 -0.00000000000E+00 -0.00000000000E+00 -0.45593999997E+02  0.45594000000E+02  0.51100000000E-03 0. -1.
    9900012    2    1    2    0    0 -0.22410150163E+02  0.33269926202E+02  0.16568700644E+02  0.47787255066E+02  0.19999927147E+02 0.  0.
         12    1    1    2    0    0  0.22410150163E+02 -0.33269926202E+02 -0.16568700644E+02  0.43400744934E+02  0.00000000000E+00 0. -1.
         11    1    3    3    0    0 -0.62657826890E+01  0.41743880423E+01  0.70147497329E+01  0.10290396606E+02  0.51100000000E-03 0. -1.
        -11    1    3    3    0    0  0.23865357438E+01  0.15646966762E+01  0.19324374536E+01  0.34464682383E+01  0.51100000000E-03 0.  1.
         12    1    3    3    0    0 -0.18530903218E+02  0.27530841483E+02  0.76215134577E+01  0.34050390221E+02  0.00000000000E+00 0. -1.
</event>
<event>
 7    1  0.2459936E-009  0.4778727E+02  0.7816164E-02  0.1312668E+00
        -11   -1    0    0    0    0  0.00000000000E+00  0.00000000000E+00  0.45593999997E+02  0.45594000000E+02  0.51100000000E-03 0. -1.
         11   -1    0    0    0    0 -0.00000000000E+00 -0.00000000000E+00 -0.45593999997E+02  0.45594000000E+02  0.51100000000E-03 0.  1.
    9900012    2    1    2    0    0 -0.19327412375E+02  0.24806384879E+02 -0.29911830303E+02  0.47787271988E+02  0.20000004302E+02 0.  0.
         12    1    1    2    0    0  0.19327412375E+02 -0.24806384879E+02  0.29911830303E+02  0.43400728012E+02  0.00000000000E+00 0. -1.
         11    1    3    3    0    0  0.14345629440E+01  0.36610039894E+01 -0.21513613607E+01  0.44821063147E+01  0.51100000000E-03 0. -1.
        -11    1    3    3    0    0 -0.11912735777E+01 -0.20773926490E+01 -0.43284612146E+01  0.49467433430E+01  0.51100000000E-03 0.  1.
        -12    1    3    3    0    0 -0.19570701742E+02  0.23222773539E+02 -0.23432007728E+02  0.38358422330E+02  0.00000000000E+00 0.  1.
</event>
<event>
 7    1  0.2459936E-009  0.4778727E+02  0.7816164E-02  0.1312668E+00
        -11   -1    0    0    0    0  0.00000000000E+00  0.00000000000E+00  0.45593999997E+02  0.45594000000E+02  0.51100000000E-03 0.  1.
         11   -1    0    0    0    0 -0.00000000000E+00 -0.00000000000E+00 -0.45593999997E+02  0.45594000000E+02  0.51100000000E-03 0. -1.
    9900012    2    1    2    0    0  0.17572443532E+02  0.31242076888E+02  0.24469679826E+02  0.47787269928E+02  0.19999994911E+02 0.  0.
         12    1    1    2    0    0 -0.17572443532E+02 -0.31242076888E+02 -0.24469679826E+02  0.43400730072E+02  0.00000000000E+00 0. -1.
         11    1    3    3    0    0  0.13870473156E+02  0.12723954215E+02  0.15125510114E+02  0.24146844367E+02  0.51100000000E-03 0. -1.
        -11    1    3    3    0    0  0.66356287424E+01  0.95530483278E+01  0.79886522142E+01  0.14110664960E+02  0.51100000000E-03 0.  1.
         12    1    3    3    0    0 -0.29336583658E+01  0.89650743449E+01  0.13555174976E+01  0.95297606005E+01  0.00000000000E+00 0. -1.
</event>
<event>
 7    1  0.2459936E-009  0.4778727E+02  0.7816164E-02  0.1312668E+00
        -11   -1    0    0    0    0  0.00000000000E+00  0.00000000000E+00  0.45593999997E+02  0.45594000000E+02  0.51100000000E-03 0. -1.
         11   -1    0    0    0    0 -0.00000000000E+00 -0.00000000000E+00 -0.45593999997E+02  0.45594000000E+02  0.51100000000E-03 0.  1.
    9900012    2    1    2    0    0 -0.12571169238E+02  0.34717619413E+02 -0.22809560705E+02  0.47787268978E+02  0.19999990578E+02 0.  0.
         12    1    1    2    0    0  0.12571169238E+02 -0.34717619413E+02  0.22809560705E+02  0.43400731022E+02  0.00000000000E+00 0. -1.
         11    1    3    3    0    0  0.40689096201E+01  0.14482845311E+01 -0.26542041062E+01  0.50693543255E+01  0.51100000000E-03 0. -1.
        -11    1    3    3    0    0 -0.16403641935E+01  0.34462623388E+01 -0.43362526315E+01  0.57767296925E+01  0.51100000000E-03 0.  1.
        -12    1    3    3    0    0 -0.14999714665E+02  0.29823072543E+02 -0.15819103967E+02  0.36941184960E+02  0.00000000000E+00 0.  1.
</event>
<event>
 7    1  0.2459936E-009  0.4778727E+02  0.7816164E-02  0.1312668E+00
        -11   -1    0    0    0    0  0.00000000000E+00  0.00000000000E+00  0.45593999997E+02  0.45594000000E+02  0.51100000000E-03 0.  1.
         11   -1    0    0    0    0 -0.00000000000E+00 -0.00000000000E+00 -0.45593999997E+02  0.45594000000E+02  0.51100000000E-03 0. -1.
    9900012    2    1    2    0    0  0.15612638046E+02  0.15495653194E+02  0.37413276092E+02  0.47787274631E+02  0.20000016352E+02 0.  0.
         12    1    1    2    0    0 -0.15612638046E+02 -0.15495653194E+02 -0.37413276092E+02  0.43400725369E+02  0.00000000000E+00 0. -1.
         11    1    3    3    0    0 -0.18079411188E+01 -0.19746492686E+01  0.90221339541E+01  0.94109931554E+01  0.51100000000E-03 0. -1.
        -11    1    3    3    0    0  0.94678424122E+00  0.51828223506E+01  0.57929569212E+01  0.78304787893E+01  0.51100000000E-03 0.  1.
         12    1    3    3    0    0  0.16473794923E+02  0.12287480112E+02  0.22598185216E+02  0.30545802686E+02  0.00000000000E+00 0. -1.
</event>
<event>
 7    1  0.2459936E-009  0.4778728E+02  0.7816164E-02  0.1312668E+00
        -11   -1    0    0    0    0  0.00000000000E+00  0.00000000000E+00  0.45593999997E+02  0.45594000000E+02  0.51100000000E-03 0.  1.
         11   -1    0    0    0    0 -0.00000000000E+00 -0.00000000000E+00 -0.45593999997E+02  0.45594000000E+02  0.51100000000E-03 0. -1.
    9900012    2    1    2    0    0  0.19991746039E+01 -0.29745368534E+02  0.31541071484E+02  0.47787276058E+02  0.20000022860E+02 0.  0.
         12    1    1    2    0    0 -0.19991746039E+01  0.29745368534E+02 -0.31541071484E+02  0.43400723942E+02  0.00000000000E+00 0. -1.
         11    1    3    3    0    0 -0.33143613723E+01 -0.19307047483E+02  0.15695945022E+02  0.25101987257E+02  0.51100000000E-03 0. -1.
        -11    1    3    3    0    0 -0.57978316546E+00 -0.49355579292E+01  0.13350201358E+02  0.14245130998E+02  0.51100000000E-03 0.  1.
         12    1    3    3    0    0  0.58933191417E+01 -0.55027631213E+01  0.24949251037E+01  0.84401578035E+01  0.00000000000E+00 0. -1.
</event>
<event>
 7    1  0.2459936E-009  0.4778727E+02  0.7816164E-02  0.1312668E+00
        -11   -1    0    0    0    0  0.00000000000E+00  0.00000000000E+00  0.45593999997E+02  0.45594000000E+02  0.51100000000E-03 0.  1.
         11   -1    0    0    0    0 -0.00000000000E+00 -0.00000000000E+00 -0.45593999997E+02  0.45594000000E+02  0.51100000000E-03 0. -1.
    9900012    2    1    2    0    0 -0.18100079698E+02 -0.17323549531E+02  0.35438754732E+02  0.47787267398E+02  0.19999983373E+02 0.  0.
         12    1    1    2    0    0  0.18100079698E+02  0.17323549531E+02 -0.35438754732E+02  0.43400732602E+02  0.00000000000E+00 0. -1.
         11    1    3    3    0    0 -0.15777912638E+01 -0.54279180097E+01  0.14400607222E+02  0.15470268511E+02  0.51100000000E-03 0. -1.
        -11    1    3    3    0    0  0.19224786012E+01 -0.16282604781E+01  0.79211805779E-02  0.25193688025E+01  0.51100000000E-03 0.  1.
        -12    1    3    3    0    0 -0.18444767036E+02 -0.10267371044E+02  0.21030226330E+02  0.29797630084E+02  0.00000000000E+00 0.  1.
</event>
<event>
 7    1  0.2459936E-009  0.4778727E+02  0.7816164E-02  0.1312668E+00
        -11   -1    0    0    0    0  0.00000000000E+00  0.00000000000E+00  0.45593999997E+02  0.45594000000E+02  0.51100000000E-03 0.  1.
         11   -1    0    0    0    0 -0.00000000000E+00 -0.00000000000E+00 -0.45593999997E+02  0.45594000000E+02  0.51100000000E-03 0. -1.
    9900012    2    1    2    0    0 -0.16204921804E+02  0.39809617056E+02  0.60181348088E+01  0.47787273653E+02  0.20000011895E+02 0.  0.
         12    1    1    2    0    0  0.16204921804E+02 -0.39809617056E+02 -0.60181348088E+01  0.43400726347E+02  0.00000000000E+00 0. -1.
         11    1    3    3    0    0 -0.12509290295E+02  0.17936428216E+02 -0.32029512671E+01  0.22101056488E+02  0.51100000000E-03 0. -1.
        -11    1    3    3    0    0 -0.45388230447E+01  0.80989061987E+01  0.36960349566E+00  0.92913832797E+01  0.51100000000E-03 0.  1.
        -12    1    3    3    0    0  0.84319153573E+00  0.13774282642E+02  0.88514825803E+01  0.16394833885E+02  0.00000000000E+00 0.  1.
</event>
<event>
 7    1  0.2459936E-009  0.4778727E+02  0.7816164E-02  0.1312668E+00
        -11   -1    0    0    0    0  0.00000000000E+00  0.00000000000E+00  0.45593999997E+02  0.45594000000E+02  0.51100000000E-03 0.  1.
         11   -1    0    0    0    0 -0.00000000000E+00 -0.00000000000E+00 -0.45593999997E+02  0.45594000000E+02  0.51100000000E-03 0. -1.
    9900012    2    1    2    0    0 -0.68309051296E+01  0.31172703984E+02  0.29414698732E+02  0.47787271433E+02  0.20000001774E+02 0.  0.
         12    1    1    2    0    0  0.68309051296E+01 -0.31172703984E+02 -0.29414698732E+02  0.43400728567E+02  0.00000000000E+00 0. -1.
         11    1    3    3    0    0 -0.91419276492E+00  0.24741349085E+01 -0.26647066121E+01  0.37493670862E+01  0.51100000000E-03 0. -1.
        -11    1    3    3    0    0 -0.37226029013E+01  0.49009067020E+01  0.50738717671E+01  0.79762669108E+01  0.51100000000E-03 0.  1.
        -12    1    3    3    0    0 -0.21941094634E+01  0.23797662374E+02  0.27005533577E+02  0.36061637436E+02  0.00000000000E+00 0.  1.
</event>
<event>
 7    1  0.2459936E-009  0.4778729E+02  0.7816164E-02  0.1312668E+00
        -11   -1    0    0    0    0  0.00000000000E+00  0.00000000000E+00  0.45593999997E+02  0.45594000000E+02  0.51100000000E-03 0.  1.
         11   -1    0    0    0    0 -0.00000000000E+00 -0.00000000000E+00 -0.45593999997E+02  0.45594000000E+02  0.51100000000E-03 0. -1.
    9900012    2    1    2    0    0 -0.15161367708E+02  0.28554778246E+02  0.28954783869E+02  0.47787286407E+02  0.20000070045E+02 0.  0.
         12    1    1    2    0    0  0.15161367708E+02 -0.28554778246E+02 -0.28954783869E+02  0.43400713593E+02  0.00000000000E+00 0. -1.
         11    1    3    3    0    0  0.10109008900E+01  0.26116610159E+01 -0.12868069547E+01  0.30819744112E+01  0.51100000000E-03 0. -1.
        -11    1    3    3    0    0 -0.18972004606E+01  0.12004950859E+02  0.16443166330E+02  0.20447394306E+02  0.51100000000E-03 0.  1.
         12    1    3    3    0    0 -0.14275068137E+02  0.13938166371E+02  0.13798424494E+02  0.24257917690E+02  0.00000000000E+00 0. -1.
</event>
<event>
 7    1  0.2459936E-009  0.4778727E+02  0.7816164E-02  0.1312668E+00
        -11   -1    0    0    0    0  0.00000000000E+00  0.00000000000E+00  0.45593999997E+02  0.45594000000E+02  0.51100000000E-03 0.  1.
         11   -1    0    0    0    0 -0.00000000000E+00 -0.00000000000E+00 -0.45593999997E+02  0.45594000000E+02  0.51100000000E-03 0. -1.
    9900012    2    1    2    0    0 -0.29686644564E+02  0.19388581942E+02  0.25028169674E+02  0.47787271292E+02  0.20000001128E+02 0.  0.
         12    1    1    2    0    0  0.29686644564E+02 -0.19388581942E+02 -0.25028169674E+02  0.43400728708E+02  0.00000000000E+00 0. -1.
         11    1    3    3    0    0 -0.15214645520E+02  0.25828847790E+01  0.89294283047E+01  0.17829509870E+02  0.51100000000E-03 0. -1.
        -11    1    3    3    0    0 -0.16510401700E+02  0.14160872605E+02  0.12673587698E+02  0.25174262703E+02  0.51100000000E-03 0.  1.
        -12    1    3    3    0    0  0.20384026561E+01  0.26448245578E+01  0.34251536707E+01  0.47834987194E+01  0.00000000000E+00 0.  1.
</event>
<event>
 7    1  0.2459936E-009  0.4778728E+02  0.7816164E-02  0.1312668E+00
        -11   -1    0    0    0    0  0.00000000000E+00  0.00000000000E+00  0.45593999997E+02  0.45594000000E+02  0.51100000000E-03 0. -1.
         11   -1    0    0    0    0 -0.00000000000E+00 -0.00000000000E+00 -0.45593999997E+02  0.45594000000E+02  0.51100000000E-03 0.  1.
    9900012    2    1    2    0    0 -0.29136446614E+02 -0.54408560910E+01 -0.31703108595E+02  0.47787279604E+02  0.20000039027E+02 0.  0.
         12    1    1    2    0    0  0.29136446614E+02  0.54408560910E+01  0.31703108595E+02  0.43400720396E+02  0.00000000000E+00 0. -1.
         11    1    3    3    0    0 -0.10448909767E+02 -0.15135397666E+01 -0.14133950355E+02  0.17641969018E+02  0.51100000000E-03 0. -1.
        -11    1    3    3    0    0 -0.18431058016E+02 -0.38140986267E+01 -0.20136215109E+02  0.27562989807E+02  0.51100000000E-03 0.  1.
         12    1    3    3    0    0 -0.25647883011E+00 -0.11321769777E+00  0.25670568684E+01  0.25823207785E+01  0.00000000000E+00 0. -1.
</event>
<event>
 7    1  0.2459936E-009  0.4778728E+02  0.7816164E-02  0.1312668E+00
        -11   -1    0    0    0    0  0.00000000000E+00  0.00000000000E+00  0.45593999997E+02  0.45594000000E+02  0.51100000000E-03 0.  1.
         11   -1    0    0    0    0 -0.00000000000E+00 -0.00000000000E+00 -0.45593999997E+02  0.45594000000E+02  0.51100000000E-03 0. -1.
    9900012    2    1    2    0    0 -0.45765177127E+01  0.31070502616E+02  0.29955003536E+02  0.47787275535E+02  0.20000020476E+02 0.  0.
         12    1    1    2    0    0  0.45765177127E+01 -0.31070502616E+02 -0.29955003536E+02  0.43400724465E+02  0.00000000000E+00 0. -1.
         11    1    3    3    0    0 -0.26752466905E+01  0.20860675065E+02  0.20397786130E+02  0.29298368355E+02  0.51100000000E-03 0. -1.
        -11    1    3    3    0    0  0.43313318789E+01  0.81225877810E+01  0.62883466531E+01  0.11148101722E+02  0.51100000000E-03 0.  1.
         12    1    3    3    0    0 -0.62326029011E+01  0.20872397705E+01  0.32688707531E+01  0.73408054587E+01  0.00000000000E+00 0. -1.
</event>
<event>
 7    1  0.2459936E-009  0.4778727E+02  0.7816164E-02  0.1312668E+00
        -11   -1    0    0    0    0  0.00000000000E+00  0.00000000000E+00  0.45593999997E+02  0.45594000000E+02  0.51100000000E-03 0.  1.
         11   -1    0    0    0    0 -0.00000000000E+00 -0.00000000000E+00 -0.45593999997E+02  0.45594000000E+02  0.51100000000E-03 0. -1.
    9900012    2    1    2    0    0 -0.17176005848E+02  0.33242393640E+02  0.21989804853E+02  0.47787269254E+02  0.19999991838E+02 0.  0.
         12    1    1    2    0    0  0.17176005848E+02 -0.33242393640E+02 -0.21989804853E+02  0.43400730746E+02  0.00000000000E+00 0. -1.
         11    1    3    3    0    0 -0.85755121549E+01  0.21476556881E+02  0.30200238323E+01  0.23321716240E+02  0.51100000000E-03 0. -1.
        -11    1    3    3    0    0 -0.12931609778E+01  0.48954423091E+01  0.40307451692E+01  0.64718256773E+01  0.51100000000E-03 0.  1.
        -12    1    3    3    0    0 -0.73073327148E+01  0.68703944502E+01  0.14939035851E+02  0.17993727337E+02  0.00000000000E+00 0.  1.
</event>
<event>
 7    1  0.2459936E-009  0.4778727E+02  0.7816164E-02  0.1312668E+00
        -11   -1    0    0    0    0  0.00000000000E+00  0.00000000000E+00  0.45593999997E+02  0.45594000000E+02  0.51100000000E-03 0.  1.
         11   -1    0    0    0    0 -0.00000000000E+00 -0.00000000000E+00 -0.45593999997E+02  0.45594000000E+02  0.51100000000E-03 0. -1.
    9900012    2    1    2    0    0  0.29772291517E+01 -0.34811965013E+02  0.25746584838E+02  0.47787269219E+02  0.19999991678E+02 0.  0.
         12    1    1    2    0    0 -0.29772291517E+01  0.34811965013E+02 -0.25746584838E+02  0.43400730781E+02  0.00000000000E+00 0. -1.
         11    1    3    3    0    0  0.93862364481E+00  0.10422083306E+01  0.83449486642E+00  0.16320522339E+01  0.51100000000E-03 0. -1.
        -11    1    3    3    0    0  0.54724590757E+01 -0.42437155291E+01  0.59771968333E+01  0.91478856613E+01  0.51100000000E-03 0.  1.
        -12    1    3    3    0    0 -0.34338535688E+01 -0.31610457815E+02  0.18934893138E+02  0.37007331324E+02  0.00000000000E+00 0.  1.
</event>
<event>
 7    1  0.2459936E-009  0.4778730E+02  0.7816164E-02  0.1312668E+00
        -11   -1    0    0    0    0  0.00000000000E+00  0.00000000000E+00  0.45593999997E+02  0.45594000000E+02  0.51100000000E-03 0.  1.
         11   -1    0    0    0    0 -0.00000000000E+00 -0.00000000000E+00 -0.45593999997E+02  0.45594000000E+02  0.51100000000E-03 0. -1.
    9900012    2    1    2    0    0 -0.42723971578E+02 -0.76085889486E+01 -0.62648430425E+00  0.47787298903E+02  0.20000127016E+02 0.  0.
         12    1    1    2    0    0  0.42723971578E+02  0.76085889486E+01  0.62648430425E+00  0.43400701097E+02  0.00000000000E+00 0. -1.
         11    1    3    3    0    0 -0.10108032377E+02  0.19807122272E+00  0.21348302315E+00  0.10112226561E+02  0.51100000000E-03 0. -1.
        -11    1    3    3    0    0 -0.11966611526E+01 -0.44985903170E+01 -0.37092045975E+01  0.59521014576E+01  0.51100000000E-03 0.  1.
        -12    1    3    3    0    0 -0.31419278048E+02 -0.33080698543E+01  0.28692372701E+01  0.31722970884E+02  0.00000000000E+00 0.  1.
</event>
<event>
 7    1  0.2459936E-009  0.4778727E+02  0.7816164E-02  0.1312668E+00
        -11   -1    0    0    0    0  0.00000000000E+00  0.00000000000E+00  0.45593999997E+02  0.45594000000E+02  0.51100000000E-03 0.  1.
         11   -1    0    0    0    0 -0.00000000000E+00 -0.00000000000E+00 -0.45593999997E+02  0.45594000000E+02  0.51100000000E-03 0. -1.
    9900012    2    1    2    0    0 -0.26952629522E+01  0.36915941554E+02 -0.22662126682E+02  0.47787272253E+02  0.20000005510E+02 0.  0.
         12    1    1    2    0    0  0.26952629522E+01 -0.36915941554E+02  0.22662126682E+02  0.43400727747E+02  0.00000000000E+00 0. -1.
         11    1    3    3    0    0 -0.52371450219E+01  0.19688162701E+02 -0.55077852090E+01  0.21104197135E+02  0.51100000000E-03 0. -1.
        -11    1    3    3    0    0 -0.17014200948E+01  0.18522646294E+01  0.82630668287E+00  0.26473567179E+01  0.51100000000E-03 0.  1.
        -12    1    3    3    0    0  0.42433021646E+01  0.15375514223E+02 -0.17980648156E+02  0.24035718400E+02  0.00000000000E+00 0.  1.
</event>
<event>
 7    1  0.2459936E-009  0.4778727E+02  0.7816164E-02  0.1312668E+00
        -11   -1    0    0    0    0  0.00000000000E+00  0.00000000000E+00  0.45593999997E+02  0.45594000000E+02  0.51100000000E-03 0. -1.
         11   -1    0    0    0    0 -0.00000000000E+00 -0.00000000000E+00 -0.45593999997E+02  0.45594000000E+02  0.51100000000E-03 0.  1.
    9900012    2    1    2    0    0 -0.78256052385E+01  0.14674126000E+02 -0.40088065367E+02  0.47787273553E+02  0.20000011439E+02 0.  0.
         12    1    1    2    0    0  0.78256052385E+01 -0.14674126000E+02  0.40088065367E+02  0.43400726447E+02  0.00000000000E+00 0. -1.
         11    1    3    3    0    0 -0.55383163444E+01  0.31442703956E+01 -0.16117553543E+02  0.17330173592E+02  0.51100000000E-03 0. -1.
        -11    1    3    3    0    0 -0.51259068003E+01  0.11714566088E+02 -0.24431443539E+02  0.27575376930E+02  0.51100000000E-03 0.  1.
         12    1    3    3    0    0  0.28386179062E+01 -0.18471048339E+00  0.46093171583E+00  0.28817230309E+01  0.00000000000E+00 0. -1.
</event>
<event>
 7    1  0.2459936E-009  0.4778726E+02  0.7816164E-02  0.1312668E+00
        -11   -1    0    0    0    0  0.00000000000E+00  0.00000000000E+00  0.45593999997E+02  0.45594000000E+02  0.51100000000E-03 0. -1.
         11   -1    0    0    0    0 -0.00000000000E+00 -0.00000000000E+00 -0.45593999997E+02  0.45594000000E+02  0.51100000000E-03 0.  1.
    9900012    2    1    2    0    0  0.17560908401E+02 -0.39601641898E+02  0.26359958017E+01  0.47787262463E+02  0.19999960874E+02 0.  0.
         12    1    1    2    0    0 -0.17560908401E+02  0.39601641898E+02 -0.26359958017E+01  0.43400737537E+02  0.00000000000E+00 0. -1.
         11    1    3    3    0    0  0.22172585404E+01 -0.34603815077E+01  0.28352037070E+01  0.49928805248E+01  0.51100000000E-03 0.  1.
        -11    1    3    3    0    0  0.15877324483E+02 -0.28207303404E+02 -0.60404707334E+01  0.32927627989E+02  0.51100000000E-03 0. -1.
         12    1    3    3    0    0 -0.53367462216E+00 -0.79339569862E+01  0.58412628281E+01  0.98667539489E+01  0.00000000000E+00 0. -1.
</event>
<event>
 7    1  0.2459936E-009  0.4778727E+02  0.7816164E-02  0.1312668E+00
        -11   -1    0    0    0    0  0.00000000000E+00  0.00000000000E+00  0.45593999997E+02  0.45594000000E+02  0.51100000000E-03 0.  1.
         11   -1    0    0    0    0 -0.00000000000E+00 -0.00000000000E+00 -0.45593999997E+02  0.45594000000E+02  0.51100000000E-03 0. -1.
    9900012    2    1    2    0    0  0.12108497178E+02 -0.19449323996E+02  0.36860973735E+02  0.47787270830E+02  0.19999999021E+02 0.  0.
         12    1    1    2    0    0 -0.12108497178E+02  0.19449323996E+02 -0.36860973735E+02  0.43400729170E+02  0.00000000000E+00 0. -1.
         11    1    3    3    0    0  0.28947756507E+01  0.36869139721E+00  0.11169988381E+01  0.31246353515E+01  0.51100000000E-03 0. -1.
        -11    1    3    3    0    0  0.10079126697E+02 -0.13599963047E+02  0.13805368051E+02  0.21843442429E+02  0.51100000000E-03 0.  1.
         12    1    3    3    0    0 -0.86540516943E+00 -0.62180523462E+01  0.21938606845E+02  0.22819193049E+02  0.00000000000E+00 0. -1.
</event>
<event>
 7    1  0.2459936E-009  0.4778727E+02  0.7816164E-02  0.1312668E+00
        -11   -1    0    0    0    0  0.00000000000E+00  0.00000000000E+00  0.45593999997E+02  0.45594000000E+02  0.51100000000E-03 0.  1.
         11   -1    0    0    0    0 -0.00000000000E+00 -0.00000000000E+00 -0.45593999997E+02  0.45594000000E+02  0.51100000000E-03 0. -1.
    9900012    2    1    2    0    0  0.12532538438E+02  0.41397223461E+02 -0.35817223815E+01  0.47787269992E+02  0.19999995202E+02 0.  0.
         12    1    1    2    0    0 -0.12532538438E+02 -0.41397223461E+02  0.35817223815E+01  0.43400730008E+02  0.00000000000E+00 0. -1.
         11    1    3    3    0    0  0.33913183165E+01  0.91765553142E+01 -0.31259061644E+01  0.10270418539E+02  0.51100000000E-03 0. -1.
        -11    1    3    3    0    0 -0.59880549494E+00  0.18318888267E+01  0.48026902140E+01  0.51749607001E+01  0.51100000000E-03 0.  1.
        -12    1    3    3    0    0  0.97400256159E+01  0.30388779320E+02 -0.52585064312E+01  0.32341890753E+02  0.00000000000E+00 0.  1.
</event>
<event>
 7    1  0.2459936E-009  0.4778727E+02  0.7816164E-02  0.1312668E+00
        -11   -1    0    0    0    0  0.00000000000E+00  0.00000000000E+00  0.45593999997E+02  0.45594000000E+02  0.51100000000E-03 0. -1.
         11   -1    0    0    0    0 -0.00000000000E+00 -0.00000000000E+00 -0.45593999997E+02  0.45594000000E+02  0.51100000000E-03 0.  1.
    9900012    2    1    2    0    0  0.38246818708E+01 -0.30564765864E+02 -0.30574340976E+02  0.47787269248E+02  0.19999991808E+02 0.  0.
         12    1    1    2    0    0 -0.38246818708E+01  0.30564765864E+02  0.30574340976E+02  0.43400730752E+02  0.00000000000E+00 0. -1.
         11    1    3    3    0    0  0.56630800985E+00 -0.24450603991E+01  0.64371061314E+00  0.25910207896E+01  0.51100000000E-03 0. -1.
        -11    1    3    3    0    0  0.63473725291E+01 -0.23292703399E+02 -0.16072738887E+02  0.29002967180E+02  0.51100000000E-03 0.  1.
         12    1    3    3    0    0 -0.30889986681E+01 -0.48270020663E+01 -0.15145312702E+02  0.16193281278E+02  0.00000000000E+00 0. -1.
</event>
<event>
 7    1  0.2459936E-009  0.4778727E+02  0.7816164E-02  0.1312668E+00
        -11   -1    0    0    0    0  0.00000000000E+00  0.00000000000E+00  0.45593999997E+02  0.45594000000E+02  0.51100000000E-03 0.  1.
         11   -1    0    0    0    0 -0.00000000000E+00 -0.00000000000E+00 -0.45593999997E+02  0.45594000000E+02  0.51100000000E-03 0. -1.
    9900012    2    1    2    0    0  0.72479143425E+01 -0.41399037284E+02  0.10826387286E+02  0.47787271757E+02  0.20000003248E+02 0.  0.
         12    1    1    2    0    0 -0.72479143425E+01  0.41399037284E+02 -0.10826387286E+02  0.43400728243E+02  0.00000000000E+00 0. -1.
         11    1    3    3    0    0  0.71514574468E+01 -0.15233425279E+02  0.93039606465E+01  0.19229255662E+02  0.51100000000E-03 0. -1.
        -11    1    3    3    0    0  0.27275384290E+01 -0.98052027703E+01  0.54263665122E+01  0.11533729710E+02  0.51100000000E-03 0.  1.
         12    1    3    3    0    0 -0.26310815334E+01 -0.16360409235E+02 -0.39039398724E+01  0.17024286384E+02  0.00000000000E+00 0. -1.
</event>
<event>
 7    1  0.2459936E-009  0.4778727E+02  0.7816164E-02  0.1312668E+00
        -11   -1    0    0    0    0  0.00000000000E+00  0.00000000000E+00  0.45593999997E+02  0.45594000000E+02  0.51100000000E-03 0.  1.
         11   -1    0    0    0    0 -0.00000000000E+00 -0.00000000000E+00 -0.45593999997E+02  0.45594000000E+02  0.51100000000E-03 0. -1.
    9900012    2    1    2    0    0 -0.12453187792E+02  0.14459202433E+02  0.38980420110E+02  0.47787267597E+02  0.19999984282E+02 0.  0.
         12    1    1    2    0    0  0.12453187792E+02 -0.14459202433E+02 -0.38980420110E+02  0.43400732403E+02  0.00000000000E+00 0. -1.
         11    1    3    3    0    0 -0.32738202057E+01  0.38992265409E+01  0.59544406319E+01  0.78343621219E+01  0.51100000000E-03 0. -1.
        -11    1    3    3    0    0  0.44548098154E+01  0.48193150687E+01  0.16584121498E+02  0.17835476286E+02  0.51100000000E-03 0.  1.
         12    1    3    3    0    0 -0.13634177402E+02  0.57406608234E+01  0.16441857979E+02  0.22117429189E+02  0.00000000000E+00 0. -1.
</event>
<event>
 7    1  0.2459936E-009  0.4778726E+02  0.7816164E-02  0.1312668E+00
        -11   -1    0    0    0    0  0.00000000000E+00  0.00000000000E+00  0.45593999997E+02  0.45594000000E+02  0.51100000000E-03 0.  1.
         11   -1    0    0    0    0 -0.00000000000E+00 -0.00000000000E+00 -0.45593999997E+02  0.45594000000E+02  0.51100000000E-03 0. -1.
    9900012    2    1    2    0    0 -0.11952587387E+02  0.16654461247E+02  0.38254259853E+02  0.47787264735E+02  0.19999971232E+02 0.  0.
         12    1    1    2    0    0  0.11952587387E+02 -0.16654461247E+02 -0.38254259853E+02  0.43400735265E+02  0.00000000000E+00 0. -1.
         11    1    3    3    0    0 -0.37317458181E+00  0.52202757712E+01  0.16034888624E+02  0.16867370626E+02  0.51100000000E-03 0. -1.
        -11    1    3    3    0    0 -0.82155243239E+01  0.41793398010E+01  0.20863565731E+02  0.22808991569E+02  0.51100000000E-03 0.  1.
        -12    1    3    3    0    0 -0.33638884815E+01  0.72548456743E+01  0.13558054981E+01  0.81109025406E+01  0.00000000000E+00 0.  1.
</event>
<event>
 7    1  0.2459936E-009  0.4778728E+02  0.7816164E-02  0.1312668E+00
        -11   -1    0    0    0    0  0.00000000000E+00  0.00000000000E+00  0.45593999997E+02  0.45594000000E+02  0.51100000000E-03 0. -1.
         11   -1    0    0    0    0 -0.00000000000E+00 -0.00000000000E+00 -0.45593999997E+02  0.45594000000E+02  0.51100000000E-03 0.  1.
    9900012    2    1    2    0    0  0.22066762923E+02  0.37357715464E+02 -0.10401551618E+01  0.47787275889E+02  0.20000022087E+02 0.  0.
         12    1    1    2    0    0 -0.22066762923E+02 -0.37357715464E+02  0.10401551618E+01  0.43400724111E+02  0.00000000000E+00 0. -1.
         11    1    3    3    0    0  0.11670089922E+02  0.22905234028E+02  0.47175308565E+01  0.26136102278E+02  0.51100000000E-03 0. -1.
        -11    1    3    3    0    0 -0.76217175078E+00  0.72220653591E+01 -0.27145560448E+00  0.72672430973E+01  0.51100000000E-03 0.  1.
        -12    1    3    3    0    0  0.11158844752E+02  0.72304160774E+01 -0.54862304138E+01  0.14383930513E+02  0.00000000000E+00 0.  1.
</event>
<event>
 7    1  0.2459936E-009  0.4778727E+02  0.7816164E-02  0.1312668E+00
        -11   -1    0    0    0    0  0.00000000000E+00  0.00000000000E+00  0.45593999997E+02  0.45594000000E+02  0.51100000000E-03 0.  1.
         11   -1    0    0    0    0 -0.00000000000E+00 -0.00000000000E+00 -0.45593999997E+02  0.45594000000E+02  0.51100000000E-03 0. -1.
    9900012    2    1    2    0    0 -0.37056681966E+02 -0.11293372294E+02  0.19567454636E+02  0.47787271699E+02  0.20000002986E+02 0.  0.
         12    1    1    2    0    0  0.37056681966E+02  0.11293372294E+02 -0.19567454636E+02  0.43400728301E+02  0.00000000000E+00 0. -1.
         11    1    3    3    0    0 -0.11920531656E+02 -0.85406542982E+01  0.11804583269E+02  0.18825249991E+02  0.51100000000E-03 0. -1.
        -11    1    3    3    0    0 -0.11818020372E+02  0.15878999233E+01  0.89424096958E+01  0.14904822143E+02  0.51100000000E-03 0.  1.
         12    1    3    3    0    0 -0.13318129937E+02 -0.43406179190E+01 -0.11795383286E+01  0.14057199565E+02  0.00000000000E+00 0. -1.
</event>
<event>
 7    1  0.2459936E-009  0.4778727E+02  0.7816164E-02  0.1312668E+00
        -11   -1    0    0    0    0  0.00000000000E+00  0.00000000000E+00  0.45593999997E+02  0.45594000000E+02  0.51100000000E-03 0.  1.
         11   -1    0    0    0    0 -0.00000000000E+00 -0.00000000000E+00 -0.45593999997E+02  0.45594000000E+02  0.51100000000E-03 0. -1.
    9900012    2    1    2    0    0  0.18383379243E+02 -0.32585408974E+02 -0.21996954521E+02  0.47787268226E+02  0.19999987147E+02 0.  0.
         12    1    1    2    0    0 -0.18383379243E+02  0.32585408974E+02  0.21996954521E+02  0.43400731774E+02  0.00000000000E+00 0. -1.
         11    1    3    3    0    0  0.80972888008E+01 -0.22673419475E+01 -0.44784711698E+01  0.95269947890E+01  0.51100000000E-03 0. -1.
        -11    1    3    3    0    0  0.69333612350E+01 -0.11940327697E+02 -0.19539693247E+01  0.13944924521E+02  0.51100000000E-03 0.  1.
        -12    1    3    3    0    0  0.33527292071E+01 -0.18377739330E+02 -0.15564514026E+02  0.24315348915E+02  0.00000000000E+00 0.  1.
</event>
<event>
 7    1  0.2459936E-009  0.4778727E+02  0.7816164E-02  0.1312668E+00
        -11   -1    0    0    0    0  0.00000000000E+00  0.00000000000E+00  0.45593999997E+02  0.45594000000E+02  0.51100000000E-03 0.  1.
         11   -1    0    0    0    0 -0.00000000000E+00 -0.00000000000E+00 -0.45593999997E+02  0.45594000000E+02  0.51100000000E-03 0. -1.
    9900012    2    1    2    0    0  0.18763648127E+02 -0.10022490757E+01  0.39122168350E+02  0.47787273616E+02  0.20000011723E+02 0.  0.
         12    1    1    2    0    0 -0.18763648127E+02  0.10022490757E+01 -0.39122168350E+02  0.43400726384E+02  0.00000000000E+00 0. -1.
         11    1    3    3    0    0  0.64711395076E+01 -0.41218489207E+01  0.69118781232E+01  0.10326632777E+02  0.51100000000E-03 0. -1.
        -11    1    3    3    0    0  0.54099482186E+01 -0.55178286776E+01  0.98307286523E+01  0.12504287230E+02  0.51100000000E-03 0.  1.
         12    1    3    3    0    0  0.68825604012E+01  0.86374285227E+01  0.22379561575E+02  0.24956353609E+02  0.00000000000E+00 0. -1.
</event>
<event>
 7    1  0.2459936E-009  0.4778727E+02  0.7816164E-02  0.1312668E+00
        -11   -1    0    0    0    0  0.00000000000E+00  0.00000000000E+00  0.45593999997E+02  0.45594000000E+02  0.51100000000E-03 0. -1.
         11   -1    0    0    0    0 -0.00000000000E+00 -0.00000000000E+00 -0.45593999997E+02  0.45594000000E+02  0.51100000000E-03 0.  1.
    9900012    2    1    2    0    0  0.66663409987E+01  0.35246941443E+02 -0.24430238296E+02  0.47787268133E+02  0.19999986727E+02 0.  0.
         12    1    1    2    0    0 -0.66663409987E+01 -0.35246941443E+02  0.24430238296E+02  0.43400731867E+02  0.00000000000E+00 0. -1.
         11    1    3    3    0    0 -0.10703325710E+01  0.24823771477E+01 -0.62908806315E+01  0.68471152683E+01  0.51100000000E-03 0. -1.
        -11    1    3    3    0    0  0.93322393200E+00  0.13883862049E+01  0.23272387222E+01  0.28661059806E+01  0.51100000000E-03 0.  1.
        -12    1    3    3    0    0  0.68034496377E+01  0.31376178090E+02 -0.20466596387E+02  0.38074046884E+02  0.00000000000E+00 0.  1.
</event>
<event>
 7    1  0.2459936E-009  0.4778727E+02  0.7816164E-02  0.1312668E+00
        -11   -1    0    0    0    0  0.00000000000E+00  0.00000000000E+00  0.45593999997E+02  0.45594000000E+02  0.51100000000E-03 0.  1.
         11   -1    0    0    0    0 -0.00000000000E+00 -0.00000000000E+00 -0.45593999997E+02  0.45594000000E+02  0.51100000000E-03 0. -1.
    9900012    2    1    2    0    0 -0.20561339165E+02  0.38191194918E+02  0.15124573563E+01  0.47787267693E+02  0.19999984721E+02 0.  0.
         12    1    1    2    0    0  0.20561339165E+02 -0.38191194918E+02 -0.15124573563E+01  0.43400732307E+02  0.00000000000E+00 0. -1.
         11    1    3    3    0    0 -0.74995459303E+01  0.14287576325E+01 -0.31982165146E+01  0.82772656517E+01  0.51100000000E-03 0. -1.
        -11    1    3    3    0    0 -0.79007398358E+01  0.17124252895E+02  0.11402200784E+01  0.18893433496E+02  0.51100000000E-03 0.  1.
         12    1    3    3    0    0 -0.51610533984E+01  0.19638184390E+02  0.35704537925E+01  0.20616568546E+02  0.00000000000E+00 0. -1.
</event>
<event>
 7    1  0.2459936E-009  0.4778727E+02  0.7816164E-02  0.1312668E+00
        -11   -1    0    0    0    0  0.00000000000E+00  0.00000000000E+00  0.45593999997E+02  0.45594000000E+02  0.51100000000E-03 0.  1.
         11   -1    0    0    0    0 -0.00000000000E+00 -0.00000000000E+00 -0.45593999997E+02  0.45594000000E+02  0.51100000000E-03 0. -1.
    9900012    2    1    2    0    0 -0.10743548770E+02 -0.33938525132E+02  0.24826916961E+02  0.47787272655E+02  0.20000007342E+02 0.  0.
         12    1    1    2    0    0  0.10743548770E+02  0.33938525132E+02 -0.24826916961E+02  0.43400727345E+02  0.00000000000E+00 0. -1.
         11    1    3    3    0    0 -0.63396309849E-01 -0.25279758838E+01  0.38456538467E+00  0.25578451786E+01  0.51100000000E-03 0. -1.
        -11    1    3    3    0    0  0.51929443416E+00 -0.28452659958E+01  0.11621846719E+02  0.11976331939E+02  0.51100000000E-03 0.  1.
        -12    1    3    3    0    0 -0.11199446894E+02 -0.28565283252E+02  0.12820504858E+02  0.33253095537E+02  0.00000000000E+00 0.  1.
</event>
<event>
 7    1  0.2459936E-009  0.4778727E+02  0.7816164E-02  0.1312668E+00
        -11   -1    0    0    0    0  0.00000000000E+00  0.00000000000E+00  0.45593999997E+02  0.45594000000E+02  0.51100000000E-03 0.  1.
         11   -1    0    0    0    0 -0.00000000000E+00 -0.00000000000E+00 -0.45593999997E+02  0.45594000000E+02  0.51100000000E-03 0. -1.
    9900012    2    1    2    0    0 -0.79873395923E+01 -0.51639381117E+01  0.42345713072E+02  0.47787271133E+02  0.20000000403E+02 0.  0.
         12    1    1    2    0    0  0.79873395923E+01  0.51639381117E+01 -0.42345713072E+02  0.43400728867E+02  0.00000000000E+00 0. -1.
         11    1    3    3    0    0  0.39833801485E+00 -0.15806947919E+01  0.10984233822E+02  0.11104533404E+02  0.51100000000E-03 0.  1.
        -11    1    3    3    0    0 -0.37918793485E+01  0.64541090775E+01  0.16950855572E+02  0.18530120827E+02  0.51100000000E-03 0. -1.
         12    1    3    3    0    0 -0.45937982587E+01 -0.10037352397E+02  0.14410623678E+02  0.18152616901E+02  0.00000000000E+00 0. -1.
</event>
<event>
 7    1  0.2459936E-009  0.4778727E+02  0.7816164E-02  0.1312668E+00
        -11   -1    0    0    0    0  0.00000000000E+00  0.00000000000E+00  0.45593999997E+02  0.45594000000E+02  0.51100000000E-03 0. -1.
         11   -1    0    0    0    0 -0.00000000000E+00 -0.00000000000E+00 -0.45593999997E+02  0.45594000000E+02  0.51100000000E-03 0.  1.
    9900012    2    1    2    0    0  0.33726600376E+02  0.25204669958E+02  0.10529198774E+02  0.47787274344E+02  0.20000015045E+02 0.  0.
         12    1    1    2    0    0 -0.33726600376E+02 -0.25204669958E+02 -0.10529198774E+02  0.43400725656E+02  0.00000000000E+00 0. -1.
         11    1    3    3    0    0  0.64389536065E+00 -0.55761868903E+00 -0.99133666238E+00  0.13070151021E+01  0.51100000000E-03 0. -1.
        -11    1    3    3    0    0  0.13927669546E+02  0.19475498890E+02  0.10907469467E+02  0.26310604828E+02  0.51100000000E-03 0.  1.
        -12    1    3    3    0    0  0.19155035470E+02  0.62867897568E+01  0.61306596956E+00  0.20169654414E+02  0.00000000000E+00 0.  1.
</event>
<event>
 7    1  0.2459936E-009  0.4778727E+02  0.7816164E-02  0.1312668E+00
        -11   -1    0    0    0    0  0.00000000000E+00  0.00000000000E+00  0.45593999997E+02  0.45594000000E+02  0.51100000000E-03 0.  1.
         11   -1    0    0    0    0 -0.00000000000E+00 -0.00000000000E+00 -0.45593999997E+02  0.45594000000E+02  0.51100000000E-03 0. -1.
    9900012    2    1    2    0    0 -0.28147658491E+02  0.88691878233E+01  0.31822478861E+02  0.47787270374E+02  0.19999996945E+02 0.  0.
         12    1    1    2    0    0  0.28147658491E+02 -0.88691878233E+01 -0.31822478861E+02  0.43400729626E+02  0.00000000000E+00 0. -1.
         11    1    3    3    0    0 -0.14971066776E+02  0.80051327231E+01  0.14290189414E+02  0.22190640010E+02  0.51100000000E-03 0. -1.
        -11    1    3    3    0    0 -0.11986027857E+02  0.52766306781E+01  0.16209271300E+02  0.20838622110E+02  0.51100000000E-03 0.  1.
         12    1    3    3    0    0 -0.11905638588E+01 -0.44125755779E+01  0.13230181472E+01  0.47580082545E+01  0.00000000000E+00 0. -1.
</event>
<event>
 7    1  0.2459936E-009  0.4778726E+02  0.7816164E-02  0.1312668E+00
        -11   -1    0    0    0    0  0.00000000000E+00  0.00000000000E+00  0.45593999997E+02  0.45594000000E+02  0.51100000000E-03 0.  1.
         11   -1    0    0    0    0 -0.00000000000E+00 -0.00000000000E+00 -0.45593999997E+02  0.45594000000E+02  0.51100000000E-03 0. -1.
    9900012    2    1    2    0    0  0.22240904426E+02 -0.18606107485E+02  0.32292086826E+02  0.47787263405E+02  0.19999965167E+02 0.  0.
         12    1    1    2    0    0 -0.22240904426E+02  0.18606107485E+02 -0.32292086826E+02  0.43400736595E+02  0.00000000000E+00 0. -1.
         11    1    3    3    0    0  0.40384233651E+01 -0.18929669241E+01 -0.78919860823E+00  0.45293511407E+01  0.51100000000E-03 0. -1.
        -11    1    3    3    0    0 -0.92542299675E+00 -0.38414731611E+01  0.94500468587E+01  0.10242885807E+02  0.51100000000E-03 0.  1.
        -12    1    3    3    0    0  0.19127904058E+02 -0.12871667400E+02  0.23631238575E+02  0.33015026456E+02  0.00000000000E+00 0.  1.
</event>
<event>
 7    1  0.2459936E-009  0.4778727E+02  0.7816164E-02  0.1312668E+00
        -11   -1    0    0    0    0  0.00000000000E+00  0.00000000000E+00  0.45593999997E+02  0.45594000000E+02  0.51100000000E-03 0. -1.
         11   -1    0    0    0    0 -0.00000000000E+00 -0.00000000000E+00 -0.45593999997E+02  0.45594000000E+02  0.51100000000E-03 0.  1.
    9900012    2    1    2    0    0 -0.31500686258E+02  0.17733619935E+02 -0.24017680974E+02  0.47787268323E+02  0.19999987591E+02 0.  0.
         12    1    1    2    0    0  0.31500686258E+02 -0.17733619935E+02  0.24017680974E+02  0.43400731677E+02  0.00000000000E+00 0. -1.
         11    1    3    3    0    0 -0.40894021557E+01  0.26493198835E+01  0.14049737837E+01  0.50711002189E+01  0.51100000000E-03 0. -1.
        -11    1    3    3    0    0 -0.24992099507E+02  0.11638333476E+02 -0.14802128285E+02  0.31291513960E+02  0.51100000000E-03 0.  1.
        -12    1    3    3    0    0 -0.24191845957E+01  0.34459665752E+01 -0.10620526473E+02  0.11424654144E+02  0.00000000000E+00 0.  1.
</event>
<event>
 7    1  0.2459936E-009  0.4778727E+02  0.7816164E-02  0.1312668E+00
        -11   -1    0    0    0    0  0.00000000000E+00  0.00000000000E+00  0.45593999997E+02  0.45594000000E+02  0.51100000000E-03 0.  1.
         11   -1    0    0    0    0 -0.00000000000E+00 -0.00000000000E+00 -0.45593999997E+02  0.45594000000E+02  0.51100000000E-03 0. -1.
    9900012    2    1    2    0    0  0.27386889230E+02 -0.12960969502E+02  0.31074020830E+02  0.47787271864E+02  0.20000003739E+02 0.  0.
         12    1    1    2    0    0 -0.27386889230E+02  0.12960969502E+02 -0.31074020830E+02  0.43400728136E+02  0.00000000000E+00 0. -1.
         11    1    3    3    0    0 -0.77727314153E+00 -0.25217323387E+01  0.60421189244E+01  0.65932153675E+01  0.51100000000E-03 0. -1.
        -11    1    3    3    0    0  0.10501294926E+02 -0.40046235906E+01  0.17802652428E+02  0.21053470948E+02  0.51100000000E-03 0.  1.
        -12    1    3    3    0    0  0.17662867446E+02 -0.64346135726E+01  0.72292494775E+01  0.20140585548E+02  0.00000000000E+00 0.  1.
</event>
<event>
 7    1  0.2459936E-009  0.4778728E+02  0.7816164E-02  0.1312668E+00
        -11   -1    0    0    0    0  0.00000000000E+00  0.00000000000E+00  0.45593999997E+02  0.45594000000E+02  0.51100000000E-03 0.  1.
         11   -1    0    0    0    0 -0.00000000000E+00 -0.00000000000E+00 -0.45593999997E+02  0.45594000000E+02  0.51100000000E-03 0. -1.
    9900012    2    1    2    0    0  0.11314112177E+02  0.30974269175E+02  0.28217155343E+02  0.47787281793E+02  0.20000049006E+02 0.  0.
         12    1    1    2    0    0 -0.11314112177E+02 -0.30974269175E+02 -0.28217155343E+02  0.43400718207E+02  0.00000000000E+00 0. -1.
         11    1    3    3    0    0  0.59438960935E+01  0.69349142464E+01  0.22539854285E+01  0.94076238736E+01  0.51100000000E-03 0. -1.
        -11    1    3    3    0    0  0.82586096054E+01  0.11345448658E+02  0.18986906567E+02  0.23609880540E+02  0.51100000000E-03 0.  1.
         12    1    3    3    0    0 -0.28883935222E+01  0.12693906270E+02  0.69762633472E+01  0.14769777379E+02  0.00000000000E+00 0. -1.
</event>
<event>
 7    1  0.2459936E-009  0.4778726E+02  0.7816164E-02  0.1312668E+00
        -11   -1    0    0    0    0  0.00000000000E+00  0.00000000000E+00  0.45593999997E+02  0.45594000000E+02  0.51100000000E-03 0.  1.
         11   -1    0    0    0    0 -0.00000000000E+00 -0.00000000000E+00 -0.45593999997E+02  0.45594000000E+02  0.51100000000E-03 0. -1.
    9900012    2    1    2    0    0  0.37501157372E+02  0.89511851998E+01  0.19928962924E+02  0.47787261711E+02  0.19999957447E+02 0.  0.
         12    1    1    2    0    0 -0.37501157372E+02 -0.89511851998E+01 -0.19928962924E+02  0.43400738289E+02  0.00000000000E+00 0. -1.
         11    1    3    3    0    0  0.12461337118E+02  0.88233387643E+01  0.15494292249E+01  0.15347213458E+02  0.51100000000E-03 0.  1.
        -11    1    3    3    0    0  0.18304693633E+01  0.77175798771E+00 -0.97492223645E+00  0.22128493193E+01  0.51100000000E-03 0. -1.
        -12    1    3    3    0    0  0.23209350891E+02 -0.64391155221E+00  0.19354455936E+02  0.30227198935E+02  0.00000000000E+00 0.  1.
</event>
<event>
 7    1  0.2459936E-009  0.4778727E+02  0.7816164E-02  0.1312668E+00
        -11   -1    0    0    0    0  0.00000000000E+00  0.00000000000E+00  0.45593999997E+02  0.45594000000E+02  0.51100000000E-03 0.  1.
         11   -1    0    0    0    0 -0.00000000000E+00 -0.00000000000E+00 -0.45593999997E+02  0.45594000000E+02  0.51100000000E-03 0. -1.
    9900012    2    1    2    0    0  0.93086650906E+01 -0.37755436052E+02  0.19274317002E+02  0.47787268518E+02  0.19999988480E+02 0.  0.
         12    1    1    2    0    0 -0.93086650906E+01  0.37755436052E+02 -0.19274317002E+02  0.43400731482E+02  0.00000000000E+00 0. -1.
         11    1    3    3    0    0  0.50313066861E+01 -0.11061508709E+02  0.63616394841E+01  0.13716467442E+02  0.51100000000E-03 0.  1.
        -11    1    3    3    0    0  0.31181264032E+01 -0.58606946138E+01  0.11347501265E+02  0.13146719699E+02  0.51100000000E-03 0. -1.
         12    1    3    3    0    0  0.11592320013E+01 -0.20833232730E+02  0.15651762536E+01  0.20924081378E+02  0.00000000000E+00 0. -1.
</event>
<event>
 7    1  0.2459936E-009  0.4778727E+02  0.7816164E-02  0.1312668E+00
        -11   -1    0    0    0    0  0.00000000000E+00  0.00000000000E+00  0.45593999997E+02  0.45594000000E+02  0.51100000000E-03 0.  1.
         11   -1    0    0    0    0 -0.00000000000E+00 -0.00000000000E+00 -0.45593999997E+02  0.45594000000E+02  0.51100000000E-03 0. -1.
    9900012    2    1    2    0    0 -0.39406486351E+02 -0.55503500036E+01  0.17318941376E+02  0.47787270950E+02  0.19999999569E+02 0.  0.
         12    1    1    2    0    0  0.39406486351E+02  0.55503500036E+01 -0.17318941376E+02  0.43400729050E+02  0.00000000000E+00 0. -1.
         11    1    3    3    0    0 -0.12616707580E+02 -0.34085559074E+01  0.10961033669E+02  0.17057075450E+02  0.51100000000E-03 0. -1.
        -11    1    3    3    0    0 -0.11267444836E+02 -0.65361519947E+01  0.65858205335E+01  0.14596219661E+02  0.51100000000E-03 0.  1.
        -12    1    3    3    0    0 -0.15522333935E+02  0.43943578985E+01 -0.22791282672E+00  0.16133975839E+02  0.00000000000E+00 0.  1.
</event>
<event>
 7    1  0.2459936E-009  0.4778727E+02  0.7816164E-02  0.1312668E+00
        -11   -1    0    0    0    0  0.00000000000E+00  0.00000000000E+00  0.45593999997E+02  0.45594000000E+02  0.51100000000E-03 0.  1.
         11   -1    0    0    0    0 -0.00000000000E+00 -0.00000000000E+00 -0.45593999997E+02  0.45594000000E+02  0.51100000000E-03 0. -1.
    9900012    2    1    2    0    0 -0.19365346938E+02 -0.90439775357E+01  0.37773179620E+02  0.47787270855E+02  0.19999999138E+02 0.  0.
         12    1    1    2    0    0  0.19365346938E+02  0.90439775357E+01 -0.37773179620E+02  0.43400729145E+02  0.00000000000E+00 0. -1.
         11    1    3    3    0    0 -0.64809774065E+01  0.51972406465E+01  0.16660824812E+02  0.18617128193E+02  0.51100000000E-03 0. -1.
        -11    1    3    3    0    0 -0.50480881288E+01 -0.31711820342E+01  0.34051160391E+01  0.68654500763E+01  0.51100000000E-03 0.  1.
        -12    1    3    3    0    0 -0.78362814031E+01 -0.11070036148E+02  0.17707238768E+02  0.22304692586E+02  0.00000000000E+00 0.  1.
</event>
<event>
 7    1  0.2459936E-009  0.4778727E+02  0.7816164E-02  0.1312668E+00
        -11   -1    0    0    0    0  0.00000000000E+00  0.00000000000E+00  0.45593999997E+02  0.45594000000E+02  0.51100000000E-03 0. -1.
         11   -1    0    0    0    0 -0.00000000000E+00 -0.00000000000E+00 -0.45593999997E+02  0.45594000000E+02  0.51100000000E-03 0.  1.
    9900012    2    1    2    0    0  0.69671785633E+01 -0.33330601615E+02  0.26910085788E+02  0.47787270764E+02  0.19999998721E+02 0.  0.
         12    1    1    2    0    0 -0.69671785633E+01  0.33330601615E+02 -0.26910085788E+02  0.43400729236E+02  0.00000000000E+00 0. -1.
         11    1    3    3    0    0  0.49639395560E+01 -0.30756763121E+02  0.14502607759E+02  0.34364877501E+02  0.51100000000E-03 0.  1.
        -11    1    3    3    0    0  0.25167290595E+01 -0.20827515480E+01  0.49478057102E+01  0.59289595020E+01  0.51100000000E-03 0. -1.
        -12    1    3    3    0    0 -0.51349005224E+00 -0.49108694539E+00  0.74596723186E+01  0.74934337605E+01  0.00000000000E+00 0.  1.
</event>
<event>
 7    1  0.2459936E-009  0.4778724E+02  0.7816164E-02  0.1312668E+00
        -11   -1    0    0    0    0  0.00000000000E+00  0.00000000000E+00  0.45593999997E+02  0.45594000000E+02  0.51100000000E-03 0.  1.
         11   -1    0    0    0    0 -0.00000000000E+00 -0.00000000000E+00 -0.45593999997E+02  0.45594000000E+02  0.51100000000E-03 0. -1.
    9900012    2    1    2    0    0  0.37379846608E+02  0.19785514516E+02  0.97419903922E+01  0.47787240861E+02  0.19999862379E+02 0.  0.
         12    1    1    2    0    0 -0.37379846608E+02 -0.19785514516E+02 -0.97419903922E+01  0.43400759139E+02  0.00000000000E+00 0. -1.
         11    1    3    3    0    0  0.78886271173E+01  0.65107801019E+01  0.12742294113E+01  0.10307490295E+02  0.51100000000E-03 0. -1.
        -11    1    3    3    0    0  0.21922578261E+02  0.16231686215E+02  0.10286950110E+02  0.29152845793E+02  0.51100000000E-03 0.  1.
         12    1    3    3    0    0  0.75686412293E+01 -0.29569518004E+01 -0.18191891289E+01  0.83269047728E+01  0.00000000000E+00 0. -1.
</event>
<event>
 7    1  0.2459936E-009  0.4778728E+02  0.7816164E-02  0.1312668E+00
        -11   -1    0    0    0    0  0.00000000000E+00  0.00000000000E+00  0.45593999997E+02  0.45594000000E+02  0.51100000000E-03 0.  1.
         11   -1    0    0    0    0 -0.00000000000E+00 -0.00000000000E+00 -0.45593999997E+02  0.45594000000E+02  0.51100000000E-03 0. -1.
    9900012    2    1    2    0    0  0.53167751037E+01 -0.30915668134E+02  0.29992935431E+02  0.47787276395E+02  0.20000024394E+02 0.  0.
         12    1    1    2    0    0 -0.53167751037E+01  0.30915668134E+02 -0.29992935431E+02  0.43400723605E+02  0.00000000000E+00 0. -1.
         11    1    3    3    0    0 -0.12808241119E+01  0.16833540075E+01 -0.39215076267E+00  0.21512725541E+01  0.51100000000E-03 0. -1.
        -11    1    3    3    0    0 -0.13938443481E+01 -0.94477164924E+01  0.80801521650E+01  0.12509636616E+02  0.51100000000E-03 0.  1.
         12    1    3    3    0    0  0.79914435637E+01 -0.23151305649E+02  0.22304934029E+02  0.33126367225E+02  0.00000000000E+00 0. -1.
</event>
<event>
 7    1  0.2459936E-009  0.4778727E+02  0.7816164E-02  0.1312668E+00
        -11   -1    0    0    0    0  0.00000000000E+00  0.00000000000E+00  0.45593999997E+02  0.45594000000E+02  0.51100000000E-03 0.  1.
         11   -1    0    0    0    0 -0.00000000000E+00 -0.00000000000E+00 -0.45593999997E+02  0.45594000000E+02  0.51100000000E-03 0. -1.
    9900012    2    1    2    0    0  0.20093201005E+02  0.26651648948E+02  0.27741243812E+02  0.47787265830E+02  0.19999976226E+02 0.  0.
         12    1    1    2    0    0 -0.20093201005E+02 -0.26651648948E+02 -0.27741243812E+02  0.43400734170E+02  0.00000000000E+00 0. -1.
         11    1    3    3    0    0  0.48182058751E+01  0.47707584777E+01  0.14633030599E+02  0.16127641770E+02  0.51100000000E-03 0. -1.
        -11    1    3    3    0    0  0.10592783381E+02  0.74567942836E+01  0.95193836764E+01  0.16075742800E+02  0.51100000000E-03 0.  1.
         12    1    3    3    0    0  0.46822117483E+01  0.14424096187E+02  0.35888295365E+01  0.15583881259E+02  0.00000000000E+00 0. -1.
</event>
<event>
 7    1  0.2459936E-009  0.4778727E+02  0.7816164E-02  0.1312668E+00
        -11   -1    0    0    0    0  0.00000000000E+00  0.00000000000E+00  0.45593999997E+02  0.45594000000E+02  0.51100000000E-03 0. -1.
         11   -1    0    0    0    0 -0.00000000000E+00 -0.00000000000E+00 -0.45593999997E+02  0.45594000000E+02  0.51100000000E-03 0.  1.
    9900012    2    1    2    0    0  0.27551690396E+02  0.24606235567E+02  0.22782910576E+02  0.47787268592E+02  0.19999988818E+02 0.  0.
         12    1    1    2    0    0 -0.27551690396E+02 -0.24606235567E+02 -0.22782910576E+02  0.43400731408E+02  0.00000000000E+00 0. -1.
         11    1    3    3    0    0  0.87091217725E+00  0.11531181568E+01  0.45931230831E+01  0.48150752249E+01  0.51100000000E-03 0. -1.
        -11    1    3    3    0    0  0.18001650153E+02  0.24052560481E+02  0.12284958320E+02  0.32457745995E+02  0.51100000000E-03 0.  1.
        -12    1    3    3    0    0  0.86791280658E+01 -0.59944307045E+00  0.59048291723E+01  0.10514447372E+02  0.00000000000E+00 0.  1.
</event>
<event>
 7    1  0.2459936E-009  0.4778727E+02  0.7816164E-02  0.1312668E+00
        -11   -1    0    0    0    0  0.00000000000E+00  0.00000000000E+00  0.45593999997E+02  0.45594000000E+02  0.51100000000E-03 0.  1.
         11   -1    0    0    0    0 -0.00000000000E+00 -0.00000000000E+00 -0.45593999997E+02  0.45594000000E+02  0.51100000000E-03 0. -1.
    9900012    2    1    2    0    0 -0.16587659435E+02  0.18228394226E+02  0.35723917832E+02  0.47787272969E+02  0.20000008774E+02 0.  0.
         12    1    1    2    0    0  0.16587659435E+02 -0.18228394226E+02 -0.35723917832E+02  0.43400727031E+02  0.00000000000E+00 0. -1.
         11    1    3    3    0    0 -0.12853440615E+01  0.59044285383E+01  0.68768120572E+01  0.91545032662E+01  0.51100000000E-03 0. -1.
        -11    1    3    3    0    0 -0.11571424206E+02  0.13871131457E+02  0.29450409970E+02  0.34548991211E+02  0.51100000000E-03 0.  1.
         12    1    3    3    0    0 -0.37308911671E+01 -0.15471657693E+01 -0.60330419475E+00  0.40837784917E+01  0.00000000000E+00 0. -1.
</event>
<event>
 7    1  0.2459936E-009  0.4778727E+02  0.7816164E-02  0.1312668E+00
        -11   -1    0    0    0    0  0.00000000000E+00  0.00000000000E+00  0.45593999997E+02  0.45594000000E+02  0.51100000000E-03 0. -1.
         11   -1    0    0    0    0 -0.00000000000E+00 -0.00000000000E+00 -0.45593999997E+02  0.45594000000E+02  0.51100000000E-03 0.  1.
    9900012    2    1    2    0    0  0.31941094642E+01  0.41528816102E+02 -0.12197484512E+02  0.47787268088E+02  0.19999986519E+02 0.  0.
         12    1    1    2    0    0 -0.31941094642E+01 -0.41528816102E+02  0.12197484512E+02  0.43400731912E+02  0.00000000000E+00 0. -1.
         11    1    3    3    0    0 -0.19104543368E+01  0.18983751250E+02 -0.11283975808E+02  0.22166658692E+02  0.51100000000E-03 0. -1.
        -11    1    3    3    0    0  0.11965090151E+01  0.96213466117E+01 -0.57577015874E+01  0.11276217108E+02  0.51100000000E-03 0.  1.
         12    1    3    3    0    0  0.39080547858E+01  0.12923718241E+02  0.48441928841E+01  0.14344392287E+02  0.00000000000E+00 0. -1.
</event>
<event>
 7    1  0.2459936E-009  0.4778727E+02  0.7816164E-02  0.1312668E+00
        -11   -1    0    0    0    0  0.00000000000E+00  0.00000000000E+00  0.45593999997E+02  0.45594000000E+02  0.51100000000E-03 0.  1.
         11   -1    0    0    0    0 -0.00000000000E+00 -0.00000000000E+00 -0.45593999997E+02  0.45594000000E+02  0.51100000000E-03 0. -1.
    9900012    2    1    2    0    0 -0.72193447002E+01  0.38787634113E+01  0.42619946802E+02  0.47787267185E+02  0.19999982404E+02 0.  0.
         12    1    1    2    0    0  0.72193447002E+01 -0.38787634113E+01 -0.42619946802E+02  0.43400732815E+02  0.00000000000E+00 0. -1.
         11    1    3    3    0    0  0.70812627711E+00  0.10860899817E+01  0.17952274937E+02  0.17999033583E+02  0.51100000000E-03 0. -1.
        -11    1    3    3    0    0 -0.94951295516E+01  0.33702488115E+01  0.25848247236E+02  0.27742529583E+02  0.51100000000E-03 0.  1.
        -12    1    3    3    0    0  0.15676585742E+01 -0.57757538193E+00 -0.11805753706E+01  0.20457040189E+01  0.00000000000E+00 0.  1.
</event>
<event>
 7    1  0.2459936E-009  0.4778727E+02  0.7816164E-02  0.1312668E+00
        -11   -1    0    0    0    0  0.00000000000E+00  0.00000000000E+00  0.45593999997E+02  0.45594000000E+02  0.51100000000E-03 0.  1.
         11   -1    0    0    0    0 -0.00000000000E+00 -0.00000000000E+00 -0.45593999997E+02  0.45594000000E+02  0.51100000000E-03 0. -1.
    9900012    2    1    2    0    0  0.16042805297E+02  0.14712249884E+02  0.37547322956E+02  0.47787270056E+02  0.19999995495E+02 0.  0.
         12    1    1    2    0    0 -0.16042805297E+02 -0.14712249884E+02 -0.37547322956E+02  0.43400729944E+02  0.00000000000E+00 0. -1.
         11    1    3    3    0    0 -0.31465775579E+00  0.75337831391E+01  0.56780203115E+01  0.94391108061E+01  0.51100000000E-03 0. -1.
        -11    1    3    3    0    0  0.21441120660E+01  0.55105829273E+01  0.43858984635E+01  0.73620544920E+01  0.51100000000E-03 0.  1.
        -12    1    3    3    0    0  0.14213350987E+02  0.16678838177E+01  0.27483404181E+02  0.30986104758E+02  0.00000000000E+00 0.  1.
</event>
<event>
 7    1  0.2459936E-009  0.4778727E+02  0.7816164E-02  0.1312668E+00
        -11   -1    0    0    0    0  0.00000000000E+00  0.00000000000E+00  0.45593999997E+02  0.45594000000E+02  0.51100000000E-03 0.  1.
         11   -1    0    0    0    0 -0.00000000000E+00 -0.00000000000E+00 -0.45593999997E+02  0.45594000000E+02  0.51100000000E-03 0. -1.
    9900012    2    1    2    0    0 -0.33273337317E+02  0.22424395684E+02  0.16542514178E+02  0.47787271051E+02  0.20000000028E+02 0.  0.
         12    1    1    2    0    0  0.33273337317E+02 -0.22424395684E+02 -0.16542514178E+02  0.43400728949E+02  0.00000000000E+00 0. -1.
         11    1    3    3    0    0 -0.35430818793E+01 -0.75306592812E+00 -0.29645267558E+01  0.46807004436E+01  0.51100000000E-03 0. -1.
        -11    1    3    3    0    0 -0.83934314914E+01  0.78578627817E+01  0.23573695219E+01  0.11736817755E+02  0.51100000000E-03 0.  1.
        -12    1    3    3    0    0 -0.21336823947E+02  0.15319598830E+02  0.17149671412E+02  0.31369752852E+02  0.00000000000E+00 0.  1.
</event>
<event>
 7    1  0.2459936E-009  0.4778727E+02  0.7816164E-02  0.1312668E+00
        -11   -1    0    0    0    0  0.00000000000E+00  0.00000000000E+00  0.45593999997E+02  0.45594000000E+02  0.51100000000E-03 0.  1.
         11   -1    0    0    0    0 -0.00000000000E+00 -0.00000000000E+00 -0.45593999997E+02  0.45594000000E+02  0.51100000000E-03 0. -1.
    9900012    2    1    2    0    0  0.84884262599E+01  0.55232982255E+00  0.42558956335E+02  0.47787271747E+02  0.20000003201E+02 0.  0.
         12    1    1    2    0    0 -0.84884262599E+01 -0.55232982255E+00 -0.42558956335E+02  0.43400728253E+02  0.00000000000E+00 0. -1.
         11    1    3    3    0    0  0.39788771834E+01 -0.55920976024E+00  0.15745262424E+02  0.16249845176E+02  0.51100000000E-03 0. -1.
        -11    1    3    3    0    0  0.41006188180E+00  0.83017461093E+01  0.12796391843E+02  0.15258924722E+02  0.51100000000E-03 0.  1.
         12    1    3    3    0    0  0.40994871947E+01 -0.71902065265E+01  0.14017302069E+02  0.16278501849E+02  0.00000000000E+00 0. -1.
</event>
<event>
 7    1  0.2459936E-009  0.4778727E+02  0.7816164E-02  0.1312668E+00
        -11   -1    0    0    0    0  0.00000000000E+00  0.00000000000E+00  0.45593999997E+02  0.45594000000E+02  0.51100000000E-03 0.  1.
         11   -1    0    0    0    0 -0.00000000000E+00 -0.00000000000E+00 -0.45593999997E+02  0.45594000000E+02  0.51100000000E-03 0. -1.
    9900012    2    1    2    0    0  0.20359648553E+02 -0.19777860352E+02  0.32832056586E+02  0.47787274327E+02  0.20000014967E+02 0.  0.
         12    1    1    2    0    0 -0.20359648553E+02  0.19777860352E+02 -0.32832056586E+02  0.43400725673E+02  0.00000000000E+00 0. -1.
         11    1    3    3    0    0 -0.84304068127E+00  0.72916756423E+00  0.17658777157E+01  0.20882354500E+01  0.51100000000E-03 0. -1.
        -11    1    3    3    0    0 -0.24138292504E+01 -0.31668442756E+01  0.21124901418E+01  0.45075591151E+01  0.51100000000E-03 0.  1.
        -12    1    3    3    0    0  0.23616518485E+02 -0.17340183640E+02  0.28953688728E+02  0.41191479762E+02  0.00000000000E+00 0.  1.
</event>
<event>
 7    1  0.2459936E-009  0.4778727E+02  0.7816164E-02  0.1312668E+00
        -11   -1    0    0    0    0  0.00000000000E+00  0.00000000000E+00  0.45593999997E+02  0.45594000000E+02  0.51100000000E-03 0.  1.
         11   -1    0    0    0    0 -0.00000000000E+00 -0.00000000000E+00 -0.45593999997E+02  0.45594000000E+02  0.51100000000E-03 0. -1.
    9900012    2    1    2    0    0  0.26358850117E+02  0.11039021046E+02  0.32664579552E+02  0.47787265877E+02  0.19999976440E+02 0.  0.
         12    1    1    2    0    0 -0.26358850117E+02 -0.11039021046E+02 -0.32664579552E+02  0.43400734123E+02  0.00000000000E+00 0. -1.
         11    1    3    3    0    0 -0.31115016062E+01  0.16845306142E+00  0.39797352165E+01  0.50545139563E+01  0.51100000000E-03 0. -1.
        -11    1    3    3    0    0  0.83000263321E+01  0.43177678996E+01  0.10517401392E+02  0.14076551035E+02  0.51100000000E-03 0.  1.
         12    1    3    3    0    0  0.21170325391E+02  0.65528000847E+01  0.18167442943E+02  0.28656200886E+02  0.00000000000E+00 0. -1.
</event>
<event>
 7    1  0.2459936E-009  0.4778727E+02  0.7816164E-02  0.1312668E+00
        -11   -1    0    0    0    0  0.00000000000E+00  0.00000000000E+00  0.45593999997E+02  0.45594000000E+02  0.51100000000E-03 0.  1.
         11   -1    0    0    0    0 -0.00000000000E+00 -0.00000000000E+00 -0.45593999997E+02  0.45594000000E+02  0.51100000000E-03 0. -1.
    9900012    2    1    2    0    0  0.19107095707E+02  0.19666246253E+01  0.38918819677E+02  0.47787271390E+02  0.20000001577E+02 0.  0.
         12    1    1    2    0    0 -0.19107095707E+02 -0.19666246253E+01 -0.38918819677E+02  0.43400728610E+02  0.00000000000E+00 0. -1.
         11    1    3    3    0    0 -0.76382926227E+00  0.15972923052E+01  0.13744165061E+01  0.22413832434E+01  0.51100000000E-03 0. -1.
        -11    1    3    3    0    0  0.15603495946E+02  0.25767021364E+00  0.38164834019E+02  0.41232148084E+02  0.51100000000E-03 0.  1.
         12    1    3    3    0    0  0.42674290233E+01  0.11166210650E+00 -0.62043084741E+00  0.43137400630E+01  0.00000000000E+00 0. -1.
</event>
<event>
 7    1  0.2459936E-009  0.4778728E+02  0.7816164E-02  0.1312668E+00
        -11   -1    0    0    0    0  0.00000000000E+00  0.00000000000E+00  0.45593999997E+02  0.45594000000E+02  0.51100000000E-03 0. -1.
         11   -1    0    0    0    0 -0.00000000000E+00 -0.00000000000E+00 -0.45593999997E+02  0.45594000000E+02  0.51100000000E-03 0.  1.
    9900012    2    1    2    0    0 -0.37961462028E+02 -0.62541428392E+01 -0.20085716221E+02  0.47787275374E+02  0.20000019742E+02 0.  0.
         12    1    1    2    0    0  0.37961462028E+02  0.62541428392E+01  0.20085716221E+02  0.43400724626E+02  0.00000000000E+00 0. -1.
         11    1    3    3    0    0 -0.64582677708E+01 -0.60284305393E+01  0.36007223249E+00  0.88419935331E+01  0.51100000000E-03 0. -1.
        -11    1    3    3    0    0 -0.39324796135E+01 -0.91041864340E+00  0.82048349310E+00  0.41190352560E+01  0.51100000000E-03 0.  1.
        -12    1    3    3    0    0 -0.27570714643E+02  0.68470634352E+00 -0.21266271946E+02  0.34826246585E+02  0.00000000000E+00 0.  1.
</event>
<event>
 7    1  0.2459936E-009  0.4778727E+02  0.7816164E-02  0.1312668E+00
        -11   -1    0    0    0    0  0.00000000000E+00  0.00000000000E+00  0.45593999997E+02  0.45594000000E+02  0.51100000000E-03 0.  1.
         11   -1    0    0    0    0 -0.00000000000E+00 -0.00000000000E+00 -0.45593999997E+02  0.45594000000E+02  0.51100000000E-03 0. -1.
    9900012    2    1    2    0    0 -0.21798896024E+02  0.35936492829E+02  0.10816648135E+02  0.47787271185E+02  0.20000000643E+02 0.  0.
         12    1    1    2    0    0  0.21798896024E+02 -0.35936492829E+02 -0.10816648135E+02  0.43400728815E+02  0.00000000000E+00 0. -1.
         11    1    3    3    0    0 -0.12943171501E+02  0.15107891291E+02 -0.39068223745E+01  0.20274055566E+02  0.51100000000E-03 0. -1.
        -11    1    3    3    0    0 -0.22609020698E+00  0.63460413280E+00 -0.45915735329E+00  0.81526984689E+00  0.51100000000E-03 0.  1.
        -12    1    3    3    0    0 -0.86296343168E+01  0.20193997406E+02  0.15182627863E+02  0.26697945773E+02  0.00000000000E+00 0.  1.
</event>
<event>
 7    1  0.2459936E-009  0.4778728E+02  0.7816164E-02  0.1312668E+00
        -11   -1    0    0    0    0  0.00000000000E+00  0.00000000000E+00  0.45593999997E+02  0.45594000000E+02  0.51100000000E-03 0. -1.
         11   -1    0    0    0    0 -0.00000000000E+00 -0.00000000000E+00 -0.45593999997E+02  0.45594000000E+02  0.51100000000E-03 0.  1.
    9900012    2    1    2    0    0 -0.21546613259E+02  0.27880812143E+02 -0.25338243615E+02  0.47787276294E+02  0.20000023937E+02 0.  0.
         12    1    1    2    0    0  0.21546613259E+02 -0.27880812143E+02  0.25338243615E+02  0.43400723706E+02  0.00000000000E+00 0. -1.
         11    1    3    3    0    0  0.10946767359E+01  0.47355920509E+01 -0.91087591986E+01  0.10324419772E+02  0.51100000000E-03 0. -1.
        -11    1    3    3    0    0 -0.21473934947E+01 -0.75917170440E+00 -0.10461040037E+01  0.25063867111E+01  0.51100000000E-03 0.  1.
        -12    1    3    3    0    0 -0.20493896500E+02  0.23904391796E+02 -0.15183380413E+02  0.34956469811E+02  0.00000000000E+00 0.  1.
</event>
<event>
 7    1  0.2459936E-009  0.4778727E+02  0.7816164E-02  0.1312668E+00
        -11   -1    0    0    0    0  0.00000000000E+00  0.00000000000E+00  0.45593999997E+02  0.45594000000E+02  0.51100000000E-03 0. -1.
         11   -1    0    0    0    0 -0.00000000000E+00 -0.00000000000E+00 -0.45593999997E+02  0.45594000000E+02  0.51100000000E-03 0.  1.
    9900012    2    1    2    0    0 -0.40587273384E+02 -0.12686632140E+02 -0.86802063106E+01  0.47787269852E+02  0.19999994562E+02 0.  0.
         12    1    1    2    0    0  0.40587273384E+02  0.12686632140E+02  0.86802063106E+01  0.43400730148E+02  0.00000000000E+00 0. -1.
         11    1    3    3    0    0 -0.10252186695E+01 -0.24868328643E+01 -0.28967523736E+01  0.39530476332E+01  0.51100000000E-03 0. -1.
        -11    1    3    3    0    0 -0.19044483877E+02 -0.55016092213E+01 -0.10250770219E+02  0.22316773076E+02  0.51100000000E-03 0.  1.
        -12    1    3    3    0    0 -0.20517570837E+02 -0.46981900543E+01  0.44673162815E+01  0.21517449143E+02  0.00000000000E+00 0.  1.
</event>
<event>
 7    1  0.2459936E-009  0.4778726E+02  0.7816164E-02  0.1312668E+00
        -11   -1    0    0    0    0  0.00000000000E+00  0.00000000000E+00  0.45593999997E+02  0.45594000000E+02  0.51100000000E-03 0. -1.
         11   -1    0    0    0    0 -0.00000000000E+00 -0.00000000000E+00 -0.45593999997E+02  0.45594000000E+02  0.51100000000E-03 0.  1.
    9900012    2    1    2    0    0 -0.37117708069E+02  0.18657612592E+02 -0.12561575045E+02  0.47787263514E+02  0.19999965665E+02 0.  0.
         12    1    1    2    0    0  0.37117708069E+02 -0.18657612592E+02  0.12561575045E+02  0.43400736486E+02  0.00000000000E+00 0. -1.
         11    1    3    3    0    0 -0.13942565037E+02  0.44292046949E+01  0.21615226405E+01  0.14788007115E+02  0.51100000000E-03 0. -1.
        -11    1    3    3    0    0 -0.21307856934E+02  0.94518700644E+01 -0.82195851919E+01  0.24716880786E+02  0.51100000000E-03 0.  1.
        -12    1    3    3    0    0 -0.18672860985E+01  0.47765378322E+01 -0.65035124936E+01  0.82823756128E+01  0.00000000000E+00 0.  1.
</event>
<event>
 7    1  0.2459936E-009  0.4778728E+02  0.7816164E-02  0.1312668E+00
        -11   -1    0    0    0    0  0.00000000000E+00  0.00000000000E+00  0.45593999997E+02  0.45594000000E+02  0.51100000000E-03 0. -1.
         11   -1    0    0    0    0 -0.00000000000E+00 -0.00000000000E+00 -0.45593999997E+02  0.45594000000E+02  0.51100000000E-03 0.  1.
    9900012    2    1    2    0    0 -0.41995249566E+01 -0.43155449418E+02  0.18956614388E+01  0.47787281612E+02  0.20000048182E+02 0.  0.
         12    1    1    2    0    0  0.41995249566E+01  0.43155449418E+02 -0.18956614388E+01  0.43400718388E+02  0.00000000000E+00 0. -1.
         11    1    3    3    0    0 -0.27051487013E+01 -0.98743226327E+01 -0.73700943361E+01  0.12615005657E+02  0.51100000000E-03 0.  1.
        -11    1    3    3    0    0  0.14991059335E+01 -0.19719808016E+01  0.61283616679E+00  0.25517827710E+01  0.51100000000E-03 0. -1.
        -12    1    3    3    0    0 -0.29934821887E+01 -0.31309145983E+02  0.86529196081E+01  0.32620493184E+02  0.00000000000E+00 0.  1.
</event>
<event>
 7    1  0.2459936E-009  0.4778727E+02  0.7816164E-02  0.1312668E+00
        -11   -1    0    0    0    0  0.00000000000E+00  0.00000000000E+00  0.45593999997E+02  0.45594000000E+02  0.51100000000E-03 0.  1.
         11   -1    0    0    0    0 -0.00000000000E+00 -0.00000000000E+00 -0.45593999997E+02  0.45594000000E+02  0.51100000000E-03 0. -1.
    9900012    2    1    2    0    0 -0.35729957376E+01 -0.96099510595E+01  0.42172332717E+02  0.47787272994E+02  0.20000008887E+02 0.  0.
         12    1    1    2    0    0  0.35729957376E+01  0.96099510595E+01 -0.42172332717E+02  0.43400727006E+02  0.00000000000E+00 0. -1.
         11    1    3    3    0    0 -0.76869883220E+01 -0.38028578506E+01  0.22288904436E+02  0.23881934146E+02  0.51100000000E-03 0. -1.
        -11    1    3    3    0    0 -0.18120122916E+00 -0.82953574572E+01  0.11997305629E+02  0.14587019292E+02  0.51100000000E-03 0.  1.
        -12    1    3    3    0    0  0.42951938136E+01  0.24882642483E+01  0.78861226518E+01  0.93183195558E+01  0.00000000000E+00 0.  1.
</event>
<event>
 7    1  0.2459936E-009  0.4778727E+02  0.7816164E-02  0.1312668E+00
        -11   -1    0    0    0    0  0.00000000000E+00  0.00000000000E+00  0.45593999997E+02  0.45594000000E+02  0.51100000000E-03 0. -1.
         11   -1    0    0    0    0 -0.00000000000E+00 -0.00000000000E+00 -0.45593999997E+02  0.45594000000E+02  0.51100000000E-03 0.  1.
    9900012    2    1    2    0    0 -0.94244143032E+01  0.13067614273E+02 -0.40299392816E+02  0.47787272022E+02  0.20000004456E+02 0.  0.
         12    1    1    2    0    0  0.94244143032E+01 -0.13067614273E+02  0.40299392816E+02  0.43400727978E+02  0.00000000000E+00 0. -1.
         11    1    3    3    0    0  0.63118900173E+00  0.13232971412E+02 -0.16730134182E+02  0.21340274646E+02  0.51100000000E-03 0. -1.
        -11    1    3    3    0    0 -0.51988354151E+00  0.13876966906E+01 -0.73753883755E+00  0.16552778618E+01  0.51100000000E-03 0.  1.
        -12    1    3    3    0    0 -0.95357197634E+01 -0.15530538303E+01 -0.22831719796E+02  0.24791719514E+02  0.00000000000E+00 0.  1.
</event>
<event>
 7    1  0.2459936E-009  0.4778727E+02  0.7816164E-02  0.1312668E+00
        -11   -1    0    0    0    0  0.00000000000E+00  0.00000000000E+00  0.45593999997E+02  0.45594000000E+02  0.51100000000E-03 0.  1.
         11   -1    0    0    0    0 -0.00000000000E+00 -0.00000000000E+00 -0.45593999997E+02  0.45594000000E+02  0.51100000000E-03 0. -1.
    9900012    2    1    2    0    0 -0.40735179894E+02 -0.14797268839E+02  0.23041713399E+01  0.47787271300E+02  0.20000001166E+02 0.  0.
         12    1    1    2    0    0  0.40735179894E+02  0.14797268839E+02 -0.23041713399E+01  0.43400728700E+02  0.00000000000E+00 0. -1.
         11    1    3    3    0    0 -0.82223534784E+01 -0.32071485489E+01 -0.47150887337E+00  0.88382814742E+01  0.51100000000E-03 0. -1.
        -11    1    3    3    0    0 -0.10310237484E+02  0.46732318475E+01  0.11733563801E+01  0.11380547365E+02  0.51100000000E-03 0.  1.
        -12    1    3    3    0    0 -0.22202588932E+02 -0.16263352138E+02  0.16023238332E+01  0.27568442461E+02  0.00000000000E+00 0.  1.
</event>
<event>
 7    1  0.2459936E-009  0.4778727E+02  0.7816164E-02  0.1312668E+00
        -11   -1    0    0    0    0  0.00000000000E+00  0.00000000000E+00  0.45593999997E+02  0.45594000000E+02  0.51100000000E-03 0.  1.
         11   -1    0    0    0    0 -0.00000000000E+00 -0.00000000000E+00 -0.45593999997E+02  0.45594000000E+02  0.51100000000E-03 0. -1.
    9900012    2    1    2    0    0 -0.18208337169E+02 -0.67740257646E+01  0.38809693546E+02  0.47787270967E+02  0.19999999645E+02 0.  0.
         12    1    1    2    0    0  0.18208337169E+02  0.67740257646E+01 -0.38809693546E+02  0.43400729033E+02  0.00000000000E+00 0. -1.
         11    1    3    3    0    0 -0.17573255886E+02 -0.10983563503E+02  0.23886491943E+02  0.31623132155E+02  0.51100000000E-03 0.  1.
        -11    1    3    3    0    0 -0.18831396639E+01  0.17777607368E+01  0.31503982861E+01  0.40781929642E+01  0.51100000000E-03 0. -1.
        -12    1    3    3    0    0  0.12480583807E+01  0.24317770017E+01  0.11772803316E+02  0.12085945847E+02  0.00000000000E+00 0.  1.
</event>
<event>
 7    1  0.2459936E-009  0.4778727E+02  0.7816164E-02  0.1312668E+00
        -11   -1    0    0    0    0  0.00000000000E+00  0.00000000000E+00  0.45593999997E+02  0.45594000000E+02  0.51100000000E-03 0. -1.
         11   -1    0    0    0    0 -0.00000000000E+00 -0.00000000000E+00 -0.45593999997E+02  0.45594000000E+02  0.51100000000E-03 0.  1.
    9900012    2    1    2    0    0 -0.30719454487E+02 -0.15416930852E+00 -0.30658022423E+02  0.47787274303E+02  0.20000014855E+02 0.  0.
         12    1    1    2    0    0  0.30719454487E+02  0.15416930852E+00  0.30658022423E+02  0.43400725697E+02  0.00000000000E+00 0. -1.
         11    1    3    3    0    0 -0.24344166225E+01 -0.98249480532E+00  0.12456935757E+01  0.29057586067E+01  0.51100000000E-03 0. -1.
        -11    1    3    3    0    0 -0.59333469843E+01  0.61971894748E+01 -0.87692181936E+01  0.12268208990E+02  0.51100000000E-03 0.  1.
        -12    1    3    3    0    0 -0.22351690880E+02 -0.53688639780E+01 -0.23134497805E+02  0.32613306706E+02  0.00000000000E+00 0.  1.
</event>
<event>
 7    1  0.2459936E-009  0.4778728E+02  0.7816164E-02  0.1312668E+00
        -11   -1    0    0    0    0  0.00000000000E+00  0.00000000000E+00  0.45593999997E+02  0.45594000000E+02  0.51100000000E-03 0. -1.
         11   -1    0    0    0    0 -0.00000000000E+00 -0.00000000000E+00 -0.45593999997E+02  0.45594000000E+02  0.51100000000E-03 0.  1.
    9900012    2    1    2    0    0  0.40705527050E+01  0.29570597770E+02 -0.31506083068E+02  0.47787275097E+02  0.20000018476E+02 0.  0.
         12    1    1    2    0    0 -0.40705527050E+01 -0.29570597770E+02  0.31506083068E+02  0.43400724903E+02  0.00000000000E+00 0. -1.
         11    1    3    3    0    0  0.24975885073E+01  0.13059011482E+02 -0.38317062602E+01  0.13836824143E+02  0.51100000000E-03 0. -1.
        -11    1    3    3    0    0  0.11885202855E+01  0.15608040907E+02 -0.16539346325E+02  0.22772208907E+02  0.51100000000E-03 0.  1.
         12    1    3    3    0    0  0.38444391226E+00  0.90354538148E+00 -0.11135030484E+02  0.11178242047E+02  0.00000000000E+00 0. -1.
</event>
<event>
 7    1  0.2459936E-009  0.4778731E+02  0.7816164E-02  0.1312668E+00
        -11   -1    0    0    0    0  0.00000000000E+00  0.00000000000E+00  0.45593999997E+02  0.45594000000E+02  0.51100000000E-03 0.  1.
         11   -1    0    0    0    0 -0.00000000000E+00 -0.00000000000E+00 -0.45593999997E+02  0.45594000000E+02  0.51100000000E-03 0. -1.
    9900012    2    1    2    0    0  0.28323228412E+02  0.32868413193E+02  0.10400028170E+01  0.47787314990E+02  0.20000200364E+02 0.  0.
         12    1    1    2    0    0 -0.28323228412E+02 -0.32868413193E+02 -0.10400028170E+01  0.43400685010E+02  0.00000000000E+00 0. -1.
         11    1    3    3    0    0  0.28179974667E+01  0.51749018521E+01  0.34440595779E+00  0.59024854618E+01  0.51100000000E-03 0.  1.
        -11    1    3    3    0    0  0.26524983206E+02  0.20152395941E+02  0.40713194270E+01  0.33559937997E+02  0.51100000000E-03 0. -1.
         12    1    3    3    0    0 -0.10197522611E+01  0.75411153999E+01 -0.33757225677E+01  0.83248915310E+01  0.00000000000E+00 0. -1.
</event>
<event>
 7    1  0.2459936E-009  0.4778728E+02  0.7816164E-02  0.1312668E+00
        -11   -1    0    0    0    0  0.00000000000E+00  0.00000000000E+00  0.45593999997E+02  0.45594000000E+02  0.51100000000E-03 0.  1.
         11   -1    0    0    0    0 -0.00000000000E+00 -0.00000000000E+00 -0.45593999997E+02  0.45594000000E+02  0.51100000000E-03 0. -1.
    9900012    2    1    2    0    0 -0.18748078422E+02  0.29068682925E+02  0.26213431326E+02  0.47787277041E+02  0.20000027339E+02 0.  0.
         12    1    1    2    0    0  0.18748078422E+02 -0.29068682925E+02 -0.26213431326E+02  0.43400722959E+02  0.00000000000E+00 0. -1.
         11    1    3    3    0    0 -0.42302510616E+01  0.67976146965E+01  0.76982767540E+01  0.11107027273E+02  0.51100000000E-03 0.  1.
        -11    1    3    3    0    0 -0.29731634622E+01  0.16564309576E+02  0.16639572686E+02  0.23666250911E+02  0.51100000000E-03 0. -1.
         12    1    3    3    0    0 -0.11544663898E+02  0.57067586522E+01  0.18755818858E+01  0.13013998857E+02  0.00000000000E+00 0. -1.
</event>
<event>
 7    1  0.2459936E-009  0.4778727E+02  0.7816164E-02  0.1312668E+00
        -11   -1    0    0    0    0  0.00000000000E+00  0.00000000000E+00  0.45593999997E+02  0.45594000000E+02  0.51100000000E-03 0.  1.
         11   -1    0    0    0    0 -0.00000000000E+00 -0.00000000000E+00 -0.45593999997E+02  0.45594000000E+02  0.51100000000E-03 0. -1.
    9900012    2    1    2    0    0  0.14520023622E+02  0.76933849044E+01  0.40169691500E+02  0.47787269908E+02  0.19999994820E+02 0.  0.
         12    1    1    2    0    0 -0.14520023622E+02 -0.76933849044E+01 -0.40169691500E+02  0.43400730092E+02  0.00000000000E+00 0. -1.
         11    1    3    3    0    0  0.98871512174E+00  0.28019224017E+01  0.15624268055E+02  0.15904278646E+02  0.51100000000E-03 0. -1.
        -11    1    3    3    0    0 -0.30766322371E+01  0.12992586917E+01  0.35700472947E+01  0.48886579976E+01  0.51100000000E-03 0.  1.
         12    1    3    3    0    0  0.16607940737E+02  0.35922038111E+01  0.20975376151E+02  0.26994333265E+02  0.00000000000E+00 0. -1.
</event>
<event>
 7    1  0.2459936E-009  0.4778727E+02  0.7816164E-02  0.1312668E+00
        -11   -1    0    0    0    0  0.00000000000E+00  0.00000000000E+00  0.45593999997E+02  0.45594000000E+02  0.51100000000E-03 0.  1.
         11   -1    0    0    0    0 -0.00000000000E+00 -0.00000000000E+00 -0.45593999997E+02  0.45594000000E+02  0.51100000000E-03 0. -1.
    9900012    2    1    2    0    0  0.53944647386E+01  0.43058027603E+02  0.72749255118E+00  0.47787271478E+02  0.20000001976E+02 0.  0.
         12    1    1    2    0    0 -0.53944647386E+01 -0.43058027603E+02 -0.72749255118E+00  0.43400728522E+02  0.00000000000E+00 0. -1.
         11    1    3    3    0    0 -0.23526039317E+01  0.86121643771E+01 -0.10655615066E+01  0.89910812533E+01  0.51100000000E-03 0. -1.
        -11    1    3    3    0    0 -0.98632952878E+00  0.27326053646E+02 -0.24812532646E+00  0.27344974314E+02  0.51100000000E-03 0.  1.
        -12    1    3    3    0    0  0.87333981990E+01  0.71198095794E+01  0.20411793842E+01  0.11451215910E+02  0.00000000000E+00 0.  1.
</event>
<event>
 7    1  0.2459936E-009  0.4778727E+02  0.7816164E-02  0.1312668E+00
        -11   -1    0    0    0    0  0.00000000000E+00  0.00000000000E+00  0.45593999997E+02  0.45594000000E+02  0.51100000000E-03 0. -1.
         11   -1    0    0    0    0 -0.00000000000E+00 -0.00000000000E+00 -0.45593999997E+02  0.45594000000E+02  0.51100000000E-03 0.  1.
    9900012    2    1    2    0    0  0.33344514084E+00 -0.26643295815E+02 -0.34258531936E+02  0.47787269500E+02  0.19999992956E+02 0.  0.
         12    1    1    2    0    0 -0.33344514084E+00  0.26643295815E+02  0.34258531936E+02  0.43400730500E+02  0.00000000000E+00 0. -1.
         11    1    3    3    0    0 -0.39806838791E+01 -0.84160051922E+00  0.68537670247E+00  0.41260001290E+01  0.51100000000E-03 0. -1.
        -11    1    3    3    0    0  0.12639117477E+01 -0.60615504986E+01 -0.77493008817E+01  0.99192505649E+01  0.51100000000E-03 0.  1.
         12    1    3    3    0    0  0.30502172723E+01 -0.19740144797E+02 -0.27194607757E+02  0.33742018806E+02  0.00000000000E+00 0. -1.
</event>
<event>
 7    1  0.2459936E-009  0.4778727E+02  0.7816164E-02  0.1312668E+00
        -11   -1    0    0    0    0  0.00000000000E+00  0.00000000000E+00  0.45593999997E+02  0.45594000000E+02  0.51100000000E-03 0.  1.
         11   -1    0    0    0    0 -0.00000000000E+00 -0.00000000000E+00 -0.45593999997E+02  0.45594000000E+02  0.51100000000E-03 0. -1.
    9900012    2    1    2    0    0  0.37413599769E+02  0.12278441713E+02  0.18250627780E+02  0.47787274281E+02  0.20000014755E+02 0.  0.
         12    1    1    2    0    0 -0.37413599769E+02 -0.12278441713E+02 -0.18250627780E+02  0.43400725719E+02  0.00000000000E+00 0. -1.
         11    1    3    3    0    0  0.12282503111E+02  0.24611769868E+00  0.20700744562E+01  0.12458156569E+02  0.51100000000E-03 0. -1.
        -11    1    3    3    0    0  0.84546877022E+01 -0.15749646534E+01  0.34353340143E+00  0.86069897909E+01  0.51100000000E-03 0.  1.
        -12    1    3    3    0    0  0.16676408956E+02  0.13607288668E+02  0.15837019922E+02  0.26722127920E+02  0.00000000000E+00 0.  1.
</event>
<event>
 7    1  0.2459936E-009  0.4778727E+02  0.7816164E-02  0.1312668E+00
        -11   -1    0    0    0    0  0.00000000000E+00  0.00000000000E+00  0.45593999997E+02  0.45594000000E+02  0.51100000000E-03 0.  1.
         11   -1    0    0    0    0 -0.00000000000E+00 -0.00000000000E+00 -0.45593999997E+02  0.45594000000E+02  0.51100000000E-03 0. -1.
    9900012    2    1    2    0    0 -0.10798503229E+02 -0.24011420439E+02  0.34503150184E+02  0.47787270097E+02  0.19999995681E+02 0.  0.
         12    1    1    2    0    0  0.10798503229E+02  0.24011420439E+02 -0.34503150184E+02  0.43400729903E+02  0.00000000000E+00 0. -1.
         11    1    3    3    0    0  0.17685072182E+01 -0.17533973391E+01  0.21615721994E+01  0.32976377369E+01  0.51100000000E-03 0. -1.
        -11    1    3    3    0    0 -0.96310043315E+01 -0.13812852784E+02  0.31229141432E+02  0.35479718450E+02  0.51100000000E-03 0.  1.
         12    1    3    3    0    0 -0.29360061160E+01 -0.84451703165E+01  0.11124365524E+01  0.90099139103E+01  0.00000000000E+00 0. -1.
</event>
<event>
 7    1  0.2459936E-009  0.4778726E+02  0.7816164E-02  0.1312668E+00
        -11   -1    0    0    0    0  0.00000000000E+00  0.00000000000E+00  0.45593999997E+02  0.45594000000E+02  0.51100000000E-03 0. -1.
         11   -1    0    0    0    0 -0.00000000000E+00 -0.00000000000E+00 -0.45593999997E+02  0.45594000000E+02  0.51100000000E-03 0.  1.
    9900012    2    1    2    0    0 -0.30386601532E+02  0.14831215699E+02 -0.27208707638E+02  0.47787259418E+02  0.19999946990E+02 0.  0.
         12    1    1    2    0    0  0.30386601532E+02 -0.14831215699E+02  0.27208707638E+02  0.43400740582E+02  0.00000000000E+00 0. -1.
         11    1    3    3    0    0 -0.15702565616E+01  0.41899743081E+00 -0.50419305771E+00  0.17016096546E+01  0.51100000000E-03 0. -1.
        -11    1    3    3    0    0 -0.53120517691E+01 -0.36609298403E+01 -0.10428200340E+02  0.12262449343E+02  0.51100000000E-03 0.  1.
        -12    1    3    3    0    0 -0.23504293201E+02  0.18073148109E+02 -0.16276314239E+02  0.33823200420E+02  0.00000000000E+00 0.  1.
</event>
<event>
 7    1  0.2459936E-009  0.4778728E+02  0.7816164E-02  0.1312668E+00
        -11   -1    0    0    0    0  0.00000000000E+00  0.00000000000E+00  0.45593999997E+02  0.45594000000E+02  0.51100000000E-03 0.  1.
         11   -1    0    0    0    0 -0.00000000000E+00 -0.00000000000E+00 -0.45593999997E+02  0.45594000000E+02  0.51100000000E-03 0. -1.
    9900012    2    1    2    0    0  0.22312768735E+02 -0.37225819859E+02 -0.36312499832E-01  0.47787278446E+02  0.20000033748E+02 0.  0.
         12    1    1    2    0    0 -0.22312768735E+02  0.37225819859E+02  0.36312499832E-01  0.43400721554E+02  0.00000000000E+00 0. -1.
         11    1    3    3    0    0  0.15425385661E+02 -0.16836033623E+02  0.20342753023E+01  0.22924502769E+02  0.51100000000E-03 0. -1.
        -11    1    3    3    0    0  0.89027713670E+01 -0.12243048740E+02  0.24431041450E+01  0.15333634226E+02  0.51100000000E-03 0.  1.
         12    1    3    3    0    0 -0.20153882927E+01 -0.81467374960E+01 -0.45136919472E+01  0.95291414510E+01  0.00000000000E+00 0. -1.
</event>
<event>
 7    1  0.2459936E-009  0.4778727E+02  0.7816164E-02  0.1312668E+00
        -11   -1    0    0    0    0  0.00000000000E+00  0.00000000000E+00  0.45593999997E+02  0.45594000000E+02  0.51100000000E-03 0. -1.
         11   -1    0    0    0    0 -0.00000000000E+00 -0.00000000000E+00 -0.45593999997E+02  0.45594000000E+02  0.51100000000E-03 0.  1.
    9900012    2    1    2    0    0 -0.29174478861E+01 -0.27569170704E+02 -0.33392401353E+02  0.47787272546E+02  0.20000006844E+02 0.  0.
         12    1    1    2    0    0  0.29174478861E+01  0.27569170704E+02  0.33392401353E+02  0.43400727454E+02  0.00000000000E+00 0. -1.
         11    1    3    3    0    0 -0.60811115250E+01 -0.11984677458E+02 -0.10440360427E+02  0.17018035646E+02  0.51100000000E-03 0. -1.
        -11    1    3    3    0    0 -0.50208556473E+01 -0.68899344598E+01 -0.87924374279E+01  0.12246923878E+02  0.51100000000E-03 0.  1.
         12    1    3    3    0    0  0.81845192862E+01 -0.86945587860E+01 -0.14159603498E+02  0.18522313021E+02  0.00000000000E+00 0. -1.
</event>
<event>
 7    1  0.2459936E-009  0.4778727E+02  0.7816164E-02  0.1312668E+00
        -11   -1    0    0    0    0  0.00000000000E+00  0.00000000000E+00  0.45593999997E+02  0.45594000000E+02  0.51100000000E-03 0.  1.
         11   -1    0    0    0    0 -0.00000000000E+00 -0.00000000000E+00 -0.45593999997E+02  0.45594000000E+02  0.51100000000E-03 0. -1.
    9900012    2    1    2    0    0  0.25196841713E+02  0.17755989738E+01  0.35292909854E+02  0.47787273393E+02  0.20000010709E+02 0.  0.
         12    1    1    2    0    0 -0.25196841713E+02 -0.17755989738E+01 -0.35292909854E+02  0.43400726607E+02  0.00000000000E+00 0. -1.
         11    1    3    3    0    0  0.14421112644E+02  0.22080831860E+01  0.12685173565E+02  0.19332815363E+02  0.51100000000E-03 0. -1.
        -11    1    3    3    0    0  0.10420816273E+02  0.13827036751E+01  0.23959117304E+02  0.26163802925E+02  0.51100000000E-03 0.  1.
         12    1    3    3    0    0  0.35491279649E+00 -0.18151878873E+01 -0.13513810154E+01  0.22906551045E+01  0.00000000000E+00 0. -1.
</event>
<event>
 7    1  0.2459936E-009  0.4778727E+02  0.7816164E-02  0.1312668E+00
        -11   -1    0    0    0    0  0.00000000000E+00  0.00000000000E+00  0.45593999997E+02  0.45594000000E+02  0.51100000000E-03 0.  1.
         11   -1    0    0    0    0 -0.00000000000E+00 -0.00000000000E+00 -0.45593999997E+02  0.45594000000E+02  0.51100000000E-03 0. -1.
    9900012    2    1    2    0    0 -0.42671024292E+02  0.21446082729E+01 -0.76293821764E+01  0.47787272689E+02  0.20000007496E+02 0.  0.
         12    1    1    2    0    0  0.42671024292E+02 -0.21446082729E+01  0.76293821764E+01  0.43400727311E+02  0.00000000000E+00 0. -1.
         11    1    3    3    0    0 -0.83951676065E+01  0.40981894660E+01 -0.28396936702E+01  0.97641106324E+01  0.51100000000E-03 0. -1.
        -11    1    3    3    0    0 -0.43189484207E+01  0.14707274067E+00  0.48381196001E+01  0.64870908255E+01  0.51100000000E-03 0.  1.
         12    1    3    3    0    0 -0.29956908265E+02 -0.21006539338E+01 -0.96278081063E+01  0.31536071231E+02  0.00000000000E+00 0. -1.
</event>
<event>
 7    1  0.2459936E-009  0.4778726E+02  0.7816164E-02  0.1312668E+00
        -11   -1    0    0    0    0  0.00000000000E+00  0.00000000000E+00  0.45593999997E+02  0.45594000000E+02  0.51100000000E-03 0.  1.
         11   -1    0    0    0    0 -0.00000000000E+00 -0.00000000000E+00 -0.45593999997E+02  0.45594000000E+02  0.51100000000E-03 0. -1.
    9900012    2    1    2    0    0 -0.40575299837E+02 -0.12667469278E+02  0.87638149628E+01  0.47787260519E+02  0.19999952012E+02 0.  0.
         12    1    1    2    0    0  0.40575299837E+02  0.12667469278E+02 -0.87638149628E+01  0.43400739481E+02  0.00000000000E+00 0. -1.
         11    1    3    3    0    0 -0.74230161039E+01 -0.37935379898E+01  0.87129634116E+01  0.12058516917E+02  0.51100000000E-03 0. -1.
        -11    1    3    3    0    0 -0.12730092984E+02 -0.84923990061E+01 -0.27588047503E-01  0.15302838613E+02  0.51100000000E-03 0.  1.
         12    1    3    3    0    0 -0.20422190749E+02 -0.38153228187E+00  0.78439598648E-01  0.20425904990E+02  0.00000000000E+00 0. -1.
</event>
<event>
 7    1  0.2459936E-009  0.4778727E+02  0.7816164E-02  0.1312668E+00
        -11   -1    0    0    0    0  0.00000000000E+00  0.00000000000E+00  0.45593999997E+02  0.45594000000E+02  0.51100000000E-03 0. -1.
         11   -1    0    0    0    0 -0.00000000000E+00 -0.00000000000E+00 -0.45593999997E+02  0.45594000000E+02  0.51100000000E-03 0.  1.
    9900012    2    1    2    0    0  0.29947998339E+02  0.12935467408E+02 -0.28625411214E+02  0.47787273177E+02  0.20000009725E+02 0.  0.
         12    1    1    2    0    0 -0.29947998339E+02 -0.12935467408E+02  0.28625411214E+02  0.43400726823E+02  0.00000000000E+00 0. -1.
         11    1    3    3    0    0  0.79678998332E+01 -0.25862782430E+01 -0.23102550424E+01  0.86898527907E+01  0.51100000000E-03 0.  1.
        -11    1    3    3    0    0  0.39512992550E+01  0.10471572782E+01 -0.25931403579E-01  0.40877838576E+01  0.51100000000E-03 0. -1.
        -12    1    3    3    0    0  0.18028799250E+02  0.14474588373E+02 -0.26289224768E+02  0.35009636529E+02  0.00000000000E+00 0.  1.
</event>
<event>
 7    1  0.2459936E-009  0.4778727E+02  0.7816164E-02  0.1312668E+00
        -11   -1    0    0    0    0  0.00000000000E+00  0.00000000000E+00  0.45593999997E+02  0.45594000000E+02  0.51100000000E-03 0.  1.
         11   -1    0    0    0    0 -0.00000000000E+00 -0.00000000000E+00 -0.45593999997E+02  0.45594000000E+02  0.51100000000E-03 0. -1.
    9900012    2    1    2    0    0  0.18044202721E+02  0.19546775854E+01  0.39423460165E+02  0.47787271577E+02  0.20000002427E+02 0.  0.
         12    1    1    2    0    0 -0.18044202721E+02 -0.19546775854E+01 -0.39423460165E+02  0.43400728423E+02  0.00000000000E+00 0. -1.
         11    1    3    3    0    0  0.99278507690E+01 -0.36873582492E+00  0.19361195094E+02  0.21761297358E+02  0.51100000000E-03 0. -1.
        -11    1    3    3    0    0  0.10305730233E+02 -0.20303916840E+01  0.17765890787E+02  0.20638736438E+02  0.51100000000E-03 0.  1.
         12    1    3    3    0    0 -0.21893782803E+01  0.43538050944E+01  0.22963742837E+01  0.53872377806E+01  0.00000000000E+00 0. -1.
</event>
<event>
 7    1  0.2459936E-009  0.4778727E+02  0.7816164E-02  0.1312668E+00
        -11   -1    0    0    0    0  0.00000000000E+00  0.00000000000E+00  0.45593999997E+02  0.45594000000E+02  0.51100000000E-03 0. -1.
         11   -1    0    0    0    0 -0.00000000000E+00 -0.00000000000E+00 -0.45593999997E+02  0.45594000000E+02  0.51100000000E-03 0.  1.
    9900012    2    1    2    0    0  0.20569129200E+02 -0.23018678318E+02 -0.30506959042E+02  0.47787272154E+02  0.20000005059E+02 0.  0.
         12    1    1    2    0    0 -0.20569129200E+02  0.23018678318E+02  0.30506959042E+02  0.43400727846E+02  0.00000000000E+00 0. -1.
         11    1    3    3    0    0  0.97862839358E-01  0.40426936616E+00 -0.22245339987E+01  0.22630869688E+01  0.51100000000E-03 0. -1.
        -11    1    3    3    0    0  0.51859327941E+01 -0.15443980903E+02 -0.60262293678E+01  0.17370258654E+02  0.51100000000E-03 0.  1.
        -12    1    3    3    0    0  0.15285333567E+02 -0.79789667819E+01 -0.22256195676E+02  0.28153926531E+02  0.00000000000E+00 0.  1.
</event>
<event>
 7    1  0.2459936E-009  0.4778726E+02  0.7816164E-02  0.1312668E+00
        -11   -1    0    0    0    0  0.00000000000E+00  0.00000000000E+00  0.45593999997E+02  0.45594000000E+02  0.51100000000E-03 0. -1.
         11   -1    0    0    0    0 -0.00000000000E+00 -0.00000000000E+00 -0.45593999997E+02  0.45594000000E+02  0.51100000000E-03 0.  1.
    9900012    2    1    2    0    0 -0.41672813607E+02  0.89685570887E+01  0.81587899318E+01  0.47787259645E+02  0.19999948026E+02 0.  0.
         12    1    1    2    0    0  0.41672813607E+02 -0.89685570887E+01 -0.81587899318E+01  0.43400740355E+02  0.00000000000E+00 0. -1.
         11    1    3    3    0    0 -0.14604604248E+02  0.29174877331E+01 -0.39410103784E+01  0.15405770444E+02  0.51100000000E-03 0. -1.
        -11    1    3    3    0    0 -0.17612781036E+02  0.63544979190E+01  0.24769271710E+01  0.18887161463E+02  0.51100000000E-03 0.  1.
         12    1    3    3    0    0 -0.94554283233E+01 -0.30342856340E+00  0.96228731392E+01  0.13494327739E+02  0.00000000000E+00 0. -1.
</event>
<event>
 7    1  0.2459936E-009  0.4778727E+02  0.7816164E-02  0.1312668E+00
        -11   -1    0    0    0    0  0.00000000000E+00  0.00000000000E+00  0.45593999997E+02  0.45594000000E+02  0.51100000000E-03 0.  1.
         11   -1    0    0    0    0 -0.00000000000E+00 -0.00000000000E+00 -0.45593999997E+02  0.45594000000E+02  0.51100000000E-03 0. -1.
    9900012    2    1    2    0    0  0.65992292852E+01  0.41997032583E+02  0.87362909832E+01  0.47787270132E+02  0.19999995840E+02 0.  0.
         12    1    1    2    0    0 -0.65992292852E+01 -0.41997032583E+02 -0.87362909832E+01  0.43400729868E+02  0.00000000000E+00 0. -1.
         11    1    3    3    0    0 -0.38514811946E+00  0.16207778816E+01 -0.79097881022E+00  0.18441550246E+01  0.51100000000E-03 0. -1.
        -11    1    3    3    0    0  0.41826099340E+01  0.39448681669E+02  0.42502188456E+01  0.39896830348E+02  0.51100000000E-03 0.  1.
         12    1    3    3    0    0  0.28017674706E+01  0.92757303218E+00  0.52770509479E+01  0.60462847597E+01  0.00000000000E+00 0. -1.
</event>
<event>
 7    1  0.2459936E-009  0.4778726E+02  0.7816164E-02  0.1312668E+00
        -11   -1    0    0    0    0  0.00000000000E+00  0.00000000000E+00  0.45593999997E+02  0.45594000000E+02  0.51100000000E-03 0.  1.
         11   -1    0    0    0    0 -0.00000000000E+00 -0.00000000000E+00 -0.45593999997E+02  0.45594000000E+02  0.51100000000E-03 0. -1.
    9900012    2    1    2    0    0 -0.99989439618E+00  0.44712912650E+01  0.43158217496E+02  0.47787263004E+02  0.19999963338E+02 0.  0.
         12    1    1    2    0    0  0.99989439618E+00 -0.44712912650E+01 -0.43158217496E+02  0.43400736996E+02  0.00000000000E+00 0. -1.
         11    1    3    3    0    0  0.12245838603E+01 -0.17605020965E+01  0.27429711958E+01  0.34817904165E+01  0.51100000000E-03 0. -1.
        -11    1    3    3    0    0  0.40089530734E+01 -0.35979105984E+01  0.20897258499E+02  0.21580363260E+02  0.51100000000E-03 0.  1.
         12    1    3    3    0    0 -0.62334313299E+01  0.98297039599E+01  0.19517987801E+02  0.22725109327E+02  0.00000000000E+00 0. -1.
</event>
<event>
 7    1  0.2459936E-009  0.4778727E+02  0.7816164E-02  0.1312668E+00
        -11   -1    0    0    0    0  0.00000000000E+00  0.00000000000E+00  0.45593999997E+02  0.45594000000E+02  0.51100000000E-03 0. -1.
         11   -1    0    0    0    0 -0.00000000000E+00 -0.00000000000E+00 -0.45593999997E+02  0.45594000000E+02  0.51100000000E-03 0.  1.
    9900012    2    1    2    0    0 -0.28791269607E+02 -0.23146717293E+02 -0.22779719840E+02  0.47787270018E+02  0.19999995318E+02 0.  0.
         12    1    1    2    0    0  0.28791269607E+02  0.23146717293E+02  0.22779719840E+02  0.43400729982E+02  0.00000000000E+00 0. -1.
         11    1    3    3    0    0 -0.24238176576E+02 -0.14423324831E+02 -0.15347579900E+02  0.32110274243E+02  0.51100000000E-03 0. -1.
        -11    1    3    3    0    0 -0.57584132750E+01 -0.16964918664E+01 -0.10219752227E+01  0.60894861619E+01  0.51100000000E-03 0.  1.
         12    1    3    3    0    0  0.12053202442E+01 -0.70269005954E+01 -0.64101647173E+01  0.95875096126E+01  0.00000000000E+00 0. -1.
</event>
<event>
 7    1  0.2459936E-009  0.4778727E+02  0.7816164E-02  0.1312668E+00
        -11   -1    0    0    0    0  0.00000000000E+00  0.00000000000E+00  0.45593999997E+02  0.45594000000E+02  0.51100000000E-03 0.  1.
         11   -1    0    0    0    0 -0.00000000000E+00 -0.00000000000E+00 -0.45593999997E+02  0.45594000000E+02  0.51100000000E-03 0. -1.
    9900012    2    1    2    0    0 -0.17625148400E+02 -0.35370556069E+02  0.17941600914E+02  0.47787272631E+02  0.20000007235E+02 0.  0.
         12    1    1    2    0    0  0.17625148400E+02  0.35370556069E+02 -0.17941600914E+02  0.43400727369E+02  0.00000000000E+00 0. -1.
         11    1    3    3    0    0 -0.13168104344E+02 -0.10751265320E+02  0.10196610317E+02  0.19823207112E+02  0.51100000000E-03 0. -1.
        -11    1    3    3    0    0 -0.61500922042E+00 -0.86002304883E+01  0.75946289647E+01  0.11490021330E+02  0.51100000000E-03 0.  1.
         12    1    3    3    0    0 -0.38420348357E+01 -0.16019060261E+02  0.15036163277E+00  0.16474044189E+02  0.00000000000E+00 0. -1.
</event>
<event>
 7    1  0.2459936E-009  0.4778727E+02  0.7816164E-02  0.1312668E+00
        -11   -1    0    0    0    0  0.00000000000E+00  0.00000000000E+00  0.45593999997E+02  0.45594000000E+02  0.51100000000E-03 0.  1.
         11   -1    0    0    0    0 -0.00000000000E+00 -0.00000000000E+00 -0.45593999997E+02  0.45594000000E+02  0.51100000000E-03 0. -1.
    9900012    2    1    2    0    0  0.17337182768E+01 -0.26876221240E+02  0.34033610499E+02  0.47787266242E+02  0.19999978102E+02 0.  0.
         12    1    1    2    0    0 -0.17337182768E+01  0.26876221240E+02 -0.34033610499E+02  0.43400733758E+02  0.00000000000E+00 0. -1.
         11    1    3    3    0    0 -0.71730916233E+00 -0.16639142184E+02  0.99819970270E+01  0.19416895992E+02  0.51100000000E-03 0. -1.
        -11    1    3    3    0    0  0.53954293233E+00 -0.12249562875E+02  0.19211330556E+02  0.22790746350E+02  0.51100000000E-03 0.  1.
         12    1    3    3    0    0  0.19114845068E+01  0.20124838202E+01  0.48402829161E+01  0.55796238990E+01  0.00000000000E+00 0. -1.
</event>
<event>
 7    1  0.2459936E-009  0.4778727E+02  0.7816164E-02  0.1312668E+00
        -11   -1    0    0    0    0  0.00000000000E+00  0.00000000000E+00  0.45593999997E+02  0.45594000000E+02  0.51100000000E-03 0.  1.
         11   -1    0    0    0    0 -0.00000000000E+00 -0.00000000000E+00 -0.45593999997E+02  0.45594000000E+02  0.51100000000E-03 0. -1.
    9900012    2    1    2    0    0  0.20728539768E+01  0.11274007253E+02  0.41859568853E+02  0.47787268812E+02  0.19999989820E+02 0.  0.
         12    1    1    2    0    0 -0.20728539768E+01 -0.11274007253E+02 -0.41859568853E+02  0.43400731188E+02  0.00000000000E+00 0. -1.
         11    1    3    3    0    0  0.35154610337E+00  0.85859889626E+01  0.81725960061E+01  0.11858925620E+02  0.51100000000E-03 0. -1.
        -11    1    3    3    0    0  0.49080087747E+01  0.18570791741E+01  0.56978719612E+01  0.77461628138E+01  0.51100000000E-03 0.  1.
        -12    1    3    3    0    0 -0.31867009012E+01  0.83093911604E+00  0.27989100885E+02  0.28182180377E+02  0.00000000000E+00 0.  1.
</event>
<event>
 7    1  0.2459936E-009  0.4778728E+02  0.7816164E-02  0.1312668E+00
        -11   -1    0    0    0    0  0.00000000000E+00  0.00000000000E+00  0.45593999997E+02  0.45594000000E+02  0.51100000000E-03 0.  1.
         11   -1    0    0    0    0 -0.00000000000E+00 -0.00000000000E+00 -0.45593999997E+02  0.45594000000E+02  0.51100000000E-03 0. -1.
    9900012    2    1    2    0    0 -0.25520598835E+01  0.38259180921E+01  0.43156367942E+02  0.47787277047E+02  0.20000027369E+02 0.  0.
         12    1    1    2    0    0  0.25520598835E+01 -0.38259180921E+01 -0.43156367942E+02  0.43400722953E+02  0.00000000000E+00 0. -1.
         11    1    3    3    0    0 -0.13219359913E+01  0.17509729343E+01  0.26898660748E+01  0.34711382489E+01  0.51100000000E-03 0. -1.
        -11    1    3    3    0    0  0.27692020893E+01  0.31911806447E+00 -0.73577442062E+00  0.28829985796E+01  0.51100000000E-03 0.  1.
        -12    1    3    3    0    0 -0.39993259816E+01  0.17558270933E+01  0.41202276288E+02  0.41433140219E+02  0.00000000000E+00 0.  1.
</event>
<event>
 7    1  0.2459936E-009  0.4778726E+02  0.7816164E-02  0.1312668E+00
        -11   -1    0    0    0    0  0.00000000000E+00  0.00000000000E+00  0.45593999997E+02  0.45594000000E+02  0.51100000000E-03 0.  1.
         11   -1    0    0    0    0 -0.00000000000E+00 -0.00000000000E+00 -0.45593999997E+02  0.45594000000E+02  0.51100000000E-03 0. -1.
    9900012    2    1    2    0    0 -0.74146532476E+01  0.42458407641E+02 -0.50922502588E+01  0.47787257208E+02  0.19999936915E+02 0.  0.
         12    1    1    2    0    0  0.74146532476E+01 -0.42458407641E+02  0.50922502588E+01  0.43400742792E+02  0.00000000000E+00 0. -1.
         11    1    3    3    0    0 -0.83488743076E+01  0.77497103256E+01 -0.99339522884E+00  0.11434533076E+02  0.51100000000E-03 0. -1.
        -11    1    3    3    0    0 -0.24591952471E+01  0.78025369840E+01  0.22812803063E+01  0.84930244758E+01  0.51100000000E-03 0.  1.
        -12    1    3    3    0    0  0.33934163071E+01  0.26906160331E+02 -0.63801353362E+01  0.27859699656E+02  0.00000000000E+00 0.  1.
</event>
<event>
 7    1  0.2459936E-009  0.4778727E+02  0.7816164E-02  0.1312668E+00
        -11   -1    0    0    0    0  0.00000000000E+00  0.00000000000E+00  0.45593999997E+02  0.45594000000E+02  0.51100000000E-03 0.  1.
         11   -1    0    0    0    0 -0.00000000000E+00 -0.00000000000E+00 -0.45593999997E+02  0.45594000000E+02  0.51100000000E-03 0. -1.
    9900012    2    1    2    0    0 -0.29283204876E+02  0.15644160380E+02  0.27953132945E+02  0.47787268633E+02  0.19999989003E+02 0.  0.
         12    1    1    2    0    0  0.29283204876E+02 -0.15644160380E+02 -0.27953132945E+02  0.43400731367E+02  0.00000000000E+00 0. -1.
         11    1    3    3    0    0  0.87881214526E+00 -0.20140589252E+01  0.30059048124E+00  0.22179041998E+01  0.51100000000E-03 0.  1.
        -11    1    3    3    0    0 -0.49106335182E+01 -0.70844838991E+00  0.31279388348E+01  0.58651702692E+01  0.51100000000E-03 0. -1.
        -12    1    3    3    0    0 -0.25251383503E+02  0.18366667695E+02  0.24524603629E+02  0.39704194164E+02  0.00000000000E+00 0.  1.
</event>
<event>
 7    1  0.2459936E-009  0.4778727E+02  0.7816164E-02  0.1312668E+00
        -11   -1    0    0    0    0  0.00000000000E+00  0.00000000000E+00  0.45593999997E+02  0.45594000000E+02  0.51100000000E-03 0.  1.
         11   -1    0    0    0    0 -0.00000000000E+00 -0.00000000000E+00 -0.45593999997E+02  0.45594000000E+02  0.51100000000E-03 0. -1.
    9900012    2    1    2    0    0  0.20155872821E+02 -0.23490699712E+02  0.30422873143E+02  0.47787269679E+02  0.19999993774E+02 0.  0.
         12    1    1    2    0    0 -0.20155872821E+02  0.23490699712E+02 -0.30422873143E+02  0.43400730321E+02  0.00000000000E+00 0. -1.
         11    1    3    3    0    0 -0.21060772643E+00  0.40257042700E+00 -0.17582089043E+01  0.18159618321E+01  0.51100000000E-03 0. -1.
        -11    1    3    3    0    0  0.79657683682E+01 -0.12851621359E+02  0.94809645302E+01  0.17846745528E+02  0.51100000000E-03 0.  1.
        -12    1    3    3    0    0  0.12400712179E+02 -0.11041648779E+02  0.22700117517E+02  0.28124562319E+02  0.00000000000E+00 0.  1.
</event>
<event>
 7    1  0.2459936E-009  0.4778729E+02  0.7816164E-02  0.1312668E+00
        -11   -1    0    0    0    0  0.00000000000E+00  0.00000000000E+00  0.45593999997E+02  0.45594000000E+02  0.51100000000E-03 0.  1.
         11   -1    0    0    0    0 -0.00000000000E+00 -0.00000000000E+00 -0.45593999997E+02  0.45594000000E+02  0.51100000000E-03 0. -1.
    9900012    2    1    2    0    0 -0.20570449448E+02 -0.47509040606E+01  0.37919748103E+02  0.47787288299E+02  0.20000078672E+02 0.  0.
         12    1    1    2    0    0  0.20570449448E+02  0.47509040606E+01 -0.37919748103E+02  0.43400711701E+02  0.00000000000E+00 0. -1.
         11    1    3    3    0    0  0.11450770603E+01 -0.45866854445E+01  0.57684569011E+01  0.74581485720E+01  0.51100000000E-03 0. -1.
        -11    1    3    3    0    0 -0.69979162668E+01 -0.52704020913E+01  0.12049663899E+02  0.14897730385E+02  0.51100000000E-03 0.  1.
        -12    1    3    3    0    0 -0.14717610242E+02  0.51061834752E+01  0.20101627303E+02  0.25431409342E+02  0.00000000000E+00 0.  1.
</event>
<event>
 7    1  0.2459936E-009  0.4778730E+02  0.7816164E-02  0.1312668E+00
        -11   -1    0    0    0    0  0.00000000000E+00  0.00000000000E+00  0.45593999997E+02  0.45594000000E+02  0.51100000000E-03 0. -1.
         11   -1    0    0    0    0 -0.00000000000E+00 -0.00000000000E+00 -0.45593999997E+02  0.45594000000E+02  0.51100000000E-03 0.  1.
    9900012    2    1    2    0    0 -0.37379353264E+02 -0.17396234469E+02 -0.13556402830E+02  0.47787296298E+02  0.20000115143E+02 0.  0.
         12    1    1    2    0    0  0.37379353264E+02  0.17396234469E+02  0.13556402830E+02  0.43400703702E+02  0.00000000000E+00 0. -1.
         11    1    3    3    0    0 -0.34937991961E+01  0.30372571755E+01 -0.10392372298E+01  0.47446367884E+01  0.51100000000E-03 0. -1.
        -11    1    3    3    0    0 -0.32568290897E+02 -0.15486109578E+02 -0.10941020809E+02  0.37685794384E+02  0.51100000000E-03 0.  1.
         12    1    3    3    0    0 -0.13172631711E+01 -0.49473820661E+01 -0.15761447914E+01  0.53568651255E+01  0.00000000000E+00 0. -1.
</event>
<event>
 7    1  0.2459936E-009  0.4778728E+02  0.7816164E-02  0.1312668E+00
        -11   -1    0    0    0    0  0.00000000000E+00  0.00000000000E+00  0.45593999997E+02  0.45594000000E+02  0.51100000000E-03 0.  1.
         11   -1    0    0    0    0 -0.00000000000E+00 -0.00000000000E+00 -0.45593999997E+02  0.45594000000E+02  0.51100000000E-03 0. -1.
    9900012    2    1    2    0    0  0.18707992652E+02  0.38257749326E+02  0.83653114228E+01  0.47787276415E+02  0.20000024485E+02 0.  0.
         12    1    1    2    0    0 -0.18707992652E+02 -0.38257749326E+02 -0.83653114228E+01  0.43400723585E+02  0.00000000000E+00 0. -1.
         11    1    3    3    0    0 -0.14641652529E+01  0.37245953087E+01  0.62693634516E+00  0.40508566432E+01  0.51100000000E-03 0. -1.
        -11    1    3    3    0    0  0.98848047831E+01  0.11459357780E+02  0.10356320933E+02  0.18337928723E+02  0.51100000000E-03 0.  1.
         12    1    3    3    0    0  0.10287353121E+02  0.23073796237E+02 -0.26179458550E+01  0.25398491048E+02  0.00000000000E+00 0. -1.
</event>
<event>
 7    1  0.2459936E-009  0.4778729E+02  0.7816164E-02  0.1312668E+00
        -11   -1    0    0    0    0  0.00000000000E+00  0.00000000000E+00  0.45593999997E+02  0.45594000000E+02  0.51100000000E-03 0. -1.
         11   -1    0    0    0    0 -0.00000000000E+00 -0.00000000000E+00 -0.45593999997E+02  0.45594000000E+02  0.51100000000E-03 0.  1.
    9900012    2    1    2    0    0 -0.26371918168E+02  0.32050054310E+02 -0.12686131552E+02  0.47787285917E+02  0.20000067811E+02 0.  0.
         12    1    1    2    0    0  0.26371918168E+02 -0.32050054310E+02  0.12686131552E+02  0.43400714083E+02  0.00000000000E+00 0. -1.
         11    1    3    3    0    0  0.18185997446E+00  0.41842420223E-01  0.53101498441E+00  0.56285079127E+00  0.51100000000E-03 0. -1.
        -11    1    3    3    0    0 -0.16262392833E+02  0.30987050770E+02 -0.10217365057E+02  0.36456237945E+02  0.51100000000E-03 0.  1.
        -12    1    3    3    0    0 -0.10291385309E+02  0.10211611196E+01 -0.29997814796E+01  0.10768197182E+02  0.00000000000E+00 0.  1.
</event>
<event>
 7    1  0.2459936E-009  0.4778727E+02  0.7816164E-02  0.1312668E+00
        -11   -1    0    0    0    0  0.00000000000E+00  0.00000000000E+00  0.45593999997E+02  0.45594000000E+02  0.51100000000E-03 0.  1.
         11   -1    0    0    0    0 -0.00000000000E+00 -0.00000000000E+00 -0.45593999997E+02  0.45594000000E+02  0.51100000000E-03 0. -1.
    9900012    2    1    2    0    0  0.43048251873E+02 -0.19120789030E+00  0.55167424272E+01  0.47787274236E+02  0.20000014553E+02 0.  0.
         12    1    1    2    0    0 -0.43048251873E+02  0.19120789030E+00 -0.55167424272E+01  0.43400725764E+02  0.00000000000E+00 0. -1.
         11    1    3    3    0    0  0.22878164947E+01 -0.69495327717E+00 -0.37186211408E+01  0.44209962475E+01  0.51100000000E-03 0. -1.
        -11    1    3    3    0    0  0.22894853949E+01  0.18981572921E+01 -0.15961626327E+01  0.33752747873E+01  0.51100000000E-03 0.  1.
        -12    1    3    3    0    0  0.38470949984E+02 -0.13944119052E+01  0.10831526201E+02  0.39991003201E+02  0.00000000000E+00 0.  1.
</event>
<event>
 7    1  0.2459936E-009  0.4778727E+02  0.7816164E-02  0.1312668E+00
        -11   -1    0    0    0    0  0.00000000000E+00  0.00000000000E+00  0.45593999997E+02  0.45594000000E+02  0.51100000000E-03 0. -1.
         11   -1    0    0    0    0 -0.00000000000E+00 -0.00000000000E+00 -0.45593999997E+02  0.45594000000E+02  0.51100000000E-03 0.  1.
    9900012    2    1    2    0    0 -0.84635422593E+01 -0.34901655456E+02 -0.24369379369E+02  0.47787265536E+02  0.19999974887E+02 0.  0.
         12    1    1    2    0    0  0.84635422593E+01  0.34901655456E+02  0.24369379369E+02  0.43400734464E+02  0.00000000000E+00 0. -1.
         11    1    3    3    0    0  0.13517837793E+01 -0.16163509620E+02 -0.18067267812E+02  0.24279879099E+02  0.51100000000E-03 0. -1.
        -11    1    3    3    0    0 -0.44895712363E+01 -0.11808200196E+02 -0.74909806335E+01  0.14686886425E+02  0.51100000000E-03 0.  1.
         12    1    3    3    0    0 -0.53257548023E+01 -0.69299456400E+01  0.11888690759E+01  0.88205000123E+01  0.00000000000E+00 0. -1.
</event>
<event>
 7    1  0.2459936E-009  0.4778727E+02  0.7816164E-02  0.1312668E+00
        -11   -1    0    0    0    0  0.00000000000E+00  0.00000000000E+00  0.45593999997E+02  0.45594000000E+02  0.51100000000E-03 0.  1.
         11   -1    0    0    0    0 -0.00000000000E+00 -0.00000000000E+00 -0.45593999997E+02  0.45594000000E+02  0.51100000000E-03 0. -1.
    9900012    2    1    2    0    0  0.39860190223E+02  0.14366780793E+02  0.94012758393E+01  0.47787272559E+02  0.20000006907E+02 0.  0.
         12    1    1    2    0    0 -0.39860190223E+02 -0.14366780793E+02 -0.94012758393E+01  0.43400727441E+02  0.00000000000E+00 0. -1.
         11    1    3    3    0    0  0.83285688741E+01  0.66351834193E+00  0.67923771117E+01  0.10767622912E+02  0.51100000000E-03 0. -1.
        -11    1    3    3    0    0  0.23409201576E+02  0.11531649603E+02  0.76786862925E+01  0.27201688999E+02  0.51100000000E-03 0.  1.
        -12    1    3    3    0    0  0.81224197737E+01  0.21716128480E+01 -0.50697875649E+01  0.98179606484E+01  0.00000000000E+00 0.  1.
</event>
<event>
 7    1  0.2459936E-009  0.4778728E+02  0.7816164E-02  0.1312668E+00
        -11   -1    0    0    0    0  0.00000000000E+00  0.00000000000E+00  0.45593999997E+02  0.45594000000E+02  0.51100000000E-03 0.  1.
         11   -1    0    0    0    0 -0.00000000000E+00 -0.00000000000E+00 -0.45593999997E+02  0.45594000000E+02  0.51100000000E-03 0. -1.
    9900012    2    1    2    0    0 -0.33956098518E+02 -0.26365353299E+02 -0.59560311388E+01  0.47787276641E+02  0.20000025518E+02 0.  0.
         12    1    1    2    0    0  0.33956098518E+02  0.26365353299E+02  0.59560311388E+01  0.43400723359E+02  0.00000000000E+00 0. -1.
         11    1    3    3    0    0 -0.14315200152E+02 -0.15138693169E+02 -0.40954533958E+01  0.21233881535E+02  0.51100000000E-03 0. -1.
        -11    1    3    3    0    0 -0.21577225025E+02 -0.88606153146E+01 -0.87868286851E+00  0.23342219847E+02  0.51100000000E-03 0.  1.
         12    1    3    3    0    0  0.19363266595E+01 -0.23660448156E+01 -0.98189487447E+00  0.32111752594E+01  0.00000000000E+00 0. -1.
</event>
<event>
 7    1  0.2459936E-009  0.4778726E+02  0.7816164E-02  0.1312668E+00
        -11   -1    0    0    0    0  0.00000000000E+00  0.00000000000E+00  0.45593999997E+02  0.45594000000E+02  0.51100000000E-03 0.  1.
         11   -1    0    0    0    0 -0.00000000000E+00 -0.00000000000E+00 -0.45593999997E+02  0.45594000000E+02  0.51100000000E-03 0. -1.
    9900012    2    1    2    0    0  0.20718730313E+02  0.35991927307E+02  0.12607112559E+02  0.47787263784E+02  0.19999966896E+02 0.  0.
         12    1    1    2    0    0 -0.20718730313E+02 -0.35991927307E+02 -0.12607112559E+02  0.43400736216E+02  0.00000000000E+00 0. -1.
         11    1    3    3    0    0  0.11329566817E+02  0.14880834822E+02 -0.87466631172E-01  0.18703100811E+02  0.51100000000E-03 0. -1.
        -11    1    3    3    0    0  0.93760060351E+01  0.61832670709E+01  0.50878150117E+01  0.12329969290E+02  0.51100000000E-03 0.  1.
        -12    1    3    3    0    0  0.13157460611E-01  0.14927825414E+02  0.76067641780E+01  0.16754193683E+02  0.00000000000E+00 0.  1.
</event>
<event>
 7    1  0.2459936E-009  0.4778727E+02  0.7816164E-02  0.1312668E+00
        -11   -1    0    0    0    0  0.00000000000E+00  0.00000000000E+00  0.45593999997E+02  0.45594000000E+02  0.51100000000E-03 0.  1.
         11   -1    0    0    0    0 -0.00000000000E+00 -0.00000000000E+00 -0.45593999997E+02  0.45594000000E+02  0.51100000000E-03 0. -1.
    9900012    2    1    2    0    0 -0.20267683882E+02  0.23936166752E+02  0.29998397743E+02  0.47787274708E+02  0.20000016704E+02 0.  0.
         12    1    1    2    0    0  0.20267683882E+02 -0.23936166752E+02 -0.29998397743E+02  0.43400725292E+02  0.00000000000E+00 0. -1.
         11    1    3    3    0    0 -0.23602842537E+01  0.19294691500E+00  0.33332019814E+01  0.40888147403E+01  0.51100000000E-03 0. -1.
        -11    1    3    3    0    0 -0.10745422131E+02  0.24963543128E+02  0.22764765361E+02  0.35452462884E+02  0.51100000000E-03 0.  1.
        -12    1    3    3    0    0 -0.71619774972E+01 -0.12203232917E+01  0.39004304002E+01  0.82459970842E+01  0.00000000000E+00 0.  1.
</event>
<event>
 7    1  0.2459936E-009  0.4778727E+02  0.7816164E-02  0.1312668E+00
        -11   -1    0    0    0    0  0.00000000000E+00  0.00000000000E+00  0.45593999997E+02  0.45594000000E+02  0.51100000000E-03 0.  1.
         11   -1    0    0    0    0 -0.00000000000E+00 -0.00000000000E+00 -0.45593999997E+02  0.45594000000E+02  0.51100000000E-03 0. -1.
    9900012    2    1    2    0    0 -0.17671277337E+02 -0.11870158514E+02  0.37821275432E+02  0.47787267504E+02  0.19999983859E+02 0.  0.
         12    1    1    2    0    0  0.17671277337E+02  0.11870158514E+02 -0.37821275432E+02  0.43400732496E+02  0.00000000000E+00 0. -1.
         11    1    3    3    0    0 -0.52763084865E+01 -0.13586438092E+02  0.15059684348E+02  0.20957691290E+02  0.51100000000E-03 0. -1.
        -11    1    3    3    0    0 -0.70283674579E+01 -0.24093232178E+01  0.11576352916E+02  0.13755534690E+02  0.51100000000E-03 0.  1.
         12    1    3    3    0    0 -0.53666013928E+01  0.41256027958E+01  0.11185238167E+02  0.13074041525E+02  0.00000000000E+00 0. -1.
</event>
<event>
 7    1  0.2459936E-009  0.4778727E+02  0.7816164E-02  0.1312668E+00
        -11   -1    0    0    0    0  0.00000000000E+00  0.00000000000E+00  0.45593999997E+02  0.45594000000E+02  0.51100000000E-03 0.  1.
         11   -1    0    0    0    0 -0.00000000000E+00 -0.00000000000E+00 -0.45593999997E+02  0.45594000000E+02  0.51100000000E-03 0. -1.
    9900012    2    1    2    0    0 -0.89064796922E+01  0.24887746417E+02  0.34422352111E+02  0.47787266975E+02  0.19999981446E+02 0.  0.
         12    1    1    2    0    0  0.89064796922E+01 -0.24887746417E+02 -0.34422352111E+02  0.43400733025E+02  0.00000000000E+00 0. -1.
         11    1    3    3    0    0 -0.95688695763E+00  0.10460898799E+02  0.93022122456E+01  0.14031293214E+02  0.51100000000E-03 0. -1.
        -11    1    3    3    0    0 -0.41880707814E+01  0.16421406858E+02  0.14462214498E+02  0.22279097570E+02  0.51100000000E-03 0.  1.
         12    1    3    3    0    0 -0.37615219532E+01 -0.19945592402E+01  0.10657925368E+02  0.11476876191E+02  0.00000000000E+00 0. -1.
</event>
<event>
 7    1  0.2459936E-009  0.4778728E+02  0.7816164E-02  0.1312668E+00
        -11   -1    0    0    0    0  0.00000000000E+00  0.00000000000E+00  0.45593999997E+02  0.45594000000E+02  0.51100000000E-03 0.  1.
         11   -1    0    0    0    0 -0.00000000000E+00 -0.00000000000E+00 -0.45593999997E+02  0.45594000000E+02  0.51100000000E-03 0. -1.
    9900012    2    1    2    0    0  0.35430234205E+02  0.19252114196E+02  0.16052334922E+02  0.47787275890E+02  0.20000022091E+02 0.  0.
         12    1    1    2    0    0 -0.35430234205E+02 -0.19252114196E+02 -0.16052334922E+02  0.43400724110E+02  0.00000000000E+00 0. -1.
         11    1    3    3    0    0  0.88569087958E+01  0.95391915991E+01  0.12607484249E+02  0.18121525022E+02  0.51100000000E-03 0. -1.
        -11    1    3    3    0    0  0.89559698496E+01  0.53587446544E+01  0.47594568353E+01  0.11470744084E+02  0.51100000000E-03 0.  1.
        -12    1    3    3    0    0  0.17617355560E+02  0.43541779429E+01 -0.13146061625E+01  0.18195006783E+02  0.00000000000E+00 0.  1.
</event>
<event>
 7    1  0.2459936E-009  0.4778727E+02  0.7816164E-02  0.1312668E+00
        -11   -1    0    0    0    0  0.00000000000E+00  0.00000000000E+00  0.45593999997E+02  0.45594000000E+02  0.51100000000E-03 0.  1.
         11   -1    0    0    0    0 -0.00000000000E+00 -0.00000000000E+00 -0.45593999997E+02  0.45594000000E+02  0.51100000000E-03 0. -1.
    9900012    2    1    2    0    0 -0.73027124610E+01 -0.76630014484E+01  0.42090047996E+02  0.47787270273E+02  0.19999996483E+02 0.  0.
         12    1    1    2    0    0  0.73027124610E+01  0.76630014484E+01 -0.42090047996E+02  0.43400729727E+02  0.00000000000E+00 0. -1.
         11    1    3    3    0    0  0.23988689164E+01 -0.45066009452E+01  0.16619620040E+01  0.53689982419E+01  0.51100000000E-03 0. -1.
        -11    1    3    3    0    0  0.57589680082E+00  0.56257323000E+00  0.35223340627E+00  0.87875730320E+00  0.51100000000E-03 0.  1.
        -12    1    3    3    0    0 -0.10277478178E+02 -0.37189737331E+01  0.40075852586E+02  0.41539514728E+02  0.00000000000E+00 0.  1.
</event>
<event>
 7    1  0.2459936E-009  0.4778727E+02  0.7816164E-02  0.1312668E+00
        -11   -1    0    0    0    0  0.00000000000E+00  0.00000000000E+00  0.45593999997E+02  0.45594000000E+02  0.51100000000E-03 0.  1.
         11   -1    0    0    0    0 -0.00000000000E+00 -0.00000000000E+00 -0.45593999997E+02  0.45594000000E+02  0.51100000000E-03 0. -1.
    9900012    2    1    2    0    0 -0.28299146698E+02  0.79341974271E+01  0.31934781918E+02  0.47787268568E+02  0.19999988710E+02 0.  0.
         12    1    1    2    0    0  0.28299146698E+02 -0.79341974271E+01 -0.31934781918E+02  0.43400731432E+02  0.00000000000E+00 0. -1.
         11    1    3    3    0    0 -0.11171973202E+02  0.28247597004E+01  0.56893527578E+01  0.12851497487E+02  0.51100000000E-03 0. -1.
        -11    1    3    3    0    0 -0.12599232164E+02  0.99156074362E+01  0.21427123474E+02  0.26761568388E+02  0.51100000000E-03 0.  1.
         12    1    3    3    0    0 -0.45279413318E+01 -0.48061697094E+01  0.48183056865E+01  0.81742026931E+01  0.00000000000E+00 0. -1.
</event>
<event>
 7    1  0.2459936E-009  0.4778727E+02  0.7816164E-02  0.1312668E+00
        -11   -1    0    0    0    0  0.00000000000E+00  0.00000000000E+00  0.45593999997E+02  0.45594000000E+02  0.51100000000E-03 0.  1.
         11   -1    0    0    0    0 -0.00000000000E+00 -0.00000000000E+00 -0.45593999997E+02  0.45594000000E+02  0.51100000000E-03 0. -1.
    9900012    2    1    2    0    0  0.17400768556E+02  0.11428453338E+02  0.38081849013E+02  0.47787268252E+02  0.19999987269E+02 0.  0.
         12    1    1    2    0    0 -0.17400768556E+02 -0.11428453338E+02 -0.38081849013E+02  0.43400731748E+02  0.00000000000E+00 0. -1.
         11    1    3    3    0    0  0.89975323812E+01  0.11075606933E+02  0.19831289794E+02  0.24431633450E+02  0.51100000000E-03 0. -1.
        -11    1    3    3    0    0  0.58602712736E+01  0.51874231513E+01  0.15206040718E+02  0.17101924246E+02  0.51100000000E-03 0.  1.
         12    1    3    3    0    0  0.25429649012E+01 -0.48345767470E+01  0.30445185008E+01  0.62537105556E+01  0.00000000000E+00 0. -1.
</event>
<event>
 7    1  0.2459936E-009  0.4778727E+02  0.7816164E-02  0.1312668E+00
        -11   -1    0    0    0    0  0.00000000000E+00  0.00000000000E+00  0.45593999997E+02  0.45594000000E+02  0.51100000000E-03 0. -1.
         11   -1    0    0    0    0 -0.00000000000E+00 -0.00000000000E+00 -0.45593999997E+02  0.45594000000E+02  0.51100000000E-03 0.  1.
    9900012    2    1    2    0    0 -0.42686284202E+02 -0.71782455974E+01 -0.31586676969E+01  0.47787271314E+02  0.20000001229E+02 0.  0.
         12    1    1    2    0    0  0.42686284202E+02  0.71782455974E+01  0.31586676969E+01  0.43400728686E+02  0.00000000000E+00 0. -1.
         11    1    3    3    0    0 -0.23448143993E+02 -0.43129696235E+01  0.13475242066E+01  0.23879551618E+02  0.51100000000E-03 0. -1.
        -11    1    3    3    0    0 -0.19507024682E+02  0.10091890774E+01 -0.31020188976E+01  0.19777891598E+02  0.51100000000E-03 0.  1.
         12    1    3    3    0    0  0.26888447356E+00 -0.38744650513E+01 -0.14041730059E+01  0.41298280986E+01  0.00000000000E+00 0. -1.
</event>
<event>
 7    1  0.2459936E-009  0.4778726E+02  0.7816164E-02  0.1312668E+00
        -11   -1    0    0    0    0  0.00000000000E+00  0.00000000000E+00  0.45593999997E+02  0.45594000000E+02  0.51100000000E-03 0.  1.
         11   -1    0    0    0    0 -0.00000000000E+00 -0.00000000000E+00 -0.45593999997E+02  0.45594000000E+02  0.51100000000E-03 0. -1.
    9900012    2    1    2    0    0 -0.29661810578E+02  0.12856716916E+02 -0.28956965287E+02  0.47787262503E+02  0.19999961056E+02 0.  0.
         12    1    1    2    0    0  0.29661810578E+02 -0.12856716916E+02  0.28956965287E+02  0.43400737497E+02  0.00000000000E+00 0. -1.
         11    1    3    3    0    0  0.12436058872E+00  0.23468209877E+00  0.17016190311E+01  0.17222220622E+01  0.51100000000E-03 0. -1.
        -11    1    3    3    0    0 -0.96360482360E+01  0.10244424190E+02 -0.11663259373E+02  0.18271104839E+02  0.51100000000E-03 0.  1.
        -12    1    3    3    0    0 -0.20150122931E+02  0.23776106269E+01 -0.18995324946E+02  0.27793935601E+02  0.00000000000E+00 0.  1.
</event>
<event>
 7    1  0.2459936E-009  0.4778726E+02  0.7816164E-02  0.1312668E+00
        -11   -1    0    0    0    0  0.00000000000E+00  0.00000000000E+00  0.45593999997E+02  0.45594000000E+02  0.51100000000E-03 0.  1.
         11   -1    0    0    0    0 -0.00000000000E+00 -0.00000000000E+00 -0.45593999997E+02  0.45594000000E+02  0.51100000000E-03 0. -1.
    9900012    2    1    2    0    0  0.40787619899E+02 -0.14520817083E+02 -0.30232478571E+01  0.47787261603E+02  0.19999956952E+02 0.  0.
         12    1    1    2    0    0 -0.40787619899E+02  0.14520817083E+02  0.30232478571E+01  0.43400738397E+02  0.00000000000E+00 0. -1.
         11    1    3    3    0    0  0.24789860735E+02 -0.17854741316E+02  0.44166127004E+00  0.30553625770E+02  0.51100000000E-03 0. -1.
        -11    1    3    3    0    0  0.73490121117E+01  0.18256384645E+00  0.12774135719E+00  0.73523891825E+01  0.51100000000E-03 0.  1.
        -12    1    3    3    0    0  0.86487470522E+01  0.31513603867E+01 -0.35926504843E+01  0.98812466502E+01  0.00000000000E+00 0.  1.
</event>
<event>
 7    1  0.2459936E-009  0.4778726E+02  0.7816164E-02  0.1312668E+00
        -11   -1    0    0    0    0  0.00000000000E+00  0.00000000000E+00  0.45593999997E+02  0.45594000000E+02  0.51100000000E-03 0.  1.
         11   -1    0    0    0    0 -0.00000000000E+00 -0.00000000000E+00 -0.45593999997E+02  0.45594000000E+02  0.51100000000E-03 0. -1.
    9900012    2    1    2    0    0 -0.25864332307E+02 -0.29990640077E+02  0.17754488942E+02  0.47787262040E+02  0.19999958944E+02 0.  0.
         12    1    1    2    0    0  0.25864332307E+02  0.29990640077E+02 -0.17754488942E+02  0.43400737960E+02  0.00000000000E+00 0. -1.
         11    1    3    3    0    0 -0.67435599589E+01 -0.19184545444E+01  0.32635893880E+01  0.77335040385E+01  0.51100000000E-03 0. -1.
        -11    1    3    3    0    0 -0.13396059298E+02 -0.63628629839E+01  0.68681947743E+01  0.16343577631E+02  0.51100000000E-03 0.  1.
         12    1    3    3    0    0 -0.57247130498E+01 -0.21709322548E+02  0.76227047800E+01  0.23710180370E+02  0.00000000000E+00 0. -1.
</event>
<event>
 7    1  0.2459936E-009  0.4778727E+02  0.7816164E-02  0.1312668E+00
        -11   -1    0    0    0    0  0.00000000000E+00  0.00000000000E+00  0.45593999997E+02  0.45594000000E+02  0.51100000000E-03 0.  1.
         11   -1    0    0    0    0 -0.00000000000E+00 -0.00000000000E+00 -0.45593999997E+02  0.45594000000E+02  0.51100000000E-03 0. -1.
    9900012    2    1    2    0    0  0.39610072157E+02  0.14977321585E+02  0.95050132739E+01  0.47787271257E+02  0.20000000968E+02 0.  0.
         12    1    1    2    0    0 -0.39610072157E+02 -0.14977321585E+02 -0.95050132739E+01  0.43400728743E+02  0.00000000000E+00 0. -1.
         11    1    3    3    0    0  0.12110187065E+02  0.10868957661E+02 -0.26266047653E+01  0.16483019269E+02  0.51100000000E-03 0. -1.
        -11    1    3    3    0    0  0.54445629325E+01  0.32567351988E+01  0.50984250504E+01  0.81390127126E+01  0.51100000000E-03 0.  1.
        -12    1    3    3    0    0  0.22055322160E+02  0.85162872521E+00  0.70331929888E+01  0.23165239275E+02  0.00000000000E+00 0.  1.
</event>
<event>
 7    1  0.2459936E-009  0.4778727E+02  0.7816164E-02  0.1312668E+00
        -11   -1    0    0    0    0  0.00000000000E+00  0.00000000000E+00  0.45593999997E+02  0.45594000000E+02  0.51100000000E-03 0. -1.
         11   -1    0    0    0    0 -0.00000000000E+00 -0.00000000000E+00 -0.45593999997E+02  0.45594000000E+02  0.51100000000E-03 0.  1.
    9900012    2    1    2    0    0 -0.80965496557E+01 -0.40010520792E+02 -0.14738637273E+02  0.47787270524E+02  0.19999997628E+02 0.  0.
         12    1    1    2    0    0  0.80965496557E+01  0.40010520792E+02  0.14738637273E+02  0.43400729476E+02  0.00000000000E+00 0. -1.
         11    1    3    3    0    0  0.18467438131E+01 -0.51396339050E+01 -0.53523749212E+01  0.76468435937E+01  0.51100000000E-03 0. -1.
        -11    1    3    3    0    0  0.24532352331E+01 -0.13812675301E+02 -0.18692979528E+00  0.14030085712E+02  0.51100000000E-03 0.  1.
        -12    1    3    3    0    0 -0.12396528702E+02 -0.21058211586E+02 -0.91993325562E+01  0.26110341219E+02  0.00000000000E+00 0.  1.
</event>
<event>
 7    1  0.2459936E-009  0.4778727E+02  0.7816164E-02  0.1312668E+00
        -11   -1    0    0    0    0  0.00000000000E+00  0.00000000000E+00  0.45593999997E+02  0.45594000000E+02  0.51100000000E-03 0. -1.
         11   -1    0    0    0    0 -0.00000000000E+00 -0.00000000000E+00 -0.45593999997E+02  0.45594000000E+02  0.51100000000E-03 0.  1.
    9900012    2    1    2    0    0  0.20903264376E+02 -0.30666851159E+02 -0.22499361972E+02  0.47787268316E+02  0.19999987558E+02 0.  0.
         12    1    1    2    0    0 -0.20903264376E+02  0.30666851159E+02  0.22499361972E+02  0.43400731684E+02  0.00000000000E+00 0. -1.
         11    1    3    3    0    0  0.66862689865E+01 -0.13653223585E+00 -0.19222858184E+01  0.69584493273E+01  0.51100000000E-03 0. -1.
        -11    1    3    3    0    0  0.79557425964E+01 -0.92745348215E+01 -0.11825248745E+02  0.17004333111E+02  0.51100000000E-03 0.  1.
         12    1    3    3    0    0  0.62612527932E+01 -0.21255784102E+02 -0.87518274086E+01  0.23824485877E+02  0.00000000000E+00 0. -1.
</event>
<event>
 7    1  0.2459936E-009  0.4778727E+02  0.7816164E-02  0.1312668E+00
        -11   -1    0    0    0    0  0.00000000000E+00  0.00000000000E+00  0.45593999997E+02  0.45594000000E+02  0.51100000000E-03 0.  1.
         11   -1    0    0    0    0 -0.00000000000E+00 -0.00000000000E+00 -0.45593999997E+02  0.45594000000E+02  0.51100000000E-03 0. -1.
    9900012    2    1    2    0    0 -0.39935491681E+02  0.72535877016E+01  0.15367670404E+02  0.47787270467E+02  0.19999997368E+02 0.  0.
         12    1    1    2    0    0  0.39935491681E+02 -0.72535877016E+01 -0.15367670404E+02  0.43400729533E+02  0.00000000000E+00 0. -1.
         11    1    3    3    0    0 -0.23428589299E+02  0.11837150445E+02  0.87399773420E+01  0.27665938108E+02  0.51100000000E-03 0. -1.
        -11    1    3    3    0    0 -0.91185008346E+01 -0.20899946097E+00  0.70449680891E+01  0.11524856350E+02  0.51100000000E-03 0.  1.
         12    1    3    3    0    0 -0.73884015475E+01 -0.43745632820E+01 -0.41727502713E+00  0.85964760096E+01  0.00000000000E+00 0. -1.
</event>
<event>
 7    1  0.2459936E-009  0.4778726E+02  0.7816164E-02  0.1312668E+00
        -11   -1    0    0    0    0  0.00000000000E+00  0.00000000000E+00  0.45593999997E+02  0.45594000000E+02  0.51100000000E-03 0. -1.
         11   -1    0    0    0    0 -0.00000000000E+00 -0.00000000000E+00 -0.45593999997E+02  0.45594000000E+02  0.51100000000E-03 0.  1.
    9900012    2    1    2    0    0  0.77861573073E+01 -0.42626783312E+02  0.24407335154E+01  0.47787261743E+02  0.19999957593E+02 0.  0.
         12    1    1    2    0    0 -0.77861573073E+01  0.42626783312E+02 -0.24407335154E+01  0.43400738257E+02  0.00000000000E+00 0. -1.
         11    1    3    3    0    0 -0.14762061292E-01 -0.14460411992E+02  0.65480508422E+01  0.15873900056E+02  0.51100000000E-03 0. -1.
        -11    1    3    3    0    0 -0.26200908052E+01 -0.44305317750E+01  0.15597652961E+01  0.53784157218E+01  0.51100000000E-03 0.  1.
        -12    1    3    3    0    0  0.10421010174E+02 -0.23735839545E+02 -0.56670826228E+01  0.26534945966E+02  0.00000000000E+00 0.  1.
</event>
<event>
 7    1  0.2459936E-009  0.4778727E+02  0.7816164E-02  0.1312668E+00
        -11   -1    0    0    0    0  0.00000000000E+00  0.00000000000E+00  0.45593999997E+02  0.45594000000E+02  0.51100000000E-03 0.  1.
         11   -1    0    0    0    0 -0.00000000000E+00 -0.00000000000E+00 -0.45593999997E+02  0.45594000000E+02  0.51100000000E-03 0. -1.
    9900012    2    1    2    0    0  0.29914700362E+02  0.23077761269E+02  0.21357689279E+02  0.47787271270E+02  0.20000001029E+02 0.  0.
         12    1    1    2    0    0 -0.29914700362E+02 -0.23077761269E+02 -0.21357689279E+02  0.43400728730E+02  0.00000000000E+00 0. -1.
         11    1    3    3    0    0  0.32290882743E+01 -0.15454212760E+01  0.61848044544E+01  0.71461279308E+01  0.51100000000E-03 0. -1.
        -11    1    3    3    0    0  0.94399089143E+01  0.27608310440E+01  0.45696716419E+01  0.10845089559E+02  0.51100000000E-03 0.  1.
        -12    1    3    3    0    0  0.17245703173E+02  0.21862351501E+02  0.10603213183E+02  0.29796053781E+02  0.00000000000E+00 0.  1.
</event>
<event>
 7    1  0.2459936E-009  0.4778727E+02  0.7816164E-02  0.1312668E+00
        -11   -1    0    0    0    0  0.00000000000E+00  0.00000000000E+00  0.45593999997E+02  0.45594000000E+02  0.51100000000E-03 0.  1.
         11   -1    0    0    0    0 -0.00000000000E+00 -0.00000000000E+00 -0.45593999997E+02  0.45594000000E+02  0.51100000000E-03 0. -1.
    9900012    2    1    2    0    0 -0.87793725881E+01 -0.25954231029E+02  0.33658931669E+02  0.47787272213E+02  0.20000005328E+02 0.  0.
         12    1    1    2    0    0  0.87793725881E+01  0.25954231029E+02 -0.33658931669E+02  0.43400727787E+02  0.00000000000E+00 0. -1.
         11    1    3    3    0    0  0.24012950126E+00 -0.87080726849E+01  0.93269877882E+01  0.12762479913E+02  0.51100000000E-03 0. -1.
        -11    1    3    3    0    0  0.34462706966E+01 -0.10276731962E+02  0.11820446300E+02  0.16037797621E+02  0.51100000000E-03 0.  1.
         12    1    3    3    0    0 -0.12465772786E+02 -0.69694263818E+01  0.12511497581E+02  0.18986994679E+02  0.00000000000E+00 0. -1.
</event>
<event>
 7    1  0.2459936E-009  0.4778727E+02  0.7816164E-02  0.1312668E+00
        -11   -1    0    0    0    0  0.00000000000E+00  0.00000000000E+00  0.45593999997E+02  0.45594000000E+02  0.51100000000E-03 0.  1.
         11   -1    0    0    0    0 -0.00000000000E+00 -0.00000000000E+00 -0.45593999997E+02  0.45594000000E+02  0.51100000000E-03 0. -1.
    9900012    2    1    2    0    0 -0.42551690296E+02  0.74200636535E+01  0.42331887521E+01  0.47787267533E+02  0.19999983991E+02 0.  0.
         12    1    1    2    0    0  0.42551690296E+02 -0.74200636535E+01 -0.42331887521E+01  0.43400732467E+02  0.00000000000E+00 0. -1.
         11    1    3    3    0    0 -0.13091029057E+02 -0.10285489648E+01  0.44930168827E+01  0.13878766362E+02  0.51100000000E-03 0. -1.
        -11    1    3    3    0    0 -0.95704479637E+01  0.53387608827E+01  0.64157320850E+01  0.12698718850E+02  0.51100000000E-03 0.  1.
         12    1    3    3    0    0 -0.19890213275E+02  0.31098517357E+01 -0.66755602157E+01  0.21209782321E+02  0.00000000000E+00 0. -1.
</event>
<event>
 7    1  0.2459936E-009  0.4778727E+02  0.7816164E-02  0.1312668E+00
        -11   -1    0    0    0    0  0.00000000000E+00  0.00000000000E+00  0.45593999997E+02  0.45594000000E+02  0.51100000000E-03 0. -1.
         11   -1    0    0    0    0 -0.00000000000E+00 -0.00000000000E+00 -0.45593999997E+02  0.45594000000E+02  0.51100000000E-03 0.  1.
    9900012    2    1    2    0    0 -0.29846134894E+01  0.24714106469E+02 -0.35551769359E+02  0.47787270964E+02  0.19999999635E+02 0.  0.
         12    1    1    2    0    0  0.29846134894E+01 -0.24714106469E+02  0.35551769359E+02  0.43400729036E+02  0.00000000000E+00 0. -1.
         11    1    3    3    0    0 -0.10597003438E+01  0.18638864688E+01  0.16407191164E+01  0.26998142654E+01  0.51100000000E-03 0. -1.
        -11    1    3    3    0    0 -0.37832123562E+01  0.42070009682E+01 -0.38562361334E+01  0.68470512088E+01  0.51100000000E-03 0.  1.
        -12    1    3    3    0    0  0.18582992106E+01  0.18643219032E+02 -0.33336252342E+02  0.38240405490E+02  0.00000000000E+00 0.  1.
</event>
<event>
 7    1  0.2459936E-009  0.4778725E+02  0.7816164E-02  0.1312668E+00
        -11   -1    0    0    0    0  0.00000000000E+00  0.00000000000E+00  0.45593999997E+02  0.45594000000E+02  0.51100000000E-03 0. -1.
         11   -1    0    0    0    0 -0.00000000000E+00 -0.00000000000E+00 -0.45593999997E+02  0.45594000000E+02  0.51100000000E-03 0.  1.
    9900012    2    1    2    0    0  0.37655609304E+02 -0.50272609675E+01 -0.20985862116E+02  0.47787254919E+02  0.19999926477E+02 0.  0.
         12    1    1    2    0    0 -0.37655609304E+02  0.50272609675E+01  0.20985862116E+02  0.43400745081E+02  0.00000000000E+00 0. -1.
         11    1    3    3    0    0  0.56911319690E+01 -0.36559891141E+01  0.15881106074E+01  0.69481893363E+01  0.51100000000E-03 0. -1.
        -11    1    3    3    0    0  0.42537915300E+01 -0.44033180985E+01 -0.33727001159E+01  0.69899255354E+01  0.51100000000E-03 0.  1.
        -12    1    3    3    0    0  0.27710685805E+02  0.30320462450E+01 -0.19201272607E+02  0.33849140047E+02  0.00000000000E+00 0.  1.
</event>
<event>
 7    1  0.2459936E-009  0.4778727E+02  0.7816164E-02  0.1312668E+00
        -11   -1    0    0    0    0  0.00000000000E+00  0.00000000000E+00  0.45593999997E+02  0.45594000000E+02  0.51100000000E-03 0. -1.
         11   -1    0    0    0    0 -0.00000000000E+00 -0.00000000000E+00 -0.45593999997E+02  0.45594000000E+02  0.51100000000E-03 0.  1.
    9900012    2    1    2    0    0 -0.17665294566E+02 -0.29332821940E+02 -0.26667325399E+02  0.47787270524E+02  0.19999997628E+02 0.  0.
         12    1    1    2    0    0  0.17665294566E+02  0.29332821940E+02  0.26667325399E+02  0.43400729476E+02  0.00000000000E+00 0. -1.
         11    1    3    3    0    0 -0.51782698470E+01 -0.82488066303E+01 -0.38344846384E+01  0.10467118139E+02  0.51100000000E-03 0. -1.
        -11    1    3    3    0    0 -0.69485195443E+01 -0.17116987399E+02 -0.64330651745E+01  0.19561633604E+02  0.51100000000E-03 0.  1.
         12    1    3    3    0    0 -0.55385051747E+01 -0.39670279112E+01 -0.16399775586E+02  0.17758518781E+02  0.00000000000E+00 0. -1.
</event>
<event>
 7    1  0.2459936E-009  0.4778727E+02  0.7816164E-02  0.1312668E+00
        -11   -1    0    0    0    0  0.00000000000E+00  0.00000000000E+00  0.45593999997E+02  0.45594000000E+02  0.51100000000E-03 0. -1.
         11   -1    0    0    0    0 -0.00000000000E+00 -0.00000000000E+00 -0.45593999997E+02  0.45594000000E+02  0.51100000000E-03 0.  1.
    9900012    2    1    2    0    0  0.25116452069E+01 -0.37188610197E+02 -0.22233349792E+02  0.47787274971E+02  0.20000017903E+02 0.  0.
         12    1    1    2    0    0 -0.25116452069E+01  0.37188610197E+02  0.22233349792E+02  0.43400725029E+02  0.00000000000E+00 0. -1.
         11    1    3    3    0    0  0.13409201485E+01  0.65257309015E+00 -0.52231209211E-01  0.14921953099E+01  0.51100000000E-03 0. -1.
        -11    1    3    3    0    0 -0.40259065569E+01 -0.11570551213E+02 -0.12667972692E+01  0.12316263823E+02  0.51100000000E-03 0.  1.
         12    1    3    3    0    0  0.51966316154E+01 -0.26270632074E+02 -0.20914321314E+02  0.33978815838E+02  0.00000000000E+00 0. -1.
</event>
<event>
 7    1  0.2459936E-009  0.4778730E+02  0.7816164E-02  0.1312668E+00
        -11   -1    0    0    0    0  0.00000000000E+00  0.00000000000E+00  0.45593999997E+02  0.45594000000E+02  0.51100000000E-03 0. -1.
         11   -1    0    0    0    0 -0.00000000000E+00 -0.00000000000E+00 -0.45593999997E+02  0.45594000000E+02  0.51100000000E-03 0.  1.
    9900012    2    1    2    0    0 -0.18600696166E+02  0.17036402980E+02 -0.35318489754E+02  0.47787301355E+02  0.20000138197E+02 0.  0.
         12    1    1    2    0    0  0.18600696166E+02 -0.17036402980E+02  0.35318489754E+02  0.43400698645E+02  0.00000000000E+00 0. -1.
         11    1    3    3    0    0 -0.33776455339E+01 -0.86485163626E+00  0.27266659908E+00  0.34972567879E+01  0.51100000000E-03 0. -1.
        -11    1    3    3    0    0 -0.92816658538E+01  0.36022886389E+01 -0.85230859091E+01  0.13106059596E+02  0.51100000000E-03 0.  1.
         12    1    3    3    0    0 -0.59413847788E+01  0.14298965978E+02 -0.27068070444E+02  0.31183984971E+02  0.00000000000E+00 0. -1.
</event>
<event>
 7    1  0.2459936E-009  0.4778727E+02  0.7816164E-02  0.1312668E+00
        -11   -1    0    0    0    0  0.00000000000E+00  0.00000000000E+00  0.45593999997E+02  0.45594000000E+02  0.51100000000E-03 0.  1.
         11   -1    0    0    0    0 -0.00000000000E+00 -0.00000000000E+00 -0.45593999997E+02  0.45594000000E+02  0.51100000000E-03 0. -1.
    9900012    2    1    2    0    0  0.42556262469E+02 -0.32854784222E+01  0.78608859648E+01  0.47787269915E+02  0.19999994848E+02 0.  0.
         12    1    1    2    0    0 -0.42556262469E+02  0.32854784222E+01 -0.78608859648E+01  0.43400730085E+02  0.00000000000E+00 0. -1.
         11    1    3    3    0    0  0.53262463108E+01  0.28914577126E+01 -0.23231754286E+01  0.64904985787E+01  0.51100000000E-03 0. -1.
        -11    1    3    3    0    0  0.86666976231E+01  0.41134551485E+01  0.14288776977E+01  0.96991676284E+01  0.51100000000E-03 0.  1.
        -12    1    3    3    0    0  0.28563318535E+02 -0.10290391283E+02  0.87551836957E+01  0.31597603707E+02  0.00000000000E+00 0.  1.
</event>
<event>
 7    1  0.2459936E-009  0.4778727E+02  0.7816164E-02  0.1312668E+00
        -11   -1    0    0    0    0  0.00000000000E+00  0.00000000000E+00  0.45593999997E+02  0.45594000000E+02  0.51100000000E-03 0. -1.
         11   -1    0    0    0    0 -0.00000000000E+00 -0.00000000000E+00 -0.45593999997E+02  0.45594000000E+02  0.51100000000E-03 0.  1.
    9900012    2    1    2    0    0 -0.42447994576E+02 -0.42308519952E+01 -0.79931748016E+01  0.47787271947E+02  0.20000004113E+02 0.  0.
         12    1    1    2    0    0  0.42447994576E+02  0.42308519952E+01  0.79931748016E+01  0.43400728053E+02  0.00000000000E+00 0. -1.
         11    1    3    3    0    0 -0.16420131249E+01 -0.20937800118E+01  0.17845965750E+01  0.32038893609E+01  0.51100000000E-03 0. -1.
        -11    1    3    3    0    0 -0.10769604359E+01  0.29514637627E+00  0.26576007144E+01  0.28826718478E+01  0.51100000000E-03 0.  1.
        -12    1    3    3    0    0 -0.39729021015E+02 -0.24322183597E+01 -0.12435372091E+02  0.41700710738E+02  0.00000000000E+00 0.  1.
</event>
<event>
 7    1  0.2459936E-009  0.4778727E+02  0.7816164E-02  0.1312668E+00
        -11   -1    0    0    0    0  0.00000000000E+00  0.00000000000E+00  0.45593999997E+02  0.45594000000E+02  0.51100000000E-03 0. -1.
         11   -1    0    0    0    0 -0.00000000000E+00 -0.00000000000E+00 -0.45593999997E+02  0.45594000000E+02  0.51100000000E-03 0.  1.
    9900012    2    1    2    0    0  0.97111695756E+01  0.35667673485E+02 -0.22740567255E+02  0.47787272524E+02  0.20000006745E+02 0.  0.
         12    1    1    2    0    0 -0.97111695756E+01 -0.35667673485E+02  0.22740567255E+02  0.43400727476E+02  0.00000000000E+00 0. -1.
         11    1    3    3    0    0  0.48761826919E+01  0.19163677985E+02 -0.16471870014E+01  0.19842805669E+02  0.51100000000E-03 0. -1.
        -11    1    3    3    0    0  0.37472737205E+01  0.44564394884E+01 -0.42555786079E+01  0.72119250412E+01  0.51100000000E-03 0.  1.
         12    1    3    3    0    0  0.10877131632E+01  0.12047556012E+02 -0.16837801645E+02  0.20732541813E+02  0.00000000000E+00 0. -1.
</event>
<event>
 7    1  0.2459936E-009  0.4778727E+02  0.7816164E-02  0.1312668E+00
        -11   -1    0    0    0    0  0.00000000000E+00  0.00000000000E+00  0.45593999997E+02  0.45594000000E+02  0.51100000000E-03 0. -1.
         11   -1    0    0    0    0 -0.00000000000E+00 -0.00000000000E+00 -0.45593999997E+02  0.45594000000E+02  0.51100000000E-03 0.  1.
    9900012    2    1    2    0    0  0.92119892483E+00 -0.38512280970E+02 -0.19989465795E+02  0.47787272636E+02  0.20000007255E+02 0.  0.
         12    1    1    2    0    0 -0.92119892483E+00  0.38512280970E+02  0.19989465795E+02  0.43400727364E+02  0.00000000000E+00 0. -1.
         11    1    3    3    0    0  0.38640265493E+01 -0.17047030342E+01 -0.18700790363E+01  0.46188645219E+01  0.51100000000E-03 0. -1.
        -11    1    3    3    0    0 -0.19744250959E+01 -0.17720332075E+01  0.14530055118E+01  0.30248440334E+01  0.51100000000E-03 0.  1.
        -12    1    3    3    0    0 -0.96840252856E+00 -0.35035544728E+02 -0.19572392271E+02  0.40143564080E+02  0.00000000000E+00 0.  1.
</event>
<event>
 7    1  0.2459936E-009  0.4778727E+02  0.7816164E-02  0.1312668E+00
        -11   -1    0    0    0    0  0.00000000000E+00  0.00000000000E+00  0.45593999997E+02  0.45594000000E+02  0.51100000000E-03 0.  1.
         11   -1    0    0    0    0 -0.00000000000E+00 -0.00000000000E+00 -0.45593999997E+02  0.45594000000E+02  0.51100000000E-03 0. -1.
    9900012    2    1    2    0    0  0.16725318782E+02 -0.39425242756E+02  0.70382746438E+01  0.47787269999E+02  0.19999995232E+02 0.  0.
         12    1    1    2    0    0 -0.16725318782E+02  0.39425242756E+02 -0.70382746438E+01  0.43400730001E+02  0.00000000000E+00 0. -1.
         11    1    3    3    0    0  0.21250687638E+01 -0.42277943061E+01  0.72928422869E+01  0.86934291754E+01  0.51100000000E-03 0. -1.
        -11    1    3    3    0    0  0.69632509107E+01 -0.13845494941E+02  0.40361671528E+01  0.16014844331E+02  0.51100000000E-03 0.  1.
        -12    1    3    3    0    0  0.76369991070E+01 -0.21351953509E+02 -0.42907347958E+01  0.23078996492E+02  0.00000000000E+00 0.  1.
</event>
<event>
 7    1  0.2459936E-009  0.4778728E+02  0.7816164E-02  0.1312668E+00
        -11   -1    0    0    0    0  0.00000000000E+00  0.00000000000E+00  0.45593999997E+02  0.45594000000E+02  0.51100000000E-03 0.  1.
         11   -1    0    0    0    0 -0.00000000000E+00 -0.00000000000E+00 -0.45593999997E+02  0.45594000000E+02  0.51100000000E-03 0. -1.
    9900012    2    1    2    0    0  0.75896213760E+01  0.20337002233E+02  0.37582268618E+02  0.47787275041E+02  0.20000018224E+02 0.  0.
         12    1    1    2    0    0 -0.75896213760E+01 -0.20337002233E+02 -0.37582268618E+02  0.43400724959E+02  0.00000000000E+00 0. -1.
         11    1    3    3    0    0  0.12456908757E+00 -0.16732120105E+01  0.66795156825E+01  0.68870230074E+01  0.51100000000E-03 0. -1.
        -11    1    3    3    0    0 -0.29223286843E+01  0.78634191458E+01  0.55252344127E+01  0.10044977908E+02  0.51100000000E-03 0.  1.
        -12    1    3    3    0    0  0.10387380973E+02  0.14146795098E+02  0.25377518523E+02  0.30855274126E+02  0.00000000000E+00 0.  1.
</event>
<event>
 7    1  0.2459936E-009  0.4778727E+02  0.7816164E-02  0.1312668E+00
        -11   -1    0    0    0    0  0.00000000000E+00  0.00000000000E+00  0.45593999997E+02  0.45594000000E+02  0.51100000000E-03 0. -1.
         11   -1    0    0    0    0 -0.00000000000E+00 -0.00000000000E+00 -0.45593999997E+02  0.45594000000E+02  0.51100000000E-03 0.  1.
    9900012    2    1    2    0    0  0.36371604891E+02 -0.13670360202E+02 -0.19335226690E+02  0.47787269804E+02  0.19999994344E+02 0.  0.
         12    1    1    2    0    0 -0.36371604891E+02  0.13670360202E+02  0.19335226690E+02  0.43400730196E+02  0.00000000000E+00 0. -1.
         11    1    3    3    0    0  0.72995532675E+01 -0.17354490203E+01 -0.51777879999E+01  0.91161806718E+01  0.51100000000E-03 0.  1.
        -11    1    3    3    0    0  0.18852183022E+02  0.14024747457E+01 -0.50883162709E+01  0.19577096384E+02  0.51100000000E-03 0. -1.
         12    1    3    3    0    0  0.10219868601E+02 -0.13337385927E+02 -0.90691224196E+01  0.19093992748E+02  0.00000000000E+00 0. -1.
</event>
<event>
 7    1  0.2459936E-009  0.4778728E+02  0.7816164E-02  0.1312668E+00
        -11   -1    0    0    0    0  0.00000000000E+00  0.00000000000E+00  0.45593999997E+02  0.45594000000E+02  0.51100000000E-03 0.  1.
         11   -1    0    0    0    0 -0.00000000000E+00 -0.00000000000E+00 -0.45593999997E+02  0.45594000000E+02  0.51100000000E-03 0. -1.
    9900012    2    1    2    0    0 -0.28740197938E+02 -0.31068448530E+02  0.96112083727E+01  0.47787276527E+02  0.20000024998E+02 0.  0.
         12    1    1    2    0    0  0.28740197938E+02  0.31068448530E+02 -0.96112083727E+01  0.43400723473E+02  0.00000000000E+00 0. -1.
         11    1    3    3    0    0 -0.67282087197E+01 -0.63857091981E+00  0.73659991668E+01  0.99967249328E+01  0.51100000000E-03 0.  1.
        -11    1    3    3    0    0 -0.22001333591E+01 -0.51809508743E+01  0.22979062576E+00  0.56334396910E+01  0.51100000000E-03 0. -1.
        -12    1    3    3    0    0 -0.19811855859E+02 -0.25248926736E+02  0.20154185801E+01  0.32157111903E+02  0.00000000000E+00 0.  1.
</event>
<event>
 7    1  0.2459936E-009  0.4778727E+02  0.7816164E-02  0.1312668E+00
        -11   -1    0    0    0    0  0.00000000000E+00  0.00000000000E+00  0.45593999997E+02  0.45594000000E+02  0.51100000000E-03 0.  1.
         11   -1    0    0    0    0 -0.00000000000E+00 -0.00000000000E+00 -0.45593999997E+02  0.45594000000E+02  0.51100000000E-03 0. -1.
    9900012    2    1    2    0    0  0.37017264785E+02 -0.48020273252E+01  0.22142402571E+02  0.47787270165E+02  0.19999995988E+02 0.  0.
         12    1    1    2    0    0 -0.37017264785E+02  0.48020273252E+01 -0.22142402571E+02  0.43400729835E+02  0.00000000000E+00 0. -1.
         11    1    3    3    0    0 -0.10899619535E+01 -0.10778137548E+01  0.42638523609E+00  0.15910701370E+01  0.51100000000E-03 0. -1.
        -11    1    3    3    0    0  0.50283185684E+01  0.42520960042E+01  0.50990657888E+01  0.83285521090E+01  0.51100000000E-03 0.  1.
        -12    1    3    3    0    0  0.33078908170E+02 -0.79763095746E+01  0.16616951547E+02  0.37867647919E+02  0.00000000000E+00 0.  1.
</event>
<event>
 7    1  0.2459936E-009  0.4778727E+02  0.7816164E-02  0.1312668E+00
        -11   -1    0    0    0    0  0.00000000000E+00  0.00000000000E+00  0.45593999997E+02  0.45594000000E+02  0.51100000000E-03 0.  1.
         11   -1    0    0    0    0 -0.00000000000E+00 -0.00000000000E+00 -0.45593999997E+02  0.45594000000E+02  0.51100000000E-03 0. -1.
    9900012    2    1    2    0    0 -0.42544190163E+02  0.21330812924E+01  0.83105422822E+01  0.47787271141E+02  0.20000000442E+02 0.  0.
         12    1    1    2    0    0  0.42544190163E+02 -0.21330812924E+01 -0.83105422822E+01  0.43400728859E+02  0.00000000000E+00 0. -1.
         11    1    3    3    0    0 -0.24760314292E+02  0.16866828382E+01  0.83926157630E+01  0.26198359919E+02  0.51100000000E-03 0. -1.
        -11    1    3    3    0    0 -0.15963600767E+02 -0.11518296376E+01  0.43081227163E+01  0.16574775490E+02  0.51100000000E-03 0.  1.
         12    1    3    3    0    0 -0.18202751041E+01  0.15982280917E+01 -0.43901961971E+01  0.50141357318E+01  0.00000000000E+00 0. -1.
</event>
<event>
 7    1  0.2459936E-009  0.4778727E+02  0.7816164E-02  0.1312668E+00
        -11   -1    0    0    0    0  0.00000000000E+00  0.00000000000E+00  0.45593999997E+02  0.45594000000E+02  0.51100000000E-03 0.  1.
         11   -1    0    0    0    0 -0.00000000000E+00 -0.00000000000E+00 -0.45593999997E+02  0.45594000000E+02  0.51100000000E-03 0. -1.
    9900012    2    1    2    0    0 -0.83870567136E+01  0.55371446975E+01  0.42221091345E+02  0.47787271365E+02  0.20000001462E+02 0.  0.
         12    1    1    2    0    0  0.83870567136E+01 -0.55371446975E+01 -0.42221091345E+02  0.43400728635E+02  0.00000000000E+00 0. -1.
         11    1    3    3    0    0 -0.43428024819E+01 -0.15064842179E+01  0.84731418231E+01  0.96396867538E+01  0.51100000000E-03 0. -1.
        -11    1    3    3    0    0  0.43545580554E+01 -0.23257304542E+01  0.67620659841E+01  0.83723792698E+01  0.51100000000E-03 0.  1.
         12    1    3    3    0    0 -0.83988122871E+01  0.93693593695E+01  0.26985883537E+02  0.29775205341E+02  0.00000000000E+00 0. -1.
</event>
<event>
 7    1  0.2459936E-009  0.4778727E+02  0.7816164E-02  0.1312668E+00
        -11   -1    0    0    0    0  0.00000000000E+00  0.00000000000E+00  0.45593999997E+02  0.45594000000E+02  0.51100000000E-03 0. -1.
         11   -1    0    0    0    0 -0.00000000000E+00 -0.00000000000E+00 -0.45593999997E+02  0.45594000000E+02  0.51100000000E-03 0.  1.
    9900012    2    1    2    0    0  0.41781039933E+02  0.92045441275E+01  0.72968657332E+01  0.47787272126E+02  0.20000004931E+02 0.  0.
         12    1    1    2    0    0 -0.41781039933E+02 -0.92045441275E+01 -0.72968657332E+01  0.43400727874E+02  0.00000000000E+00 0. -1.
         11    1    3    3    0    0  0.23405687605E+02  0.86882741169E+01  0.60002726704E+01  0.25677141426E+02  0.51100000000E-03 0. -1.
        -11    1    3    3    0    0  0.98257469029E+01  0.62786204199E+01  0.17442917905E+01  0.11790204862E+02  0.51100000000E-03 0.  1.
         12    1    3    3    0    0  0.85496054246E+01 -0.57623504093E+01 -0.44769872769E+00  0.10319925838E+02  0.00000000000E+00 0. -1.
</event>
<event>
 7    1  0.2459936E-009  0.4778727E+02  0.7816164E-02  0.1312668E+00
        -11   -1    0    0    0    0  0.00000000000E+00  0.00000000000E+00  0.45593999997E+02  0.45594000000E+02  0.51100000000E-03 0.  1.
         11   -1    0    0    0    0 -0.00000000000E+00 -0.00000000000E+00 -0.45593999997E+02  0.45594000000E+02  0.51100000000E-03 0. -1.
    9900012    2    1    2    0    0  0.28376746928E+02 -0.12919182020E+01  0.32813327132E+02  0.47787271246E+02  0.20000000920E+02 0.  0.
         12    1    1    2    0    0 -0.28376746928E+02  0.12919182020E+01 -0.32813327132E+02  0.43400728754E+02  0.00000000000E+00 0. -1.
         11    1    3    3    0    0 -0.62474032351E+00 -0.21518409867E+01  0.19523190800E+01  0.29719135511E+01  0.51100000000E-03 0. -1.
        -11    1    3    3    0    0 -0.10434078507E+01  0.89497204364E+00 -0.42511159918E+00  0.14388867345E+01  0.51100000000E-03 0.  1.
        -12    1    3    3    0    0  0.30044895103E+02 -0.35049258929E-01  0.31286119651E+02  0.43376470961E+02  0.00000000000E+00 0.  1.
</event>
<event>
 7    1  0.2459936E-009  0.4778728E+02  0.7816164E-02  0.1312668E+00
        -11   -1    0    0    0    0  0.00000000000E+00  0.00000000000E+00  0.45593999997E+02  0.45594000000E+02  0.51100000000E-03 0. -1.
         11   -1    0    0    0    0 -0.00000000000E+00 -0.00000000000E+00 -0.45593999997E+02  0.45594000000E+02  0.51100000000E-03 0.  1.
    9900012    2    1    2    0    0  0.32377208700E+02  0.25399574338E+02 -0.13791324480E+02  0.47787278225E+02  0.20000032737E+02 0.  0.
         12    1    1    2    0    0 -0.32377208700E+02 -0.25399574338E+02  0.13791324480E+02  0.43400721775E+02  0.00000000000E+00 0. -1.
         11    1    3    3    0    0  0.53526565549E+01  0.13936380103E+02 -0.52366958387E+01  0.15820765030E+02  0.51100000000E-03 0. -1.
        -11    1    3    3    0    0  0.42647587747E+01  0.48224562275E+01  0.78301197354E+00  0.64851645688E+01  0.51100000000E-03 0.  1.
        -12    1    3    3    0    0  0.22759793370E+02  0.66407380069E+01 -0.93376406148E+01  0.25481348625E+02  0.00000000000E+00 0.  1.
</event>
<event>
 7    1  0.2459936E-009  0.4778727E+02  0.7816164E-02  0.1312668E+00
        -11   -1    0    0    0    0  0.00000000000E+00  0.00000000000E+00  0.45593999997E+02  0.45594000000E+02  0.51100000000E-03 0.  1.
         11   -1    0    0    0    0 -0.00000000000E+00 -0.00000000000E+00 -0.45593999997E+02  0.45594000000E+02  0.51100000000E-03 0. -1.
    9900012    2    1    2    0    0  0.18840119520E+02 -0.20455250195E+02 -0.33320500268E+02  0.47787273023E+02  0.20000009019E+02 0.  0.
         12    1    1    2    0    0 -0.18840119520E+02  0.20455250195E+02  0.33320500268E+02  0.43400726977E+02  0.00000000000E+00 0. -1.
         11    1    3    3    0    0  0.18538397662E+01 -0.33007421145E+01 -0.31912070418E+01  0.49513051845E+01  0.51100000000E-03 0. -1.
        -11    1    3    3    0    0  0.16547711249E+02 -0.88336890001E+01 -0.28841253745E+02  0.34404632345E+02  0.51100000000E-03 0.  1.
         12    1    3    3    0    0  0.43856850489E+00 -0.83208190802E+01 -0.12880394812E+01  0.84313354935E+01  0.00000000000E+00 0. -1.
</event>
<event>
 7    1  0.2459936E-009  0.4778727E+02  0.7816164E-02  0.1312668E+00
        -11   -1    0    0    0    0  0.00000000000E+00  0.00000000000E+00  0.45593999997E+02  0.45594000000E+02  0.51100000000E-03 0. -1.
         11   -1    0    0    0    0 -0.00000000000E+00 -0.00000000000E+00 -0.45593999997E+02  0.45594000000E+02  0.51100000000E-03 0.  1.
    9900012    2    1    2    0    0  0.32932817303E+02 -0.27552654453E+02 -0.63169639851E+01  0.47787271240E+02  0.20000000890E+02 0.  0.
         12    1    1    2    0    0 -0.32932817303E+02  0.27552654453E+02  0.63169639851E+01  0.43400728760E+02  0.00000000000E+00 0. -1.
         11    1    3    3    0    0 -0.43326150930E-01 -0.37716286309E+01 -0.87061627327E+00  0.38710505862E+01  0.51100000000E-03 0. -1.
        -11    1    3    3    0    0 -0.13416136936E+01  0.61072554515E+00 -0.16979177820E+00  0.14838269789E+01  0.51100000000E-03 0.  1.
         12    1    3    3    0    0  0.34317757148E+02 -0.24391751367E+02 -0.52765559337E+01  0.42432393674E+02  0.00000000000E+00 0. -1.
</event>
<event>
 7    1  0.2459936E-009  0.4778728E+02  0.7816164E-02  0.1312668E+00
        -11   -1    0    0    0    0  0.00000000000E+00  0.00000000000E+00  0.45593999997E+02  0.45594000000E+02  0.51100000000E-03 0.  1.
         11   -1    0    0    0    0 -0.00000000000E+00 -0.00000000000E+00 -0.45593999997E+02  0.45594000000E+02  0.51100000000E-03 0. -1.
    9900012    2    1    2    0    0  0.29856102561E+02 -0.23223715739E+02  0.21281328430E+02  0.47787276819E+02  0.20000026331E+02 0.  0.
         12    1    1    2    0    0 -0.29856102561E+02  0.23223715739E+02 -0.21281328430E+02  0.43400723181E+02  0.00000000000E+00 0. -1.
         11    1    3    3    0    0  0.25095209172E+01 -0.60940802607E+01  0.27343808973E+01  0.71352889647E+01  0.51100000000E-03 0. -1.
        -11    1    3    3    0    0  0.22440441251E+02 -0.11882095505E+02  0.21113701296E+02  0.33023415629E+02  0.51100000000E-03 0.  1.
        -12    1    3    3    0    0  0.49061403930E+01 -0.52475399728E+01 -0.25667537633E+01  0.76285722257E+01  0.00000000000E+00 0.  1.
</event>
<event>
 7    1  0.2459936E-009  0.4778727E+02  0.7816164E-02  0.1312668E+00
        -11   -1    0    0    0    0  0.00000000000E+00  0.00000000000E+00  0.45593999997E+02  0.45594000000E+02  0.51100000000E-03 0.  1.
         11   -1    0    0    0    0 -0.00000000000E+00 -0.00000000000E+00 -0.45593999997E+02  0.45594000000E+02  0.51100000000E-03 0. -1.
    9900012    2    1    2    0    0 -0.15871862829E+02 -0.15143920666E+02  0.37448218791E+02  0.47787268976E+02  0.19999990568E+02 0.  0.
         12    1    1    2    0    0  0.15871862829E+02  0.15143920666E+02 -0.37448218791E+02  0.43400731024E+02  0.00000000000E+00 0. -1.
         11    1    3    3    0    0 -0.72174951593E+01 -0.13548038284E+02  0.17470630952E+02  0.23256494229E+02  0.51100000000E-03 0. -1.
        -11    1    3    3    0    0  0.89763278547E+00 -0.42019197945E+01  0.52452231172E+01  0.67804306934E+01  0.51100000000E-03 0.  1.
        -12    1    3    3    0    0 -0.95520004556E+01  0.26060374126E+01  0.14732364722E+02  0.17750344053E+02  0.00000000000E+00 0.  1.
</event>
<event>
 7    1  0.2459936E-009  0.4778728E+02  0.7816164E-02  0.1312668E+00
        -11   -1    0    0    0    0  0.00000000000E+00  0.00000000000E+00  0.45593999997E+02  0.45594000000E+02  0.51100000000E-03 0. -1.
         11   -1    0    0    0    0 -0.00000000000E+00 -0.00000000000E+00 -0.45593999997E+02  0.45594000000E+02  0.51100000000E-03 0.  1.
    9900012    2    1    2    0    0  0.57863227795E+01  0.27394824089E+02 -0.33161196727E+02  0.47787275507E+02  0.20000020346E+02 0.  0.
         12    1    1    2    0    0 -0.57863227795E+01 -0.27394824089E+02  0.33161196727E+02  0.43400724493E+02  0.00000000000E+00 0. -1.
         11    1    3    3    0    0  0.46729207030E+01  0.14434756165E+01 -0.52241366850E+01  0.71562150692E+01  0.51100000000E-03 0. -1.
        -11    1    3    3    0    0  0.19081961966E+01  0.27214144475E+02 -0.28057571705E+02  0.39134105362E+02  0.51100000000E-03 0.  1.
         12    1    3    3    0    0 -0.79479412012E+00 -0.12627960026E+01  0.12051166323E+00  0.14969550757E+01  0.00000000000E+00 0. -1.
</event>
<event>
 7    1  0.2459936E-009  0.4778727E+02  0.7816164E-02  0.1312668E+00
        -11   -1    0    0    0    0  0.00000000000E+00  0.00000000000E+00  0.45593999997E+02  0.45594000000E+02  0.51100000000E-03 0. -1.
         11   -1    0    0    0    0 -0.00000000000E+00 -0.00000000000E+00 -0.45593999997E+02  0.45594000000E+02  0.51100000000E-03 0.  1.
    9900012    2    1    2    0    0 -0.22406089098E+02 -0.23777053979E+02 -0.28569950961E+02  0.47787271636E+02  0.20000002697E+02 0.  0.
         12    1    1    2    0    0  0.22406089098E+02  0.23777053979E+02  0.28569950961E+02  0.43400728364E+02  0.00000000000E+00 0. -1.
         11    1    3    3    0    0 -0.56042011268E+01 -0.95862613670E+01 -0.31158079118E+01  0.11533071424E+02  0.51100000000E-03 0. -1.
        -11    1    3    3    0    0 -0.10591957178E+02 -0.11011929401E+02 -0.75577856130E+01  0.17046180499E+02  0.51100000000E-03 0.  1.
        -12    1    3    3    0    0 -0.62099307933E+01 -0.31788632113E+01 -0.17896357437E+02  0.19208019713E+02  0.00000000000E+00 0.  1.
</event>
<event>
 7    1  0.2459936E-009  0.4778727E+02  0.7816164E-02  0.1312668E+00
        -11   -1    0    0    0    0  0.00000000000E+00  0.00000000000E+00  0.45593999997E+02  0.45594000000E+02  0.51100000000E-03 0. -1.
         11   -1    0    0    0    0 -0.00000000000E+00 -0.00000000000E+00 -0.45593999997E+02  0.45594000000E+02  0.51100000000E-03 0.  1.
    9900012    2    1    2    0    0 -0.22347757651E+02  0.25153860108E+02  0.27413212640E+02  0.47787272154E+02  0.20000005058E+02 0.  0.
         12    1    1    2    0    0  0.22347757651E+02 -0.25153860108E+02 -0.27413212640E+02  0.43400727846E+02  0.00000000000E+00 0. -1.
         11    1    3    3    0    0 -0.15079799457E+02  0.10771940321E+02  0.20149545228E+02  0.27375887622E+02  0.51100000000E-03 0. -1.
        -11    1    3    3    0    0 -0.42635964593E+01  0.28648481601E+00  0.34799026442E+01  0.55109029199E+01  0.51100000000E-03 0.  1.
        -12    1    3    3    0    0 -0.30043617346E+01  0.14095434971E+02  0.37837647675E+01  0.14900481612E+02  0.00000000000E+00 0.  1.
</event>
<event>
 7    1  0.2459936E-009  0.4778727E+02  0.7816164E-02  0.1312668E+00
        -11   -1    0    0    0    0  0.00000000000E+00  0.00000000000E+00  0.45593999997E+02  0.45594000000E+02  0.51100000000E-03 0.  1.
         11   -1    0    0    0    0 -0.00000000000E+00 -0.00000000000E+00 -0.45593999997E+02  0.45594000000E+02  0.51100000000E-03 0. -1.
    9900012    2    1    2    0    0  0.25846449431E+02 -0.24040549685E+02  0.25251466012E+02  0.47787268288E+02  0.19999987432E+02 0.  0.
         12    1    1    2    0    0 -0.25846449431E+02  0.24040549685E+02 -0.25251466012E+02  0.43400731712E+02  0.00000000000E+00 0. -1.
         11    1    3    3    0    0 -0.46435517642E+00 -0.62274553174E+00  0.18493061884E+01  0.20058343318E+01  0.51100000000E-03 0. -1.
        -11    1    3    3    0    0  0.21628495323E+02 -0.25499555908E+02  0.16788308221E+02  0.37414789250E+02  0.51100000000E-03 0.  1.
        -12    1    3    3    0    0  0.46823092846E+01  0.20817517548E+01  0.66138516030E+01  0.83666447057E+01  0.00000000000E+00 0.  1.
</event>
<event>
 7    1  0.2459936E-009  0.4778726E+02  0.7816164E-02  0.1312668E+00
        -11   -1    0    0    0    0  0.00000000000E+00  0.00000000000E+00  0.45593999997E+02  0.45594000000E+02  0.51100000000E-03 0.  1.
         11   -1    0    0    0    0 -0.00000000000E+00 -0.00000000000E+00 -0.45593999997E+02  0.45594000000E+02  0.51100000000E-03 0. -1.
    9900012    2    1    2    0    0  0.23610815114E+01 -0.27059138803E+02  0.33850439598E+02  0.47787263144E+02  0.19999963980E+02 0.  0.
         12    1    1    2    0    0 -0.23610815114E+01  0.27059138803E+02 -0.33850439598E+02  0.43400736856E+02  0.00000000000E+00 0. -1.
         11    1    3    3    0    0  0.35204800217E+01 -0.67590888508E+01  0.79403796043E+01  0.11005848000E+02  0.51100000000E-03 0. -1.
        -11    1    3    3    0    0  0.10024022176E+01 -0.22774315032E+02  0.23155658205E+02  0.32493980097E+02  0.51100000000E-03 0.  1.
         12    1    3    3    0    0 -0.21618007279E+01  0.24742650798E+01  0.27544017888E+01  0.42874350475E+01  0.00000000000E+00 0. -1.
</event>
<event>
 7    1  0.2459936E-009  0.4778727E+02  0.7816164E-02  0.1312668E+00
        -11   -1    0    0    0    0  0.00000000000E+00  0.00000000000E+00  0.45593999997E+02  0.45594000000E+02  0.51100000000E-03 0. -1.
         11   -1    0    0    0    0 -0.00000000000E+00 -0.00000000000E+00 -0.45593999997E+02  0.45594000000E+02  0.51100000000E-03 0.  1.
    9900012    2    1    2    0    0  0.33285748130E+02 -0.23975522106E+02 -0.14172383946E+02  0.47787272408E+02  0.20000006217E+02 0.  0.
         12    1    1    2    0    0 -0.33285748130E+02  0.23975522106E+02  0.14172383946E+02  0.43400727592E+02  0.00000000000E+00 0. -1.
         11    1    3    3    0    0 -0.32416295536E+00 -0.77792049928E+00 -0.25956748729E+01  0.27290603202E+01  0.51100000000E-03 0. -1.
        -11    1    3    3    0    0  0.32064578860E+02 -0.25159353751E+02 -0.12082507280E+02  0.42510202082E+02  0.51100000000E-03 0.  1.
        -12    1    3    3    0    0  0.15453322251E+01  0.19617521447E+01  0.50579820670E+00  0.25480100057E+01  0.00000000000E+00 0.  1.
</event>
<event>
 7    1  0.2459936E-009  0.4778727E+02  0.7816164E-02  0.1312668E+00
        -11   -1    0    0    0    0  0.00000000000E+00  0.00000000000E+00  0.45593999997E+02  0.45594000000E+02  0.51100000000E-03 0.  1.
         11   -1    0    0    0    0 -0.00000000000E+00 -0.00000000000E+00 -0.45593999997E+02  0.45594000000E+02  0.51100000000E-03 0. -1.
    9900012    2    1    2    0    0 -0.41521807892E+02  0.11481017487E+02  0.52677442094E+01  0.47787269335E+02  0.19999992206E+02 0.  0.
         12    1    1    2    0    0  0.41521807892E+02 -0.11481017487E+02 -0.52677442094E+01  0.43400730665E+02  0.00000000000E+00 0. -1.
         11    1    3    3    0    0  0.32442311407E+00 -0.17089094960E+01 -0.57840149486E+00  0.18330768050E+01  0.51100000000E-03 0. -1.
        -11    1    3    3    0    0 -0.18137043458E+02  0.45330619582E+00  0.57774825399E+01  0.19040407997E+02  0.51100000000E-03 0.  1.
         12    1    3    3    0    0 -0.23709187548E+02  0.12736620788E+02  0.68663164378E-01  0.26913784533E+02  0.00000000000E+00 0. -1.
</event>
<event>
 7    1  0.2459936E-009  0.4778727E+02  0.7816164E-02  0.1312668E+00
        -11   -1    0    0    0    0  0.00000000000E+00  0.00000000000E+00  0.45593999997E+02  0.45594000000E+02  0.51100000000E-03 0.  1.
         11   -1    0    0    0    0 -0.00000000000E+00 -0.00000000000E+00 -0.45593999997E+02  0.45594000000E+02  0.51100000000E-03 0. -1.
    9900012    2    1    2    0    0 -0.34005686524E+02 -0.22201434381E+02 -0.15307935860E+02  0.47787270688E+02  0.19999998374E+02 0.  0.
         12    1    1    2    0    0  0.34005686524E+02  0.22201434381E+02  0.15307935860E+02  0.43400729312E+02  0.00000000000E+00 0. -1.
         11    1    3    3    0    0 -0.30495961732E+01  0.20010931605E+01  0.82906393627E+00  0.37405558315E+01  0.51100000000E-03 0.  1.
        -11    1    3    3    0    0 -0.11000852305E+01 -0.56283370425E+01 -0.12880296739E+01  0.58777024492E+01  0.51100000000E-03 0. -1.
        -12    1    3    3    0    0 -0.29856005121E+02 -0.18574190499E+02 -0.14848970122E+02  0.38169012407E+02  0.00000000000E+00 0.  1.
</event>
<event>
 7    1  0.2459936E-009  0.4778727E+02  0.7816164E-02  0.1312668E+00
        -11   -1    0    0    0    0  0.00000000000E+00  0.00000000000E+00  0.45593999997E+02  0.45594000000E+02  0.51100000000E-03 0. -1.
         11   -1    0    0    0    0 -0.00000000000E+00 -0.00000000000E+00 -0.45593999997E+02  0.45594000000E+02  0.51100000000E-03 0.  1.
    9900012    2    1    2    0    0 -0.24680294675E+02 -0.33484700270E+02 -0.12380684741E+02  0.47787268992E+02  0.19999990640E+02 0.  0.
         12    1    1    2    0    0  0.24680294675E+02  0.33484700270E+02  0.12380684741E+02  0.43400731008E+02  0.00000000000E+00 0. -1.
         11    1    3    3    0    0 -0.30311971376E+01 -0.63875607330E+01  0.24962273053E+01  0.74980156858E+01  0.51100000000E-03 0. -1.
        -11    1    3    3    0    0  0.12421020937E+01 -0.44708570319E+01  0.40787123953E+00  0.46580832345E+01  0.51100000000E-03 0.  1.
        -12    1    3    3    0    0 -0.22891199631E+02 -0.22626282505E+02 -0.15284783286E+02  0.35631170071E+02  0.00000000000E+00 0.  1.
</event>
<event>
 7    1  0.2459936E-009  0.4778727E+02  0.7816164E-02  0.1312668E+00
        -11   -1    0    0    0    0  0.00000000000E+00  0.00000000000E+00  0.45593999997E+02  0.45594000000E+02  0.51100000000E-03 0.  1.
         11   -1    0    0    0    0 -0.00000000000E+00 -0.00000000000E+00 -0.45593999997E+02  0.45594000000E+02  0.51100000000E-03 0. -1.
    9900012    2    1    2    0    0 -0.84377245485E+00  0.21097090417E+02  0.37918652311E+02  0.47787269947E+02  0.19999994997E+02 0.  0.
         12    1    1    2    0    0  0.84377245485E+00 -0.21097090417E+02 -0.37918652311E+02  0.43400730053E+02  0.00000000000E+00 0. -1.
         11    1    3    3    0    0  0.27042984574E+01  0.47078018881E+01  0.31890279984E+01  0.62965489437E+01  0.51100000000E-03 0. -1.
        -11    1    3    3    0    0 -0.60409684517E+01  0.17439703638E+02  0.23188784521E+02  0.29637076284E+02  0.51100000000E-03 0.  1.
        -12    1    3    3    0    0  0.24928975394E+01 -0.10504151092E+01  0.11540839791E+02  0.11853644719E+02  0.00000000000E+00 0.  1.
</event>
<event>
 7    1  0.2459936E-009  0.4778727E+02  0.7816164E-02  0.1312668E+00
        -11   -1    0    0    0    0  0.00000000000E+00  0.00000000000E+00  0.45593999997E+02  0.45594000000E+02  0.51100000000E-03 0.  1.
         11   -1    0    0    0    0 -0.00000000000E+00 -0.00000000000E+00 -0.45593999997E+02  0.45594000000E+02  0.51100000000E-03 0. -1.
    9900012    2    1    2    0    0 -0.33671635340E+02 -0.79754000987E+01  0.26196132408E+02  0.47787269749E+02  0.19999994093E+02 0.  0.
         12    1    1    2    0    0  0.33671635340E+02  0.79754000987E+01 -0.26196132408E+02  0.43400730251E+02  0.00000000000E+00 0. -1.
         11    1    3    3    0    0 -0.11920541848E+02  0.40378667589E+01  0.12280273375E+02  0.17584333947E+02  0.51100000000E-03 0.  1.
        -11    1    3    3    0    0 -0.41075312372E+01 -0.73248843037E+00 -0.12396368278E+01  0.43525913995E+01  0.51100000000E-03 0. -1.
        -12    1    3    3    0    0 -0.17643562254E+02 -0.11280778427E+02  0.15155495861E+02  0.25850344403E+02  0.00000000000E+00 0.  1.
</event>
<event>
 7    1  0.2459936E-009  0.4778727E+02  0.7816164E-02  0.1312668E+00
        -11   -1    0    0    0    0  0.00000000000E+00  0.00000000000E+00  0.45593999997E+02  0.45594000000E+02  0.51100000000E-03 0.  1.
         11   -1    0    0    0    0 -0.00000000000E+00 -0.00000000000E+00 -0.45593999997E+02  0.45594000000E+02  0.51100000000E-03 0. -1.
    9900012    2    1    2    0    0 -0.40349421387E+02  0.17870680157E+01  0.15885645995E+02  0.47787272276E+02  0.20000005613E+02 0.  0.
         12    1    1    2    0    0  0.40349421387E+02 -0.17870680157E+01 -0.15885645995E+02  0.43400727724E+02  0.00000000000E+00 0. -1.
         11    1    3    3    0    0 -0.84831958494E+01 -0.45319395264E+01  0.68749542213E+01  0.11822355243E+02  0.51100000000E-03 0. -1.
        -11    1    3    3    0    0 -0.21158712908E+02 -0.94518522785E+00  0.90335247114E+01  0.23025834969E+02  0.51100000000E-03 0.  1.
         12    1    3    3    0    0 -0.10707512629E+02  0.72641927699E+01 -0.22832938025E-01  0.12939082063E+02  0.00000000000E+00 0. -1.
</event>
<event>
 7    1  0.2459936E-009  0.4778727E+02  0.7816164E-02  0.1312668E+00
        -11   -1    0    0    0    0  0.00000000000E+00  0.00000000000E+00  0.45593999997E+02  0.45594000000E+02  0.51100000000E-03 0. -1.
         11   -1    0    0    0    0 -0.00000000000E+00 -0.00000000000E+00 -0.45593999997E+02  0.45594000000E+02  0.51100000000E-03 0.  1.
    9900012    2    1    2    0    0  0.37666931351E+02 -0.10424233750E+02 -0.18872222601E+02  0.47787272442E+02  0.20000006371E+02 0.  0.
         12    1    1    2    0    0 -0.37666931351E+02  0.10424233750E+02  0.18872222601E+02  0.43400727558E+02  0.00000000000E+00 0. -1.
         11    1    3    3    0    0  0.21398935495E+02 -0.79018101685E+01 -0.88691925139E+01  0.24474795614E+02  0.51100000000E-03 0. -1.
        -11    1    3    3    0    0  0.12868442329E+02 -0.35572378575E+01 -0.13021722896E+02  0.18649826182E+02  0.51100000000E-03 0.  1.
         12    1    3    3    0    0  0.33995535273E+01  0.10348142763E+01  0.30186928091E+01  0.46626506461E+01  0.00000000000E+00 0. -1.
</event>
<event>
 7    1  0.2459936E-009  0.4778727E+02  0.7816164E-02  0.1312668E+00
        -11   -1    0    0    0    0  0.00000000000E+00  0.00000000000E+00  0.45593999997E+02  0.45594000000E+02  0.51100000000E-03 0.  1.
         11   -1    0    0    0    0 -0.00000000000E+00 -0.00000000000E+00 -0.45593999997E+02  0.45594000000E+02  0.51100000000E-03 0. -1.
    9900012    2    1    2    0    0 -0.14132577622E+01  0.31982892631E+02  0.29303939781E+02  0.47787267227E+02  0.19999982596E+02 0.  0.
         12    1    1    2    0    0  0.14132577622E+01 -0.31982892631E+02 -0.29303939781E+02  0.43400732773E+02  0.00000000000E+00 0. -1.
         11    1    3    3    0    0  0.29518949089E+01  0.55051377444E+01  0.32061192286E-01  0.62466993941E+01  0.51100000000E-03 0. -1.
        -11    1    3    3    0    0 -0.45946725879E+01  0.69260077208E+01  0.30991589831E+01  0.88704783299E+01  0.51100000000E-03 0.  1.
         12    1    3    3    0    0  0.22951991671E+00  0.19551747165E+02  0.26172719605E+02  0.32670089503E+02  0.00000000000E+00 0. -1.
</event>
<event>
 7    1  0.2459936E-009  0.4778729E+02  0.7816164E-02  0.1312668E+00
        -11   -1    0    0    0    0  0.00000000000E+00  0.00000000000E+00  0.45593999997E+02  0.45594000000E+02  0.51100000000E-03 0. -1.
         11   -1    0    0    0    0 -0.00000000000E+00 -0.00000000000E+00 -0.45593999997E+02  0.45594000000E+02  0.51100000000E-03 0.  1.
    9900012    2    1    2    0    0 -0.35693102912E+02  0.23273449191E+02 -0.82444419347E+01  0.47787287384E+02  0.20000074498E+02 0.  0.
         12    1    1    2    0    0  0.35693102912E+02 -0.23273449191E+02  0.82444419347E+01  0.43400712616E+02  0.00000000000E+00 0. -1.
         11    1    3    3    0    0 -0.51980489603E+01  0.18644017410E-01 -0.29426419601E+01  0.59732070582E+01  0.51100000000E-03 0. -1.
        -11    1    3    3    0    0 -0.29833254626E+00  0.58074000168E+01  0.20628675652E+01  0.61701150812E+01  0.51100000000E-03 0.  1.
         12    1    3    3    0    0 -0.30196721406E+02  0.17447405157E+02 -0.73646675398E+01  0.35643965244E+02  0.00000000000E+00 0. -1.
</event>
<event>
 7    1  0.2459936E-009  0.4778727E+02  0.7816164E-02  0.1312668E+00
        -11   -1    0    0    0    0  0.00000000000E+00  0.00000000000E+00  0.45593999997E+02  0.45594000000E+02  0.51100000000E-03 0.  1.
         11   -1    0    0    0    0 -0.00000000000E+00 -0.00000000000E+00 -0.45593999997E+02  0.45594000000E+02  0.51100000000E-03 0. -1.
    9900012    2    1    2    0    0 -0.44647365571E+01  0.57203102006E+01  0.42789803250E+02  0.47787273238E+02  0.20000009999E+02 0.  0.
         12    1    1    2    0    0  0.44647365571E+01 -0.57203102006E+01 -0.42789803250E+02  0.43400726762E+02  0.00000000000E+00 0. -1.
         11    1    3    3    0    0  0.28198987227E+01 -0.10153748622E+01  0.35440025117E+01  0.46414188543E+01  0.51100000000E-03 0. -1.
        -11    1    3    3    0    0 -0.10894704959E+01 -0.46582499576E+01  0.80925932049E+01  0.94008671765E+01  0.51100000000E-03 0.  1.
        -12    1    3    3    0    0 -0.61951647839E+01  0.11393935020E+02  0.31153207534E+02  0.33744987207E+02  0.00000000000E+00 0.  1.
</event>
<event>
 7    1  0.2459936E-009  0.4778727E+02  0.7816164E-02  0.1312668E+00
        -11   -1    0    0    0    0  0.00000000000E+00  0.00000000000E+00  0.45593999997E+02  0.45594000000E+02  0.51100000000E-03 0.  1.
         11   -1    0    0    0    0 -0.00000000000E+00 -0.00000000000E+00 -0.45593999997E+02  0.45594000000E+02  0.51100000000E-03 0. -1.
    9900012    2    1    2    0    0  0.36677273041E+02 -0.21996634416E+02  0.73857361736E+01  0.47787269796E+02  0.19999994310E+02 0.  0.
         12    1    1    2    0    0 -0.36677273041E+02  0.21996634416E+02 -0.73857361736E+01  0.43400730204E+02  0.00000000000E+00 0. -1.
         11    1    3    3    0    0  0.80487240380E+01 -0.68194859183E+01 -0.34623496009E+01  0.11102937082E+02  0.51100000000E-03 0. -1.
        -11    1    3    3    0    0  0.21201560317E+02 -0.66658704521E+01  0.19605212827E+01  0.22311065253E+02  0.51100000000E-03 0.  1.
         12    1    3    3    0    0  0.74269886863E+01 -0.85112780454E+01  0.88875644918E+01  0.14373267461E+02  0.00000000000E+00 0. -1.
</event>
<event>
 7    1  0.2459936E-009  0.4778727E+02  0.7816164E-02  0.1312668E+00
        -11   -1    0    0    0    0  0.00000000000E+00  0.00000000000E+00  0.45593999997E+02  0.45594000000E+02  0.51100000000E-03 0.  1.
         11   -1    0    0    0    0 -0.00000000000E+00 -0.00000000000E+00 -0.45593999997E+02  0.45594000000E+02  0.51100000000E-03 0. -1.
    9900012    2    1    2    0    0  0.16656289993E+02 -0.33530209453E+02  0.21952592138E+02  0.47787271390E+02  0.20000001576E+02 0.  0.
         12    1    1    2    0    0 -0.16656289993E+02  0.33530209453E+02 -0.21952592138E+02  0.43400728610E+02  0.00000000000E+00 0. -1.
         11    1    3    3    0    0  0.12009740315E+02 -0.79023770683E+01  0.11449131478E+02  0.18378357860E+02  0.51100000000E-03 0. -1.
        -11    1    3    3    0    0  0.67237542018E+01 -0.19261067508E+02  0.57480038959E+01  0.21195215054E+02  0.51100000000E-03 0.  1.
        -12    1    3    3    0    0 -0.20772045239E+01 -0.63667648766E+01  0.47554567639E+01  0.82136984764E+01  0.00000000000E+00 0.  1.
</event>
<event>
 7    1  0.2459936E-009  0.4778727E+02  0.7816164E-02  0.1312668E+00
        -11   -1    0    0    0    0  0.00000000000E+00  0.00000000000E+00  0.45593999997E+02  0.45594000000E+02  0.51100000000E-03 0. -1.
         11   -1    0    0    0    0 -0.00000000000E+00 -0.00000000000E+00 -0.45593999997E+02  0.45594000000E+02  0.51100000000E-03 0.  1.
    9900012    2    1    2    0    0  0.16903975851E+02  0.84300307759E+01 -0.39074463489E+02  0.47787268262E+02  0.19999987313E+02 0.  0.
         12    1    1    2    0    0 -0.16903975851E+02 -0.84300307759E+01  0.39074463489E+02  0.43400731738E+02  0.00000000000E+00 0. -1.
         11    1    3    3    0    0  0.74463930467E+01  0.17243511654E+01 -0.91562159512E+01  0.11927214560E+02  0.51100000000E-03 0. -1.
        -11    1    3    3    0    0  0.50764022464E+01 -0.47506058875E+01 -0.69996520291E+01  0.98657612405E+01  0.51100000000E-03 0.  1.
        -12    1    3    3    0    0  0.43811805578E+01  0.11456285498E+02 -0.22918595509E+02  0.25994292462E+02  0.00000000000E+00 0.  1.
</event>
<event>
 7    1  0.2459936E-009  0.4778727E+02  0.7816164E-02  0.1312668E+00
        -11   -1    0    0    0    0  0.00000000000E+00  0.00000000000E+00  0.45593999997E+02  0.45594000000E+02  0.51100000000E-03 0. -1.
         11   -1    0    0    0    0 -0.00000000000E+00 -0.00000000000E+00 -0.45593999997E+02  0.45594000000E+02  0.51100000000E-03 0.  1.
    9900012    2    1    2    0    0  0.13664819512E+02  0.94055290325E+01 -0.40105267373E+02  0.47787265677E+02  0.19999975530E+02 0.  0.
         12    1    1    2    0    0 -0.13664819512E+02 -0.94055290325E+01  0.40105267373E+02  0.43400734323E+02  0.00000000000E+00 0. -1.
         11    1    3    3    0    0 -0.97526482035E-01  0.43455468084E+01 -0.27375515660E+02  0.27718444156E+02  0.51100000000E-03 0. -1.
        -11    1    3    3    0    0  0.52226720975E+01  0.32092870794E+00 -0.70206148308E+01  0.87560454508E+01  0.51100000000E-03 0.  1.
         12    1    3    3    0    0  0.85396738970E+01  0.47390535162E+01 -0.57091368816E+01  0.11312776071E+02  0.00000000000E+00 0. -1.
</event>
<event>
 7    1  0.2459936E-009  0.4778727E+02  0.7816164E-02  0.1312668E+00
        -11   -1    0    0    0    0  0.00000000000E+00  0.00000000000E+00  0.45593999997E+02  0.45594000000E+02  0.51100000000E-03 0.  1.
         11   -1    0    0    0    0 -0.00000000000E+00 -0.00000000000E+00 -0.45593999997E+02  0.45594000000E+02  0.51100000000E-03 0. -1.
    9900012    2    1    2    0    0  0.87697142730E+00  0.77503724115E+01  0.42694098487E+02  0.47787269625E+02  0.19999993530E+02 0.  0.
         12    1    1    2    0    0 -0.87697142730E+00 -0.77503724115E+01 -0.42694098487E+02  0.43400730375E+02  0.00000000000E+00 0. -1.
         11    1    3    3    0    0  0.46396653436E+01 -0.54397137734E+00  0.29540042768E+02  0.29907131697E+02  0.51100000000E-03 0. -1.
        -11    1    3    3    0    0 -0.31219503041E+01 -0.55969204428E+00  0.42902009644E+01  0.53353213082E+01  0.51100000000E-03 0.  1.
         12    1    3    3    0    0 -0.64074361214E+00  0.88540358331E+01  0.88638547552E+01  0.12544816620E+02  0.00000000000E+00 0. -1.
</event>
<event>
 7    1  0.2459936E-009  0.4778727E+02  0.7816164E-02  0.1312668E+00
        -11   -1    0    0    0    0  0.00000000000E+00  0.00000000000E+00  0.45593999997E+02  0.45594000000E+02  0.51100000000E-03 0. -1.
         11   -1    0    0    0    0 -0.00000000000E+00 -0.00000000000E+00 -0.45593999997E+02  0.45594000000E+02  0.51100000000E-03 0.  1.
    9900012    2    1    2    0    0 -0.68390214748E+01 -0.91517244695E+01 -0.41870004614E+02  0.47787267726E+02  0.19999984870E+02 0.  0.
         12    1    1    2    0    0  0.68390214748E+01  0.91517244695E+01  0.41870004614E+02  0.43400732274E+02  0.00000000000E+00 0. -1.
         11    1    3    3    0    0  0.29582306267E+01 -0.56388908096E+01 -0.14689935284E+02  0.16010696953E+02  0.51100000000E-03 0. -1.
        -11    1    3    3    0    0 -0.32120516672E+01  0.10581907286E+01 -0.21941210587E+02  0.22200310039E+02  0.51100000000E-03 0.  1.
        -12    1    3    3    0    0 -0.65852004342E+01 -0.45710243885E+01 -0.52388587428E+01  0.95762607340E+01  0.00000000000E+00 0.  1.
</event>
<event>
 7    1  0.2459936E-009  0.4778727E+02  0.7816164E-02  0.1312668E+00
        -11   -1    0    0    0    0  0.00000000000E+00  0.00000000000E+00  0.45593999997E+02  0.45594000000E+02  0.51100000000E-03 0. -1.
         11   -1    0    0    0    0 -0.00000000000E+00 -0.00000000000E+00 -0.45593999997E+02  0.45594000000E+02  0.51100000000E-03 0.  1.
    9900012    2    1    2    0    0 -0.30611176130E+02  0.40732152729E+01 -0.30495705876E+02  0.47787271163E+02  0.20000000540E+02 0.  0.
         12    1    1    2    0    0  0.30611176130E+02 -0.40732152729E+01  0.30495705876E+02  0.43400728837E+02  0.00000000000E+00 0. -1.
         11    1    3    3    0    0 -0.67638945275E+01  0.60028584708E+01 -0.52491835788E+01  0.10456505511E+02  0.51100000000E-03 0.  1.
        -11    1    3    3    0    0 -0.60154745189E+01  0.44946035611E+01 -0.29525814655E+01  0.80687751506E+01  0.51100000000E-03 0. -1.
        -12    1    3    3    0    0 -0.17831807083E+02 -0.64242467589E+01 -0.22293940832E+02  0.29261990501E+02  0.00000000000E+00 0.  1.
</event>
<event>
 7    1  0.2459936E-009  0.4778727E+02  0.7816164E-02  0.1312668E+00
        -11   -1    0    0    0    0  0.00000000000E+00  0.00000000000E+00  0.45593999997E+02  0.45594000000E+02  0.51100000000E-03 0. -1.
         11   -1    0    0    0    0 -0.00000000000E+00 -0.00000000000E+00 -0.45593999997E+02  0.45594000000E+02  0.51100000000E-03 0.  1.
    9900012    2    1    2    0    0 -0.38607076124E+02 -0.19439391013E+02 -0.39021695969E+01  0.47787272156E+02  0.20000005069E+02 0.  0.
         12    1    1    2    0    0  0.38607076124E+02  0.19439391013E+02  0.39021695969E+01  0.43400727844E+02  0.00000000000E+00 0. -1.
         11    1    3    3    0    0 -0.20055366890E+02 -0.92252724248E+01 -0.13957584712E+01  0.22119483140E+02  0.51100000000E-03 0. -1.
        -11    1    3    3    0    0 -0.12655724862E+02 -0.52020179106E+01  0.53019308544E+01  0.14674427865E+02  0.51100000000E-03 0.  1.
         12    1    3    3    0    0 -0.58959843722E+01 -0.50121006772E+01 -0.78083419801E+01  0.10993361151E+02  0.00000000000E+00 0. -1.
</event>
<event>
 7    1  0.2459936E-009  0.4778727E+02  0.7816164E-02  0.1312668E+00
        -11   -1    0    0    0    0  0.00000000000E+00  0.00000000000E+00  0.45593999997E+02  0.45594000000E+02  0.51100000000E-03 0. -1.
         11   -1    0    0    0    0 -0.00000000000E+00 -0.00000000000E+00 -0.45593999997E+02  0.45594000000E+02  0.51100000000E-03 0.  1.
    9900012    2    1    2    0    0 -0.16032018463E+01  0.40875410564E+02 -0.14500136305E+02  0.47787269617E+02  0.19999993492E+02 0.  0.
         12    1    1    2    0    0  0.16032018463E+01 -0.40875410564E+02  0.14500136305E+02  0.43400730383E+02  0.00000000000E+00 0. -1.
         11    1    3    3    0    0 -0.33368321144E+01  0.19202609168E+01 -0.61504535691E+01  0.72560271441E+01  0.51100000000E-03 0. -1.
        -11    1    3    3    0    0 -0.16362638323E+01  0.62315764522E+01 -0.33343250292E+01  0.72544902006E+01  0.51100000000E-03 0.  1.
        -12    1    3    3    0    0  0.33698941004E+01  0.32723573195E+02 -0.50153577071E+01  0.33276752272E+02  0.00000000000E+00 0.  1.
</event>
<event>
 7    1  0.2459936E-009  0.4778726E+02  0.7816164E-02  0.1312668E+00
        -11   -1    0    0    0    0  0.00000000000E+00  0.00000000000E+00  0.45593999997E+02  0.45594000000E+02  0.51100000000E-03 0.  1.
         11   -1    0    0    0    0 -0.00000000000E+00 -0.00000000000E+00 -0.45593999997E+02  0.45594000000E+02  0.51100000000E-03 0. -1.
    9900012    2    1    2    0    0 -0.15976235929E+02  0.12956437931E+02  0.38216677344E+02  0.47787264689E+02  0.19999971023E+02 0.  0.
         12    1    1    2    0    0  0.15976235929E+02 -0.12956437931E+02 -0.38216677344E+02  0.43400735311E+02  0.00000000000E+00 0. -1.
         11    1    3    3    0    0 -0.30116630421E+01  0.65849004638E+01  0.16460919878E+02  0.17983128534E+02  0.51100000000E-03 0. -1.
        -11    1    3    3    0    0 -0.80950331268E+01  0.59009033023E+01  0.22708611301E+02  0.24819976805E+02  0.51100000000E-03 0.  1.
         12    1    3    3    0    0 -0.48695397606E+01  0.47063416458E+00 -0.95285383474E+00  0.49841593501E+01  0.00000000000E+00 0. -1.
</event>
<event>
 7    1  0.2459936E-009  0.4778727E+02  0.7816164E-02  0.1312668E+00
        -11   -1    0    0    0    0  0.00000000000E+00  0.00000000000E+00  0.45593999997E+02  0.45594000000E+02  0.51100000000E-03 0.  1.
         11   -1    0    0    0    0 -0.00000000000E+00 -0.00000000000E+00 -0.45593999997E+02  0.45594000000E+02  0.51100000000E-03 0. -1.
    9900012    2    1    2    0    0  0.32400576196E+02  0.15051394823E+02  0.24643079996E+02  0.47787271716E+02  0.20000003060E+02 0.  0.
         12    1    1    2    0    0 -0.32400576196E+02 -0.15051394823E+02 -0.24643079996E+02  0.43400728284E+02  0.00000000000E+00 0. -1.
         11    1    3    3    0    0  0.34192209725E+01  0.64673973954E+01  0.12341995465E+02  0.14347235045E+02  0.51100000000E-03 0. -1.
        -11    1    3    3    0    0  0.96673223226E+01  0.60723225058E+01  0.64062611483E+01  0.13090851907E+02  0.51100000000E-03 0.  1.
         12    1    3    3    0    0  0.19314032901E+02  0.25116749222E+01  0.58948233829E+01  0.20349184763E+02  0.00000000000E+00 0. -1.
</event>
<event>
 7    1  0.2459936E-009  0.4778726E+02  0.7816164E-02  0.1312668E+00
        -11   -1    0    0    0    0  0.00000000000E+00  0.00000000000E+00  0.45593999997E+02  0.45594000000E+02  0.51100000000E-03 0.  1.
         11   -1    0    0    0    0 -0.00000000000E+00 -0.00000000000E+00 -0.45593999997E+02  0.45594000000E+02  0.51100000000E-03 0. -1.
    9900012    2    1    2    0    0 -0.39982789949E+02  0.86774783861E+01  0.14481084929E+02  0.47787263325E+02  0.19999964803E+02 0.  0.
         12    1    1    2    0    0  0.39982789949E+02 -0.86774783861E+01 -0.14481084929E+02  0.43400736675E+02  0.00000000000E+00 0. -1.
         11    1    3    3    0    0 -0.21715304904E+02  0.93561073231E+01  0.48653175257E+01  0.24140474854E+02  0.51100000000E-03 0. -1.
        -11    1    3    3    0    0 -0.13085423518E+02  0.48909335760E+01  0.67798606714E+01  0.15527911994E+02  0.51100000000E-03 0.  1.
         12    1    3    3    0    0 -0.51820615273E+01 -0.55695625130E+01  0.28359067316E+01  0.81188764770E+01  0.00000000000E+00 0. -1.
</event>
<event>
 7    1  0.2459936E-009  0.4778727E+02  0.7816164E-02  0.1312668E+00
        -11   -1    0    0    0    0  0.00000000000E+00  0.00000000000E+00  0.45593999997E+02  0.45594000000E+02  0.51100000000E-03 0. -1.
         11   -1    0    0    0    0 -0.00000000000E+00 -0.00000000000E+00 -0.45593999997E+02  0.45594000000E+02  0.51100000000E-03 0.  1.
    9900012    2    1    2    0    0 -0.16813188820E+02  0.27731159015E+02 -0.28843075996E+02  0.47787268076E+02  0.19999986467E+02 0.  0.
         12    1    1    2    0    0  0.16813188820E+02 -0.27731159015E+02  0.28843075996E+02  0.43400731924E+02  0.00000000000E+00 0. -1.
         11    1    3    3    0    0 -0.93454765780E+01  0.14821301287E+01 -0.65565418088E+01  0.11511858362E+02  0.51100000000E-03 0. -1.
        -11    1    3    3    0    0 -0.34911214807E+01  0.20839170758E+01 -0.40725535431E+01  0.57546791565E+01  0.51100000000E-03 0.  1.
        -12    1    3    3    0    0 -0.39765907609E+01  0.24165111810E+02 -0.18213980644E+02  0.30520730558E+02  0.00000000000E+00 0.  1.
</event>
<event>
 7    1  0.2459936E-009  0.4778727E+02  0.7816164E-02  0.1312668E+00
        -11   -1    0    0    0    0  0.00000000000E+00  0.00000000000E+00  0.45593999997E+02  0.45594000000E+02  0.51100000000E-03 0. -1.
         11   -1    0    0    0    0 -0.00000000000E+00 -0.00000000000E+00 -0.45593999997E+02  0.45594000000E+02  0.51100000000E-03 0.  1.
    9900012    2    1    2    0    0  0.18046106298E+02 -0.22016657324E+01 -0.39409572131E+02  0.47787266595E+02  0.19999979714E+02 0.  0.
         12    1    1    2    0    0 -0.18046106298E+02  0.22016657324E+01  0.39409572131E+02  0.43400733405E+02  0.00000000000E+00 0. -1.
         11    1    3    3    0    0  0.30512185820E+01  0.17014201454E+01 -0.36228883599E+01  0.50329003244E+01  0.51100000000E-03 0.  1.
        -11    1    3    3    0    0  0.12597584424E+02 -0.51241580778E+01 -0.10132433995E+02  0.16959432427E+02  0.51100000000E-03 0. -1.
        -12    1    3    3    0    0  0.23973032913E+01  0.12210721999E+01 -0.25654249776E+02  0.25794933843E+02  0.00000000000E+00 0.  1.
</event>
<event>
 7    1  0.2459936E-009  0.4778727E+02  0.7816164E-02  0.1312668E+00
        -11   -1    0    0    0    0  0.00000000000E+00  0.00000000000E+00  0.45593999997E+02  0.45594000000E+02  0.51100000000E-03 0. -1.
         11   -1    0    0    0    0 -0.00000000000E+00 -0.00000000000E+00 -0.45593999997E+02  0.45594000000E+02  0.51100000000E-03 0.  1.
    9900012    2    1    2    0    0 -0.40226448001E+02 -0.74576098485E+01 -0.14485863143E+02  0.47787270808E+02  0.19999998921E+02 0.  0.
         12    1    1    2    0    0  0.40226448001E+02  0.74576098485E+01  0.14485863143E+02  0.43400729192E+02  0.00000000000E+00 0. -1.
         11    1    3    3    0    0 -0.15199230941E+02 -0.60059750679E+01 -0.56394276737E+01  0.17288478894E+02  0.51100000000E-03 0. -1.
        -11    1    3    3    0    0 -0.22411747449E+02  0.20486055348E+01 -0.11615339871E+02  0.25325862846E+02  0.51100000000E-03 0.  1.
         12    1    3    3    0    0 -0.26154696111E+01 -0.35002403155E+01  0.27689044014E+01  0.51729290674E+01  0.00000000000E+00 0. -1.
</event>
<event>
 7    1  0.2459936E-009  0.4778727E+02  0.7816164E-02  0.1312668E+00
        -11   -1    0    0    0    0  0.00000000000E+00  0.00000000000E+00  0.45593999997E+02  0.45594000000E+02  0.51100000000E-03 0.  1.
         11   -1    0    0    0    0 -0.00000000000E+00 -0.00000000000E+00 -0.45593999997E+02  0.45594000000E+02  0.51100000000E-03 0. -1.
    9900012    2    1    2    0    0 -0.32400492289E+01 -0.42049683966E+02 -0.10244481076E+02  0.47787271514E+02  0.20000002139E+02 0.  0.
         12    1    1    2    0    0  0.32400492289E+01  0.42049683966E+02  0.10244481076E+02  0.43400728486E+02  0.00000000000E+00 0. -1.
         11    1    3    3    0    0 -0.38571385916E+01 -0.11727505595E+02 -0.15407493295E+01  0.12441294721E+02  0.51100000000E-03 0.  1.
        -11    1    3    3    0    0 -0.55939774452E+01 -0.36547344895E+01 -0.32352364295E+01  0.74240435655E+01  0.51100000000E-03 0. -1.
         12    1    3    3    0    0  0.62110668079E+01 -0.26667443882E+02 -0.54684953166E+01  0.27921933227E+02  0.00000000000E+00 0. -1.
</event>
<event>
 7    1  0.2459936E-009  0.4778728E+02  0.7816164E-02  0.1312668E+00
        -11   -1    0    0    0    0  0.00000000000E+00  0.00000000000E+00  0.45593999997E+02  0.45594000000E+02  0.51100000000E-03 0. -1.
         11   -1    0    0    0    0 -0.00000000000E+00 -0.00000000000E+00 -0.45593999997E+02  0.45594000000E+02  0.51100000000E-03 0.  1.
    9900012    2    1    2    0    0 -0.34239376223E+02 -0.25640306687E+02  0.73390983975E+01  0.47787279079E+02  0.20000036632E+02 0.  0.
         12    1    1    2    0    0  0.34239376223E+02  0.25640306687E+02 -0.73390983975E+01  0.43400720921E+02  0.00000000000E+00 0. -1.
         11    1    3    3    0    0 -0.14468015914E+02 -0.61709939754E+01 -0.20112332629E+01  0.15857165907E+02  0.51100000000E-03 0. -1.
        -11    1    3    3    0    0 -0.18678642325E+02 -0.12785924090E+02  0.33500589296E+01  0.22882185845E+02  0.51100000000E-03 0.  1.
         12    1    3    3    0    0 -0.10927179849E+01 -0.66833886217E+01  0.60002727308E+01  0.90479273266E+01  0.00000000000E+00 0. -1.
</event>
<event>
 7    1  0.2459936E-009  0.4778727E+02  0.7816164E-02  0.1312668E+00
        -11   -1    0    0    0    0  0.00000000000E+00  0.00000000000E+00  0.45593999997E+02  0.45594000000E+02  0.51100000000E-03 0. -1.
         11   -1    0    0    0    0 -0.00000000000E+00 -0.00000000000E+00 -0.45593999997E+02  0.45594000000E+02  0.51100000000E-03 0.  1.
    9900012    2    1    2    0    0  0.35522440336E+02  0.17587462868E+02 -0.17676563659E+02  0.47787268205E+02  0.19999987053E+02 0.  0.
         12    1    1    2    0    0 -0.35522440336E+02 -0.17587462868E+02  0.17676563659E+02  0.43400731795E+02  0.00000000000E+00 0. -1.
         11    1    3    3    0    0  0.53198091971E+00  0.17784221426E-01 -0.48816834400E+00  0.72223858292E+00  0.51100000000E-03 0. -1.
        -11    1    3    3    0    0  0.33096471660E+02  0.20824472328E+02 -0.12501415753E+02  0.41052654971E+02  0.51100000000E-03 0.  1.
        -12    1    3    3    0    0  0.18939877565E+01 -0.32547936811E+01 -0.46869795625E+01  0.60123746513E+01  0.00000000000E+00 0.  1.
</event>
<event>
 7    1  0.2459936E-009  0.4778728E+02  0.7816164E-02  0.1312668E+00
        -11   -1    0    0    0    0  0.00000000000E+00  0.00000000000E+00  0.45593999997E+02  0.45594000000E+02  0.51100000000E-03 0.  1.
         11   -1    0    0    0    0 -0.00000000000E+00 -0.00000000000E+00 -0.45593999997E+02  0.45594000000E+02  0.51100000000E-03 0. -1.
    9900012    2    1    2    0    0  0.22202773471E+02 -0.27947979289E+02  0.24689473057E+02  0.47787276781E+02  0.20000026155E+02 0.  0.
         12    1    1    2    0    0 -0.22202773471E+02  0.27947979289E+02 -0.24689473057E+02  0.43400723219E+02  0.00000000000E+00 0. -1.
         11    1    3    3    0    0 -0.90250316984E+00 -0.35873701499E+01 -0.39092549508E+00  0.37197526219E+01  0.51100000000E-03 0. -1.
        -11    1    3    3    0    0  0.92490680898E+01 -0.13792184625E+02  0.47125864387E+01  0.17262041840E+02  0.51100000000E-03 0.  1.
        -12    1    3    3    0    0  0.13856208551E+02 -0.10568424514E+02  0.20367812113E+02  0.26805482319E+02  0.00000000000E+00 0.  1.
</event>
<event>
 7    1  0.2459936E-009  0.4778727E+02  0.7816164E-02  0.1312668E+00
        -11   -1    0    0    0    0  0.00000000000E+00  0.00000000000E+00  0.45593999997E+02  0.45594000000E+02  0.51100000000E-03 0.  1.
         11   -1    0    0    0    0 -0.00000000000E+00 -0.00000000000E+00 -0.45593999997E+02  0.45594000000E+02  0.51100000000E-03 0. -1.
    9900012    2    1    2    0    0  0.42147257250E+02  0.96530122629E+01 -0.37484930204E+01  0.47787272594E+02  0.20000007067E+02 0.  0.
         12    1    1    2    0    0 -0.42147257250E+02 -0.96530122629E+01  0.37484930204E+01  0.43400727406E+02  0.00000000000E+00 0. -1.
         11    1    3    3    0    0  0.16955818361E+02  0.13249241924E+01 -0.70695731691E+01  0.18418307888E+02  0.51100000000E-03 0. -1.
        -11    1    3    3    0    0  0.20584683471E+02  0.98572516430E+01 -0.10356064453E+01  0.22846598971E+02  0.51100000000E-03 0.  1.
        -12    1    3    3    0    0  0.46067554174E+01 -0.15291635726E+01  0.43566865940E+01  0.65223657354E+01  0.00000000000E+00 0.  1.
</event>
<event>
 7    1  0.2459936E-009  0.4778727E+02  0.7816164E-02  0.1312668E+00
        -11   -1    0    0    0    0  0.00000000000E+00  0.00000000000E+00  0.45593999997E+02  0.45594000000E+02  0.51100000000E-03 0.  1.
         11   -1    0    0    0    0 -0.00000000000E+00 -0.00000000000E+00 -0.45593999997E+02  0.45594000000E+02  0.51100000000E-03 0. -1.
    9900012    2    1    2    0    0  0.30075981214E+02  0.19224984369E+02  0.24687222371E+02  0.47787267076E+02  0.19999981904E+02 0.  0.
         12    1    1    2    0    0 -0.30075981214E+02 -0.19224984369E+02 -0.24687222371E+02  0.43400732924E+02  0.00000000000E+00 0. -1.
         11    1    3    3    0    0  0.13029874178E+02  0.14789086128E+02  0.11078485376E+02  0.22610341176E+02  0.51100000000E-03 0. -1.
        -11    1    3    3    0    0  0.16224160061E+02  0.66595547483E+01  0.83824203268E+01  0.19438055714E+02  0.51100000000E-03 0.  1.
         12    1    3    3    0    0  0.82194697472E+00 -0.22236565073E+01  0.52263166683E+01  0.57388701858E+01  0.00000000000E+00 0. -1.
</event>
<event>
 7    1  0.2459936E-009  0.4778727E+02  0.7816164E-02  0.1312668E+00
        -11   -1    0    0    0    0  0.00000000000E+00  0.00000000000E+00  0.45593999997E+02  0.45594000000E+02  0.51100000000E-03 0. -1.
         11   -1    0    0    0    0 -0.00000000000E+00 -0.00000000000E+00 -0.45593999997E+02  0.45594000000E+02  0.51100000000E-03 0.  1.
    9900012    2    1    2    0    0 -0.20838818929E+01  0.57287038129E+01 -0.42970485360E+02  0.47787271628E+02  0.20000002660E+02 0.  0.
         12    1    1    2    0    0  0.20838818929E+01 -0.57287038129E+01  0.42970485360E+02  0.43400728372E+02  0.00000000000E+00 0. -1.
         11    1    3    3    0    0 -0.32181272495E+01  0.11392329584E+02 -0.36776215793E+02  0.38634590261E+02  0.51100000000E-03 0. -1.
        -11    1    3    3    0    0  0.45974751098E+00 -0.18014777087E+01 -0.45239528721E+01  0.48910979911E+01  0.51100000000E-03 0.  1.
         12    1    3    3    0    0  0.67449784569E+00 -0.38621480628E+01 -0.16703166956E+01  0.42615833755E+01  0.00000000000E+00 0. -1.
</event>
<event>
 7    1  0.2459936E-009  0.4778727E+02  0.7816164E-02  0.1312668E+00
        -11   -1    0    0    0    0  0.00000000000E+00  0.00000000000E+00  0.45593999997E+02  0.45594000000E+02  0.51100000000E-03 0. -1.
         11   -1    0    0    0    0 -0.00000000000E+00 -0.00000000000E+00 -0.45593999997E+02  0.45594000000E+02  0.51100000000E-03 0.  1.
    9900012    2    1    2    0    0  0.35707225975E+02  0.21438967518E+01 -0.24576837391E+02  0.47787271708E+02  0.20000003026E+02 0.  0.
         12    1    1    2    0    0 -0.35707225975E+02 -0.21438967518E+01  0.24576837391E+02  0.43400728292E+02  0.00000000000E+00 0. -1.
         11    1    3    3    0    0  0.28116279371E+00 -0.22709883721E+01 -0.48796502295E+01  0.53895665249E+01  0.51100000000E-03 0. -1.
        -11    1    3    3    0    0  0.17126493485E+02 -0.21967418769E+01 -0.13686204588E+02  0.22033035430E+02  0.51100000000E-03 0.  1.
         12    1    3    3    0    0  0.18299569696E+02  0.66116270009E+01 -0.60109825736E+01  0.20364669753E+02  0.00000000000E+00 0. -1.
</event>
<event>
 7    1  0.2459936E-009  0.4778728E+02  0.7816164E-02  0.1312668E+00
        -11   -1    0    0    0    0  0.00000000000E+00  0.00000000000E+00  0.45593999997E+02  0.45594000000E+02  0.51100000000E-03 0.  1.
         11   -1    0    0    0    0 -0.00000000000E+00 -0.00000000000E+00 -0.45593999997E+02  0.45594000000E+02  0.51100000000E-03 0. -1.
    9900012    2    1    2    0    0 -0.12284451154E+02 -0.24273726357E+02  0.33815685838E+02  0.47787284106E+02  0.20000059553E+02 0.  0.
         12    1    1    2    0    0  0.12284451154E+02  0.24273726357E+02 -0.33815685838E+02  0.43400715894E+02  0.00000000000E+00 0. -1.
         11    1    3    3    0    0  0.65357849319E+00 -0.52557992767E+01  0.20202186432E+01  0.56684984353E+01  0.51100000000E-03 0. -1.
        -11    1    3    3    0    0 -0.76732676377E+01 -0.20481417565E+02  0.27678924640E+02  0.35277335092E+02  0.51100000000E-03 0.  1.
         12    1    3    3    0    0 -0.52647620090E+01  0.14634904848E+01  0.41165425552E+01  0.68414505786E+01  0.00000000000E+00 0. -1.
</event>
<event>
 7    1  0.2459936E-009  0.4778727E+02  0.7816164E-02  0.1312668E+00
        -11   -1    0    0    0    0  0.00000000000E+00  0.00000000000E+00  0.45593999997E+02  0.45594000000E+02  0.51100000000E-03 0.  1.
         11   -1    0    0    0    0 -0.00000000000E+00 -0.00000000000E+00 -0.45593999997E+02  0.45594000000E+02  0.51100000000E-03 0. -1.
    9900012    2    1    2    0    0 -0.32186232416E+02 -0.19839205704E+02 -0.21309043784E+02  0.47787274349E+02  0.20000015065E+02 0.  0.
         12    1    1    2    0    0  0.32186232416E+02  0.19839205704E+02  0.21309043784E+02  0.43400725651E+02  0.00000000000E+00 0. -1.
         11    1    3    3    0    0 -0.95351750524E+01 -0.80561222316E+01 -0.71433519454E+01  0.14382216309E+02  0.51100000000E-03 0. -1.
        -11    1    3    3    0    0 -0.16398718565E+02 -0.43434965490E+01 -0.16221832705E+02  0.23471936209E+02  0.51100000000E-03 0.  1.
         12    1    3    3    0    0 -0.62523387978E+01 -0.74395869231E+01  0.20561408658E+01  0.99331218300E+01  0.00000000000E+00 0. -1.
</event>
<event>
 7    1  0.2459936E-009  0.4778725E+02  0.7816164E-02  0.1312668E+00
        -11   -1    0    0    0    0  0.00000000000E+00  0.00000000000E+00  0.45593999997E+02  0.45594000000E+02  0.51100000000E-03 0. -1.
         11   -1    0    0    0    0 -0.00000000000E+00 -0.00000000000E+00 -0.45593999997E+02  0.45594000000E+02  0.51100000000E-03 0.  1.
    9900012    2    1    2    0    0 -0.10911937364E+01 -0.40199200421E+02 -0.16323554830E+02  0.47787252765E+02  0.19999916655E+02 0.  0.
         12    1    1    2    0    0  0.10911937364E+01  0.40199200421E+02  0.16323554830E+02  0.43400747235E+02  0.00000000000E+00 0. -1.
         11    1    3    3    0    0  0.54859950287E+00  0.23689763676E+00  0.12213329815E+00  0.60991696852E+00  0.51100000000E-03 0. -1.
        -11    1    3    3    0    0 -0.38156683469E+01 -0.37668536503E+02 -0.89628629554E+01  0.38907722624E+02  0.51100000000E-03 0.  1.
        -12    1    3    3    0    0  0.21758751076E+01 -0.27675615556E+01 -0.74828251728E+01  0.82696131720E+01  0.00000000000E+00 0.  1.
</event>
<event>
 7    1  0.2459936E-009  0.4778727E+02  0.7816164E-02  0.1312668E+00
        -11   -1    0    0    0    0  0.00000000000E+00  0.00000000000E+00  0.45593999997E+02  0.45594000000E+02  0.51100000000E-03 0.  1.
         11   -1    0    0    0    0 -0.00000000000E+00 -0.00000000000E+00 -0.45593999997E+02  0.45594000000E+02  0.51100000000E-03 0. -1.
    9900012    2    1    2    0    0 -0.71054557073E+01 -0.34739917976E+02  0.25025467776E+02  0.47787269140E+02  0.19999991316E+02 0.  0.
         12    1    1    2    0    0  0.71054557073E+01  0.34739917976E+02 -0.25025467776E+02  0.43400730860E+02  0.00000000000E+00 0. -1.
         11    1    3    3    0    0 -0.60685160268E+01 -0.51036629949E+01  0.55525373298E+01  0.96801308769E+01  0.51100000000E-03 0. -1.
        -11    1    3    3    0    0 -0.40291300900E+01 -0.19990410843E+02  0.59759956206E+01  0.21250010326E+02  0.51100000000E-03 0.  1.
         12    1    3    3    0    0  0.29921904096E+01 -0.96458441385E+01  0.13496934826E+02  0.16857127937E+02  0.00000000000E+00 0. -1.
</event>
<event>
 7    1  0.2459936E-009  0.4778727E+02  0.7816164E-02  0.1312668E+00
        -11   -1    0    0    0    0  0.00000000000E+00  0.00000000000E+00  0.45593999997E+02  0.45594000000E+02  0.51100000000E-03 0.  1.
         11   -1    0    0    0    0 -0.00000000000E+00 -0.00000000000E+00 -0.45593999997E+02  0.45594000000E+02  0.51100000000E-03 0. -1.
    9900012    2    1    2    0    0  0.34677741866E+01  0.11840616909E+02  0.41610062734E+02  0.47787274346E+02  0.20000015054E+02 0.  0.
         12    1    1    2    0    0 -0.34677741866E+01 -0.11840616909E+02 -0.41610062734E+02  0.43400725654E+02  0.00000000000E+00 0. -1.
         11    1    3    3    0    0  0.64725441123E+00 -0.35808194769E+01  0.71246993379E+01  0.80001592056E+01  0.51100000000E-03 0. -1.
        -11    1    3    3    0    0  0.23555349217E+01 -0.92167723256E+00  0.10214332969E+02  0.10522862346E+02  0.51100000000E-03 0.  1.
        -12    1    3    3    0    0  0.46498485367E+00  0.16343113618E+02  0.24271030426E+02  0.29264252794E+02  0.00000000000E+00 0.  1.
</event>
<event>
 7    1  0.2459936E-009  0.4778725E+02  0.7816164E-02  0.1312668E+00
        -11   -1    0    0    0    0  0.00000000000E+00  0.00000000000E+00  0.45593999997E+02  0.45594000000E+02  0.51100000000E-03 0.  1.
         11   -1    0    0    0    0 -0.00000000000E+00 -0.00000000000E+00 -0.45593999997E+02  0.45594000000E+02  0.51100000000E-03 0. -1.
    9900012    2    1    2    0    0 -0.25320382995E+02 -0.29193017547E+02 -0.19755275472E+02  0.47787251418E+02  0.19999910514E+02 0.  0.
         12    1    1    2    0    0  0.25320382995E+02  0.29193017547E+02  0.19755275472E+02  0.43400748582E+02  0.00000000000E+00 0. -1.
         11    1    3    3    0    0 -0.96746146965E+01 -0.39873264328E+01 -0.23567568489E+01  0.10726194326E+02  0.51100000000E-03 0.  1.
        -11    1    3    3    0    0 -0.16630347756E+02 -0.14959107594E+02 -0.12955639743E+02  0.25849409430E+02  0.51100000000E-03 0. -1.
        -12    1    3    3    0    0  0.98457945703E+00 -0.10246583520E+02 -0.44428788800E+01  0.11211647662E+02  0.00000000000E+00 0.  1.
</event>
<event>
 7    1  0.2459936E-009  0.4778727E+02  0.7816164E-02  0.1312668E+00
        -11   -1    0    0    0    0  0.00000000000E+00  0.00000000000E+00  0.45593999997E+02  0.45594000000E+02  0.51100000000E-03 0. -1.
         11   -1    0    0    0    0 -0.00000000000E+00 -0.00000000000E+00 -0.45593999997E+02  0.45594000000E+02  0.51100000000E-03 0.  1.
    9900012    2    1    2    0    0  0.16342102816E+02  0.14566528239E+02 -0.37474995806E+02  0.47787269821E+02  0.19999994424E+02 0.  0.
         12    1    1    2    0    0 -0.16342102816E+02 -0.14566528239E+02  0.37474995806E+02  0.43400730179E+02  0.00000000000E+00 0. -1.
         11    1    3    3    0    0  0.42608474606E+01  0.28815995790E+01 -0.36589978499E+01  0.63124244742E+01  0.51100000000E-03 0. -1.
        -11    1    3    3    0    0  0.34534237048E+01 -0.42924228377E+01 -0.51481472042E+01  0.75401889233E+01  0.51100000000E-03 0.  1.
        -12    1    3    3    0    0  0.86278316508E+01  0.15977351498E+02 -0.28667850752E+02  0.33934656424E+02  0.00000000000E+00 0.  1.
</event>
<event>
 7    1  0.2459936E-009  0.4778727E+02  0.7816164E-02  0.1312668E+00
        -11   -1    0    0    0    0  0.00000000000E+00  0.00000000000E+00  0.45593999997E+02  0.45594000000E+02  0.51100000000E-03 0. -1.
         11   -1    0    0    0    0 -0.00000000000E+00 -0.00000000000E+00 -0.45593999997E+02  0.45594000000E+02  0.51100000000E-03 0.  1.
    9900012    2    1    2    0    0  0.42686122851E+02  0.72114100650E+00  0.78101240186E+01  0.47787272292E+02  0.20000005688E+02 0.  0.
         12    1    1    2    0    0 -0.42686122851E+02 -0.72114100650E+00 -0.78101240186E+01  0.43400727708E+02  0.00000000000E+00 0. -1.
         11    1    3    3    0    0  0.60917819243E+01 -0.19643410550E+01 -0.19229013127E+01  0.66832621161E+01  0.51100000000E-03 0. -1.
        -11    1    3    3    0    0  0.27365313408E+02 -0.29559790528E+01  0.12042292078E+02  0.30043551535E+02  0.51100000000E-03 0.  1.
        -12    1    3    3    0    0  0.92290275183E+01  0.56414611143E+01 -0.23092667467E+01  0.11060458641E+02  0.00000000000E+00 0.  1.
</event>
<event>
 7    1  0.2459936E-009  0.4778727E+02  0.7816164E-02  0.1312668E+00
        -11   -1    0    0    0    0  0.00000000000E+00  0.00000000000E+00  0.45593999997E+02  0.45594000000E+02  0.51100000000E-03 0. -1.
         11   -1    0    0    0    0 -0.00000000000E+00 -0.00000000000E+00 -0.45593999997E+02  0.45594000000E+02  0.51100000000E-03 0.  1.
    9900012    2    1    2    0    0  0.13385871562E+02  0.15648010233E+02 -0.38204467152E+02  0.47787273138E+02  0.20000009548E+02 0.  0.
         12    1    1    2    0    0 -0.13385871562E+02 -0.15648010233E+02  0.38204467152E+02  0.43400726862E+02  0.00000000000E+00 0. -1.
         11    1    3    3    0    0  0.82359640857E+01 -0.42318597716E+00 -0.10780616337E+02  0.13573204473E+02  0.51100000000E-03 0. -1.
        -11    1    3    3    0    0  0.40470721643E+01 -0.18138858035E+00 -0.40916881144E+01  0.57579168809E+01  0.51100000000E-03 0.  1.
        -12    1    3    3    0    0  0.11028353117E+01  0.16252584791E+02 -0.23332162701E+02  0.28456151785E+02  0.00000000000E+00 0.  1.
</event>
<event>
 7    1  0.2459936E-009  0.4778728E+02  0.7816164E-02  0.1312668E+00
        -11   -1    0    0    0    0  0.00000000000E+00  0.00000000000E+00  0.45593999997E+02  0.45594000000E+02  0.51100000000E-03 0.  1.
         11   -1    0    0    0    0 -0.00000000000E+00 -0.00000000000E+00 -0.45593999997E+02  0.45594000000E+02  0.51100000000E-03 0. -1.
    9900012    2    1    2    0    0  0.50808503413E+01  0.86613442446E+01  0.42223076513E+02  0.47787284401E+02  0.20000060896E+02 0.  0.
         12    1    1    2    0    0 -0.50808503413E+01 -0.86613442446E+01 -0.42223076513E+02  0.43400715599E+02  0.00000000000E+00 0. -1.
         11    1    3    3    0    0  0.18231072281E+01  0.41853151477E+00 -0.83727492325E-01  0.18724046433E+01  0.51100000000E-03 0. -1.
        -11    1    3    3    0    0 -0.33131756655E+01  0.56367843794E+01  0.58320436096E+01  0.87614612968E+01  0.51100000000E-03 0.  1.
        -12    1    3    3    0    0  0.65709187786E+01  0.26060283505E+01  0.36474760396E+02  0.37153418460E+02  0.00000000000E+00 0.  1.
</event>
<event>
 7    1  0.2459936E-009  0.4778726E+02  0.7816164E-02  0.1312668E+00
        -11   -1    0    0    0    0  0.00000000000E+00  0.00000000000E+00  0.45593999997E+02  0.45594000000E+02  0.51100000000E-03 0. -1.
         11   -1    0    0    0    0 -0.00000000000E+00 -0.00000000000E+00 -0.45593999997E+02  0.45594000000E+02  0.51100000000E-03 0.  1.
    9900012    2    1    2    0    0 -0.31738362807E+02 -0.25685361573E+02 -0.14716062647E+02  0.47787262994E+02  0.19999963296E+02 0.  0.
         12    1    1    2    0    0  0.31738362807E+02  0.25685361573E+02  0.14716062647E+02  0.43400737006E+02  0.00000000000E+00 0. -1.
         11    1    3    3    0    0 -0.86811366471E+01 -0.22841091915E+01 -0.27324848899E+01  0.93832703371E+01  0.51100000000E-03 0. -1.
        -11    1    3    3    0    0 -0.23708227541E+02 -0.14989409767E+02 -0.91644220682E+01  0.29508457947E+02  0.51100000000E-03 0.  1.
         12    1    3    3    0    0  0.65100138167E+00 -0.84118426148E+01 -0.28191556892E+01  0.88955347099E+01  0.00000000000E+00 0. -1.
</event>
<event>
 7    1  0.2459936E-009  0.4778727E+02  0.7816164E-02  0.1312668E+00
        -11   -1    0    0    0    0  0.00000000000E+00  0.00000000000E+00  0.45593999997E+02  0.45594000000E+02  0.51100000000E-03 0.  1.
         11   -1    0    0    0    0 -0.00000000000E+00 -0.00000000000E+00 -0.45593999997E+02  0.45594000000E+02  0.51100000000E-03 0. -1.
    9900012    2    1    2    0    0 -0.27299996485E+02 -0.46328571819E+01  0.33419605933E+02  0.47787271499E+02  0.20000002072E+02 0.  0.
         12    1    1    2    0    0  0.27299996485E+02  0.46328571819E+01 -0.33419605933E+02  0.43400728501E+02  0.00000000000E+00 0. -1.
         11    1    3    3    0    0 -0.74859741181E+00 -0.47294374813E+01  0.86744342956E+01  0.99082686471E+01  0.51100000000E-03 0. -1.
        -11    1    3    3    0    0 -0.68622100693E+01 -0.10340354820E+01  0.13493465849E+02  0.15173423388E+02  0.51100000000E-03 0.  1.
        -12    1    3    3    0    0 -0.19689189004E+02  0.11306157814E+01  0.11251705788E+02  0.22705579464E+02  0.00000000000E+00 0.  1.
</event>
<event>
 7    1  0.2459936E-009  0.4778727E+02  0.7816164E-02  0.1312668E+00
        -11   -1    0    0    0    0  0.00000000000E+00  0.00000000000E+00  0.45593999997E+02  0.45594000000E+02  0.51100000000E-03 0. -1.
         11   -1    0    0    0    0 -0.00000000000E+00 -0.00000000000E+00 -0.45593999997E+02  0.45594000000E+02  0.51100000000E-03 0.  1.
    9900012    2    1    2    0    0  0.26264160384E+01 -0.15075954207E+01 -0.43294945980E+02  0.47787271290E+02  0.20000001120E+02 0.  0.
         12    1    1    2    0    0 -0.26264160384E+01  0.15075954207E+01  0.43294945980E+02  0.43400728710E+02  0.00000000000E+00 0. -1.
         11    1    3    3    0    0  0.33330322303E+01 -0.54844521720E+01 -0.97510764247E+01  0.11673551781E+02  0.51100000000E-03 0. -1.
        -11    1    3    3    0    0  0.43779876433E+01  0.50034266186E+01 -0.10022134885E+02  0.12026813446E+02  0.51100000000E-03 0.  1.
         12    1    3    3    0    0 -0.50846038353E+01 -0.10265698673E+01 -0.23521734670E+02  0.24086906064E+02  0.00000000000E+00 0. -1.
</event>
<event>
 7    1  0.2459936E-009  0.4778727E+02  0.7816164E-02  0.1312668E+00
        -11   -1    0    0    0    0  0.00000000000E+00  0.00000000000E+00  0.45593999997E+02  0.45594000000E+02  0.51100000000E-03 0.  1.
         11   -1    0    0    0    0 -0.00000000000E+00 -0.00000000000E+00 -0.45593999997E+02  0.45594000000E+02  0.51100000000E-03 0. -1.
    9900012    2    1    2    0    0  0.19915830932E+02 -0.25916952128E+02  0.28553362446E+02  0.47787271478E+02  0.20000001976E+02 0.  0.
         12    1    1    2    0    0 -0.19915830932E+02  0.25916952128E+02 -0.28553362446E+02  0.43400728522E+02  0.00000000000E+00 0. -1.
         11    1    3    3    0    0  0.27300383285E+01 -0.31903577522E+01 -0.42405841672E+00  0.42203456806E+01  0.51100000000E-03 0. -1.
        -11    1    3    3    0    0  0.80903603438E+00 -0.90745728207E+01  0.22629254393E+01  0.93873980947E+01  0.51100000000E-03 0.  1.
        -12    1    3    3    0    0  0.16376756569E+02 -0.13652021555E+02  0.26714495423E+02  0.34179527703E+02  0.00000000000E+00 0.  1.
</event>
<event>
 7    1  0.2459936E-009  0.4778727E+02  0.7816164E-02  0.1312668E+00
        -11   -1    0    0    0    0  0.00000000000E+00  0.00000000000E+00  0.45593999997E+02  0.45594000000E+02  0.51100000000E-03 0.  1.
         11   -1    0    0    0    0 -0.00000000000E+00 -0.00000000000E+00 -0.45593999997E+02  0.45594000000E+02  0.51100000000E-03 0. -1.
    9900012    2    1    2    0    0 -0.20963044031E+02 -0.35404132497E+02  0.13810194474E+02  0.47787270924E+02  0.19999999451E+02 0.  0.
         12    1    1    2    0    0  0.20963044031E+02  0.35404132497E+02 -0.13810194474E+02  0.43400729076E+02  0.00000000000E+00 0. -1.
         11    1    3    3    0    0 -0.14329839039E+02 -0.10018021558E+02  0.74668220773E+01  0.19012061304E+02  0.51100000000E-03 0. -1.
        -11    1    3    3    0    0 -0.72400156549E+01 -0.17080400039E+02  0.81351044860E+01  0.20256796820E+02  0.51100000000E-03 0.  1.
         12    1    3    3    0    0  0.60681066343E+00 -0.83057109006E+01 -0.17917320892E+01  0.85184127996E+01  0.00000000000E+00 0. -1.
</event>
<event>
 7    1  0.2459936E-009  0.4778727E+02  0.7816164E-02  0.1312668E+00
        -11   -1    0    0    0    0  0.00000000000E+00  0.00000000000E+00  0.45593999997E+02  0.45594000000E+02  0.51100000000E-03 0.  1.
         11   -1    0    0    0    0 -0.00000000000E+00 -0.00000000000E+00 -0.45593999997E+02  0.45594000000E+02  0.51100000000E-03 0. -1.
    9900012    2    1    2    0    0 -0.16500451513E+02 -0.39362564475E+02  0.78706370990E+01  0.47787270622E+02  0.19999998074E+02 0.  0.
         12    1    1    2    0    0  0.16500451513E+02  0.39362564475E+02 -0.78706370990E+01  0.43400729378E+02  0.00000000000E+00 0. -1.
         11    1    3    3    0    0 -0.12505578845E+01  0.74608009785E+00 -0.14160832382E+01  0.20312120848E+01  0.51100000000E-03 0. -1.
        -11    1    3    3    0    0 -0.10667848495E+02 -0.12422171257E+02  0.62609465024E+01  0.17530338890E+02  0.51100000000E-03 0.  1.
        -12    1    3    3    0    0 -0.45820451345E+01 -0.27686473316E+02  0.30257738347E+01  0.28225719647E+02  0.00000000000E+00 0.  1.
</event>
<event>
 7    1  0.2459936E-009  0.4778727E+02  0.7816164E-02  0.1312668E+00
        -11   -1    0    0    0    0  0.00000000000E+00  0.00000000000E+00  0.45593999997E+02  0.45594000000E+02  0.51100000000E-03 0.  1.
         11   -1    0    0    0    0 -0.00000000000E+00 -0.00000000000E+00 -0.45593999997E+02  0.45594000000E+02  0.51100000000E-03 0. -1.
    9900012    2    1    2    0    0  0.32301441758E+02 -0.23874911921E+02  0.16438637772E+02  0.47787269929E+02  0.19999994916E+02 0.  0.
         12    1    1    2    0    0 -0.32301441758E+02  0.23874911921E+02 -0.16438637772E+02  0.43400730071E+02  0.00000000000E+00 0. -1.
         11    1    3    3    0    0  0.80708453832E+01 -0.61724564618E+00 -0.18701371814E+01  0.83076441140E+01  0.51100000000E-03 0. -1.
        -11    1    3    3    0    0  0.42828862153E+01 -0.22186401732E+01 -0.60825079317E+00  0.48616301628E+01  0.51100000000E-03 0.  1.
        -12    1    3    3    0    0  0.19947710159E+02 -0.21039026102E+02  0.18917025746E+02  0.34617995653E+02  0.00000000000E+00 0.  1.
</event>
<event>
 7    1  0.2459936E-009  0.4778727E+02  0.7816164E-02  0.1312668E+00
        -11   -1    0    0    0    0  0.00000000000E+00  0.00000000000E+00  0.45593999997E+02  0.45594000000E+02  0.51100000000E-03 0.  1.
         11   -1    0    0    0    0 -0.00000000000E+00 -0.00000000000E+00 -0.45593999997E+02  0.45594000000E+02  0.51100000000E-03 0. -1.
    9900012    2    1    2    0    0 -0.49171202983E+01 -0.39113653797E+02  0.18153990279E+02  0.47787270185E+02  0.19999996081E+02 0.  0.
         12    1    1    2    0    0  0.49171202983E+01  0.39113653797E+02 -0.18153990279E+02  0.43400729815E+02  0.00000000000E+00 0. -1.
         11    1    3    3    0    0  0.14906268901E+01 -0.73644460550E+01  0.91123400360E+01  0.11810663631E+02  0.51100000000E-03 0. -1.
        -11    1    3    3    0    0  0.22197088293E+01 -0.53706380391E+00 -0.22346438512E+00  0.22946636810E+01  0.51100000000E-03 0.  1.
        -12    1    3    3    0    0 -0.86274560178E+01 -0.31212143939E+02  0.92651146284E+01  0.33681942872E+02  0.00000000000E+00 0.  1.
</event>
<event>
 7    1  0.2459936E-009  0.4778727E+02  0.7816164E-02  0.1312668E+00
        -11   -1    0    0    0    0  0.00000000000E+00  0.00000000000E+00  0.45593999997E+02  0.45594000000E+02  0.51100000000E-03 0.  1.
         11   -1    0    0    0    0 -0.00000000000E+00 -0.00000000000E+00 -0.45593999997E+02  0.45594000000E+02  0.51100000000E-03 0. -1.
    9900012    2    1    2    0    0 -0.33371136487E+02  0.27627704674E+02 -0.25884928744E+01  0.47787272917E+02  0.20000008537E+02 0.  0.
         12    1    1    2    0    0  0.33371136487E+02 -0.27627704674E+02  0.25884928744E+01  0.43400727083E+02  0.00000000000E+00 0. -1.
         11    1    3    3    0    0 -0.19825758609E+02  0.99052141378E+01 -0.33713132765E+01  0.22417397819E+02  0.51100000000E-03 0.  1.
        -11    1    3    3    0    0 -0.10251287716E+02  0.43603342323E+01 -0.20290264262E+01  0.11323354757E+02  0.51100000000E-03 0. -1.
        -12    1    3    3    0    0 -0.32940901622E+01  0.13362156304E+02  0.28118468283E+01  0.14046520340E+02  0.00000000000E+00 0.  1.
</event>
<event>
 7    1  0.2459936E-009  0.4778727E+02  0.7816164E-02  0.1312668E+00
        -11   -1    0    0    0    0  0.00000000000E+00  0.00000000000E+00  0.45593999997E+02  0.45594000000E+02  0.51100000000E-03 0.  1.
         11   -1    0    0    0    0 -0.00000000000E+00 -0.00000000000E+00 -0.45593999997E+02  0.45594000000E+02  0.51100000000E-03 0. -1.
    9900012    2    1    2    0    0  0.24764748462E+02  0.13331323957E+02  0.33054592738E+02  0.47787273440E+02  0.20000010922E+02 0.  0.
         12    1    1    2    0    0 -0.24764748462E+02 -0.13331323957E+02 -0.33054592738E+02  0.43400726560E+02  0.00000000000E+00 0. -1.
         11    1    3    3    0    0  0.73593245602E+01  0.25427264745E+01  0.19823409615E+01  0.80345996698E+01  0.51100000000E-03 0. -1.
        -11    1    3    3    0    0  0.55568376967E+01  0.11346810328E+02  0.12939422903E+02  0.18084723253E+02  0.51100000000E-03 0.  1.
        -12    1    3    3    0    0  0.11848586205E+02 -0.55821284518E+00  0.18132828874E+02  0.21667950517E+02  0.00000000000E+00 0.  1.
</event>
<event>
 7    1  0.2459936E-009  0.4778728E+02  0.7816164E-02  0.1312668E+00
        -11   -1    0    0    0    0  0.00000000000E+00  0.00000000000E+00  0.45593999997E+02  0.45594000000E+02  0.51100000000E-03 0.  1.
         11   -1    0    0    0    0 -0.00000000000E+00 -0.00000000000E+00 -0.45593999997E+02  0.45594000000E+02  0.51100000000E-03 0. -1.
    9900012    2    1    2    0    0  0.16015800056E+02  0.35175754232E+02  0.19742930005E+02  0.47787276245E+02  0.20000023713E+02 0.  0.
         12    1    1    2    0    0 -0.16015800056E+02 -0.35175754232E+02 -0.19742930005E+02  0.43400723755E+02  0.00000000000E+00 0. -1.
         11    1    3    3    0    0 -0.22898400587E+01  0.11303286408E+02  0.30435494841E+01  0.11927734271E+02  0.51100000000E-03 0.  1.
        -11    1    3    3    0    0  0.16311208293E+02  0.21513159437E+02  0.18062640209E+02  0.32482772611E+02  0.51100000000E-03 0. -1.
         12    1    3    3    0    0  0.19944318222E+01  0.23593083870E+01 -0.13632596875E+01  0.33767693634E+01  0.00000000000E+00 0. -1.
</event>
<event>
 7    1  0.2459936E-009  0.4778728E+02  0.7816164E-02  0.1312668E+00
        -11   -1    0    0    0    0  0.00000000000E+00  0.00000000000E+00  0.45593999997E+02  0.45594000000E+02  0.51100000000E-03 0. -1.
         11   -1    0    0    0    0 -0.00000000000E+00 -0.00000000000E+00 -0.45593999997E+02  0.45594000000E+02  0.51100000000E-03 0.  1.
    9900012    2    1    2    0    0  0.35086486056E+02  0.21222326319E+02  0.14218790263E+02  0.47787278408E+02  0.20000033575E+02 0.  0.
         12    1    1    2    0    0 -0.35086486056E+02 -0.21222326319E+02 -0.14218790263E+02  0.43400721592E+02  0.00000000000E+00 0. -1.
         11    1    3    3    0    0  0.15053926136E+02  0.10933543726E+02  0.11635132916E+02  0.21944005760E+02  0.51100000000E-03 0. -1.
        -11    1    3    3    0    0  0.20308061495E+02  0.93372283369E+01  0.52832389802E+01  0.22967668778E+02  0.51100000000E-03 0.  1.
        -12    1    3    3    0    0 -0.27550157595E+00  0.95155425591E+00 -0.26995816341E+01  0.28756038704E+01  0.00000000000E+00 0.  1.
</event>
<event>
 7    1  0.2459936E-009  0.4778727E+02  0.7816164E-02  0.1312668E+00
        -11   -1    0    0    0    0  0.00000000000E+00  0.00000000000E+00  0.45593999997E+02  0.45594000000E+02  0.51100000000E-03 0.  1.
         11   -1    0    0    0    0 -0.00000000000E+00 -0.00000000000E+00 -0.45593999997E+02  0.45594000000E+02  0.51100000000E-03 0. -1.
    9900012    2    1    2    0    0 -0.25698650363E+01 -0.11741380532E+02  0.41703223351E+02  0.47787273498E+02  0.20000011185E+02 0.  0.
         12    1    1    2    0    0  0.25698650363E+01  0.11741380532E+02 -0.41703223351E+02  0.43400726502E+02  0.00000000000E+00 0. -1.
         11    1    3    3    0    0 -0.57942101826E+01 -0.87452038577E+01  0.10891147855E+02  0.15121791032E+02  0.51100000000E-03 0.  1.
        -11    1    3    3    0    0 -0.34019879673E+01 -0.18811349858E+01  0.81761315080E+01  0.90532490114E+01  0.51100000000E-03 0. -1.
        -12    1    3    3    0    0  0.66263331135E+01 -0.11150416887E+01  0.22635943987E+02  0.23612233454E+02  0.00000000000E+00 0.  1.
</event>
<event>
 7    1  0.2459936E-009  0.4778727E+02  0.7816164E-02  0.1312668E+00
        -11   -1    0    0    0    0  0.00000000000E+00  0.00000000000E+00  0.45593999997E+02  0.45594000000E+02  0.51100000000E-03 0.  1.
         11   -1    0    0    0    0 -0.00000000000E+00 -0.00000000000E+00 -0.45593999997E+02  0.45594000000E+02  0.51100000000E-03 0. -1.
    9900012    2    1    2    0    0  0.56856788393E+01  0.40740623642E+02  0.13838292830E+02  0.47787266054E+02  0.19999977247E+02 0.  0.
         12    1    1    2    0    0 -0.56856788393E+01 -0.40740623642E+02 -0.13838292830E+02  0.43400733946E+02  0.00000000000E+00 0. -1.
         11    1    3    3    0    0  0.20108176490E+01  0.32938603202E-01  0.80834200480E+00  0.21674615629E+01  0.51100000000E-03 0. -1.
        -11    1    3    3    0    0 -0.57306949882E+01  0.14120812041E+02  0.70507080590E+01  0.16791387142E+02  0.51100000000E-03 0.  1.
         12    1    3    3    0    0  0.94055561785E+01  0.26586872998E+02  0.59792427657E+01  0.28828417349E+02  0.00000000000E+00 0. -1.
</event>
<event>
 7    1  0.2459936E-009  0.4778727E+02  0.7816164E-02  0.1312668E+00
        -11   -1    0    0    0    0  0.00000000000E+00  0.00000000000E+00  0.45593999997E+02  0.45594000000E+02  0.51100000000E-03 0.  1.
         11   -1    0    0    0    0 -0.00000000000E+00 -0.00000000000E+00 -0.45593999997E+02  0.45594000000E+02  0.51100000000E-03 0. -1.
    9900012    2    1    2    0    0 -0.83806949859E-01  0.30373836305E+02  0.31000749132E+02  0.47787269566E+02  0.19999993258E+02 0.  0.
         12    1    1    2    0    0  0.83806949859E-01 -0.30373836305E+02 -0.31000749132E+02  0.43400730434E+02  0.00000000000E+00 0. -1.
         11    1    3    3    0    0  0.38088618176E+01  0.13575697698E+02  0.18298663548E+02  0.23100824320E+02  0.51100000000E-03 0. -1.
        -11    1    3    3    0    0  0.20251060088E+01  0.14311975511E+02  0.10626673043E+02  0.17940453662E+02  0.51100000000E-03 0.  1.
        -12    1    3    3    0    0 -0.59177747762E+01  0.24861630960E+01  0.20754125407E+01  0.67459915844E+01  0.00000000000E+00 0.  1.
</event>
<event>
 7    1  0.2459936E-009  0.4778727E+02  0.7816164E-02  0.1312668E+00
        -11   -1    0    0    0    0  0.00000000000E+00  0.00000000000E+00  0.45593999997E+02  0.45594000000E+02  0.51100000000E-03 0. -1.
         11   -1    0    0    0    0 -0.00000000000E+00 -0.00000000000E+00 -0.45593999997E+02  0.45594000000E+02  0.51100000000E-03 0.  1.
    9900012    2    1    2    0    0 -0.66824097964E+01  0.39862206761E+02 -0.15810538427E+02  0.47787271274E+02  0.20000001049E+02 0.  0.
         12    1    1    2    0    0  0.66824097964E+01 -0.39862206761E+02  0.15810538427E+02  0.43400728726E+02  0.00000000000E+00 0. -1.
         11    1    3    3    0    0 -0.10573527324E+00  0.24824245737E+01 -0.49446939750E+01  0.55338603596E+01  0.51100000000E-03 0. -1.
        -11    1    3    3    0    0 -0.32726926240E+01  0.21057621401E+02 -0.13737338186E+02  0.25354455166E+02  0.51100000000E-03 0.  1.
         12    1    3    3    0    0 -0.33039818992E+01  0.16322160786E+02  0.28714937338E+01  0.16898955749E+02  0.00000000000E+00 0. -1.
</event>
<event>
 7    1  0.2459936E-009  0.4778729E+02  0.7816164E-02  0.1312668E+00
        -11   -1    0    0    0    0  0.00000000000E+00  0.00000000000E+00  0.45593999997E+02  0.45594000000E+02  0.51100000000E-03 0.  1.
         11   -1    0    0    0    0 -0.00000000000E+00 -0.00000000000E+00 -0.45593999997E+02  0.45594000000E+02  0.51100000000E-03 0. -1.
    9900012    2    1    2    0    0 -0.15913029013E+02  0.23279728516E+02  0.32991686034E+02  0.47787290334E+02  0.20000087948E+02 0.  0.
         12    1    1    2    0    0  0.15913029013E+02 -0.23279728516E+02 -0.32991686034E+02  0.43400709666E+02  0.00000000000E+00 0. -1.
         11    1    3    3    0    0 -0.75606512157E+00 -0.11852894808E+01  0.29629202262E+01  0.32795490771E+01  0.51100000000E-03 0. -1.
        -11    1    3    3    0    0 -0.93363257488E+00 -0.22645707364E+01  0.33682990087E+01  0.41647795714E+01  0.51100000000E-03 0.  1.
        -12    1    3    3    0    0 -0.14223331316E+02  0.26729588733E+02  0.26660466799E+02  0.40342961685E+02  0.00000000000E+00 0.  1.
</event>
<event>
 7    1  0.2459936E-009  0.4778727E+02  0.7816164E-02  0.1312668E+00
        -11   -1    0    0    0    0  0.00000000000E+00  0.00000000000E+00  0.45593999997E+02  0.45594000000E+02  0.51100000000E-03 0.  1.
         11   -1    0    0    0    0 -0.00000000000E+00 -0.00000000000E+00 -0.45593999997E+02  0.45594000000E+02  0.51100000000E-03 0. -1.
    9900012    2    1    2    0    0 -0.14840438170E+02  0.17235784216E+02  0.36963661322E+02  0.47787272806E+02  0.20000008034E+02 0.  0.
         12    1    1    2    0    0  0.14840438170E+02 -0.17235784216E+02 -0.36963661322E+02  0.43400727194E+02  0.00000000000E+00 0. -1.
         11    1    3    3    0    0  0.33130859937E+01  0.73903331667E+01  0.69124091329E+01  0.10647768001E+02  0.51100000000E-03 0. -1.
        -11    1    3    3    0    0 -0.23779466739E+01  0.24151143147E+01  0.15499684680E+01  0.37269035472E+01  0.51100000000E-03 0.  1.
        -12    1    3    3    0    0 -0.15775577490E+02  0.74303367347E+01  0.28501283721E+02  0.33412601259E+02  0.00000000000E+00 0.  1.
</event>
<event>
 7    1  0.2459936E-009  0.4778727E+02  0.7816164E-02  0.1312668E+00
        -11   -1    0    0    0    0  0.00000000000E+00  0.00000000000E+00  0.45593999997E+02  0.45594000000E+02  0.51100000000E-03 0. -1.
         11   -1    0    0    0    0 -0.00000000000E+00 -0.00000000000E+00 -0.45593999997E+02  0.45594000000E+02  0.51100000000E-03 0.  1.
    9900012    2    1    2    0    0  0.28729972869E+02  0.16181320418E+02 -0.28220149644E+02  0.47787270543E+02  0.19999997712E+02 0.  0.
         12    1    1    2    0    0 -0.28729972869E+02 -0.16181320418E+02  0.28220149644E+02  0.43400729457E+02  0.00000000000E+00 0. -1.
         11    1    3    3    0    0  0.13448950232E+02  0.66493193112E+00 -0.89593646504E+01  0.16173639417E+02  0.51100000000E-03 0. -1.
        -11    1    3    3    0    0  0.67570942931E+01 -0.46044043155E+00 -0.70296272024E+01  0.97614541715E+01  0.51100000000E-03 0.  1.
        -12    1    3    3    0    0  0.85239283438E+01  0.15976828919E+02 -0.12231157791E+02  0.21852176954E+02  0.00000000000E+00 0.  1.
</event>
<event>
 7    1  0.2459936E-009  0.4778729E+02  0.7816164E-02  0.1312668E+00
        -11   -1    0    0    0    0  0.00000000000E+00  0.00000000000E+00  0.45593999997E+02  0.45594000000E+02  0.51100000000E-03 0. -1.
         11   -1    0    0    0    0 -0.00000000000E+00 -0.00000000000E+00 -0.45593999997E+02  0.45594000000E+02  0.51100000000E-03 0.  1.
    9900012    2    1    2    0    0 -0.34173292603E+02  0.12765925314E+02 -0.23512531646E+02  0.47787286632E+02  0.20000071069E+02 0.  0.
         12    1    1    2    0    0  0.34173292603E+02 -0.12765925314E+02  0.23512531646E+02  0.43400713368E+02  0.00000000000E+00 0. -1.
         11    1    3    3    0    0 -0.15149052055E+02  0.68111256657E+00 -0.56454060107E+01  0.16181109411E+02  0.51100000000E-03 0. -1.
        -11    1    3    3    0    0 -0.11426975073E+02  0.50778140379E+01 -0.19903287641E+01  0.12661807279E+02  0.51100000000E-03 0.  1.
        -12    1    3    3    0    0 -0.75972654760E+01  0.70069987097E+01 -0.15876796871E+02  0.18944369942E+02  0.00000000000E+00 0.  1.
</event>
<event>
 7    1  0.2459936E-009  0.4778727E+02  0.7816164E-02  0.1312668E+00
        -11   -1    0    0    0    0  0.00000000000E+00  0.00000000000E+00  0.45593999997E+02  0.45594000000E+02  0.51100000000E-03 0.  1.
         11   -1    0    0    0    0 -0.00000000000E+00 -0.00000000000E+00 -0.45593999997E+02  0.45594000000E+02  0.51100000000E-03 0. -1.
    9900012    2    1    2    0    0  0.16699118811E+02 -0.29729818538E+02  0.26849586844E+02  0.47787274280E+02  0.20000014752E+02 0.  0.
         12    1    1    2    0    0 -0.16699118811E+02  0.29729818538E+02 -0.26849586844E+02  0.43400725720E+02  0.00000000000E+00 0. -1.
         11    1    3    3    0    0  0.66464176076E-02 -0.11234907292E+02  0.68694266566E+01  0.13168606945E+02  0.51100000000E-03 0. -1.
        -11    1    3    3    0    0  0.34004434859E+01 -0.91837065926E+01  0.14484746664E+02  0.17484603766E+02  0.51100000000E-03 0.  1.
        -12    1    3    3    0    0  0.13292028908E+02 -0.93112046533E+01  0.54954135232E+01  0.17134063569E+02  0.00000000000E+00 0.  1.
</event>
<event>
 7    1  0.2459936E-009  0.4778728E+02  0.7816164E-02  0.1312668E+00
        -11   -1    0    0    0    0  0.00000000000E+00  0.00000000000E+00  0.45593999997E+02  0.45594000000E+02  0.51100000000E-03 0. -1.
         11   -1    0    0    0    0 -0.00000000000E+00 -0.00000000000E+00 -0.45593999997E+02  0.45594000000E+02  0.51100000000E-03 0.  1.
    9900012    2    1    2    0    0 -0.45236166538E+01  0.90773415514E+01 -0.42199072039E+02  0.47787275142E+02  0.20000018683E+02 0.  0.
         12    1    1    2    0    0  0.45236166538E+01 -0.90773415514E+01  0.42199072039E+02  0.43400724858E+02  0.00000000000E+00 0. -1.
         11    1    3    3    0    0 -0.64307749557E+00 -0.27157761731E+01 -0.22482287339E+01  0.35837859295E+01  0.51100000000E-03 0. -1.
        -11    1    3    3    0    0  0.47437366602E+01  0.62828713866E+00 -0.11125965248E+02  0.12111353566E+02  0.51100000000E-03 0.  1.
         12    1    3    3    0    0 -0.86242758184E+01  0.11164830586E+02 -0.28824878056E+02  0.32092135647E+02  0.00000000000E+00 0. -1.
</event>
<event>
 7    1  0.2459936E-009  0.4778728E+02  0.7816164E-02  0.1312668E+00
        -11   -1    0    0    0    0  0.00000000000E+00  0.00000000000E+00  0.45593999997E+02  0.45594000000E+02  0.51100000000E-03 0. -1.
         11   -1    0    0    0    0 -0.00000000000E+00 -0.00000000000E+00 -0.45593999997E+02  0.45594000000E+02  0.51100000000E-03 0.  1.
    9900012    2    1    2    0    0  0.18032949134E+02 -0.32187531690E+02 -0.22856037087E+02  0.47787275558E+02  0.20000020579E+02 0.  0.
         12    1    1    2    0    0 -0.18032949134E+02  0.32187531690E+02  0.22856037087E+02  0.43400724442E+02  0.00000000000E+00 0. -1.
         11    1    3    3    0    0  0.64604647376E+01 -0.42366680956E+00 -0.35731428949E+01  0.73948934137E+01  0.51100000000E-03 0. -1.
        -11    1    3    3    0    0  0.78403345338E+00 -0.84802696131E+01 -0.99243954975E+01  0.13077587982E+02  0.51100000000E-03 0.  1.
        -12    1    3    3    0    0  0.10788450943E+02 -0.23283595267E+02 -0.93584986950E+01  0.27314794163E+02  0.00000000000E+00 0.  1.
</event>
<event>
 7    1  0.2459936E-009  0.4778729E+02  0.7816164E-02  0.1312668E+00
        -11   -1    0    0    0    0  0.00000000000E+00  0.00000000000E+00  0.45593999997E+02  0.45594000000E+02  0.51100000000E-03 0.  1.
         11   -1    0    0    0    0 -0.00000000000E+00 -0.00000000000E+00 -0.45593999997E+02  0.45594000000E+02  0.51100000000E-03 0. -1.
    9900012    2    1    2    0    0  0.31237383252E+02  0.23591350933E+02  0.18742890792E+02  0.47787286797E+02  0.20000071822E+02 0.  0.
         12    1    1    2    0    0 -0.31237383252E+02 -0.23591350933E+02 -0.18742890792E+02  0.43400713203E+02  0.00000000000E+00 0. -1.
         11    1    3    3    0    0  0.19821538415E+00  0.44704607592E+01  0.52062258044E+01  0.68650634466E+01  0.51100000000E-03 0. -1.
        -11    1    3    3    0    0  0.94742650926E+01  0.13169462060E+02  0.49782106663E+01  0.16969944363E+02  0.51100000000E-03 0.  1.
         12    1    3    3    0    0  0.21564902775E+02  0.59514281137E+01  0.85584543217E+01  0.23952278987E+02  0.00000000000E+00 0. -1.
</event>
<event>
 7    1  0.2459936E-009  0.4778727E+02  0.7816164E-02  0.1312668E+00
        -11   -1    0    0    0    0  0.00000000000E+00  0.00000000000E+00  0.45593999997E+02  0.45594000000E+02  0.51100000000E-03 0.  1.
         11   -1    0    0    0    0 -0.00000000000E+00 -0.00000000000E+00 -0.45593999997E+02  0.45594000000E+02  0.51100000000E-03 0. -1.
    9900012    2    1    2    0    0 -0.23423163785E+02  0.23331615556E+02  0.28117865190E+02  0.47787271561E+02  0.20000002356E+02 0.  0.
         12    1    1    2    0    0  0.23423163785E+02 -0.23331615556E+02 -0.28117865190E+02  0.43400728439E+02  0.00000000000E+00 0. -1.
         11    1    3    3    0    0 -0.93212022289E+00  0.29871589048E+01  0.87256449851E+01  0.92697813944E+01  0.51100000000E-03 0. -1.
        -11    1    3    3    0    0 -0.10811177660E+02  0.16066733604E+01  0.87799798447E+01  0.14019665046E+02  0.51100000000E-03 0.  1.
         12    1    3    3    0    0 -0.11679865903E+02  0.18737783291E+02  0.10612240360E+02  0.24497825121E+02  0.00000000000E+00 0. -1.
</event>
<event>
 7    1  0.2459936E-009  0.4778727E+02  0.7816164E-02  0.1312668E+00
        -11   -1    0    0    0    0  0.00000000000E+00  0.00000000000E+00  0.45593999997E+02  0.45594000000E+02  0.51100000000E-03 0.  1.
         11   -1    0    0    0    0 -0.00000000000E+00 -0.00000000000E+00 -0.45593999997E+02  0.45594000000E+02  0.51100000000E-03 0. -1.
    9900012    2    1    2    0    0 -0.37303342671E+02  0.66054659544E+01  0.21176677378E+02  0.47787271669E+02  0.20000002849E+02 0.  0.
         12    1    1    2    0    0  0.37303342671E+02 -0.66054659544E+01 -0.21176677378E+02  0.43400728331E+02  0.00000000000E+00 0. -1.
         11    1    3    3    0    0  0.81938230141E-02 -0.21471469910E+00  0.47498565480E+01  0.47547141900E+01  0.51100000000E-03 0. -1.
        -11    1    3    3    0    0 -0.12494743534E+02 -0.33769966068E+01  0.54641035706E+01  0.14049169020E+02  0.51100000000E-03 0.  1.
         12    1    3    3    0    0 -0.24816792959E+02  0.10197177260E+02  0.10962717259E+02  0.28983388459E+02  0.00000000000E+00 0. -1.
</event>
<event>
 7    1  0.2459936E-009  0.4778727E+02  0.7816164E-02  0.1312668E+00
        -11   -1    0    0    0    0  0.00000000000E+00  0.00000000000E+00  0.45593999997E+02  0.45594000000E+02  0.51100000000E-03 0.  1.
         11   -1    0    0    0    0 -0.00000000000E+00 -0.00000000000E+00 -0.45593999997E+02  0.45594000000E+02  0.51100000000E-03 0. -1.
    9900012    2    1    2    0    0  0.24896692761E+02 -0.27676338088E+02  0.22311394561E+02  0.47787270425E+02  0.19999997176E+02 0.  0.
         12    1    1    2    0    0 -0.24896692761E+02  0.27676338088E+02 -0.22311394561E+02  0.43400729575E+02  0.00000000000E+00 0. -1.
         11    1    3    3    0    0  0.20711500202E+02 -0.13342711261E+02  0.79991311232E+01  0.25903287116E+02  0.51100000000E-03 0. -1.
        -11    1    3    3    0    0  0.12693025113E+01 -0.10021646579E+02  0.51318204839E+01  0.11330494727E+02  0.51100000000E-03 0.  1.
        -12    1    3    3    0    0  0.29158900476E+01 -0.43119802475E+01  0.91804429537E+01  0.10553488582E+02  0.00000000000E+00 0.  1.
</event>
<event>
 7    1  0.2459936E-009  0.4778727E+02  0.7816164E-02  0.1312668E+00
        -11   -1    0    0    0    0  0.00000000000E+00  0.00000000000E+00  0.45593999997E+02  0.45594000000E+02  0.51100000000E-03 0.  1.
         11   -1    0    0    0    0 -0.00000000000E+00 -0.00000000000E+00 -0.45593999997E+02  0.45594000000E+02  0.51100000000E-03 0. -1.
    9900012    2    1    2    0    0  0.18616659737E+02  0.39176587581E+02  0.14961330926E+01  0.47787269033E+02  0.19999990828E+02 0.  0.
         12    1    1    2    0    0 -0.18616659737E+02 -0.39176587581E+02 -0.14961330926E+01  0.43400730967E+02  0.00000000000E+00 0. -1.
         11    1    3    3    0    0  0.39835863284E+01  0.16727240773E+01  0.40441321630E+01  0.59179363876E+01  0.51100000000E-03 0. -1.
        -11    1    3    3    0    0 -0.17541725343E+01  0.40035285765E+01  0.73164879449E+00  0.44317798414E+01  0.51100000000E-03 0.  1.
        -12    1    3    3    0    0  0.16387245943E+02  0.33500334927E+02 -0.32796478649E+01  0.37437552804E+02  0.00000000000E+00 0.  1.
</event>
<event>
 7    1  0.2459936E-009  0.4778727E+02  0.7816164E-02  0.1312668E+00
        -11   -1    0    0    0    0  0.00000000000E+00  0.00000000000E+00  0.45593999997E+02  0.45594000000E+02  0.51100000000E-03 0. -1.
         11   -1    0    0    0    0 -0.00000000000E+00 -0.00000000000E+00 -0.45593999997E+02  0.45594000000E+02  0.51100000000E-03 0.  1.
    9900012    2    1    2    0    0  0.31059656391E+02 -0.28657416333E+02  0.98829825527E+01  0.47787272931E+02  0.20000008601E+02 0.  0.
         12    1    1    2    0    0 -0.31059656391E+02  0.28657416333E+02 -0.98829825527E+01  0.43400727069E+02  0.00000000000E+00 0. -1.
         11    1    3    3    0    0  0.93307623217E+01 -0.44446850963E+01 -0.18699744846E+01  0.10503102206E+02  0.51100000000E-03 0. -1.
        -11    1    3    3    0    0  0.13630205712E+02 -0.19035771804E+02  0.18530117278E+01  0.23485671560E+02  0.51100000000E-03 0.  1.
        -12    1    3    3    0    0  0.80986883567E+01 -0.51769594331E+01  0.98999453095E+01  0.13798499165E+02  0.00000000000E+00 0.  1.
</event>
<event>
 7    1  0.2459936E-009  0.4778727E+02  0.7816164E-02  0.1312668E+00
        -11   -1    0    0    0    0  0.00000000000E+00  0.00000000000E+00  0.45593999997E+02  0.45594000000E+02  0.51100000000E-03 0. -1.
         11   -1    0    0    0    0 -0.00000000000E+00 -0.00000000000E+00 -0.45593999997E+02  0.45594000000E+02  0.51100000000E-03 0.  1.
    9900012    2    1    2    0    0 -0.13651000506E+02  0.17803865996E+02 -0.37152337322E+02  0.47787266968E+02  0.19999981415E+02 0.  0.
         12    1    1    2    0    0  0.13651000506E+02 -0.17803865996E+02  0.37152337322E+02  0.43400733032E+02  0.00000000000E+00 0. -1.
         11    1    3    3    0    0 -0.19236941752E+01 -0.13979016419E+01 -0.51310094931E+01  0.56552618825E+01  0.51100000000E-03 0. -1.
        -11    1    3    3    0    0 -0.91932898080E+01  0.10522171743E+02 -0.29660637526E+02  0.32786980563E+02  0.51100000000E-03 0.  1.
         12    1    3    3    0    0 -0.25340165232E+01  0.86795958948E+01 -0.23606903023E+01  0.93450245232E+01  0.00000000000E+00 0. -1.
</event>
<event>
 7    1  0.2459936E-009  0.4778727E+02  0.7816164E-02  0.1312668E+00
        -11   -1    0    0    0    0  0.00000000000E+00  0.00000000000E+00  0.45593999997E+02  0.45594000000E+02  0.51100000000E-03 0. -1.
         11   -1    0    0    0    0 -0.00000000000E+00 -0.00000000000E+00 -0.45593999997E+02  0.45594000000E+02  0.51100000000E-03 0.  1.
    9900012    2    1    2    0    0  0.18691494835E+02 -0.38440316304E+02  0.75228360445E+01  0.47787274674E+02  0.20000016546E+02 0.  0.
         12    1    1    2    0    0 -0.18691494835E+02  0.38440316304E+02 -0.75228360445E+01  0.43400725326E+02  0.00000000000E+00 0. -1.
         11    1    3    3    0    0  0.40386471617E+01 -0.24123660227E+01 -0.82275147836E+00  0.47756780650E+01  0.51100000000E-03 0. -1.
        -11    1    3    3    0    0  0.62663962761E+01 -0.17073554542E+02 -0.43572354741E+01  0.18701857881E+02  0.51100000000E-03 0.  1.
        -12    1    3    3    0    0  0.83864513971E+01 -0.18954395739E+02  0.12702822997E+02  0.24309738727E+02  0.00000000000E+00 0.  1.
</event>
<event>
 7    1  0.2459936E-009  0.4778727E+02  0.7816164E-02  0.1312668E+00
        -11   -1    0    0    0    0  0.00000000000E+00  0.00000000000E+00  0.45593999997E+02  0.45594000000E+02  0.51100000000E-03 0.  1.
         11   -1    0    0    0    0 -0.00000000000E+00 -0.00000000000E+00 -0.45593999997E+02  0.45594000000E+02  0.51100000000E-03 0. -1.
    9900012    2    1    2    0    0  0.30530450409E+01  0.31611723309E+01  0.43177646126E+02  0.47787271670E+02  0.20000002854E+02 0.  0.
         12    1    1    2    0    0 -0.30530450409E+01 -0.31611723309E+01 -0.43177646126E+02  0.43400728330E+02  0.00000000000E+00 0. -1.
         11    1    3    3    0    0 -0.55868258247E+01  0.21628307094E+01  0.85090929738E+01  0.10406494269E+02  0.51100000000E-03 0. -1.
        -11    1    3    3    0    0  0.25328507188E+01 -0.47515200602E+01  0.10537421128E+02  0.11833406945E+02  0.51100000000E-03 0.  1.
         12    1    3    3    0    0  0.61070201468E+01  0.57498616817E+01  0.24131132025E+02  0.25547370456E+02  0.00000000000E+00 0. -1.
</event>
<event>
 7    1  0.2459936E-009  0.4778727E+02  0.7816164E-02  0.1312668E+00
        -11   -1    0    0    0    0  0.00000000000E+00  0.00000000000E+00  0.45593999997E+02  0.45594000000E+02  0.51100000000E-03 0.  1.
         11   -1    0    0    0    0 -0.00000000000E+00 -0.00000000000E+00 -0.45593999997E+02  0.45594000000E+02  0.51100000000E-03 0. -1.
    9900012    2    1    2    0    0  0.37530095348E+02  0.19783843918E+02  0.91495890321E+01  0.47787268250E+02  0.19999987257E+02 0.  0.
         12    1    1    2    0    0 -0.37530095348E+02 -0.19783843918E+02 -0.91495890321E+01  0.43400731750E+02  0.00000000000E+00 0. -1.
         11    1    3    3    0    0 -0.72915018220E-02  0.16605968727E+01 -0.39988208439E+00  0.17080811111E+01  0.51100000000E-03 0. -1.
        -11    1    3    3    0    0  0.30296004429E+02  0.10169630528E+02  0.40298553073E+00  0.31959844603E+02  0.51100000000E-03 0.  1.
        -12    1    3    3    0    0  0.72413824212E+01  0.79536165173E+01  0.91464855858E+01  0.14119342536E+02  0.00000000000E+00 0.  1.
</event>
<event>
 7    1  0.2459936E-009  0.4778728E+02  0.7816164E-02  0.1312668E+00
        -11   -1    0    0    0    0  0.00000000000E+00  0.00000000000E+00  0.45593999997E+02  0.45594000000E+02  0.51100000000E-03 0.  1.
         11   -1    0    0    0    0 -0.00000000000E+00 -0.00000000000E+00 -0.45593999997E+02  0.45594000000E+02  0.51100000000E-03 0. -1.
    9900012    2    1    2    0    0  0.23181996390E+02  0.46192232647E+01  0.36398903526E+02  0.47787281595E+02  0.20000048103E+02 0.  0.
         12    1    1    2    0    0 -0.23181996390E+02 -0.46192232647E+01 -0.36398903526E+02  0.43400718405E+02  0.00000000000E+00 0. -1.
         11    1    3    3    0    0  0.12946495228E+02  0.68483471039E+01  0.14027743081E+02  0.20280265604E+02  0.51100000000E-03 0. -1.
        -11    1    3    3    0    0  0.96381260549E+01 -0.20931305305E+01  0.69307566327E+01  0.12054462121E+02  0.51100000000E-03 0.  1.
         12    1    3    3    0    0  0.59737510647E+00 -0.13599330859E+00  0.15440403813E+02  0.15452553870E+02  0.00000000000E+00 0. -1.
</event>
<event>
 7    1  0.2459936E-009  0.4778727E+02  0.7816164E-02  0.1312668E+00
        -11   -1    0    0    0    0  0.00000000000E+00  0.00000000000E+00  0.45593999997E+02  0.45594000000E+02  0.51100000000E-03 0. -1.
         11   -1    0    0    0    0 -0.00000000000E+00 -0.00000000000E+00 -0.45593999997E+02  0.45594000000E+02  0.51100000000E-03 0.  1.
    9900012    2    1    2    0    0  0.19278821323E+02 -0.37909908767E+02  0.86480867407E+01  0.47787267995E+02  0.19999986095E+02 0.  0.
         12    1    1    2    0    0 -0.19278821323E+02  0.37909908767E+02 -0.86480867407E+01  0.43400732005E+02  0.00000000000E+00 0. -1.
         11    1    3    3    0    0  0.31210659444E+01 -0.56508725486E+01 -0.24931164721E+01  0.69201909797E+01  0.51100000000E-03 0. -1.
        -11    1    3    3    0    0  0.15626528608E+02 -0.16485447692E+02  0.24413387170E+01  0.22845536039E+02  0.51100000000E-03 0.  1.
        -12    1    3    3    0    0  0.53122677066E+00 -0.15773588527E+02  0.86998644958E+01  0.18021540976E+02  0.00000000000E+00 0.  1.
</event>
<event>
 7    1  0.2459936E-009  0.4778727E+02  0.7816164E-02  0.1312668E+00
        -11   -1    0    0    0    0  0.00000000000E+00  0.00000000000E+00  0.45593999997E+02  0.45594000000E+02  0.51100000000E-03 0.  1.
         11   -1    0    0    0    0 -0.00000000000E+00 -0.00000000000E+00 -0.45593999997E+02  0.45594000000E+02  0.51100000000E-03 0. -1.
    9900012    2    1    2    0    0  0.41142787095E+02  0.42050773920E+01 -0.13160996860E+02  0.47787269082E+02  0.19999991055E+02 0.  0.
         12    1    1    2    0    0 -0.41142787095E+02 -0.42050773920E+01  0.13160996860E+02  0.43400730918E+02  0.00000000000E+00 0. -1.
         11    1    3    3    0    0  0.45745521339E+01  0.57439034086E+01  0.42502195323E+00  0.73552428591E+01  0.51100000000E-03 0. -1.
        -11    1    3    3    0    0  0.24406651459E+01 -0.28974656591E+01 -0.35802172858E+00  0.38053033282E+01  0.51100000000E-03 0.  1.
        -12    1    3    3    0    0  0.34127569815E+02  0.13586396425E+01 -0.13227997085E+02  0.36626722895E+02  0.00000000000E+00 0.  1.
</event>
<event>
 7    1  0.2459936E-009  0.4778727E+02  0.7816164E-02  0.1312668E+00
        -11   -1    0    0    0    0  0.00000000000E+00  0.00000000000E+00  0.45593999997E+02  0.45594000000E+02  0.51100000000E-03 0.  1.
         11   -1    0    0    0    0 -0.00000000000E+00 -0.00000000000E+00 -0.45593999997E+02  0.45594000000E+02  0.51100000000E-03 0. -1.
    9900012    2    1    2    0    0 -0.10103955648E+02  0.96599758058E+01  0.41087934102E+02  0.47787269810E+02  0.19999994370E+02 0.  0.
         12    1    1    2    0    0  0.10103955648E+02 -0.96599758058E+01 -0.41087934102E+02  0.43400730190E+02  0.00000000000E+00 0. -1.
         11    1    3    3    0    0  0.41784142686E+00  0.75769703880E+01  0.72955667804E+01  0.10526650304E+02  0.51100000000E-03 0.  1.
        -11    1    3    3    0    0 -0.53898269209E+01  0.40205358747E+01  0.62599458888E+01  0.91870488052E+01  0.51100000000E-03 0. -1.
        -12    1    3    3    0    0 -0.51319701537E+01 -0.19375304569E+01  0.27532421433E+02  0.28073570700E+02  0.00000000000E+00 0.  1.
</event>
<event>
 7    1  0.2459936E-009  0.4778727E+02  0.7816164E-02  0.1312668E+00
        -11   -1    0    0    0    0  0.00000000000E+00  0.00000000000E+00  0.45593999997E+02  0.45594000000E+02  0.51100000000E-03 0.  1.
         11   -1    0    0    0    0 -0.00000000000E+00 -0.00000000000E+00 -0.45593999997E+02  0.45594000000E+02  0.51100000000E-03 0. -1.
    9900012    2    1    2    0    0  0.37058884980E+02 -0.67079235595E+01  0.21570038374E+02  0.47787265561E+02  0.19999974997E+02 0.  0.
         12    1    1    2    0    0 -0.37058884980E+02  0.67079235595E+01 -0.21570038374E+02  0.43400734439E+02  0.00000000000E+00 0. -1.
         11    1    3    3    0    0  0.54885459527E+01 -0.33399886608E+01  0.68532945240E+01  0.93940037802E+01  0.51100000000E-03 0.  1.
        -11    1    3    3    0    0  0.31317955635E+02 -0.58439279591E+00  0.16161488576E+02  0.35246979635E+02  0.51100000000E-03 0. -1.
         12    1    3    3    0    0  0.25238339179E+00 -0.27835421028E+01 -0.14447447266E+01  0.31462821456E+01  0.00000000000E+00 0. -1.
</event>
<event>
 7    1  0.2459936E-009  0.4778728E+02  0.7816164E-02  0.1312668E+00
        -11   -1    0    0    0    0  0.00000000000E+00  0.00000000000E+00  0.45593999997E+02  0.45594000000E+02  0.51100000000E-03 0.  1.
         11   -1    0    0    0    0 -0.00000000000E+00 -0.00000000000E+00 -0.45593999997E+02  0.45594000000E+02  0.51100000000E-03 0. -1.
    9900012    2    1    2    0    0  0.24126296533E+02  0.23115642820E+02 -0.27698586646E+02  0.47787276163E+02  0.20000023338E+02 0.  0.
         12    1    1    2    0    0 -0.24126296533E+02 -0.23115642820E+02  0.27698586646E+02  0.43400723837E+02  0.00000000000E+00 0. -1.
         11    1    3    3    0    0  0.14514718221E+02  0.12405823879E+02 -0.93039061879E+01  0.21240154938E+02  0.51100000000E-03 0.  1.
        -11    1    3    3    0    0  0.42203193329E+01  0.84130665280E+01 -0.26966336112E+01  0.97909456524E+01  0.51100000000E-03 0. -1.
         12    1    3    3    0    0  0.53912589787E+01  0.22967524127E+01 -0.15698046847E+02  0.16756175573E+02  0.00000000000E+00 0. -1.
</event>
<event>
 7    1  0.2459936E-009  0.4778727E+02  0.7816164E-02  0.1312668E+00
        -11   -1    0    0    0    0  0.00000000000E+00  0.00000000000E+00  0.45593999997E+02  0.45594000000E+02  0.51100000000E-03 0. -1.
         11   -1    0    0    0    0 -0.00000000000E+00 -0.00000000000E+00 -0.45593999997E+02  0.45594000000E+02  0.51100000000E-03 0.  1.
    9900012    2    1    2    0    0  0.18806125216E+02  0.18612420706E+01 -0.39070301583E+02  0.47787273814E+02  0.20000012628E+02 0.  0.
         12    1    1    2    0    0 -0.18806125216E+02 -0.18612420706E+01  0.39070301583E+02  0.43400726186E+02  0.00000000000E+00 0. -1.
         11    1    3    3    0    0  0.66421226678E+01 -0.32815137724E+01 -0.21255381717E+02  0.22509495294E+02  0.51100000000E-03 0. -1.
        -11    1    3    3    0    0  0.13501756582E+02  0.32231027153E+01 -0.18217765894E+02  0.22903554666E+02  0.51100000000E-03 0.  1.
        -12    1    3    3    0    0 -0.13377540340E+01  0.19196531277E+01  0.40284602853E+00  0.23742238540E+01  0.00000000000E+00 0.  1.
</event>
<event>
 7    1  0.2459936E-009  0.4778727E+02  0.7816164E-02  0.1312668E+00
        -11   -1    0    0    0    0  0.00000000000E+00  0.00000000000E+00  0.45593999997E+02  0.45594000000E+02  0.51100000000E-03 0.  1.
         11   -1    0    0    0    0 -0.00000000000E+00 -0.00000000000E+00 -0.45593999997E+02  0.45594000000E+02  0.51100000000E-03 0. -1.
    9900012    2    1    2    0    0 -0.22774853029E+02  0.29192277943E+02  0.22643767176E+02  0.47787271735E+02  0.20000003147E+02 0.  0.
         12    1    1    2    0    0  0.22774853029E+02 -0.29192277943E+02 -0.22643767176E+02  0.43400728265E+02  0.00000000000E+00 0. -1.
         11    1    3    3    0    0  0.14300917758E+01  0.12164561833E+01  0.33301885729E+01  0.38229679995E+01  0.51100000000E-03 0. -1.
        -11    1    3    3    0    0  0.81845035506E+00  0.50135888451E+01  0.49393281156E+01  0.70854002418E+01  0.51100000000E-03 0.  1.
         12    1    3    3    0    0 -0.25023395160E+02  0.22962232915E+02  0.14374250488E+02  0.36878903493E+02  0.00000000000E+00 0. -1.
</event>
<event>
 7    1  0.2459936E-009  0.4778727E+02  0.7816164E-02  0.1312668E+00
        -11   -1    0    0    0    0  0.00000000000E+00  0.00000000000E+00  0.45593999997E+02  0.45594000000E+02  0.51100000000E-03 0. -1.
         11   -1    0    0    0    0 -0.00000000000E+00 -0.00000000000E+00 -0.45593999997E+02  0.45594000000E+02  0.51100000000E-03 0.  1.
    9900012    2    1    2    0    0 -0.13594046503E+02  0.36428419525E+02 -0.19282004212E+02  0.47787268027E+02  0.19999986240E+02 0.  0.
         12    1    1    2    0    0  0.13594046503E+02 -0.36428419525E+02  0.19282004212E+02  0.43400731973E+02  0.00000000000E+00 0. -1.
         11    1    3    3    0    0 -0.38006367875E+01  0.11930276007E+02  0.72586191247E+00  0.12542057302E+02  0.51100000000E-03 0. -1.
        -11    1    3    3    0    0  0.26384771506E+01  0.70062041869E+01 -0.41301736801E+01  0.85502510883E+01  0.51100000000E-03 0.  1.
        -12    1    3    3    0    0 -0.12431886866E+02  0.17491939331E+02 -0.15877692445E+02  0.26694959636E+02  0.00000000000E+00 0.  1.
</event>
<event>
 7    1  0.2459936E-009  0.4778728E+02  0.7816164E-02  0.1312668E+00
        -11   -1    0    0    0    0  0.00000000000E+00  0.00000000000E+00  0.45593999997E+02  0.45594000000E+02  0.51100000000E-03 0.  1.
         11   -1    0    0    0    0 -0.00000000000E+00 -0.00000000000E+00 -0.45593999997E+02  0.45594000000E+02  0.51100000000E-03 0. -1.
    9900012    2    1    2    0    0  0.49231528352E-01  0.35091878740E+02  0.25537823397E+02  0.47787276491E+02  0.20000024832E+02 0.  0.
         12    1    1    2    0    0 -0.49231528352E-01 -0.35091878740E+02 -0.25537823397E+02  0.43400723509E+02  0.00000000000E+00 0. -1.
         11    1    3    3    0    0  0.38311880268E-01  0.32353090249E+01  0.78698878391E+01  0.85090438445E+01  0.51100000000E-03 0. -1.
        -11    1    3    3    0    0  0.62271621557E+01  0.12031135336E+02  0.11020531726E+02  0.17463616057E+02  0.51100000000E-03 0.  1.
         12    1    3    3    0    0 -0.62162425077E+01  0.19825434379E+02  0.66474038318E+01  0.21814616590E+02  0.00000000000E+00 0. -1.
</event>
<event>
 7    1  0.2459936E-009  0.4778727E+02  0.7816164E-02  0.1312668E+00
        -11   -1    0    0    0    0  0.00000000000E+00  0.00000000000E+00  0.45593999997E+02  0.45594000000E+02  0.51100000000E-03 0. -1.
         11   -1    0    0    0    0 -0.00000000000E+00 -0.00000000000E+00 -0.45593999997E+02  0.45594000000E+02  0.51100000000E-03 0.  1.
    9900012    2    1    2    0    0  0.33603664516E+02 -0.11257997447E+02  0.25053431904E+02  0.47787271601E+02  0.20000002537E+02 0.  0.
         12    1    1    2    0    0 -0.33603664516E+02  0.11257997447E+02 -0.25053431904E+02  0.43400728399E+02  0.00000000000E+00 0. -1.
         11    1    3    3    0    0  0.86760282469E+01 -0.13482159290E+01  0.17126022488E+01  0.89456223403E+01  0.51100000000E-03 0. -1.
        -11    1    3    3    0    0  0.19811769774E+02 -0.86262943015E+01  0.87251296427E+01  0.23303370196E+02  0.51100000000E-03 0.  1.
         12    1    3    3    0    0  0.51158664951E+01 -0.12834872163E+01  0.14615700012E+02  0.15538279064E+02  0.00000000000E+00 0. -1.
</event>
<event>
 7    1  0.2459936E-009  0.4778727E+02  0.7816164E-02  0.1312668E+00
        -11   -1    0    0    0    0  0.00000000000E+00  0.00000000000E+00  0.45593999997E+02  0.45594000000E+02  0.51100000000E-03 0.  1.
         11   -1    0    0    0    0 -0.00000000000E+00 -0.00000000000E+00 -0.45593999997E+02  0.45594000000E+02  0.51100000000E-03 0. -1.
    9900012    2    1    2    0    0  0.37755187008E+02 -0.22273619894E+01  0.21288690634E+02  0.47787266869E+02  0.19999980962E+02 0.  0.
         12    1    1    2    0    0 -0.37755187008E+02  0.22273619894E+01 -0.21288690634E+02  0.43400733131E+02  0.00000000000E+00 0. -1.
         11    1    3    3    0    0  0.21622740794E+02 -0.23937086179E+01  0.13716419148E+02  0.25717949275E+02  0.51100000000E-03 0.  1.
        -11    1    3    3    0    0  0.13758147126E+02  0.31008226615E+01  0.10255755304E+02  0.17437953740E+02  0.51100000000E-03 0. -1.
         12    1    3    3    0    0  0.23742990872E+01 -0.29344760329E+01 -0.26834838184E+01  0.46313638539E+01  0.00000000000E+00 0. -1.
</event>
<event>
 7    1  0.2459936E-009  0.4778727E+02  0.7816164E-02  0.1312668E+00
        -11   -1    0    0    0    0  0.00000000000E+00  0.00000000000E+00  0.45593999997E+02  0.45594000000E+02  0.51100000000E-03 0.  1.
         11   -1    0    0    0    0 -0.00000000000E+00 -0.00000000000E+00 -0.45593999997E+02  0.45594000000E+02  0.51100000000E-03 0. -1.
    9900012    2    1    2    0    0  0.36565180786E+02 -0.20454266660E+02  0.11324034826E+02  0.47787271489E+02  0.20000002028E+02 0.  0.
         12    1    1    2    0    0 -0.36565180786E+02  0.20454266660E+02 -0.11324034826E+02  0.43400728511E+02  0.00000000000E+00 0. -1.
         11    1    3    3    0    0  0.18190763113E+02  0.52829377560E+00  0.22194236869E+01  0.18333270268E+02  0.51100000000E-03 0. -1.
        -11    1    3    3    0    0  0.15684358739E+01 -0.28551563542E+01  0.15390643468E+01  0.36028638917E+01  0.51100000000E-03 0.  1.
         12    1    3    3    0    0  0.16805981799E+02 -0.18127404081E+02  0.75655467923E+01  0.25851137329E+02  0.00000000000E+00 0. -1.
</event>
<event>
 7    1  0.2459936E-009  0.4778727E+02  0.7816164E-02  0.1312668E+00
        -11   -1    0    0    0    0  0.00000000000E+00  0.00000000000E+00  0.45593999997E+02  0.45594000000E+02  0.51100000000E-03 0.  1.
         11   -1    0    0    0    0 -0.00000000000E+00 -0.00000000000E+00 -0.45593999997E+02  0.45594000000E+02  0.51100000000E-03 0. -1.
    9900012    2    1    2    0    0  0.37216121520E+02 -0.21252579878E+02  0.68492043792E+01  0.47787268980E+02  0.19999990586E+02 0.  0.
         12    1    1    2    0    0 -0.37216121520E+02  0.21252579878E+02 -0.68492043792E+01  0.43400731020E+02  0.00000000000E+00 0. -1.
         11    1    3    3    0    0  0.69669802873E+01 -0.78790485056E+01  0.44528276295E+01  0.11421291251E+02  0.51100000000E-03 0. -1.
        -11    1    3    3    0    0  0.86343364001E+01 -0.44526724328E+01  0.76909806044E+01  0.12390691659E+02  0.51100000000E-03 0.  1.
        -12    1    3    3    0    0  0.21614804833E+02 -0.89208589397E+01 -0.52946038547E+01  0.23975286070E+02  0.00000000000E+00 0.  1.
</event>
<event>
 7    1  0.2459936E-009  0.4778727E+02  0.7816164E-02  0.1312668E+00
        -11   -1    0    0    0    0  0.00000000000E+00  0.00000000000E+00  0.45593999997E+02  0.45594000000E+02  0.51100000000E-03 0.  1.
         11   -1    0    0    0    0 -0.00000000000E+00 -0.00000000000E+00 -0.45593999997E+02  0.45594000000E+02  0.51100000000E-03 0. -1.
    9900012    2    1    2    0    0 -0.35809139666E+02 -0.22836933112E+02  0.89332554275E+01  0.47787273622E+02  0.20000011753E+02 0.  0.
         12    1    1    2    0    0  0.35809139666E+02  0.22836933112E+02 -0.89332554275E+01  0.43400726378E+02  0.00000000000E+00 0. -1.
         11    1    3    3    0    0 -0.59433608327E+01 -0.30952917062E+01  0.52786630119E+01  0.85304543952E+01  0.51100000000E-03 0. -1.
        -11    1    3    3    0    0 -0.17185282502E+02 -0.20041622848E+02  0.26309007907E+01  0.26531532565E+02  0.51100000000E-03 0.  1.
         12    1    3    3    0    0 -0.12680496332E+02  0.29998144138E+00  0.10236916250E+01  0.12725286662E+02  0.00000000000E+00 0. -1.
</event>
<event>
 7    1  0.2459936E-009  0.4778726E+02  0.7816164E-02  0.1312668E+00
        -11   -1    0    0    0    0  0.00000000000E+00  0.00000000000E+00  0.45593999997E+02  0.45594000000E+02  0.51100000000E-03 0.  1.
         11   -1    0    0    0    0 -0.00000000000E+00 -0.00000000000E+00 -0.45593999997E+02  0.45594000000E+02  0.51100000000E-03 0. -1.
    9900012    2    1    2    0    0 -0.24636293988E+02 -0.37218516950E+01  0.35536251887E+02  0.47787258536E+02  0.19999942968E+02 0.  0.
         12    1    1    2    0    0  0.24636293988E+02  0.37218516950E+01 -0.35536251887E+02  0.43400741464E+02  0.00000000000E+00 0. -1.
         11    1    3    3    0    0 -0.56798417167E+01 -0.15935957714E+01  0.54871448841E-01  0.58994203568E+01  0.51100000000E-03 0. -1.
        -11    1    3    3    0    0 -0.13605835487E+02  0.20904248726E+01  0.15269493465E+02  0.20558357579E+02  0.51100000000E-03 0.  1.
        -12    1    3    3    0    0 -0.53506167846E+01 -0.42186807962E+01  0.20211886973E+02  0.21329480600E+02  0.00000000000E+00 0.  1.
</event>
<event>
 7    1  0.2459936E-009  0.4778727E+02  0.7816164E-02  0.1312668E+00
        -11   -1    0    0    0    0  0.00000000000E+00  0.00000000000E+00  0.45593999997E+02  0.45594000000E+02  0.51100000000E-03 0. -1.
         11   -1    0    0    0    0 -0.00000000000E+00 -0.00000000000E+00 -0.45593999997E+02  0.45594000000E+02  0.51100000000E-03 0.  1.
    9900012    2    1    2    0    0  0.42339406064E+01 -0.10390009786E+02 -0.41925471488E+02  0.47787265952E+02  0.19999976782E+02 0.  0.
         12    1    1    2    0    0 -0.42339406064E+01  0.10390009786E+02  0.41925471488E+02  0.43400734048E+02  0.00000000000E+00 0. -1.
         11    1    3    3    0    0  0.41106030397E+01 -0.68053418872E+01 -0.98988059429E+01  0.12696302411E+02  0.51100000000E-03 0. -1.
        -11    1    3    3    0    0  0.55905681460E+01 -0.61235521095E+01 -0.19484706836E+02  0.21175602551E+02  0.51100000000E-03 0.  1.
         12    1    3    3    0    0 -0.54672305793E+01  0.25388842110E+01 -0.12541958709E+02  0.13915360990E+02  0.00000000000E+00 0. -1.
</event>
<event>
 7    1  0.2459936E-009  0.4778728E+02  0.7816164E-02  0.1312668E+00
        -11   -1    0    0    0    0  0.00000000000E+00  0.00000000000E+00  0.45593999997E+02  0.45594000000E+02  0.51100000000E-03 0.  1.
         11   -1    0    0    0    0 -0.00000000000E+00 -0.00000000000E+00 -0.45593999997E+02  0.45594000000E+02  0.51100000000E-03 0. -1.
    9900012    2    1    2    0    0 -0.51997421299E+01 -0.94970290965E+01  0.42028459629E+02  0.47787282280E+02  0.20000051227E+02 0.  0.
         12    1    1    2    0    0  0.51997421299E+01  0.94970290965E+01 -0.42028459629E+02  0.43400717720E+02  0.00000000000E+00 0. -1.
         11    1    3    3    0    0 -0.51648520907E+01 -0.30729645049E+01  0.32003010332E+01  0.68088717811E+01  0.51100000000E-03 0. -1.
        -11    1    3    3    0    0  0.17099996929E+01 -0.69108084648E+01  0.11072655732E+02  0.13163854975E+02  0.51100000000E-03 0.  1.
         12    1    3    3    0    0 -0.17448897321E+01  0.48674387320E+00  0.27755502864E+02  0.27814555524E+02  0.00000000000E+00 0. -1.
</event>
<event>
 7    1  0.2459936E-009  0.4778727E+02  0.7816164E-02  0.1312668E+00
        -11   -1    0    0    0    0  0.00000000000E+00  0.00000000000E+00  0.45593999997E+02  0.45594000000E+02  0.51100000000E-03 0.  1.
         11   -1    0    0    0    0 -0.00000000000E+00 -0.00000000000E+00 -0.45593999997E+02  0.45594000000E+02  0.51100000000E-03 0. -1.
    9900012    2    1    2    0    0 -0.29992948410E+02  0.23315301928E+02  0.20986732623E+02  0.47787271844E+02  0.20000003644E+02 0.  0.
         12    1    1    2    0    0  0.29992948410E+02 -0.23315301928E+02 -0.20986732623E+02  0.43400728156E+02  0.00000000000E+00 0. -1.
         11    1    3    3    0    0 -0.29931593558E+01  0.22120367963E+01 -0.16967538752E+01  0.40903647382E+01  0.51100000000E-03 0. -1.
        -11    1    3    3    0    0 -0.17490823152E+01  0.49146765705E+01  0.96983332427E+01  0.11012311414E+02  0.51100000000E-03 0.  1.
        -12    1    3    3    0    0 -0.25250706739E+02  0.16188588561E+02  0.12985153255E+02  0.32684595691E+02  0.00000000000E+00 0.  1.
</event>
<event>
 7    1  0.2459936E-009  0.4778727E+02  0.7816164E-02  0.1312668E+00
        -11   -1    0    0    0    0  0.00000000000E+00  0.00000000000E+00  0.45593999997E+02  0.45594000000E+02  0.51100000000E-03 0.  1.
         11   -1    0    0    0    0 -0.00000000000E+00 -0.00000000000E+00 -0.45593999997E+02  0.45594000000E+02  0.51100000000E-03 0. -1.
    9900012    2    1    2    0    0 -0.15543759481E+02 -0.21523003103E+02  0.34333292965E+02  0.47787272735E+02  0.20000007706E+02 0.  0.
         12    1    1    2    0    0  0.15543759481E+02  0.21523003103E+02 -0.34333292965E+02  0.43400727265E+02  0.00000000000E+00 0. -1.
         11    1    3    3    0    0 -0.31355670793E+01  0.10763609198E+01  0.61460833738E+00  0.33716579613E+01  0.51100000000E-03 0. -1.
        -11    1    3    3    0    0  0.18205374474E+01  0.36284735744E+00  0.27881492227E+01  0.33495956698E+01  0.51100000000E-03 0.  1.
        -12    1    3    3    0    0 -0.14228729849E+02 -0.22962211380E+02  0.30930535404E+02  0.41066019103E+02  0.00000000000E+00 0.  1.
</event>
<event>
 7    1  0.2459936E-009  0.4778727E+02  0.7816164E-02  0.1312668E+00
        -11   -1    0    0    0    0  0.00000000000E+00  0.00000000000E+00  0.45593999997E+02  0.45594000000E+02  0.51100000000E-03 0. -1.
         11   -1    0    0    0    0 -0.00000000000E+00 -0.00000000000E+00 -0.45593999997E+02  0.45594000000E+02  0.51100000000E-03 0.  1.
    9900012    2    1    2    0    0 -0.64178099640E+01  0.41630341628E+02 -0.10457063103E+02  0.47787265012E+02  0.19999972494E+02 0.  0.
         12    1    1    2    0    0  0.64178099640E+01 -0.41630341628E+02  0.10457063103E+02  0.43400734988E+02  0.00000000000E+00 0. -1.
         11    1    3    3    0    0 -0.71452349281E-02  0.15323231702E+02 -0.31867379402E+00  0.15326546711E+02  0.51100000000E-03 0. -1.
        -11    1    3    3    0    0 -0.46227553120E+01  0.27767902641E+02 -0.78826809266E+01  0.29232908556E+02  0.51100000000E-03 0.  1.
        -12    1    3    3    0    0 -0.17879094171E+01 -0.14607927153E+01 -0.22557083828E+01  0.32278097449E+01  0.00000000000E+00 0.  1.
</event>
<event>
 7    1  0.2459936E-009  0.4778727E+02  0.7816164E-02  0.1312668E+00
        -11   -1    0    0    0    0  0.00000000000E+00  0.00000000000E+00  0.45593999997E+02  0.45594000000E+02  0.51100000000E-03 0.  1.
         11   -1    0    0    0    0 -0.00000000000E+00 -0.00000000000E+00 -0.45593999997E+02  0.45594000000E+02  0.51100000000E-03 0. -1.
    9900012    2    1    2    0    0  0.18105543855E+02 -0.19157052400E+02  0.34479264007E+02  0.47787273953E+02  0.20000013260E+02 0.  0.
         12    1    1    2    0    0 -0.18105543855E+02  0.19157052400E+02 -0.34479264007E+02  0.43400726047E+02  0.00000000000E+00 0. -1.
         11    1    3    3    0    0 -0.39056024564E+01 -0.31948615067E+01  0.49806407149E+01  0.70899684616E+01  0.51100000000E-03 0. -1.
        -11    1    3    3    0    0 -0.22638477985E+00 -0.14760978772E+01  0.17389396171E+01  0.22921662820E+01  0.51100000000E-03 0.  1.
        -12    1    3    3    0    0  0.22237531091E+02 -0.14486093016E+02  0.27759683675E+02  0.38405139209E+02  0.00000000000E+00 0.  1.
</event>
<event>
 7    1  0.2459936E-009  0.4778726E+02  0.7816164E-02  0.1312668E+00
        -11   -1    0    0    0    0  0.00000000000E+00  0.00000000000E+00  0.45593999997E+02  0.45594000000E+02  0.51100000000E-03 0.  1.
         11   -1    0    0    0    0 -0.00000000000E+00 -0.00000000000E+00 -0.45593999997E+02  0.45594000000E+02  0.51100000000E-03 0. -1.
    9900012    2    1    2    0    0  0.13665530783E+02  0.37100808676E+02  0.17899926942E+02  0.47787261291E+02  0.19999955528E+02 0.  0.
         12    1    1    2    0    0 -0.13665530783E+02 -0.37100808676E+02 -0.17899926942E+02  0.43400738709E+02  0.00000000000E+00 0. -1.
         11    1    3    3    0    0  0.13836659641E+02  0.14642301749E+02  0.63355011893E+01  0.21118445163E+02  0.51100000000E-03 0. -1.
        -11    1    3    3    0    0  0.66521207554E+00  0.33607853709E+01  0.57408473071E+01  0.66854104944E+01  0.51100000000E-03 0.  1.
         12    1    3    3    0    0 -0.83634093307E+00  0.19097721556E+02  0.58235784458E+01  0.19983405633E+02  0.00000000000E+00 0. -1.
</event>
<event>
 7    1  0.2459936E-009  0.4778727E+02  0.7816164E-02  0.1312668E+00
        -11   -1    0    0    0    0  0.00000000000E+00  0.00000000000E+00  0.45593999997E+02  0.45594000000E+02  0.51100000000E-03 0. -1.
         11   -1    0    0    0    0 -0.00000000000E+00 -0.00000000000E+00 -0.45593999997E+02  0.45594000000E+02  0.51100000000E-03 0.  1.
    9900012    2    1    2    0    0 -0.12739346762E+02  0.38001568107E+02 -0.16649722495E+02  0.47787269665E+02  0.19999993708E+02 0.  0.
         12    1    1    2    0    0  0.12739346762E+02 -0.38001568107E+02  0.16649722495E+02  0.43400730335E+02  0.00000000000E+00 0. -1.
         11    1    3    3    0    0 -0.81101133047E+01  0.11656808968E+02 -0.10708220799E+02  0.17785418918E+02  0.51100000000E-03 0. -1.
        -11    1    3    3    0    0 -0.50574054268E+01  0.12181497096E+02 -0.83760690423E+01  0.15624492120E+02  0.51100000000E-03 0.  1.
         12    1    3    3    0    0  0.42817196948E+00  0.14163262043E+02  0.24345673462E+01  0.14377358627E+02  0.00000000000E+00 0. -1.
</event>
<event>
 7    1  0.2459936E-009  0.4778727E+02  0.7816164E-02  0.1312668E+00
        -11   -1    0    0    0    0  0.00000000000E+00  0.00000000000E+00  0.45593999997E+02  0.45594000000E+02  0.51100000000E-03 0.  1.
         11   -1    0    0    0    0 -0.00000000000E+00 -0.00000000000E+00 -0.45593999997E+02  0.45594000000E+02  0.51100000000E-03 0. -1.
    9900012    2    1    2    0    0 -0.36136633071E+02 -0.22329833950E+02  0.88963677800E+01  0.47787273121E+02  0.20000009466E+02 0.  0.
         12    1    1    2    0    0  0.36136633071E+02  0.22329833950E+02 -0.88963677800E+01  0.43400726879E+02  0.00000000000E+00 0. -1.
         11    1    3    3    0    0  0.51332927056E+00 -0.46771488861E+00 -0.16845815244E+01  0.18221084848E+01  0.51100000000E-03 0. -1.
        -11    1    3    3    0    0 -0.14578665670E+02 -0.12870934535E+02 -0.98963141761E+00  0.19472488776E+02  0.51100000000E-03 0.  1.
         12    1    3    3    0    0 -0.22071296672E+02 -0.89911845261E+01  0.11570580722E+02  0.26492675860E+02  0.00000000000E+00 0. -1.
</event>
<event>
 7    1  0.2459936E-009  0.4778727E+02  0.7816164E-02  0.1312668E+00
        -11   -1    0    0    0    0  0.00000000000E+00  0.00000000000E+00  0.45593999997E+02  0.45594000000E+02  0.51100000000E-03 0.  1.
         11   -1    0    0    0    0 -0.00000000000E+00 -0.00000000000E+00 -0.45593999997E+02  0.45594000000E+02  0.51100000000E-03 0. -1.
    9900012    2    1    2    0    0 -0.20806173157E+02  0.14305184782E+02  0.35299974896E+02  0.47787269813E+02  0.19999994384E+02 0.  0.
         12    1    1    2    0    0  0.20806173157E+02 -0.14305184782E+02 -0.35299974896E+02  0.43400730187E+02  0.00000000000E+00 0. -1.
         11    1    3    3    0    0 -0.53543237032E+01  0.32227760076E+01  0.84217121123E+00  0.63058956639E+01  0.51100000000E-03 0. -1.
        -11    1    3    3    0    0 -0.57054194106E+01  0.11618737198E+02  0.23320264679E+02  0.26671738032E+02  0.51100000000E-03 0.  1.
         12    1    3    3    0    0 -0.97464300436E+01 -0.53632842433E+00  0.11137539007E+02  0.14809636116E+02  0.00000000000E+00 0. -1.
</event>
<event>
 7    1  0.2459936E-009  0.4778728E+02  0.7816164E-02  0.1312668E+00
        -11   -1    0    0    0    0  0.00000000000E+00  0.00000000000E+00  0.45593999997E+02  0.45594000000E+02  0.51100000000E-03 0.  1.
         11   -1    0    0    0    0 -0.00000000000E+00 -0.00000000000E+00 -0.45593999997E+02  0.45594000000E+02  0.51100000000E-03 0. -1.
    9900012    2    1    2    0    0  0.18922138064E+02 -0.37902475421E+02  0.94327972379E+01  0.47787278627E+02  0.20000034572E+02 0.  0.
         12    1    1    2    0    0 -0.18922138064E+02  0.37902475421E+02 -0.94327972379E+01  0.43400721373E+02  0.00000000000E+00 0. -1.
         11    1    3    3    0    0  0.48382265625E+01 -0.57665593406E+01 -0.42527435440E+01  0.86456619649E+01  0.51100000000E-03 0.  1.
        -11    1    3    3    0    0  0.17997143375E+01 -0.87438968582E+01  0.82738380267E+01  0.12171733645E+02  0.51100000000E-03 0. -1.
        -12    1    3    3    0    0  0.12284197164E+02 -0.23392019222E+02  0.54117027552E+01  0.26969883017E+02  0.00000000000E+00 0.  1.
</event>
<event>
 7    1  0.2459936E-009  0.4778727E+02  0.7816164E-02  0.1312668E+00
        -11   -1    0    0    0    0  0.00000000000E+00  0.00000000000E+00  0.45593999997E+02  0.45594000000E+02  0.51100000000E-03 0. -1.
         11   -1    0    0    0    0 -0.00000000000E+00 -0.00000000000E+00 -0.45593999997E+02  0.45594000000E+02  0.51100000000E-03 0.  1.
    9900012    2    1    2    0    0 -0.31262893527E+02  0.25031007013E+02 -0.16724337037E+02  0.47787271053E+02  0.20000000041E+02 0.  0.
         12    1    1    2    0    0  0.31262893527E+02 -0.25031007013E+02  0.16724337037E+02  0.43400728947E+02  0.00000000000E+00 0. -1.
         11    1    3    3    0    0 -0.89964091258E+01  0.36877384236E+01  0.32578610037E+00  0.97283569365E+01  0.51100000000E-03 0. -1.
        -11    1    3    3    0    0 -0.14090390107E+02  0.44277526650E+01 -0.44071560845E+01  0.15413212256E+02  0.51100000000E-03 0.  1.
         12    1    3    3    0    0 -0.81760942947E+01  0.16915515924E+02 -0.12642967053E+02  0.22645701861E+02  0.00000000000E+00 0. -1.
</event>
<event>
 7    1  0.2459936E-009  0.4778727E+02  0.7816164E-02  0.1312668E+00
        -11   -1    0    0    0    0  0.00000000000E+00  0.00000000000E+00  0.45593999997E+02  0.45594000000E+02  0.51100000000E-03 0. -1.
         11   -1    0    0    0    0 -0.00000000000E+00 -0.00000000000E+00 -0.45593999997E+02  0.45594000000E+02  0.51100000000E-03 0.  1.
    9900012    2    1    2    0    0 -0.24499141764E+02 -0.33248996691E+02 -0.13338655154E+02  0.47787269021E+02  0.19999990775E+02 0.  0.
         12    1    1    2    0    0  0.24499141764E+02  0.33248996691E+02  0.13338655154E+02  0.43400730979E+02  0.00000000000E+00 0. -1.
         11    1    3    3    0    0  0.64168142705E+00 -0.25978593714E+01 -0.13215804512E+01  0.29844938461E+01  0.51100000000E-03 0. -1.
        -11    1    3    3    0    0 -0.87473739523E+01 -0.14785049669E+02 -0.13633777365E+02  0.21931578381E+02  0.51100000000E-03 0.  1.
         12    1    3    3    0    0 -0.16393449239E+02 -0.15866087651E+02  0.16167026621E+01  0.22871196794E+02  0.00000000000E+00 0. -1.
</event>
<event>
 7    1  0.2459936E-009  0.4778727E+02  0.7816164E-02  0.1312668E+00
        -11   -1    0    0    0    0  0.00000000000E+00  0.00000000000E+00  0.45593999997E+02  0.45594000000E+02  0.51100000000E-03 0. -1.
         11   -1    0    0    0    0 -0.00000000000E+00 -0.00000000000E+00 -0.45593999997E+02  0.45594000000E+02  0.51100000000E-03 0.  1.
    9900012    2    1    2    0    0 -0.37833278026E+02 -0.16780533644E+02 -0.13064464806E+02  0.47787268713E+02  0.19999989370E+02 0.  0.
         12    1    1    2    0    0  0.37833278026E+02  0.16780533644E+02  0.13064464806E+02  0.43400731287E+02  0.00000000000E+00 0. -1.
         11    1    3    3    0    0 -0.14864093969E+02 -0.29779998070E+00 -0.10704259322E+02  0.18319692744E+02  0.51100000000E-03 0. -1.
        -11    1    3    3    0    0 -0.12558481555E+02 -0.81744328311E+01 -0.51765956113E+01  0.15853515492E+02  0.51100000000E-03 0.  1.
         12    1    3    3    0    0 -0.10410702502E+02 -0.83083008324E+01  0.28163901277E+01  0.13614060476E+02  0.00000000000E+00 0. -1.
</event>
<event>
 7    1  0.2459936E-009  0.4778727E+02  0.7816164E-02  0.1312668E+00
        -11   -1    0    0    0    0  0.00000000000E+00  0.00000000000E+00  0.45593999997E+02  0.45594000000E+02  0.51100000000E-03 0. -1.
         11   -1    0    0    0    0 -0.00000000000E+00 -0.00000000000E+00 -0.45593999997E+02  0.45594000000E+02  0.51100000000E-03 0.  1.
    9900012    2    1    2    0    0 -0.20031702852E+02  0.30290674085E+02 -0.23766130830E+02  0.47787273850E+02  0.20000012793E+02 0.  0.
         12    1    1    2    0    0  0.20031702852E+02 -0.30290674085E+02  0.23766130830E+02  0.43400726150E+02  0.00000000000E+00 0. -1.
         11    1    3    3    0    0  0.19797909500E+01  0.57393489024E+01 -0.31066291884E+01  0.68198858644E+01  0.51100000000E-03 0. -1.
        -11    1    3    3    0    0 -0.12615877286E+02  0.93283312476E+01 -0.16154359008E+02  0.22519801037E+02  0.51100000000E-03 0.  1.
         12    1    3    3    0    0 -0.93956165157E+01  0.15222993935E+02 -0.45051426346E+01  0.18447586948E+02  0.00000000000E+00 0. -1.
</event>
<event>
 7    1  0.2459936E-009  0.4778727E+02  0.7816164E-02  0.1312668E+00
        -11   -1    0    0    0    0  0.00000000000E+00  0.00000000000E+00  0.45593999997E+02  0.45594000000E+02  0.51100000000E-03 0. -1.
         11   -1    0    0    0    0 -0.00000000000E+00 -0.00000000000E+00 -0.45593999997E+02  0.45594000000E+02  0.51100000000E-03 0.  1.
    9900012    2    1    2    0    0  0.25810187542E+02 -0.34427137550E+02  0.56771074164E+01  0.47787272708E+02  0.20000007584E+02 0.  0.
         12    1    1    2    0    0 -0.25810187542E+02  0.34427137550E+02 -0.56771074164E+01  0.43400727292E+02  0.00000000000E+00 0. -1.
         11    1    3    3    0    0  0.13959325485E+01 -0.57116289990E+01 -0.33559137685E+01  0.67700436471E+01  0.51100000000E-03 0. -1.
        -11    1    3    3    0    0  0.55128356650E+01 -0.14897451607E+02  0.74640540677E+01  0.17550997830E+02  0.51100000000E-03 0.  1.
        -12    1    3    3    0    0  0.18901419329E+02 -0.13818056945E+02  0.15689671172E+01  0.23466231231E+02  0.00000000000E+00 0.  1.
</event>
<event>
 7    1  0.2459936E-009  0.4778724E+02  0.7816164E-02  0.1312668E+00
        -11   -1    0    0    0    0  0.00000000000E+00  0.00000000000E+00  0.45593999997E+02  0.45594000000E+02  0.51100000000E-03 0.  1.
         11   -1    0    0    0    0 -0.00000000000E+00 -0.00000000000E+00 -0.45593999997E+02  0.45594000000E+02  0.51100000000E-03 0. -1.
    9900012    2    1    2    0    0 -0.27162245957E+02  0.33494395892E+02  0.48952604862E+01  0.47787242670E+02  0.19999870629E+02 0.  0.
         12    1    1    2    0    0  0.27162245957E+02 -0.33494395892E+02 -0.48952604862E+01  0.43400757330E+02  0.00000000000E+00 0. -1.
         11    1    3    3    0    0 -0.40051289440E+01 -0.11732805807E+01  0.54138514723E+00  0.42084133967E+01  0.51100000000E-03 0.  1.
        -11    1    3    3    0    0  0.55577996721E+00  0.27245885092E+01  0.25219265403E+01  0.37539829051E+01  0.51100000000E-03 0. -1.
        -12    1    3    3    0    0 -0.23712896980E+02  0.31943087963E+02  0.18319487987E+01  0.39824846368E+02  0.00000000000E+00 0.  1.
</event>
<event>
 7    1  0.2459936E-009  0.4778727E+02  0.7816164E-02  0.1312668E+00
        -11   -1    0    0    0    0  0.00000000000E+00  0.00000000000E+00  0.45593999997E+02  0.45594000000E+02  0.51100000000E-03 0.  1.
         11   -1    0    0    0    0 -0.00000000000E+00 -0.00000000000E+00 -0.45593999997E+02  0.45594000000E+02  0.51100000000E-03 0. -1.
    9900012    2    1    2    0    0 -0.19620289623E+02  0.29020687905E+02  0.25621615532E+02  0.47787271045E+02  0.20000000002E+02 0.  0.
         12    1    1    2    0    0  0.19620289623E+02 -0.29020687905E+02 -0.25621615532E+02  0.43400728955E+02  0.00000000000E+00 0. -1.
         11    1    3    3    0    0  0.13006835329E-01 -0.54876829285E+00 -0.14020335637E+01  0.15056607160E+01  0.51100000000E-03 0. -1.
        -11    1    3    3    0    0 -0.25860320533E+01  0.13814701157E+02  0.73889714340E+01  0.15878615460E+02  0.51100000000E-03 0.  1.
        -12    1    3    3    0    0 -0.17047264405E+02  0.15754755041E+02  0.19634677662E+02  0.30402994869E+02  0.00000000000E+00 0.  1.
</event>
<event>
 7    1  0.2459936E-009  0.4778727E+02  0.7816164E-02  0.1312668E+00
        -11   -1    0    0    0    0  0.00000000000E+00  0.00000000000E+00  0.45593999997E+02  0.45594000000E+02  0.51100000000E-03 0.  1.
         11   -1    0    0    0    0 -0.00000000000E+00 -0.00000000000E+00 -0.45593999997E+02  0.45594000000E+02  0.51100000000E-03 0. -1.
    9900012    2    1    2    0    0 -0.88570939236E+01  0.29951636068E+02  0.30134277517E+02  0.47787270774E+02  0.19999998767E+02 0.  0.
         12    1    1    2    0    0  0.88570939236E+01 -0.29951636068E+02 -0.30134277517E+02  0.43400729226E+02  0.00000000000E+00 0. -1.
         11    1    3    3    0    0 -0.39290505233E+01  0.75430772129E+00  0.85132622930E+01  0.94064899555E+01  0.51100000000E-03 0. -1.
        -11    1    3    3    0    0  0.33090803040E+01  0.88335222548E+01  0.90456215931E+01  0.13069215667E+02  0.51100000000E-03 0.  1.
         12    1    3    3    0    0 -0.82371237043E+01  0.20363806092E+02  0.12575393630E+02  0.25311565151E+02  0.00000000000E+00 0. -1.
</event>
<event>
 7    1  0.2459936E-009  0.4778728E+02  0.7816164E-02  0.1312668E+00
        -11   -1    0    0    0    0  0.00000000000E+00  0.00000000000E+00  0.45593999997E+02  0.45594000000E+02  0.51100000000E-03 0. -1.
         11   -1    0    0    0    0 -0.00000000000E+00 -0.00000000000E+00 -0.45593999997E+02  0.45594000000E+02  0.51100000000E-03 0.  1.
    9900012    2    1    2    0    0 -0.12490644160E+02  0.30350037998E+02 -0.28398619422E+02  0.47787279002E+02  0.20000036282E+02 0.  0.
         12    1    1    2    0    0  0.12490644160E+02 -0.30350037998E+02  0.28398619422E+02  0.43400720998E+02  0.00000000000E+00 0. -1.
         11    1    3    3    0    0 -0.17537887084E+01 -0.27949754471E+00 -0.15013272112E+01  0.23254843297E+01  0.51100000000E-03 0. -1.
        -11    1    3    3    0    0 -0.97503707321E+00  0.19760994729E+02 -0.74556967713E+01  0.21143202798E+02  0.51100000000E-03 0.  1.
        -12    1    3    3    0    0 -0.97618183788E+01  0.10868540814E+02 -0.19441595440E+02  0.24318591874E+02  0.00000000000E+00 0.  1.
</event>
<event>
 7    1  0.2459936E-009  0.4778727E+02  0.7816164E-02  0.1312668E+00
        -11   -1    0    0    0    0  0.00000000000E+00  0.00000000000E+00  0.45593999997E+02  0.45594000000E+02  0.51100000000E-03 0. -1.
         11   -1    0    0    0    0 -0.00000000000E+00 -0.00000000000E+00 -0.45593999997E+02  0.45594000000E+02  0.51100000000E-03 0.  1.
    9900012    2    1    2    0    0  0.27675214930E+02 -0.26284512754E+02 -0.20659865763E+02  0.47787272063E+02  0.20000004643E+02 0.  0.
         12    1    1    2    0    0 -0.27675214930E+02  0.26284512754E+02  0.20659865763E+02  0.43400727937E+02  0.00000000000E+00 0. -1.
         11    1    3    3    0    0  0.61920388122E+01 -0.91385194572E+01 -0.12559853237E+02  0.16721357484E+02  0.51100000000E-03 0. -1.
        -11    1    3    3    0    0  0.11161839780E+02 -0.42024261253E+01 -0.82642481068E+01  0.14510163667E+02  0.51100000000E-03 0.  1.
        -12    1    3    3    0    0  0.10321336337E+02 -0.12943567172E+02  0.16423558057E+00  0.16555750911E+02  0.00000000000E+00 0.  1.
</event>
<event>
 7    1  0.2459936E-009  0.4778727E+02  0.7816164E-02  0.1312668E+00
        -11   -1    0    0    0    0  0.00000000000E+00  0.00000000000E+00  0.45593999997E+02  0.45594000000E+02  0.51100000000E-03 0. -1.
         11   -1    0    0    0    0 -0.00000000000E+00 -0.00000000000E+00 -0.45593999997E+02  0.45594000000E+02  0.51100000000E-03 0.  1.
    9900012    2    1    2    0    0 -0.43028557703E+02 -0.24553783840E+01  0.51125131204E+01  0.47787268999E+02  0.19999990674E+02 0.  0.
         12    1    1    2    0    0  0.43028557703E+02  0.24553783840E+01 -0.51125131204E+01  0.43400731001E+02  0.00000000000E+00 0. -1.
         11    1    3    3    0    0 -0.14499561960E+02 -0.44217514839E+00 -0.29692764277E+01  0.14807073265E+02  0.51100000000E-03 0.  1.
        -11    1    3    3    0    0 -0.23075617153E+02  0.31325205705E+01  0.20872954628E+01  0.23380624344E+02  0.51100000000E-03 0. -1.
        -12    1    3    3    0    0 -0.54533785900E+01 -0.51457238061E+01  0.59944940854E+01  0.95995713902E+01  0.00000000000E+00 0.  1.
</event>
<event>
 7    1  0.2459936E-009  0.4778727E+02  0.7816164E-02  0.1312668E+00
        -11   -1    0    0    0    0  0.00000000000E+00  0.00000000000E+00  0.45593999997E+02  0.45594000000E+02  0.51100000000E-03 0. -1.
         11   -1    0    0    0    0 -0.00000000000E+00 -0.00000000000E+00 -0.45593999997E+02  0.45594000000E+02  0.51100000000E-03 0.  1.
    9900012    2    1    2    0    0  0.10528293082E+02 -0.42102682907E+02 -0.37737823843E+00  0.47787271003E+02  0.19999999810E+02 0.  0.
         12    1    1    2    0    0 -0.10528293082E+02  0.42102682907E+02  0.37737823843E+00  0.43400728997E+02  0.00000000000E+00 0. -1.
         11    1    3    3    0    0  0.14415694089E+02 -0.26699289122E+02 -0.35290252414E+00  0.30344502239E+02  0.51100000000E-03 0. -1.
        -11    1    3    3    0    0 -0.19005740946E+00 -0.12984811165E+02 -0.52214978169E+00  0.12996695098E+02  0.51100000000E-03 0.  1.
         12    1    3    3    0    0 -0.36973435974E+01 -0.24185826196E+01  0.49767406740E+00  0.44460736659E+01  0.00000000000E+00 0. -1.
</event>
<event>
 7    1  0.2459936E-009  0.4778727E+02  0.7816164E-02  0.1312668E+00
        -11   -1    0    0    0    0  0.00000000000E+00  0.00000000000E+00  0.45593999997E+02  0.45594000000E+02  0.51100000000E-03 0. -1.
         11   -1    0    0    0    0 -0.00000000000E+00 -0.00000000000E+00 -0.45593999997E+02  0.45594000000E+02  0.51100000000E-03 0.  1.
    9900012    2    1    2    0    0  0.32834385581E+02  0.13163665619E+02 -0.25144471897E+02  0.47787269177E+02  0.19999991486E+02 0.  0.
         12    1    1    2    0    0 -0.32834385581E+02 -0.13163665619E+02  0.25144471897E+02  0.43400730823E+02  0.00000000000E+00 0. -1.
         11    1    3    3    0    0  0.11204344595E+02  0.10093719266E+02 -0.96122752265E+01  0.17883409678E+02  0.51100000000E-03 0. -1.
        -11    1    3    3    0    0  0.73115473820E+01  0.35023223950E+01 -0.13053225635E+02  0.15365926168E+02  0.51100000000E-03 0.  1.
         12    1    3    3    0    0  0.14318493604E+02 -0.43237604240E+00 -0.24789710360E+01  0.14537933331E+02  0.00000000000E+00 0. -1.
</event>
<event>
 7    1  0.2459936E-009  0.4778727E+02  0.7816164E-02  0.1312668E+00
        -11   -1    0    0    0    0  0.00000000000E+00  0.00000000000E+00  0.45593999997E+02  0.45594000000E+02  0.51100000000E-03 0.  1.
         11   -1    0    0    0    0 -0.00000000000E+00 -0.00000000000E+00 -0.45593999997E+02  0.45594000000E+02  0.51100000000E-03 0. -1.
    9900012    2    1    2    0    0  0.32794150695E+02  0.28262124631E+02  0.30690876585E+01  0.47787270657E+02  0.19999998233E+02 0.  0.
         12    1    1    2    0    0 -0.32794150695E+02 -0.28262124631E+02 -0.30690876585E+01  0.43400729343E+02  0.00000000000E+00 0. -1.
         11    1    3    3    0    0  0.16578787714E+02  0.41485645418E+01  0.15201950052E+01  0.17157441037E+02  0.51100000000E-03 0. -1.
        -11    1    3    3    0    0  0.86668253312E+01  0.53188964462E+01 -0.99251802457E+00  0.10217123520E+02  0.51100000000E-03 0.  1.
         12    1    3    3    0    0  0.75485376503E+01  0.18794663643E+02  0.25414106779E+01  0.20412706100E+02  0.00000000000E+00 0. -1.
</event>
<event>
 7    1  0.2459936E-009  0.4778727E+02  0.7816164E-02  0.1312668E+00
        -11   -1    0    0    0    0  0.00000000000E+00  0.00000000000E+00  0.45593999997E+02  0.45594000000E+02  0.51100000000E-03 0.  1.
         11   -1    0    0    0    0 -0.00000000000E+00 -0.00000000000E+00 -0.45593999997E+02  0.45594000000E+02  0.51100000000E-03 0. -1.
    9900012    2    1    2    0    0 -0.31751445474E+02  0.43378220981E+01  0.29268619143E+02  0.47787273546E+02  0.20000011405E+02 0.  0.
         12    1    1    2    0    0  0.31751445474E+02 -0.43378220981E+01 -0.29268619143E+02  0.43400726454E+02  0.00000000000E+00 0. -1.
         11    1    3    3    0    0 -0.13128738642E+01  0.44886877041E+01  0.57867956408E+01  0.74403601484E+01  0.51100000000E-03 0. -1.
        -11    1    3    3    0    0 -0.12865792200E+02  0.42473042125E+01  0.15398158923E+02  0.20510277923E+02  0.51100000000E-03 0.  1.
         12    1    3    3    0    0 -0.17572779410E+02 -0.43981698184E+01  0.80836645793E+01  0.19836635475E+02  0.00000000000E+00 0. -1.
</event>
<event>
 7    1  0.2459936E-009  0.4778726E+02  0.7816164E-02  0.1312668E+00
        -11   -1    0    0    0    0  0.00000000000E+00  0.00000000000E+00  0.45593999997E+02  0.45594000000E+02  0.51100000000E-03 0.  1.
         11   -1    0    0    0    0 -0.00000000000E+00 -0.00000000000E+00 -0.45593999997E+02  0.45594000000E+02  0.51100000000E-03 0. -1.
    9900012    2    1    2    0    0 -0.26085349086E+02 -0.34536474853E+02  0.32265081210E+01  0.47787263983E+02  0.19999967802E+02 0.  0.
         12    1    1    2    0    0  0.26085349086E+02  0.34536474853E+02 -0.32265081210E+01  0.43400736017E+02  0.00000000000E+00 0. -1.
         11    1    3    3    0    0 -0.47581161134E+00 -0.20239354599E+01  0.78299860159E+00  0.22216657054E+01  0.51100000000E-03 0. -1.
        -11    1    3    3    0    0 -0.16783797632E+02 -0.11476250174E+02  0.83826350765E+01  0.21992470350E+02  0.51100000000E-03 0.  1.
         12    1    3    3    0    0 -0.88257398419E+01 -0.21036289220E+02 -0.59391255571E+01  0.23573127927E+02  0.00000000000E+00 0. -1.
</event>
<event>
 7    1  0.2459936E-009  0.4778727E+02  0.7816164E-02  0.1312668E+00
        -11   -1    0    0    0    0  0.00000000000E+00  0.00000000000E+00  0.45593999997E+02  0.45594000000E+02  0.51100000000E-03 0. -1.
         11   -1    0    0    0    0 -0.00000000000E+00 -0.00000000000E+00 -0.45593999997E+02  0.45594000000E+02  0.51100000000E-03 0.  1.
    9900012    2    1    2    0    0  0.30458653054E+02  0.10031899882E+02 -0.29244736982E+02  0.47787271870E+02  0.20000003763E+02 0.  0.
         12    1    1    2    0    0 -0.30458653054E+02 -0.10031899882E+02  0.29244736982E+02  0.43400728130E+02  0.00000000000E+00 0. -1.
         11    1    3    3    0    0  0.10724308988E+02 -0.20825140521E+01 -0.58252709894E+01  0.12380688608E+02  0.51100000000E-03 0. -1.
        -11    1    3    3    0    0 -0.28278041520E+00  0.38496873650E+00 -0.69221011201E+01  0.69385625218E+01  0.51100000000E-03 0.  1.
        -12    1    3    3    0    0  0.20017124481E+02  0.11729445197E+02 -0.16497364872E+02  0.28468020740E+02  0.00000000000E+00 0.  1.
</event>
<event>
 7    1  0.2459936E-009  0.4778727E+02  0.7816164E-02  0.1312668E+00
        -11   -1    0    0    0    0  0.00000000000E+00  0.00000000000E+00  0.45593999997E+02  0.45594000000E+02  0.51100000000E-03 0. -1.
         11   -1    0    0    0    0 -0.00000000000E+00 -0.00000000000E+00 -0.45593999997E+02  0.45594000000E+02  0.51100000000E-03 0.  1.
    9900012    2    1    2    0    0 -0.66831222173E+01 -0.42864364557E+02 -0.12671435487E+01  0.47787268160E+02  0.19999986850E+02 0.  0.
         12    1    1    2    0    0  0.66831222173E+01  0.42864364557E+02  0.12671435487E+01  0.43400731840E+02  0.00000000000E+00 0. -1.
         11    1    3    3    0    0 -0.22399339148E+01  0.15871268648E+01  0.54071908042E+00  0.27979730186E+01  0.51100000000E-03 0. -1.
        -11    1    3    3    0    0 -0.20157811455E+01 -0.64214426156E+01  0.87746583512E+00  0.67873592395E+01  0.51100000000E-03 0.  1.
         12    1    3    3    0    0 -0.24274071570E+01 -0.38030048806E+02 -0.26853284642E+01  0.38201935902E+02  0.00000000000E+00 0. -1.
</event>
<event>
 7    1  0.2459936E-009  0.4778727E+02  0.7816164E-02  0.1312668E+00
        -11   -1    0    0    0    0  0.00000000000E+00  0.00000000000E+00  0.45593999997E+02  0.45594000000E+02  0.51100000000E-03 0.  1.
         11   -1    0    0    0    0 -0.00000000000E+00 -0.00000000000E+00 -0.45593999997E+02  0.45594000000E+02  0.51100000000E-03 0. -1.
    9900012    2    1    2    0    0  0.15679028570E+02 -0.88033213119E+01  0.39500544037E+02  0.47787269796E+02  0.19999994310E+02 0.  0.
         12    1    1    2    0    0 -0.15679028570E+02  0.88033213119E+01 -0.39500544037E+02  0.43400730204E+02  0.00000000000E+00 0. -1.
         11    1    3    3    0    0  0.81518449810E+01 -0.82188273932E+01  0.12766792015E+02  0.17233475533E+02  0.51100000000E-03 0. -1.
        -11    1    3    3    0    0  0.96810881371E+01 -0.41753310505E+01  0.17814826172E+02  0.20700842705E+02  0.51100000000E-03 0.  1.
         12    1    3    3    0    0 -0.21539045484E+01  0.35908371318E+01  0.89189258492E+01  0.98529515585E+01  0.00000000000E+00 0. -1.
</event>
<event>
 7    1  0.2459936E-009  0.4778727E+02  0.7816164E-02  0.1312668E+00
        -11   -1    0    0    0    0  0.00000000000E+00  0.00000000000E+00  0.45593999997E+02  0.45594000000E+02  0.51100000000E-03 0.  1.
         11   -1    0    0    0    0 -0.00000000000E+00 -0.00000000000E+00 -0.45593999997E+02  0.45594000000E+02  0.51100000000E-03 0. -1.
    9900012    2    1    2    0    0 -0.25909574012E+02 -0.13373268891E+02  0.32147677297E+02  0.47787268417E+02  0.19999988020E+02 0.  0.
         12    1    1    2    0    0  0.25909574012E+02  0.13373268891E+02 -0.32147677297E+02  0.43400731583E+02  0.00000000000E+00 0. -1.
         11    1    3    3    0    0 -0.28389090742E+01  0.30592018898E+00  0.12733200777E+01  0.31263934773E+01  0.51100000000E-03 0. -1.
        -11    1    3    3    0    0 -0.72618152781E+00 -0.41253723633E+01  0.15144219225E+02  0.15712842294E+02  0.51100000000E-03 0.  1.
         12    1    3    3    0    0 -0.22344483410E+02 -0.95538167170E+01  0.15730137995E+02  0.28948032646E+02  0.00000000000E+00 0. -1.
</event>
<event>
 7    1  0.2459936E-009  0.4778723E+02  0.7816164E-02  0.1312668E+00
        -11   -1    0    0    0    0  0.00000000000E+00  0.00000000000E+00  0.45593999997E+02  0.45594000000E+02  0.51100000000E-03 0.  1.
         11   -1    0    0    0    0 -0.00000000000E+00 -0.00000000000E+00 -0.45593999997E+02  0.45594000000E+02  0.51100000000E-03 0. -1.
    9900012    2    1    2    0    0 -0.38173435971E+02  0.41023940323E+01  0.20238221808E+02  0.47787234194E+02  0.19999831983E+02 0.  0.
         12    1    1    2    0    0  0.38173435971E+02 -0.41023940323E+01 -0.20238221808E+02  0.43400765806E+02  0.00000000000E+00 0. -1.
         11    1    3    3    0    0 -0.86826927395E+01 -0.53153312329E+00 -0.63367635170E+00  0.87219967123E+01  0.51100000000E-03 0. -1.
        -11    1    3    3    0    0 -0.36857581880E+01  0.40424797341E+01  0.92747107045E+01  0.10767855624E+02  0.51100000000E-03 0.  1.
        -12    1    3    3    0    0 -0.25804985044E+02  0.59144742145E+00  0.11597187455E+02  0.28297381858E+02  0.00000000000E+00 0.  1.
</event>
<event>
 7    1  0.2459936E-009  0.4778727E+02  0.7816164E-02  0.1312668E+00
        -11   -1    0    0    0    0  0.00000000000E+00  0.00000000000E+00  0.45593999997E+02  0.45594000000E+02  0.51100000000E-03 0.  1.
         11   -1    0    0    0    0 -0.00000000000E+00 -0.00000000000E+00 -0.45593999997E+02  0.45594000000E+02  0.51100000000E-03 0. -1.
    9900012    2    1    2    0    0  0.24303283226E+02 -0.20999551236E+02  0.29188915725E+02  0.47787268107E+02  0.19999986605E+02 0.  0.
         12    1    1    2    0    0 -0.24303283226E+02  0.20999551236E+02 -0.29188915725E+02  0.43400731893E+02  0.00000000000E+00 0. -1.
         11    1    3    3    0    0  0.66346100040E+01 -0.80053204377E+01  0.13643467066E+00  0.10398164256E+02  0.51100000000E-03 0. -1.
        -11    1    3    3    0    0  0.24964344106E+01  0.11283413106E+01  0.43685404940E+01  0.51564993153E+01  0.51100000000E-03 0.  1.
        -12    1    3    3    0    0  0.15172238811E+02 -0.14122572109E+02  0.24683940561E+02  0.32232604535E+02  0.00000000000E+00 0.  1.
</event>
<event>
 7    1  0.2459936E-009  0.4778727E+02  0.7816164E-02  0.1312668E+00
        -11   -1    0    0    0    0  0.00000000000E+00  0.00000000000E+00  0.45593999997E+02  0.45594000000E+02  0.51100000000E-03 0.  1.
         11   -1    0    0    0    0 -0.00000000000E+00 -0.00000000000E+00 -0.45593999997E+02  0.45594000000E+02  0.51100000000E-03 0. -1.
    9900012    2    1    2    0    0  0.20955284706E+02 -0.53280049493E+01  0.37631256519E+02  0.47787273496E+02  0.20000011178E+02 0.  0.
         12    1    1    2    0    0 -0.20955284706E+02  0.53280049493E+01 -0.37631256519E+02  0.43400726504E+02  0.00000000000E+00 0. -1.
         11    1    3    3    0    0  0.17053464598E+02 -0.87968421934E+01  0.21011357583E+02  0.28454915834E+02  0.51100000000E-03 0. -1.
        -11    1    3    3    0    0  0.35692609484E+01 -0.80852022794E+00  0.13605179190E+02  0.14088798023E+02  0.51100000000E-03 0.  1.
        -12    1    3    3    0    0  0.33255915951E+00  0.42773574721E+01  0.30147197459E+01  0.52435596387E+01  0.00000000000E+00 0.  1.
</event>
<event>
 7    1  0.2459936E-009  0.4778727E+02  0.7816164E-02  0.1312668E+00
        -11   -1    0    0    0    0  0.00000000000E+00  0.00000000000E+00  0.45593999997E+02  0.45594000000E+02  0.51100000000E-03 0.  1.
         11   -1    0    0    0    0 -0.00000000000E+00 -0.00000000000E+00 -0.45593999997E+02  0.45594000000E+02  0.51100000000E-03 0. -1.
    9900012    2    1    2    0    0  0.11760697341E+02  0.41657001495E+01  0.41568692688E+02  0.47787271072E+02  0.20000000125E+02 0.  0.
         12    1    1    2    0    0 -0.11760697341E+02 -0.41657001495E+01 -0.41568692688E+02  0.43400728928E+02  0.00000000000E+00 0. -1.
         11    1    3    3    0    0 -0.84024258476E+00  0.33250284917E+01  0.81401976903E+01  0.88331557651E+01  0.51100000000E-03 0. -1.
        -11    1    3    3    0    0  0.94659409294E+01  0.31046733524E+01  0.33637261737E+02  0.35081453957E+02  0.51100000000E-03 0.  1.
        -12    1    3    3    0    0  0.31349989960E+01 -0.22640016946E+01 -0.20876673899E+00  0.38726613496E+01  0.00000000000E+00 0.  1.
</event>
<event>
 7    1  0.2459936E-009  0.4778727E+02  0.7816164E-02  0.1312668E+00
        -11   -1    0    0    0    0  0.00000000000E+00  0.00000000000E+00  0.45593999997E+02  0.45594000000E+02  0.51100000000E-03 0.  1.
         11   -1    0    0    0    0 -0.00000000000E+00 -0.00000000000E+00 -0.45593999997E+02  0.45594000000E+02  0.51100000000E-03 0. -1.
    9900012    2    1    2    0    0 -0.10214495414E+02  0.68474939024E+01  0.41622097402E+02  0.47787273261E+02  0.20000010108E+02 0.  0.
         12    1    1    2    0    0  0.10214495414E+02 -0.68474939024E+01 -0.41622097402E+02  0.43400726739E+02  0.00000000000E+00 0. -1.
         11    1    3    3    0    0 -0.50368243569E+01 -0.19774061539E+01  0.43650893376E+01  0.69522471106E+01  0.51100000000E-03 0. -1.
        -11    1    3    3    0    0 -0.10401796842E+01  0.94224127035E+00 -0.89071780926E+00  0.16622788165E+01  0.51100000000E-03 0.  1.
        -12    1    3    3    0    0 -0.41374913728E+01  0.78826587859E+01  0.38147725874E+02  0.39172747334E+02  0.00000000000E+00 0.  1.
</event>
<event>
 7    1  0.2459936E-009  0.4778727E+02  0.7816164E-02  0.1312668E+00
        -11   -1    0    0    0    0  0.00000000000E+00  0.00000000000E+00  0.45593999997E+02  0.45594000000E+02  0.51100000000E-03 0. -1.
         11   -1    0    0    0    0 -0.00000000000E+00 -0.00000000000E+00 -0.45593999997E+02  0.45594000000E+02  0.51100000000E-03 0.  1.
    9900012    2    1    2    0    0 -0.93862142354E+01 -0.11864510619E+02 -0.40678686517E+02  0.47787272280E+02  0.20000005633E+02 0.  0.
         12    1    1    2    0    0  0.93862142354E+01  0.11864510619E+02  0.40678686517E+02  0.43400727720E+02  0.00000000000E+00 0. -1.
         11    1    3    3    0    0  0.15782322479E+01 -0.60578671689E+01 -0.52697651529E+01  0.81828477129E+01  0.51100000000E-03 0. -1.
        -11    1    3    3    0    0 -0.31296896812E+01  0.13054892855E+01 -0.89826826194E+00  0.35080116742E+01  0.51100000000E-03 0.  1.
        -12    1    3    3    0    0 -0.78347568022E+01 -0.71121327360E+01 -0.34510653102E+02  0.36096412893E+02  0.00000000000E+00 0.  1.
</event>
<event>
 7    1  0.2459936E-009  0.4778727E+02  0.7816164E-02  0.1312668E+00
        -11   -1    0    0    0    0  0.00000000000E+00  0.00000000000E+00  0.45593999997E+02  0.45594000000E+02  0.51100000000E-03 0. -1.
         11   -1    0    0    0    0 -0.00000000000E+00 -0.00000000000E+00 -0.45593999997E+02  0.45594000000E+02  0.51100000000E-03 0.  1.
    9900012    2    1    2    0    0 -0.35271193617E+02 -0.68916514035E+01  0.24332518709E+02  0.47787269304E+02  0.19999992065E+02 0.  0.
         12    1    1    2    0    0  0.35271193617E+02  0.68916514035E+01 -0.24332518709E+02  0.43400730696E+02  0.00000000000E+00 0. -1.
         11    1    3    3    0    0 -0.14697736971E+02 -0.13748529127E+01  0.19291557341E+02  0.24291518633E+02  0.51100000000E-03 0. -1.
        -11    1    3    3    0    0 -0.20267717373E+01  0.26051124480E-01  0.35414935719E+01  0.40805219417E+01  0.51100000000E-03 0.  1.
        -12    1    3    3    0    0 -0.18546684908E+02 -0.55428496153E+01  0.14994677963E+01  0.19415228729E+02  0.00000000000E+00 0.  1.
</event>
<event>
 7    1  0.2459936E-009  0.4778727E+02  0.7816164E-02  0.1312668E+00
        -11   -1    0    0    0    0  0.00000000000E+00  0.00000000000E+00  0.45593999997E+02  0.45594000000E+02  0.51100000000E-03 0. -1.
         11   -1    0    0    0    0 -0.00000000000E+00 -0.00000000000E+00 -0.45593999997E+02  0.45594000000E+02  0.51100000000E-03 0.  1.
    9900012    2    1    2    0    0  0.33373434323E+02 -0.11130009792E+01 -0.27723607889E+02  0.47787270466E+02  0.19999997363E+02 0.  0.
         12    1    1    2    0    0 -0.33373434323E+02  0.11130009792E+01  0.27723607889E+02  0.43400729534E+02  0.00000000000E+00 0. -1.
         11    1    3    3    0    0  0.30920204083E+01  0.29638435298E+01 -0.20827957566E+01  0.47626670154E+01  0.51100000000E-03 0. -1.
        -11    1    3    3    0    0  0.28311792600E+02 -0.16157706748E+01 -0.15316605637E+02  0.32229904182E+02  0.51100000000E-03 0.  1.
         12    1    3    3    0    0  0.19696213151E+01 -0.24610738342E+01 -0.10324206495E+02  0.10794699269E+02  0.00000000000E+00 0. -1.
</event>
<event>
 7    1  0.2459936E-009  0.4778727E+02  0.7816164E-02  0.1312668E+00
        -11   -1    0    0    0    0  0.00000000000E+00  0.00000000000E+00  0.45593999997E+02  0.45594000000E+02  0.51100000000E-03 0.  1.
         11   -1    0    0    0    0 -0.00000000000E+00 -0.00000000000E+00 -0.45593999997E+02  0.45594000000E+02  0.51100000000E-03 0. -1.
    9900012    2    1    2    0    0  0.60917034685E+01 -0.16388199506E+02  0.39723312417E+02  0.47787268628E+02  0.19999988983E+02 0.  0.
         12    1    1    2    0    0 -0.60917034685E+01  0.16388199506E+02 -0.39723312417E+02  0.43400731372E+02  0.00000000000E+00 0. -1.
         11    1    3    3    0    0  0.64364458514E+01 -0.31187985262E+00  0.24515173624E+01  0.68945661125E+01  0.51100000000E-03 0. -1.
        -11    1    3    3    0    0  0.37919279462E+00 -0.27467926227E+01  0.11951848108E+02  0.12269284020E+02  0.51100000000E-03 0.  1.
         12    1    3    3    0    0 -0.72393517756E+00 -0.13329527031E+02  0.25319946947E+02  0.28623418496E+02  0.00000000000E+00 0. -1.
</event>
<event>
 7    1  0.2459936E-009  0.4778727E+02  0.7816164E-02  0.1312668E+00
        -11   -1    0    0    0    0  0.00000000000E+00  0.00000000000E+00  0.45593999997E+02  0.45594000000E+02  0.51100000000E-03 0. -1.
         11   -1    0    0    0    0 -0.00000000000E+00 -0.00000000000E+00 -0.45593999997E+02  0.45594000000E+02  0.51100000000E-03 0.  1.
    9900012    2    1    2    0    0 -0.48205450868E+01 -0.13919462534E+02 -0.40824431596E+02  0.47787270660E+02  0.19999998246E+02 0.  0.
         12    1    1    2    0    0  0.48205450868E+01  0.13919462534E+02  0.40824431596E+02  0.43400729340E+02  0.00000000000E+00 0. -1.
         11    1    3    3    0    0  0.14282767902E+01 -0.12672687064E+02 -0.19018128393E+02  0.22898169792E+02  0.51100000000E-03 0. -1.
        -11    1    3    3    0    0 -0.44056890641E+01 -0.40468481127E+01 -0.20390864476E+02  0.21250280707E+02  0.51100000000E-03 0.  1.
         12    1    3    3    0    0 -0.18431328129E+01  0.28000726430E+01 -0.14154387268E+01  0.36388201607E+01  0.00000000000E+00 0. -1.
</event>
<event>
 7    1  0.2459936E-009  0.4778727E+02  0.7816164E-02  0.1312668E+00
        -11   -1    0    0    0    0  0.00000000000E+00  0.00000000000E+00  0.45593999997E+02  0.45594000000E+02  0.51100000000E-03 0. -1.
         11   -1    0    0    0    0 -0.00000000000E+00 -0.00000000000E+00 -0.45593999997E+02  0.45594000000E+02  0.51100000000E-03 0.  1.
    9900012    2    1    2    0    0  0.16573149580E+02 -0.40110596479E+02  0.30663752529E+00  0.47787271165E+02  0.20000000548E+02 0.  0.
         12    1    1    2    0    0 -0.16573149580E+02  0.40110596479E+02 -0.30663752529E+00  0.43400728835E+02  0.00000000000E+00 0. -1.
         11    1    3    3    0    0  0.85434819350E+01 -0.58908949634E+01  0.38443144225E+01  0.11066728545E+02  0.51100000000E-03 0. -1.
        -11    1    3    3    0    0  0.40359541715E+01 -0.15516227394E+02 -0.66257988721E+01  0.17347721741E+02  0.51100000000E-03 0.  1.
        -12    1    3    3    0    0  0.39937134731E+01 -0.18703474121E+02  0.30881219749E+01  0.19372820879E+02  0.00000000000E+00 0.  1.
</event>
<event>
 7    1  0.2459936E-009  0.4778727E+02  0.7816164E-02  0.1312668E+00
        -11   -1    0    0    0    0  0.00000000000E+00  0.00000000000E+00  0.45593999997E+02  0.45594000000E+02  0.51100000000E-03 0. -1.
         11   -1    0    0    0    0 -0.00000000000E+00 -0.00000000000E+00 -0.45593999997E+02  0.45594000000E+02  0.51100000000E-03 0.  1.
    9900012    2    1    2    0    0 -0.21982803639E+01 -0.47931192699E+01 -0.43079191297E+02  0.47787272452E+02  0.20000006418E+02 0.  0.
         12    1    1    2    0    0  0.21982803639E+01  0.47931192699E+01  0.43079191297E+02  0.43400727548E+02  0.00000000000E+00 0. -1.
         11    1    3    3    0    0 -0.32253506096E+01 -0.43304942623E+01 -0.85251957401E+01  0.10091334390E+02  0.51100000000E-03 0. -1.
        -11    1    3    3    0    0 -0.34212481729E+01 -0.60979851391E+01 -0.23473996421E+02  0.24493241314E+02  0.51100000000E-03 0.  1.
         12    1    3    3    0    0  0.44483184185E+01  0.56353601315E+01 -0.11079999136E+02  0.13202696748E+02  0.00000000000E+00 0. -1.
</event>
<event>
 7    1  0.2459936E-009  0.4778727E+02  0.7816164E-02  0.1312668E+00
        -11   -1    0    0    0    0  0.00000000000E+00  0.00000000000E+00  0.45593999997E+02  0.45594000000E+02  0.51100000000E-03 0. -1.
         11   -1    0    0    0    0 -0.00000000000E+00 -0.00000000000E+00 -0.45593999997E+02  0.45594000000E+02  0.51100000000E-03 0.  1.
    9900012    2    1    2    0    0 -0.23835566669E+01  0.42879053240E+02  0.62712616949E+01  0.47787271062E+02  0.20000000080E+02 0.  0.
         12    1    1    2    0    0  0.23835566669E+01 -0.42879053240E+02 -0.62712616949E+01  0.43400728938E+02  0.00000000000E+00 0. -1.
         11    1    3    3    0    0  0.39658458379E+01  0.14847025835E+02  0.71576147844E+01  0.16952685894E+02  0.51100000000E-03 0. -1.
        -11    1    3    3    0    0 -0.54617120968E+01  0.19218311279E+02  0.44828998999E+01  0.20476087986E+02  0.51100000000E-03 0.  1.
        -12    1    3    3    0    0 -0.88769040800E+00  0.88137161258E+01 -0.53692529893E+01  0.10358497182E+02  0.00000000000E+00 0.  1.
</event>
<event>
 7    1  0.2459936E-009  0.4778727E+02  0.7816164E-02  0.1312668E+00
        -11   -1    0    0    0    0  0.00000000000E+00  0.00000000000E+00  0.45593999997E+02  0.45594000000E+02  0.51100000000E-03 0.  1.
         11   -1    0    0    0    0 -0.00000000000E+00 -0.00000000000E+00 -0.45593999997E+02  0.45594000000E+02  0.51100000000E-03 0. -1.
    9900012    2    1    2    0    0 -0.10472599448E+02  0.29881608820E+01  0.42012124422E+02  0.47787273703E+02  0.20000012120E+02 0.  0.
         12    1    1    2    0    0  0.10472599448E+02 -0.29881608820E+01 -0.42012124422E+02  0.43400726297E+02  0.00000000000E+00 0. -1.
         11    1    3    3    0    0 -0.53042420198E+01 -0.43669883033E-01  0.71298271566E+00  0.53521243518E+01  0.51100000000E-03 0. -1.
        -11    1    3    3    0    0  0.83731302980E-01 -0.22558751246E+01  0.80165060991E+01  0.83282863668E+01  0.51100000000E-03 0.  1.
        -12    1    3    3    0    0 -0.52520887312E+01  0.52877058897E+01  0.33282635608E+02  0.34106862984E+02  0.00000000000E+00 0.  1.
</event>
<event>
 7    1  0.2459936E-009  0.4778727E+02  0.7816164E-02  0.1312668E+00
        -11   -1    0    0    0    0  0.00000000000E+00  0.00000000000E+00  0.45593999997E+02  0.45594000000E+02  0.51100000000E-03 0.  1.
         11   -1    0    0    0    0 -0.00000000000E+00 -0.00000000000E+00 -0.45593999997E+02  0.45594000000E+02  0.51100000000E-03 0. -1.
    9900012    2    1    2    0    0 -0.26122940077E+02 -0.10977735966E+01  0.34641163573E+02  0.47787270527E+02  0.19999997641E+02 0.  0.
         12    1    1    2    0    0  0.26122940077E+02  0.10977735966E+01 -0.34641163573E+02  0.43400729473E+02  0.00000000000E+00 0. -1.
         11    1    3    3    0    0 -0.35565791902E+01  0.32147915524E+01  0.57449128436E+01  0.74825239127E+01  0.51100000000E-03 0.  1.
        -11    1    3    3    0    0 -0.22250955442E+02 -0.16857762847E+01  0.16824725201E+02  0.27946703529E+02  0.51100000000E-03 0. -1.
         12    1    3    3    0    0 -0.31540544407E+00 -0.26267888644E+01  0.12071525528E+02  0.12358043086E+02  0.00000000000E+00 0. -1.
</event>
<event>
 7    1  0.2459936E-009  0.4778727E+02  0.7816164E-02  0.1312668E+00
        -11   -1    0    0    0    0  0.00000000000E+00  0.00000000000E+00  0.45593999997E+02  0.45594000000E+02  0.51100000000E-03 0.  1.
         11   -1    0    0    0    0 -0.00000000000E+00 -0.00000000000E+00 -0.45593999997E+02  0.45594000000E+02  0.51100000000E-03 0. -1.
    9900012    2    1    2    0    0 -0.11090879957E+02  0.34855669869E+02  0.23360171703E+02  0.47787274635E+02  0.20000016370E+02 0.  0.
         12    1    1    2    0    0  0.11090879957E+02 -0.34855669869E+02 -0.23360171703E+02  0.43400725365E+02  0.00000000000E+00 0. -1.
         11    1    3    3    0    0 -0.35568338837E+01  0.12293142470E+02  0.77198115215E+01  0.14945497960E+02  0.51100000000E-03 0. -1.
        -11    1    3    3    0    0 -0.10928344259E+02  0.22832729329E+02  0.14844854988E+02  0.29345049952E+02  0.51100000000E-03 0.  1.
         12    1    3    3    0    0  0.33942981861E+01 -0.27020193028E+00  0.79550519424E+00  0.34967267228E+01  0.00000000000E+00 0. -1.
</event>
<event>
 7    1  0.2459936E-009  0.4778727E+02  0.7816164E-02  0.1312668E+00
        -11   -1    0    0    0    0  0.00000000000E+00  0.00000000000E+00  0.45593999997E+02  0.45594000000E+02  0.51100000000E-03 0. -1.
         11   -1    0    0    0    0 -0.00000000000E+00 -0.00000000000E+00 -0.45593999997E+02  0.45594000000E+02  0.51100000000E-03 0.  1.
    9900012    2    1    2    0    0  0.24663585888E+02 -0.12619717037E+02 -0.33407684280E+02  0.47787273095E+02  0.20000009349E+02 0.  0.
         12    1    1    2    0    0 -0.24663585888E+02  0.12619717037E+02  0.33407684280E+02  0.43400726905E+02  0.00000000000E+00 0. -1.
         11    1    3    3    0    0 -0.55302184985E+00  0.13968875730E+01 -0.31254988122E+00  0.15345408914E+01  0.51100000000E-03 0. -1.
        -11    1    3    3    0    0  0.80523465464E+01 -0.59531083933E+01 -0.26068013113E+01  0.10347714616E+02  0.51100000000E-03 0.  1.
        -12    1    3    3    0    0  0.17164261191E+02 -0.80634962168E+01 -0.30488333088E+02  0.35905017587E+02  0.00000000000E+00 0.  1.
</event>
<event>
 7    1  0.2459936E-009  0.4778727E+02  0.7816164E-02  0.1312668E+00
        -11   -1    0    0    0    0  0.00000000000E+00  0.00000000000E+00  0.45593999997E+02  0.45594000000E+02  0.51100000000E-03 0. -1.
         11   -1    0    0    0    0 -0.00000000000E+00 -0.00000000000E+00 -0.45593999997E+02  0.45594000000E+02  0.51100000000E-03 0.  1.
    9900012    2    1    2    0    0  0.29445435273E+02 -0.30777539974E+02 -0.83266258384E+01  0.47787270477E+02  0.19999997412E+02 0.  0.
         12    1    1    2    0    0 -0.29445435273E+02  0.30777539974E+02  0.83266258384E+01  0.43400729523E+02  0.00000000000E+00 0. -1.
         11    1    3    3    0    0  0.12475974739E+02 -0.71408821138E+01  0.44715282876E+01  0.15054458095E+02  0.51100000000E-03 0. -1.
        -11    1    3    3    0    0  0.11944067503E+02 -0.19645682616E+02 -0.68691949423E+01  0.23995821165E+02  0.51100000000E-03 0.  1.
        -12    1    3    3    0    0  0.50253930312E+01 -0.39909752449E+01 -0.59289591837E+01  0.87369912169E+01  0.00000000000E+00 0.  1.
</event>
<event>
 7    1  0.2459936E-009  0.4778727E+02  0.7816164E-02  0.1312668E+00
        -11   -1    0    0    0    0  0.00000000000E+00  0.00000000000E+00  0.45593999997E+02  0.45594000000E+02  0.51100000000E-03 0.  1.
         11   -1    0    0    0    0 -0.00000000000E+00 -0.00000000000E+00 -0.45593999997E+02  0.45594000000E+02  0.51100000000E-03 0. -1.
    9900012    2    1    2    0    0 -0.11093031281E+00 -0.14084641939E+02  0.41051601816E+02  0.47787268950E+02  0.19999990449E+02 0.  0.
         12    1    1    2    0    0  0.11093031281E+00  0.14084641939E+02 -0.41051601816E+02  0.43400731050E+02  0.00000000000E+00 0. -1.
         11    1    3    3    0    0 -0.25005273160E+01  0.26859892417E+00  0.10199889684E+02  0.10505357303E+02  0.51100000000E-03 0. -1.
        -11    1    3    3    0    0  0.60477040486E+01 -0.61390759737E+01  0.25268708262E+02  0.26697763868E+02  0.51100000000E-03 0.  1.
         12    1    3    3    0    0 -0.36581070454E+01 -0.82141648894E+01  0.55830038700E+01  0.10584147779E+02  0.00000000000E+00 0. -1.
</event>
<event>
 7    1  0.2459936E-009  0.4778727E+02  0.7816164E-02  0.1312668E+00
        -11   -1    0    0    0    0  0.00000000000E+00  0.00000000000E+00  0.45593999997E+02  0.45594000000E+02  0.51100000000E-03 0.  1.
         11   -1    0    0    0    0 -0.00000000000E+00 -0.00000000000E+00 -0.45593999997E+02  0.45594000000E+02  0.51100000000E-03 0. -1.
    9900012    2    1    2    0    0  0.18785778000E+02 -0.21065605857E+02  0.32969049810E+02  0.47787269009E+02  0.19999990720E+02 0.  0.
         12    1    1    2    0    0 -0.18785778000E+02  0.21065605857E+02 -0.32969049810E+02  0.43400730991E+02  0.00000000000E+00 0. -1.
         11    1    3    3    0    0  0.17516433039E+01  0.90026790333E-01 -0.64661391347E-02  0.17539672629E+01  0.51100000000E-03 0. -1.
        -11    1    3    3    0    0  0.13958468375E+02 -0.24107376103E+02  0.28601046045E+02  0.39925233337E+02  0.51100000000E-03 0.  1.
        -12    1    3    3    0    0  0.30756663214E+01  0.29517434554E+01  0.43744699040E+01  0.61080684089E+01  0.00000000000E+00 0.  1.
</event>
<event>
 7    1  0.2459936E-009  0.4778730E+02  0.7816164E-02  0.1312668E+00
        -11   -1    0    0    0    0  0.00000000000E+00  0.00000000000E+00  0.45593999997E+02  0.45594000000E+02  0.51100000000E-03 0.  1.
         11   -1    0    0    0    0 -0.00000000000E+00 -0.00000000000E+00 -0.45593999997E+02  0.45594000000E+02  0.51100000000E-03 0. -1.
    9900012    2    1    2    0    0  0.11035760165E+02  0.36083487500E+02  0.21443281903E+02  0.47787304022E+02  0.20000150359E+02 0.  0.
         12    1    1    2    0    0 -0.11035760165E+02 -0.36083487500E+02 -0.21443281903E+02  0.43400695978E+02  0.00000000000E+00 0. -1.
         11    1    3    3    0    0  0.95943658346E+00  0.46395370389E+01 -0.15792442226E+01  0.49939798827E+01  0.51100000000E-03 0. -1.
        -11    1    3    3    0    0  0.94839521051E+01  0.11519706609E+02  0.45060641766E+01  0.15586968997E+02  0.51100000000E-03 0.  1.
        -12    1    3    3    0    0  0.59237147614E+00  0.19924243852E+02  0.18516461949E+02  0.27206355142E+02  0.00000000000E+00 0.  1.
</event>
<event>
 7    1  0.2459936E-009  0.4778729E+02  0.7816164E-02  0.1312668E+00
        -11   -1    0    0    0    0  0.00000000000E+00  0.00000000000E+00  0.45593999997E+02  0.45594000000E+02  0.51100000000E-03 0.  1.
         11   -1    0    0    0    0 -0.00000000000E+00 -0.00000000000E+00 -0.45593999997E+02  0.45594000000E+02  0.51100000000E-03 0. -1.
    9900012    2    1    2    0    0  0.50026311874E+01  0.18633590413E+02  0.38876531415E+02  0.47787289115E+02  0.20000082391E+02 0.  0.
         12    1    1    2    0    0 -0.50026311874E+01 -0.18633590413E+02 -0.38876531415E+02  0.43400710885E+02  0.00000000000E+00 0. -1.
         11    1    3    3    0    0  0.63381114533E+00  0.17957785214E+01  0.49414561251E+01  0.52957082589E+01  0.51100000000E-03 0. -1.
        -11    1    3    3    0    0  0.89310308439E+01  0.18457875925E+02  0.29496482445E+02  0.35923515592E+02  0.51100000000E-03 0.  1.
         12    1    3    3    0    0 -0.45622108019E+01 -0.16200640334E+01  0.44385928450E+01  0.65680652644E+01  0.00000000000E+00 0. -1.
</event>
<event>
 7    1  0.2459936E-009  0.4778727E+02  0.7816164E-02  0.1312668E+00
        -11   -1    0    0    0    0  0.00000000000E+00  0.00000000000E+00  0.45593999997E+02  0.45594000000E+02  0.51100000000E-03 0.  1.
         11   -1    0    0    0    0 -0.00000000000E+00 -0.00000000000E+00 -0.45593999997E+02  0.45594000000E+02  0.51100000000E-03 0. -1.
    9900012    2    1    2    0    0  0.39322137970E+02  0.18203288364E+02 -0.24562596539E+01  0.47787268977E+02  0.19999990576E+02 0.  0.
         12    1    1    2    0    0 -0.39322137970E+02 -0.18203288364E+02  0.24562596539E+01  0.43400731023E+02  0.00000000000E+00 0. -1.
         11    1    3    3    0    0 -0.10464323591E+01  0.74241769165E+00  0.21556152031E+01  0.25085617147E+01  0.51100000000E-03 0. -1.
        -11    1    3    3    0    0  0.58912819165E+01  0.48786661923E+01  0.21809689582E+01  0.79539431915E+01  0.51100000000E-03 0.  1.
        -12    1    3    3    0    0  0.34477288413E+02  0.12582204480E+02 -0.67928438152E+01  0.37324764071E+02  0.00000000000E+00 0.  1.
</event>
<event>
 7    1  0.2459936E-009  0.4778726E+02  0.7816164E-02  0.1312668E+00
        -11   -1    0    0    0    0  0.00000000000E+00  0.00000000000E+00  0.45593999997E+02  0.45594000000E+02  0.51100000000E-03 0.  1.
         11   -1    0    0    0    0 -0.00000000000E+00 -0.00000000000E+00 -0.45593999997E+02  0.45594000000E+02  0.51100000000E-03 0. -1.
    9900012    2    1    2    0    0 -0.27101093072E+02  0.33505682947E+02  0.51501494300E+01  0.47787261820E+02  0.19999957941E+02 0.  0.
         12    1    1    2    0    0  0.27101093072E+02 -0.33505682947E+02 -0.51501494300E+01  0.43400738180E+02  0.00000000000E+00 0. -1.
         11    1    3    3    0    0 -0.69640153287E+01  0.39296119840E+01 -0.12900071951E+01  0.80995974386E+01  0.51100000000E-03 0. -1.
        -11    1    3    3    0    0 -0.20200514993E+02  0.16907340336E+02  0.27118235225E+01  0.26481558683E+02  0.51100000000E-03 0.  1.
         12    1    3    3    0    0  0.63437248982E-01  0.12668730627E+02  0.37283331026E+01  0.13206105698E+02  0.00000000000E+00 0. -1.
</event>
<event>
 7    1  0.2459936E-009  0.4778727E+02  0.7816164E-02  0.1312668E+00
        -11   -1    0    0    0    0  0.00000000000E+00  0.00000000000E+00  0.45593999997E+02  0.45594000000E+02  0.51100000000E-03 0.  1.
         11   -1    0    0    0    0 -0.00000000000E+00 -0.00000000000E+00 -0.45593999997E+02  0.45594000000E+02  0.51100000000E-03 0. -1.
    9900012    2    1    2    0    0  0.40137197136E+01 -0.38946928956E+02  0.18725647925E+02  0.47787272918E+02  0.20000008541E+02 0.  0.
         12    1    1    2    0    0 -0.40137197136E+01  0.38946928956E+02 -0.18725647925E+02  0.43400727082E+02  0.00000000000E+00 0. -1.
         11    1    3    3    0    0  0.49243565930E+01 -0.13639065891E+02  0.95198319424E+01  0.17346486869E+02  0.51100000000E-03 0. -1.
        -11    1    3    3    0    0  0.77537326168E+00 -0.13198209284E+02  0.12049361063E+02  0.17888013704E+02  0.51100000000E-03 0.  1.
         12    1    3    3    0    0 -0.16860101411E+01 -0.12109653781E+02 -0.28435450806E+01  0.12552772344E+02  0.00000000000E+00 0. -1.
</event>
<event>
 7    1  0.2459936E-009  0.4778727E+02  0.7816164E-02  0.1312668E+00
        -11   -1    0    0    0    0  0.00000000000E+00  0.00000000000E+00  0.45593999997E+02  0.45594000000E+02  0.51100000000E-03 0. -1.
         11   -1    0    0    0    0 -0.00000000000E+00 -0.00000000000E+00 -0.45593999997E+02  0.45594000000E+02  0.51100000000E-03 0.  1.
    9900012    2    1    2    0    0 -0.38059540014E+01 -0.10880919010E+02 -0.41841889375E+02  0.47787269697E+02  0.19999993854E+02 0.  0.
         12    1    1    2    0    0  0.38059540014E+01  0.10880919010E+02  0.41841889375E+02  0.43400730303E+02  0.00000000000E+00 0. -1.
         11    1    3    3    0    0 -0.59271283327E+01 -0.30618375674E+01 -0.93954874882E+01  0.11523058837E+02  0.51100000000E-03 0. -1.
        -11    1    3    3    0    0  0.13939592915E+00  0.15579705399E+01 -0.22121083772E+02  0.22176317344E+02  0.51100000000E-03 0.  1.
        -12    1    3    3    0    0  0.19817784021E+01 -0.93770519827E+01 -0.10325318115E+02  0.14087893515E+02  0.00000000000E+00 0.  1.
</event>
<event>
 7    1  0.2459936E-009  0.4778728E+02  0.7816164E-02  0.1312668E+00
        -11   -1    0    0    0    0  0.00000000000E+00  0.00000000000E+00  0.45593999997E+02  0.45594000000E+02  0.51100000000E-03 0. -1.
         11   -1    0    0    0    0 -0.00000000000E+00 -0.00000000000E+00 -0.45593999997E+02  0.45594000000E+02  0.51100000000E-03 0.  1.
    9900012    2    1    2    0    0  0.24752826712E+02  0.11997020965E+02 -0.33570699367E+02  0.47787276524E+02  0.20000024985E+02 0.  0.
         12    1    1    2    0    0 -0.24752826712E+02 -0.11997020965E+02  0.33570699367E+02  0.43400723476E+02  0.00000000000E+00 0. -1.
         11    1    3    3    0    0  0.10069880718E+02  0.10821855046E+02 -0.89187546867E+01  0.17264391960E+02  0.51100000000E-03 0. -1.
        -11    1    3    3    0    0  0.13202289606E+02  0.18973817410E+01 -0.12565342223E+02  0.18324528200E+02  0.51100000000E-03 0.  1.
         12    1    3    3    0    0  0.14806563868E+01 -0.72221582198E+00 -0.12086602457E+02  0.12198356364E+02  0.00000000000E+00 0. -1.
</event>
<event>
 7    1  0.2459936E-009  0.4778727E+02  0.7816164E-02  0.1312668E+00
        -11   -1    0    0    0    0  0.00000000000E+00  0.00000000000E+00  0.45593999997E+02  0.45594000000E+02  0.51100000000E-03 0.  1.
         11   -1    0    0    0    0 -0.00000000000E+00 -0.00000000000E+00 -0.45593999997E+02  0.45594000000E+02  0.51100000000E-03 0. -1.
    9900012    2    1    2    0    0  0.10917957631E+02 -0.31630648065E+02  0.27639167334E+02  0.47787271127E+02  0.20000000375E+02 0.  0.
         12    1    1    2    0    0 -0.10917957631E+02  0.31630648065E+02 -0.27639167334E+02  0.43400728873E+02  0.00000000000E+00 0. -1.
         11    1    3    3    0    0  0.18139924076E+01 -0.20727205859E+02  0.24466385303E+02  0.32117154937E+02  0.51100000000E-03 0. -1.
        -11    1    3    3    0    0  0.50630017014E+01 -0.53203818405E+01  0.45530763430E+01  0.86412356526E+01  0.51100000000E-03 0.  1.
         12    1    3    3    0    0  0.40409635220E+01 -0.55830603647E+01 -0.13802943118E+01  0.70288805374E+01  0.00000000000E+00 0. -1.
</event>
<event>
 7    1  0.2459936E-009  0.4778727E+02  0.7816164E-02  0.1312668E+00
        -11   -1    0    0    0    0  0.00000000000E+00  0.00000000000E+00  0.45593999997E+02  0.45594000000E+02  0.51100000000E-03 0.  1.
         11   -1    0    0    0    0 -0.00000000000E+00 -0.00000000000E+00 -0.45593999997E+02  0.45594000000E+02  0.51100000000E-03 0. -1.
    9900012    2    1    2    0    0 -0.33272071014E+01 -0.30053208799E+02  0.31134509047E+02  0.47787270515E+02  0.19999997586E+02 0.  0.
         12    1    1    2    0    0  0.33272071014E+01  0.30053208799E+02 -0.31134509047E+02  0.43400729485E+02  0.00000000000E+00 0. -1.
         11    1    3    3    0    0  0.15000565089E+01 -0.63246787686E+01  0.54914135443E+01  0.85092510852E+01  0.51100000000E-03 0. -1.
        -11    1    3    3    0    0 -0.84833956891E+01 -0.19185904323E+02  0.26033631188E+02  0.33433768561E+02  0.51100000000E-03 0.  1.
        -12    1    3    3    0    0  0.36561320788E+01 -0.45426257076E+01 -0.39053568485E+00  0.58442508688E+01  0.00000000000E+00 0.  1.
</event>
<event>
 7    1  0.2459936E-009  0.4778729E+02  0.7816164E-02  0.1312668E+00
        -11   -1    0    0    0    0  0.00000000000E+00  0.00000000000E+00  0.45593999997E+02  0.45594000000E+02  0.51100000000E-03 0. -1.
         11   -1    0    0    0    0 -0.00000000000E+00 -0.00000000000E+00 -0.45593999997E+02  0.45594000000E+02  0.51100000000E-03 0.  1.
    9900012    2    1    2    0    0  0.17011225939E+02 -0.39524883062E+02 -0.56589307380E+01  0.47787289336E+02  0.20000083399E+02 0.  0.
         12    1    1    2    0    0 -0.17011225939E+02  0.39524883062E+02  0.56589307380E+01  0.43400710664E+02  0.00000000000E+00 0. -1.
         11    1    3    3    0    0  0.80952255092E+01 -0.16170987183E+02  0.93266896301E-01  0.18084308156E+02  0.51100000000E-03 0. -1.
        -11    1    3    3    0    0  0.28113297181E+00 -0.19375802487E+02 -0.56887369205E+01  0.20195605606E+02  0.51100000000E-03 0.  1.
         12    1    3    3    0    0  0.86348674577E+01 -0.39780933923E+01 -0.63460713803E-01  0.95073755744E+01  0.00000000000E+00 0. -1.
</event>
<event>
 7    1  0.2459936E-009  0.4778727E+02  0.7816164E-02  0.1312668E+00
        -11   -1    0    0    0    0  0.00000000000E+00  0.00000000000E+00  0.45593999997E+02  0.45594000000E+02  0.51100000000E-03 0. -1.
         11   -1    0    0    0    0 -0.00000000000E+00 -0.00000000000E+00 -0.45593999997E+02  0.45594000000E+02  0.51100000000E-03 0.  1.
    9900012    2    1    2    0    0 -0.19412253327E+01  0.33486595897E+01 -0.43227783258E+02  0.47787272792E+02  0.20000007966E+02 0.  0.
         12    1    1    2    0    0  0.19412253327E+01 -0.33486595897E+01  0.43227783258E+02  0.43400727208E+02  0.00000000000E+00 0. -1.
         11    1    3    3    0    0 -0.10535344802E+01  0.27892335042E+01 -0.48827529440E+01  0.57211043528E+01  0.51100000000E-03 0. -1.
        -11    1    3    3    0    0 -0.60893381495E+01 -0.31033270088E+01 -0.33165788164E+02  0.33862666499E+02  0.51100000000E-03 0.  1.
        -12    1    3    3    0    0  0.52016472970E+01  0.36627530943E+01 -0.51792421501E+01  0.82035019401E+01  0.00000000000E+00 0.  1.
</event>
<event>
 7    1  0.2459936E-009  0.4778726E+02  0.7816164E-02  0.1312668E+00
        -11   -1    0    0    0    0  0.00000000000E+00  0.00000000000E+00  0.45593999997E+02  0.45594000000E+02  0.51100000000E-03 0.  1.
         11   -1    0    0    0    0 -0.00000000000E+00 -0.00000000000E+00 -0.45593999997E+02  0.45594000000E+02  0.51100000000E-03 0. -1.
    9900012    2    1    2    0    0 -0.59510053029E+01 -0.14578467976E+02  0.40443518546E+02  0.47787258243E+02  0.19999941634E+02 0.  0.
         12    1    1    2    0    0  0.59510053029E+01  0.14578467976E+02 -0.40443518546E+02  0.43400741757E+02  0.00000000000E+00 0. -1.
         11    1    3    3    0    0  0.30840575277E+01  0.12954038481E+01  0.28149271525E+01  0.43718756958E+01  0.51100000000E-03 0. -1.
        -11    1    3    3    0    0 -0.74650959803E+00 -0.11832911822E+01  0.15639554233E+02  0.15702009791E+02  0.51100000000E-03 0.  1.
        -12    1    3    3    0    0 -0.82885532326E+01 -0.14690580642E+02  0.21989037160E+02  0.27713372756E+02  0.00000000000E+00 0.  1.
</event>
<event>
 7    1  0.2459936E-009  0.4778727E+02  0.7816164E-02  0.1312668E+00
        -11   -1    0    0    0    0  0.00000000000E+00  0.00000000000E+00  0.45593999997E+02  0.45594000000E+02  0.51100000000E-03 0.  1.
         11   -1    0    0    0    0 -0.00000000000E+00 -0.00000000000E+00 -0.45593999997E+02  0.45594000000E+02  0.51100000000E-03 0. -1.
    9900012    2    1    2    0    0 -0.31735434169E+02  0.22394525864E+02  0.19364160058E+02  0.47787271144E+02  0.20000000452E+02 0.  0.
         12    1    1    2    0    0  0.31735434169E+02 -0.22394525864E+02 -0.19364160058E+02  0.43400728856E+02  0.00000000000E+00 0. -1.
         11    1    3    3    0    0 -0.27063824135E+01  0.45259850879E+01 -0.33033532716E+01  0.62226352843E+01  0.51100000000E-03 0. -1.
        -11    1    3    3    0    0 -0.35734803140E+01  0.26757591802E+01  0.62403530700E+01  0.76727736474E+01  0.51100000000E-03 0.  1.
         12    1    3    3    0    0 -0.25455571441E+02  0.15192781596E+02  0.16427160259E+02  0.33891862212E+02  0.00000000000E+00 0. -1.
</event>
<event>
 7    1  0.2459936E-009  0.4778727E+02  0.7816164E-02  0.1312668E+00
        -11   -1    0    0    0    0  0.00000000000E+00  0.00000000000E+00  0.45593999997E+02  0.45594000000E+02  0.51100000000E-03 0. -1.
         11   -1    0    0    0    0 -0.00000000000E+00 -0.00000000000E+00 -0.45593999997E+02  0.45594000000E+02  0.51100000000E-03 0.  1.
    9900012    2    1    2    0    0 -0.30281486457E+02 -0.10323889725E+02 -0.29326983004E+02  0.47787273586E+02  0.20000011589E+02 0.  0.
         12    1    1    2    0    0  0.30281486457E+02  0.10323889725E+02  0.29326983004E+02  0.43400726414E+02  0.00000000000E+00 0. -1.
         11    1    3    3    0    0 -0.23887724846E+01 -0.67705675894E+01 -0.43230515561E+01  0.83806679020E+01  0.51100000000E-03 0. -1.
        -11    1    3    3    0    0 -0.10354921306E+02 -0.67361992234E+01 -0.12901239534E+02  0.17861768026E+02  0.51100000000E-03 0.  1.
         12    1    3    3    0    0 -0.17537792666E+02  0.31828770875E+01 -0.12102691915E+02  0.21544837659E+02  0.00000000000E+00 0. -1.
</event>
<event>
 7    1  0.2459936E-009  0.4778727E+02  0.7816164E-02  0.1312668E+00
        -11   -1    0    0    0    0  0.00000000000E+00  0.00000000000E+00  0.45593999997E+02  0.45594000000E+02  0.51100000000E-03 0.  1.
         11   -1    0    0    0    0 -0.00000000000E+00 -0.00000000000E+00 -0.45593999997E+02  0.45594000000E+02  0.51100000000E-03 0. -1.
    9900012    2    1    2    0    0  0.18597084434E+02  0.26651588327E+02  0.28765683518E+02  0.47787271227E+02  0.20000000832E+02 0.  0.
         12    1    1    2    0    0 -0.18597084434E+02 -0.26651588327E+02 -0.28765683518E+02  0.43400728773E+02  0.00000000000E+00 0. -1.
         11    1    3    3    0    0  0.35265241120E+01  0.57167747890E+01  0.80588690645E+01  0.10491103715E+02  0.51100000000E-03 0. -1.
        -11    1    3    3    0    0  0.79763101064E+01  0.15606715735E+02  0.22215038381E+02  0.28296625761E+02  0.51100000000E-03 0.  1.
         12    1    3    3    0    0  0.70942502152E+01  0.53280978032E+01 -0.15082239271E+01  0.89995417511E+01  0.00000000000E+00 0. -1.
</event>
<event>
 7    1  0.2459936E-009  0.4778727E+02  0.7816164E-02  0.1312668E+00
        -11   -1    0    0    0    0  0.00000000000E+00  0.00000000000E+00  0.45593999997E+02  0.45594000000E+02  0.51100000000E-03 0.  1.
         11   -1    0    0    0    0 -0.00000000000E+00 -0.00000000000E+00 -0.45593999997E+02  0.45594000000E+02  0.51100000000E-03 0. -1.
    9900012    2    1    2    0    0 -0.18892122756E+02  0.14211981963E+02  0.36396848438E+02  0.47787270631E+02  0.19999998116E+02 0.  0.
         12    1    1    2    0    0  0.18892122756E+02 -0.14211981963E+02 -0.36396848438E+02  0.43400729369E+02  0.00000000000E+00 0. -1.
         11    1    3    3    0    0 -0.92400583429E+01  0.15531307036E+02  0.17374489974E+02  0.25069365340E+02  0.51100000000E-03 0. -1.
        -11    1    3    3    0    0 -0.43766299938E+01 -0.13163648150E+00  0.15860638839E+02  0.16453938218E+02  0.51100000000E-03 0.  1.
        -12    1    3    3    0    0 -0.52754344196E+01 -0.11876885911E+01  0.31617196248E+01  0.62639670729E+01  0.00000000000E+00 0.  1.
</event>
<event>
 7    1  0.2459936E-009  0.4778728E+02  0.7816164E-02  0.1312668E+00
        -11   -1    0    0    0    0  0.00000000000E+00  0.00000000000E+00  0.45593999997E+02  0.45594000000E+02  0.51100000000E-03 0.  1.
         11   -1    0    0    0    0 -0.00000000000E+00 -0.00000000000E+00 -0.45593999997E+02  0.45594000000E+02  0.51100000000E-03 0. -1.
    9900012    2    1    2    0    0  0.10372449722E+02 -0.19315514595E+02  0.37455917114E+02  0.47787279452E+02  0.20000038331E+02 0.  0.
         12    1    1    2    0    0 -0.10372449722E+02  0.19315514595E+02 -0.37455917114E+02  0.43400720548E+02  0.00000000000E+00 0. -1.
         11    1    3    3    0    0  0.10144401010E+01 -0.66354075029E+00 -0.29773463612E+00  0.12482072025E+01  0.51100000000E-03 0. -1.
        -11    1    3    3    0    0  0.48725170706E+01  0.61510881855E+00  0.13268512889E+01  0.50872700013E+01  0.51100000000E-03 0.  1.
         12    1    3    3    0    0  0.44854925508E+01 -0.19267082663E+02  0.36426800461E+02  0.41451802248E+02  0.00000000000E+00 0. -1.
</event>
<event>
 7    1  0.2459936E-009  0.4778727E+02  0.7816164E-02  0.1312668E+00
        -11   -1    0    0    0    0  0.00000000000E+00  0.00000000000E+00  0.45593999997E+02  0.45594000000E+02  0.51100000000E-03 0.  1.
         11   -1    0    0    0    0 -0.00000000000E+00 -0.00000000000E+00 -0.45593999997E+02  0.45594000000E+02  0.51100000000E-03 0. -1.
    9900012    2    1    2    0    0 -0.19042641548E+02  0.14198956609E+02  0.36323418044E+02  0.47787271155E+02  0.20000000504E+02 0.  0.
         12    1    1    2    0    0  0.19042641548E+02 -0.14198956609E+02 -0.36323418044E+02  0.43400728845E+02  0.00000000000E+00 0. -1.
         11    1    3    3    0    0 -0.64797654859E+01 -0.19035364752E+01  0.18049778675E+02  0.19271879056E+02  0.51100000000E-03 0. -1.
        -11    1    3    3    0    0 -0.64985577560E+01  0.26608116342E+01  0.45235915871E+01  0.83530864098E+01  0.51100000000E-03 0.  1.
         12    1    3    3    0    0 -0.60643183061E+01  0.13441681450E+02  0.13750047782E+02  0.20162305689E+02  0.00000000000E+00 0. -1.
</event>
<event>
 7    1  0.2459936E-009  0.4778727E+02  0.7816164E-02  0.1312668E+00
        -11   -1    0    0    0    0  0.00000000000E+00  0.00000000000E+00  0.45593999997E+02  0.45594000000E+02  0.51100000000E-03 0.  1.
         11   -1    0    0    0    0 -0.00000000000E+00 -0.00000000000E+00 -0.45593999997E+02  0.45594000000E+02  0.51100000000E-03 0. -1.
    9900012    2    1    2    0    0 -0.46363466154E+01 -0.32450050107E+02  0.28445063234E+02  0.47787273229E+02  0.20000009959E+02 0.  0.
         12    1    1    2    0    0  0.46363466154E+01  0.32450050107E+02 -0.28445063234E+02  0.43400726771E+02  0.00000000000E+00 0. -1.
         11    1    3    3    0    0 -0.29850719748E+00 -0.69637942194E+01  0.31656442969E+01  0.76553798438E+01  0.51100000000E-03 0. -1.
        -11    1    3    3    0    0  0.58054677696E+00 -0.89542305439E+01  0.20275901436E+02  0.22172673688E+02  0.51100000000E-03 0.  1.
        -12    1    3    3    0    0 -0.49183861948E+01 -0.16532025344E+02  0.50035175013E+01  0.17959219696E+02  0.00000000000E+00 0.  1.
</event>
<event>
 7    1  0.2459936E-009  0.4778726E+02  0.7816164E-02  0.1312668E+00
        -11   -1    0    0    0    0  0.00000000000E+00  0.00000000000E+00  0.45593999997E+02  0.45594000000E+02  0.51100000000E-03 0. -1.
         11   -1    0    0    0    0 -0.00000000000E+00 -0.00000000000E+00 -0.45593999997E+02  0.45594000000E+02  0.51100000000E-03 0.  1.
    9900012    2    1    2    0    0  0.15542740225E+02 -0.36266485948E+02 -0.18077307238E+02  0.47787264825E+02  0.19999971644E+02 0.  0.
         12    1    1    2    0    0 -0.15542740225E+02  0.36266485948E+02  0.18077307238E+02  0.43400735175E+02  0.00000000000E+00 0. -1.
         11    1    3    3    0    0 -0.10302348728E+01 -0.14873736227E+01 -0.42473113184E+00  0.18585104202E+01  0.51100000000E-03 0. -1.
        -11    1    3    3    0    0  0.17276700500E+02 -0.18415398226E+02 -0.14902722134E+02  0.29320682107E+02  0.51100000000E-03 0.  1.
        -12    1    3    3    0    0 -0.70372540255E+00 -0.16363714100E+02 -0.27498539727E+01  0.16608072298E+02  0.00000000000E+00 0.  1.
</event>
<event>
 7    1  0.2459936E-009  0.4778727E+02  0.7816164E-02  0.1312668E+00
        -11   -1    0    0    0    0  0.00000000000E+00  0.00000000000E+00  0.45593999997E+02  0.45594000000E+02  0.51100000000E-03 0.  1.
         11   -1    0    0    0    0 -0.00000000000E+00 -0.00000000000E+00 -0.45593999997E+02  0.45594000000E+02  0.51100000000E-03 0. -1.
    9900012    2    1    2    0    0 -0.39954973526E+02  0.12025737789E+02  0.11941742746E+02  0.47787268455E+02  0.19999988194E+02 0.  0.
         12    1    1    2    0    0  0.39954973526E+02 -0.12025737789E+02 -0.11941742746E+02  0.43400731545E+02  0.00000000000E+00 0. -1.
         11    1    3    3    0    0 -0.64865835003E+01  0.20706817407E+01 -0.39224775730E+01  0.78580734884E+01  0.51100000000E-03 0. -1.
        -11    1    3    3    0    0 -0.10491816159E+02  0.25361351395E+01 -0.42703386893E+00  0.10802432409E+02  0.51100000000E-03 0.  1.
        -12    1    3    3    0    0 -0.22976573867E+02  0.74189209088E+01  0.16291254188E+02  0.29126762558E+02  0.00000000000E+00 0.  1.
</event>
<event>
 7    1  0.2459936E-009  0.4778726E+02  0.7816164E-02  0.1312668E+00
        -11   -1    0    0    0    0  0.00000000000E+00  0.00000000000E+00  0.45593999997E+02  0.45594000000E+02  0.51100000000E-03 0.  1.
         11   -1    0    0    0    0 -0.00000000000E+00 -0.00000000000E+00 -0.45593999997E+02  0.45594000000E+02  0.51100000000E-03 0. -1.
    9900012    2    1    2    0    0 -0.21801406524E+02 -0.32952180076E+02  0.17957646116E+02  0.47787256317E+02  0.19999932852E+02 0.  0.
         12    1    1    2    0    0  0.21801406524E+02  0.32952180076E+02 -0.17957646116E+02  0.43400743683E+02  0.00000000000E+00 0. -1.
         11    1    3    3    0    0  0.20173274350E+00  0.11856495255E+01 -0.10410507237E-02  0.12026895868E+01  0.51100000000E-03 0. -1.
        -11    1    3    3    0    0 -0.27615204315E+01 -0.16868970114E+02  0.80815336444E+01  0.18907652792E+02  0.51100000000E-03 0.  1.
        -12    1    3    3    0    0 -0.19241618836E+02 -0.17268859487E+02  0.98771535226E+01  0.27676913938E+02  0.00000000000E+00 0.  1.
</event>
<event>
 7    1  0.2459936E-009  0.4778727E+02  0.7816164E-02  0.1312668E+00
        -11   -1    0    0    0    0  0.00000000000E+00  0.00000000000E+00  0.45593999997E+02  0.45594000000E+02  0.51100000000E-03 0.  1.
         11   -1    0    0    0    0 -0.00000000000E+00 -0.00000000000E+00 -0.45593999997E+02  0.45594000000E+02  0.51100000000E-03 0. -1.
    9900012    2    1    2    0    0  0.40197946993E+02 -0.15599998624E+02 -0.49384407019E+01  0.47787273093E+02  0.20000009339E+02 0.  0.
         12    1    1    2    0    0 -0.40197946993E+02  0.15599998624E+02  0.49384407019E+01  0.43400726907E+02  0.00000000000E+00 0. -1.
         11    1    3    3    0    0  0.45094678658E+01  0.21021413676E+01  0.14847820879E+01  0.51921938399E+01  0.51100000000E-03 0. -1.
        -11    1    3    3    0    0  0.15618236463E+02 -0.87045404238E+01  0.38963271882E+01  0.18299718578E+02  0.51100000000E-03 0.  1.
         12    1    3    3    0    0  0.20070242664E+02 -0.89975995679E+01 -0.10319549978E+02  0.24295360675E+02  0.00000000000E+00 0. -1.
</event>
<event>
 7    1  0.2459936E-009  0.4778727E+02  0.7816164E-02  0.1312668E+00
        -11   -1    0    0    0    0  0.00000000000E+00  0.00000000000E+00  0.45593999997E+02  0.45594000000E+02  0.51100000000E-03 0.  1.
         11   -1    0    0    0    0 -0.00000000000E+00 -0.00000000000E+00 -0.45593999997E+02  0.45594000000E+02  0.51100000000E-03 0. -1.
    9900012    2    1    2    0    0  0.56293491600E+01  0.33080874110E+02  0.27524344873E+02  0.47787270000E+02  0.19999995239E+02 0.  0.
         12    1    1    2    0    0 -0.56293491600E+01 -0.33080874110E+02 -0.27524344873E+02  0.43400730000E+02  0.00000000000E+00 0. -1.
         11    1    3    3    0    0 -0.16138197267E+01  0.11247953349E+02  0.10715139029E+02  0.15618420961E+02  0.51100000000E-03 0. -1.
        -11    1    3    3    0    0 -0.16769632332E+01  0.15251388535E+02  0.13911450437E+02  0.20710999770E+02  0.51100000000E-03 0.  1.
         12    1    3    3    0    0  0.89201321199E+01  0.65815322261E+01  0.28977554063E+01  0.11457849269E+02  0.00000000000E+00 0. -1.
</event>
<event>
 7    1  0.2459936E-009  0.4778727E+02  0.7816164E-02  0.1312668E+00
        -11   -1    0    0    0    0  0.00000000000E+00  0.00000000000E+00  0.45593999997E+02  0.45594000000E+02  0.51100000000E-03 0.  1.
         11   -1    0    0    0    0 -0.00000000000E+00 -0.00000000000E+00 -0.45593999997E+02  0.45594000000E+02  0.51100000000E-03 0. -1.
    9900012    2    1    2    0    0 -0.15302237195E+02 -0.10783847516E+02  0.39155757073E+02  0.47787272560E+02  0.20000006909E+02 0.  0.
         12    1    1    2    0    0  0.15302237195E+02  0.10783847516E+02 -0.39155757073E+02  0.43400727440E+02  0.00000000000E+00 0. -1.
         11    1    3    3    0    0  0.75940269955E+00  0.67116226667E+00  0.41634396454E+01  0.42850182252E+01  0.51100000000E-03 0. -1.
        -11    1    3    3    0    0 -0.11181477074E+02 -0.35925626297E+01  0.31488263539E+02  0.33607181922E+02  0.51100000000E-03 0.  1.
         12    1    3    3    0    0 -0.48801628206E+01 -0.78624471534E+01  0.35040538885E+01  0.98950724125E+01  0.00000000000E+00 0. -1.
</event>
<event>
 7    1  0.2459936E-009  0.4778723E+02  0.7816164E-02  0.1312668E+00
        -11   -1    0    0    0    0  0.00000000000E+00  0.00000000000E+00  0.45593999997E+02  0.45594000000E+02  0.51100000000E-03 0.  1.
         11   -1    0    0    0    0 -0.00000000000E+00 -0.00000000000E+00 -0.45593999997E+02  0.45594000000E+02  0.51100000000E-03 0. -1.
    9900012    2    1    2    0    0  0.16528520550E+00  0.41748295201E+02  0.11860845755E+02  0.47787226580E+02  0.19999797270E+02 0.  0.
         12    1    1    2    0    0 -0.16528520550E+00 -0.41748295201E+02 -0.11860845755E+02  0.43400773420E+02  0.00000000000E+00 0. -1.
         11    1    3    3    0    0  0.19803864571E+01  0.96546457287E+01  0.85373605166E+01  0.13039196276E+02  0.51100000000E-03 0. -1.
        -11    1    3    3    0    0 -0.94654796769E+00 -0.45565534171E+00  0.18818856857E+01  0.21552421768E+01  0.51100000000E-03 0.  1.
         12    1    3    3    0    0 -0.86855328394E+00  0.32549304814E+02  0.14415995531E+01  0.32592788128E+02  0.00000000000E+00 0. -1.
</event>
<event>
 7    1  0.2459936E-009  0.4778727E+02  0.7816164E-02  0.1312668E+00
        -11   -1    0    0    0    0  0.00000000000E+00  0.00000000000E+00  0.45593999997E+02  0.45594000000E+02  0.51100000000E-03 0.  1.
         11   -1    0    0    0    0 -0.00000000000E+00 -0.00000000000E+00 -0.45593999997E+02  0.45594000000E+02  0.51100000000E-03 0. -1.
    9900012    2    1    2    0    0  0.14108057992E+02  0.29345723362E+02  0.28695197400E+02  0.47787272659E+02  0.20000007360E+02 0.  0.
         12    1    1    2    0    0 -0.14108057992E+02 -0.29345723362E+02 -0.28695197400E+02  0.43400727341E+02  0.00000000000E+00 0. -1.
         11    1    3    3    0    0 -0.32336915452E+00  0.15222893617E+02  0.44255230779E+01  0.15856428111E+02  0.51100000000E-03 0. -1.
        -11    1    3    3    0    0  0.37296071290E+01  0.68264937780E+01  0.84562791401E+01  0.11489980148E+02  0.51100000000E-03 0.  1.
         12    1    3    3    0    0  0.10701820018E+02  0.72963359675E+01  0.15813395182E+02  0.20440864400E+02  0.00000000000E+00 0. -1.
</event>
<event>
 7    1  0.2459936E-009  0.4778727E+02  0.7816164E-02  0.1312668E+00
        -11   -1    0    0    0    0  0.00000000000E+00  0.00000000000E+00  0.45593999997E+02  0.45594000000E+02  0.51100000000E-03 0.  1.
         11   -1    0    0    0    0 -0.00000000000E+00 -0.00000000000E+00 -0.45593999997E+02  0.45594000000E+02  0.51100000000E-03 0. -1.
    9900012    2    1    2    0    0  0.24426414467E+02  0.23854853513E+02  0.26794019004E+02  0.47787271731E+02  0.20000003132E+02 0.  0.
         12    1    1    2    0    0 -0.24426414467E+02 -0.23854853513E+02 -0.26794019004E+02  0.43400728269E+02  0.00000000000E+00 0. -1.
         11    1    3    3    0    0  0.64251740868E+01  0.99120648136E+01  0.25009092945E+01  0.12074205501E+02  0.51100000000E-03 0. -1.
        -11    1    3    3    0    0  0.55265310784E+01  0.10640192246E+02  0.62239919291E+01  0.13509045584E+02  0.51100000000E-03 0.  1.
         12    1    3    3    0    0  0.12474709302E+02  0.33025964530E+01  0.18069117780E+02  0.22204020646E+02  0.00000000000E+00 0. -1.
</event>
<event>
 7    1  0.2459936E-009  0.4778727E+02  0.7816164E-02  0.1312668E+00
        -11   -1    0    0    0    0  0.00000000000E+00  0.00000000000E+00  0.45593999997E+02  0.45594000000E+02  0.51100000000E-03 0.  1.
         11   -1    0    0    0    0 -0.00000000000E+00 -0.00000000000E+00 -0.45593999997E+02  0.45594000000E+02  0.51100000000E-03 0. -1.
    9900012    2    1    2    0    0 -0.24746499033E+01 -0.39848094626E+01  0.43146503625E+02  0.47787269895E+02  0.19999994757E+02 0.  0.
         12    1    1    2    0    0  0.24746499033E+01  0.39848094626E+01 -0.43146503625E+02  0.43400730105E+02  0.00000000000E+00 0. -1.
         11    1    3    3    0    0  0.12789445134E+01  0.37041231197E+01  0.21443213676E+01  0.44670282676E+01  0.51100000000E-03 0. -1.
        -11    1    3    3    0    0 -0.48274268742E+01  0.12415335150E+01  0.14313131724E+02  0.15156226302E+02  0.51100000000E-03 0.  1.
        -12    1    3    3    0    0  0.10738324574E+01 -0.89304660973E+01  0.26689050534E+02  0.28164015325E+02  0.00000000000E+00 0.  1.
</event>
<event>
 7    1  0.2459936E-009  0.4778728E+02  0.7816164E-02  0.1312668E+00
        -11   -1    0    0    0    0  0.00000000000E+00  0.00000000000E+00  0.45593999997E+02  0.45594000000E+02  0.51100000000E-03 0.  1.
         11   -1    0    0    0    0 -0.00000000000E+00 -0.00000000000E+00 -0.45593999997E+02  0.45594000000E+02  0.51100000000E-03 0. -1.
    9900012    2    1    2    0    0 -0.13921081784E+02  0.19696312164E+02  0.36081590137E+02  0.47787281369E+02  0.20000047072E+02 0.  0.
         12    1    1    2    0    0  0.13921081784E+02 -0.19696312164E+02 -0.36081590137E+02  0.43400718631E+02  0.00000000000E+00 0. -1.
         11    1    3    3    0    0  0.29675645331E+01 -0.49928388377E+00  0.52328403892E+01  0.60364180153E+01  0.51100000000E-03 0. -1.
        -11    1    3    3    0    0 -0.14454829096E+01  0.56480105756E+01  0.25031529508E+01  0.63447000922E+01  0.51100000000E-03 0.  1.
        -12    1    3    3    0    0 -0.15443163408E+02  0.14547585473E+02  0.28345596797E+02  0.35406163261E+02  0.00000000000E+00 0.  1.
</event>
<event>
 7    1  0.2459936E-009  0.4778727E+02  0.7816164E-02  0.1312668E+00
        -11   -1    0    0    0    0  0.00000000000E+00  0.00000000000E+00  0.45593999997E+02  0.45594000000E+02  0.51100000000E-03 0.  1.
         11   -1    0    0    0    0 -0.00000000000E+00 -0.00000000000E+00 -0.45593999997E+02  0.45594000000E+02  0.51100000000E-03 0. -1.
    9900012    2    1    2    0    0  0.13081130780E+02 -0.17404704991E+01  0.41345834177E+02  0.47787271621E+02  0.20000002627E+02 0.  0.
         12    1    1    2    0    0 -0.13081130780E+02  0.17404704991E+01 -0.41345834177E+02  0.43400728379E+02  0.00000000000E+00 0. -1.
         11    1    3    3    0    0  0.14277563557E+02 -0.61426433451E+00  0.17580340320E+02  0.22656003792E+02  0.51100000000E-03 0. -1.
        -11    1    3    3    0    0  0.31136973615E+01 -0.17785872075E+01  0.13716893215E+02  0.14177857505E+02  0.51100000000E-03 0.  1.
        -12    1    3    3    0    0 -0.43101301386E+01  0.65238104285E+00  0.10048600642E+02  0.10953410323E+02  0.00000000000E+00 0.  1.
</event>
<event>
 7    1  0.2459936E-009  0.4778727E+02  0.7816164E-02  0.1312668E+00
        -11   -1    0    0    0    0  0.00000000000E+00  0.00000000000E+00  0.45593999997E+02  0.45594000000E+02  0.51100000000E-03 0. -1.
         11   -1    0    0    0    0 -0.00000000000E+00 -0.00000000000E+00 -0.45593999997E+02  0.45594000000E+02  0.51100000000E-03 0.  1.
    9900012    2    1    2    0    0  0.28404921034E+02  0.11386121744E+02 -0.30775638165E+02  0.47787271760E+02  0.20000003263E+02 0.  0.
         12    1    1    2    0    0 -0.28404921034E+02 -0.11386121744E+02  0.30775638165E+02  0.43400728240E+02  0.00000000000E+00 0. -1.
         11    1    3    3    0    0  0.19966428443E+02  0.42988590744E+01 -0.14996690500E+02  0.25338492069E+02  0.51100000000E-03 0. -1.
        -11    1    3    3    0    0  0.11206059909E+02  0.64930596633E+01 -0.11510615160E+02  0.17327142409E+02  0.51100000000E-03 0.  1.
         12    1    3    3    0    0 -0.27675673178E+01  0.59420300642E+00 -0.42683325055E+01  0.51216372820E+01  0.00000000000E+00 0. -1.
</event>
<event>
 7    1  0.2459936E-009  0.4778728E+02  0.7816164E-02  0.1312668E+00
        -11   -1    0    0    0    0  0.00000000000E+00  0.00000000000E+00  0.45593999997E+02  0.45594000000E+02  0.51100000000E-03 0.  1.
         11   -1    0    0    0    0 -0.00000000000E+00 -0.00000000000E+00 -0.45593999997E+02  0.45594000000E+02  0.51100000000E-03 0. -1.
    9900012    2    1    2    0    0  0.17748411474E+02  0.35159752012E+02  0.18232077739E+02  0.47787275005E+02  0.20000018057E+02 0.  0.
         12    1    1    2    0    0 -0.17748411474E+02 -0.35159752012E+02 -0.18232077739E+02  0.43400724995E+02  0.00000000000E+00 0. -1.
         11    1    3    3    0    0 -0.38612352042E+01  0.27873204669E+01  0.38237128575E+01  0.61072966986E+01  0.51100000000E-03 0. -1.
        -11    1    3    3    0    0  0.30453425520E+01  0.36544154213E+01  0.30333760888E+01  0.56418289665E+01  0.51100000000E-03 0.  1.
         12    1    3    3    0    0  0.18564304126E+02  0.28718016124E+02  0.11374988793E+02  0.36038149340E+02  0.00000000000E+00 0. -1.
</event>
<event>
 7    1  0.2459936E-009  0.4778727E+02  0.7816164E-02  0.1312668E+00
        -11   -1    0    0    0    0  0.00000000000E+00  0.00000000000E+00  0.45593999997E+02  0.45594000000E+02  0.51100000000E-03 0.  1.
         11   -1    0    0    0    0 -0.00000000000E+00 -0.00000000000E+00 -0.45593999997E+02  0.45594000000E+02  0.51100000000E-03 0. -1.
    9900012    2    1    2    0    0 -0.83135621256E+01  0.29856828595E+02  0.30382194963E+02  0.47787270746E+02  0.19999998641E+02 0.  0.
         12    1    1    2    0    0  0.83135621256E+01 -0.29856828595E+02 -0.30382194963E+02  0.43400729254E+02  0.00000000000E+00 0. -1.
         11    1    3    3    0    0  0.22768959180E+01  0.22147878304E+01  0.64755855229E+00  0.32417391158E+01  0.51100000000E-03 0. -1.
        -11    1    3    3    0    0  0.11387319513E+01  0.12239636442E+02  0.53401623624E+01  0.13402341027E+02  0.51100000000E-03 0.  1.
        -12    1    3    3    0    0 -0.11729189995E+02  0.15402404323E+02  0.24394474048E+02  0.31143190603E+02  0.00000000000E+00 0.  1.
</event>
<event>
 7    1  0.2459936E-009  0.4778727E+02  0.7816164E-02  0.1312668E+00
        -11   -1    0    0    0    0  0.00000000000E+00  0.00000000000E+00  0.45593999997E+02  0.45594000000E+02  0.51100000000E-03 0.  1.
         11   -1    0    0    0    0 -0.00000000000E+00 -0.00000000000E+00 -0.45593999997E+02  0.45594000000E+02  0.51100000000E-03 0. -1.
    9900012    2    1    2    0    0  0.13595871205E+02  0.23626236356E+02  0.33772421804E+02  0.47787271519E+02  0.20000002162E+02 0.  0.
         12    1    1    2    0    0 -0.13595871205E+02 -0.23626236356E+02 -0.33772421804E+02  0.43400728481E+02  0.00000000000E+00 0. -1.
         11    1    3    3    0    0  0.55533181945E+01  0.13979420294E+02  0.65883311144E+01  0.16421621170E+02  0.51100000000E-03 0. -1.
        -11    1    3    3    0    0 -0.21043677156E-01  0.67521487531E+01  0.88782815768E+01  0.11154184849E+02  0.51100000000E-03 0.  1.
        -12    1    3    3    0    0  0.80635966873E+01  0.28946673096E+01  0.18305809113E+02  0.20211465500E+02  0.00000000000E+00 0.  1.
</event>
<event>
 7    1  0.2459936E-009  0.4778728E+02  0.7816164E-02  0.1312668E+00
        -11   -1    0    0    0    0  0.00000000000E+00  0.00000000000E+00  0.45593999997E+02  0.45594000000E+02  0.51100000000E-03 0.  1.
         11   -1    0    0    0    0 -0.00000000000E+00 -0.00000000000E+00 -0.45593999997E+02  0.45594000000E+02  0.51100000000E-03 0. -1.
    9900012    2    1    2    0    0 -0.24281298431E+02 -0.12088218595E+02  0.33880910972E+02  0.47787278686E+02  0.20000034841E+02 0.  0.
         12    1    1    2    0    0  0.24281298431E+02  0.12088218595E+02 -0.33880910972E+02  0.43400721314E+02  0.00000000000E+00 0. -1.
         11    1    3    3    0    0 -0.57549278255E+01  0.12077920351E+01  0.85155736452E+01  0.10348572396E+02  0.51100000000E-03 0. -1.
        -11    1    3    3    0    0 -0.82418297613E+01  0.58688444086E+00  0.15443904559E+02  0.17515318423E+02  0.51100000000E-03 0.  1.
         12    1    3    3    0    0 -0.10284540844E+02 -0.13882895071E+02  0.99214327670E+01  0.19923387866E+02  0.00000000000E+00 0. -1.
</event>
<event>
 7    1  0.2459936E-009  0.4778727E+02  0.7816164E-02  0.1312668E+00
        -11   -1    0    0    0    0  0.00000000000E+00  0.00000000000E+00  0.45593999997E+02  0.45594000000E+02  0.51100000000E-03 0.  1.
         11   -1    0    0    0    0 -0.00000000000E+00 -0.00000000000E+00 -0.45593999997E+02  0.45594000000E+02  0.51100000000E-03 0. -1.
    9900012    2    1    2    0    0  0.94405225927E-01 -0.22320164254E+02  0.37221292794E+02  0.47787270952E+02  0.19999999578E+02 0.  0.
         12    1    1    2    0    0 -0.94405225927E-01  0.22320164254E+02 -0.37221292794E+02  0.43400729048E+02  0.00000000000E+00 0. -1.
         11    1    3    3    0    0  0.28765082607E+01  0.34755617605E+00  0.58753510521E+01  0.65509423227E+01  0.51100000000E-03 0. -1.
        -11    1    3    3    0    0  0.38248106749E+01 -0.16536733992E+02  0.15395411994E+02  0.22915310570E+02  0.51100000000E-03 0.  1.
         12    1    3    3    0    0 -0.66069137097E+01 -0.61309864388E+01  0.15950529748E+02  0.18321018059E+02  0.00000000000E+00 0. -1.
</event>
<event>
 7    1  0.2459936E-009  0.4778727E+02  0.7816164E-02  0.1312668E+00
        -11   -1    0    0    0    0  0.00000000000E+00  0.00000000000E+00  0.45593999997E+02  0.45594000000E+02  0.51100000000E-03 0. -1.
         11   -1    0    0    0    0 -0.00000000000E+00 -0.00000000000E+00 -0.45593999997E+02  0.45594000000E+02  0.51100000000E-03 0.  1.
    9900012    2    1    2    0    0  0.14240526234E+02 -0.30412027115E+02 -0.27494344710E+02  0.47787274526E+02  0.20000015872E+02 0.  0.
         12    1    1    2    0    0 -0.14240526234E+02  0.30412027115E+02  0.27494344710E+02  0.43400725474E+02  0.00000000000E+00 0. -1.
         11    1    3    3    0    0  0.65605445389E+01 -0.11532947299E+02 -0.18778921417E+01  0.13400600628E+02  0.51100000000E-03 0. -1.
        -11    1    3    3    0    0 -0.21704127090E+01 -0.36639150680E+01 -0.22562936394E+01  0.48193180225E+01  0.51100000000E-03 0.  1.
         12    1    3    3    0    0  0.98503944042E+01 -0.15215164748E+02 -0.23360158929E+02  0.29567355875E+02  0.00000000000E+00 0. -1.
</event>
<event>
 7    1  0.2459936E-009  0.4778727E+02  0.7816164E-02  0.1312668E+00
        -11   -1    0    0    0    0  0.00000000000E+00  0.00000000000E+00  0.45593999997E+02  0.45594000000E+02  0.51100000000E-03 0.  1.
         11   -1    0    0    0    0 -0.00000000000E+00 -0.00000000000E+00 -0.45593999997E+02  0.45594000000E+02  0.51100000000E-03 0. -1.
    9900012    2    1    2    0    0 -0.14637305840E+02  0.35682127957E+02 -0.19903726328E+02  0.47787270749E+02  0.19999998652E+02 0.  0.
         12    1    1    2    0    0  0.14637305840E+02 -0.35682127957E+02  0.19903726328E+02  0.43400729251E+02  0.00000000000E+00 0. -1.
         11    1    3    3    0    0  0.20972352441E+01  0.57383233569E+01 -0.28455705811E+01  0.67397346247E+01  0.51100000000E-03 0. -1.
        -11    1    3    3    0    0 -0.66596177441E+01  0.17732444078E+02 -0.17445602511E+01  0.19021923463E+02  0.51100000000E-03 0.  1.
        -12    1    3    3    0    0 -0.10074923340E+02  0.12211360522E+02 -0.15313595496E+02  0.22025612662E+02  0.00000000000E+00 0.  1.
</event>
<event>
 7    1  0.2459936E-009  0.4778727E+02  0.7816164E-02  0.1312668E+00
        -11   -1    0    0    0    0  0.00000000000E+00  0.00000000000E+00  0.45593999997E+02  0.45594000000E+02  0.51100000000E-03 0.  1.
         11   -1    0    0    0    0 -0.00000000000E+00 -0.00000000000E+00 -0.45593999997E+02  0.45594000000E+02  0.51100000000E-03 0. -1.
    9900012    2    1    2    0    0 -0.33708749750E+02 -0.15084611988E+00  0.27337169180E+02  0.47787269786E+02  0.19999994264E+02 0.  0.
         12    1    1    2    0    0  0.33708749750E+02  0.15084611988E+00 -0.27337169180E+02  0.43400730214E+02  0.00000000000E+00 0. -1.
         11    1    3    3    0    0 -0.45684492622E+01  0.39780703196E+01  0.40939286245E+00  0.60715216302E+01  0.51100000000E-03 0. -1.
        -11    1    3    3    0    0  0.77987237387E+00  0.12166659833E+01  0.15587874012E+01  0.21256282501E+01  0.51100000000E-03 0.  1.
        -12    1    3    3    0    0 -0.29920172862E+02 -0.53455824228E+01  0.25368988916E+02  0.39590119906E+02  0.00000000000E+00 0.  1.
</event>
<event>
 7    1  0.2459936E-009  0.4778726E+02  0.7816164E-02  0.1312668E+00
        -11   -1    0    0    0    0  0.00000000000E+00  0.00000000000E+00  0.45593999997E+02  0.45594000000E+02  0.51100000000E-03 0.  1.
         11   -1    0    0    0    0 -0.00000000000E+00 -0.00000000000E+00 -0.45593999997E+02  0.45594000000E+02  0.51100000000E-03 0. -1.
    9900012    2    1    2    0    0 -0.38771501235E+02 -0.19021242889E+02  0.43112431382E+01  0.47787264909E+02  0.19999972025E+02 0.  0.
         12    1    1    2    0    0  0.38771501235E+02  0.19021242889E+02 -0.43112431382E+01  0.43400735091E+02  0.00000000000E+00 0. -1.
         11    1    3    3    0    0 -0.45350121578E+01 -0.41156109967E+00  0.19058517995E+01  0.49363943474E+01  0.51100000000E-03 0. -1.
        -11    1    3    3    0    0 -0.20467933014E+02 -0.20185559430E+02  0.34488459522E+01  0.28953197233E+02  0.51100000000E-03 0.  1.
        -12    1    3    3    0    0 -0.13768556063E+02  0.15758776402E+01 -0.10434546135E+01  0.13897673328E+02  0.00000000000E+00 0.  1.
</event>
<event>
 7    1  0.2459936E-009  0.4778727E+02  0.7816164E-02  0.1312668E+00
        -11   -1    0    0    0    0  0.00000000000E+00  0.00000000000E+00  0.45593999997E+02  0.45594000000E+02  0.51100000000E-03 0. -1.
         11   -1    0    0    0    0 -0.00000000000E+00 -0.00000000000E+00 -0.45593999997E+02  0.45594000000E+02  0.51100000000E-03 0.  1.
    9900012    2    1    2    0    0 -0.43038002148E+02  0.55402879759E+01  0.81180943662E+00  0.47787268966E+02  0.19999990524E+02 0.  0.
         12    1    1    2    0    0  0.43038002148E+02 -0.55402879759E+01 -0.81180943662E+00  0.43400731034E+02  0.00000000000E+00 0. -1.
         11    1    3    3    0    0 -0.36107389894E+01  0.13683976362E+01 -0.12484283867E+00  0.38633578834E+01  0.51100000000E-03 0. -1.
        -11    1    3    3    0    0 -0.23499395853E+02  0.10500687386E+02 -0.40925151500E+01  0.26062131946E+02  0.51100000000E-03 0.  1.
         12    1    3    3    0    0 -0.15927867305E+02 -0.63287970465E+01  0.50291674253E+01  0.17861779137E+02  0.00000000000E+00 0. -1.
</event>
<event>
 7    1  0.2459936E-009  0.4778728E+02  0.7816164E-02  0.1312668E+00
        -11   -1    0    0    0    0  0.00000000000E+00  0.00000000000E+00  0.45593999997E+02  0.45594000000E+02  0.51100000000E-03 0.  1.
         11   -1    0    0    0    0 -0.00000000000E+00 -0.00000000000E+00 -0.45593999997E+02  0.45594000000E+02  0.51100000000E-03 0. -1.
    9900012    2    1    2    0    0  0.32210832705E+02  0.19348252665E+02  0.21719343618E+02  0.47787279823E+02  0.20000040023E+02 0.  0.
         12    1    1    2    0    0 -0.32210832705E+02 -0.19348252665E+02 -0.21719343618E+02  0.43400720177E+02  0.00000000000E+00 0. -1.
         11    1    3    3    0    0  0.90959899619E+00 -0.20502708376E+00  0.23469207241E+01  0.25253600902E+01  0.51100000000E-03 0. -1.
        -11    1    3    3    0    0  0.15927762300E+02  0.18809045503E+02  0.73138734572E+01  0.25709269726E+02  0.51100000000E-03 0.  1.
        -12    1    3    3    0    0  0.15373471409E+02  0.74423424587E+00  0.12058549437E+02  0.19552650007E+02  0.00000000000E+00 0.  1.
</event>
<event>
 7    1  0.2459936E-009  0.4778727E+02  0.7816164E-02  0.1312668E+00
        -11   -1    0    0    0    0  0.00000000000E+00  0.00000000000E+00  0.45593999997E+02  0.45594000000E+02  0.51100000000E-03 0.  1.
         11   -1    0    0    0    0 -0.00000000000E+00 -0.00000000000E+00 -0.45593999997E+02  0.45594000000E+02  0.51100000000E-03 0. -1.
    9900012    2    1    2    0    0 -0.15465246619E+02 -0.21899291545E+02  0.34130203045E+02  0.47787267482E+02  0.19999983758E+02 0.  0.
         12    1    1    2    0    0  0.15465246619E+02  0.21899291545E+02 -0.34130203045E+02  0.43400732518E+02  0.00000000000E+00 0. -1.
         11    1    3    3    0    0 -0.77077476261E+01 -0.82919086229E+01  0.78914729879E+01  0.13800016966E+02  0.51100000000E-03 0. -1.
        -11    1    3    3    0    0 -0.74710368513E+01 -0.15994374837E+02  0.26188246687E+02  0.31582600952E+02  0.51100000000E-03 0.  1.
         12    1    3    3    0    0 -0.28646214194E+00  0.23869919143E+01  0.50483369960E-01  0.24046495646E+01  0.00000000000E+00 0. -1.
</event>
<event>
 7    1  0.2459936E-009  0.4778727E+02  0.7816164E-02  0.1312668E+00
        -11   -1    0    0    0    0  0.00000000000E+00  0.00000000000E+00  0.45593999997E+02  0.45594000000E+02  0.51100000000E-03 0.  1.
         11   -1    0    0    0    0 -0.00000000000E+00 -0.00000000000E+00 -0.45593999997E+02  0.45594000000E+02  0.51100000000E-03 0. -1.
    9900012    2    1    2    0    0 -0.36676699819E+02 -0.32920437096E+00  0.23202040679E+02  0.47787269859E+02  0.19999994594E+02 0.  0.
         12    1    1    2    0    0  0.36676699819E+02  0.32920437096E+00 -0.23202040679E+02  0.43400730141E+02  0.00000000000E+00 0. -1.
         11    1    3    3    0    0 -0.36517156882E+01 -0.95724961674E+00  0.30372837449E+01  0.48452499527E+01  0.51100000000E-03 0. -1.
        -11    1    3    3    0    0 -0.34613307483E+02 -0.20121855425E-01  0.21518322148E+02  0.40756835600E+02  0.51100000000E-03 0.  1.
         12    1    3    3    0    0  0.15883233522E+01  0.64816710121E+00 -0.13535652141E+01  0.21851843060E+01  0.00000000000E+00 0. -1.
</event>
<event>
 7    1  0.2459936E-009  0.4778727E+02  0.7816164E-02  0.1312668E+00
        -11   -1    0    0    0    0  0.00000000000E+00  0.00000000000E+00  0.45593999997E+02  0.45594000000E+02  0.51100000000E-03 0.  1.
         11   -1    0    0    0    0 -0.00000000000E+00 -0.00000000000E+00 -0.45593999997E+02  0.45594000000E+02  0.51100000000E-03 0. -1.
    9900012    2    1    2    0    0  0.29745528286E+02  0.20478476035E+02  0.24071953093E+02  0.47787270059E+02  0.19999995505E+02 0.  0.
         12    1    1    2    0    0 -0.29745528286E+02 -0.20478476035E+02 -0.24071953093E+02  0.43400729941E+02  0.00000000000E+00 0. -1.
         11    1    3    3    0    0  0.86651888866E+01  0.11477776787E+02  0.47045181093E+01  0.15131336667E+02  0.51100000000E-03 0. -1.
        -11    1    3    3    0    0  0.20510662778E+02  0.10138473696E+02  0.13316635401E+02  0.26472791979E+02  0.51100000000E-03 0.  1.
         12    1    3    3    0    0  0.56967662152E+00 -0.11377744480E+01  0.60507995827E+01  0.61831414134E+01  0.00000000000E+00 0. -1.
</event>
<event>
 7    1  0.2459936E-009  0.4778727E+02  0.7816164E-02  0.1312668E+00
        -11   -1    0    0    0    0  0.00000000000E+00  0.00000000000E+00  0.45593999997E+02  0.45594000000E+02  0.51100000000E-03 0.  1.
         11   -1    0    0    0    0 -0.00000000000E+00 -0.00000000000E+00 -0.45593999997E+02  0.45594000000E+02  0.51100000000E-03 0. -1.
    9900012    2    1    2    0    0 -0.20521779462E+02 -0.38236653796E+02  0.66187928229E+00  0.47787271781E+02  0.20000003358E+02 0.  0.
         12    1    1    2    0    0  0.20521779462E+02  0.38236653796E+02 -0.66187928229E+00  0.43400728219E+02  0.00000000000E+00 0. -1.
         11    1    3    3    0    0  0.19043337539E+01 -0.12165228483E+02  0.21443545784E+01  0.12498701048E+02  0.51100000000E-03 0. -1.
        -11    1    3    3    0    0 -0.21625177285E+01 -0.17291441878E+01 -0.23087406656E+01  0.36050944884E+01  0.51100000000E-03 0.  1.
        -12    1    3    3    0    0 -0.20263595487E+02 -0.24342281125E+02  0.82626536956E+00  0.31683476244E+02  0.00000000000E+00 0.  1.
</event>
<event>
 7    1  0.2459936E-009  0.4778727E+02  0.7816164E-02  0.1312668E+00
        -11   -1    0    0    0    0  0.00000000000E+00  0.00000000000E+00  0.45593999997E+02  0.45594000000E+02  0.51100000000E-03 0.  1.
         11   -1    0    0    0    0 -0.00000000000E+00 -0.00000000000E+00 -0.45593999997E+02  0.45594000000E+02  0.51100000000E-03 0. -1.
    9900012    2    1    2    0    0 -0.33251720409E+02  0.15840535447E+02  0.22956999766E+02  0.47787270609E+02  0.19999998014E+02 0.  0.
         12    1    1    2    0    0  0.33251720409E+02 -0.15840535447E+02 -0.22956999766E+02  0.43400729391E+02  0.00000000000E+00 0. -1.
         11    1    3    3    0    0 -0.16625537490E+02  0.10943263021E+02  0.93118707289E+01  0.21974404181E+02  0.51100000000E-03 0. -1.
        -11    1    3    3    0    0 -0.14512682819E+02  0.49312012063E+01  0.16329510526E+02  0.22396151952E+02  0.51100000000E-03 0.  1.
         12    1    3    3    0    0 -0.21135001004E+01 -0.33928780620E-01 -0.26843814889E+01  0.34167144766E+01  0.00000000000E+00 0. -1.
</event>
<event>
 7    1  0.2459936E-009  0.4778727E+02  0.7816164E-02  0.1312668E+00
        -11   -1    0    0    0    0  0.00000000000E+00  0.00000000000E+00  0.45593999997E+02  0.45594000000E+02  0.51100000000E-03 0.  1.
         11   -1    0    0    0    0 -0.00000000000E+00 -0.00000000000E+00 -0.45593999997E+02  0.45594000000E+02  0.51100000000E-03 0. -1.
    9900012    2    1    2    0    0  0.89908418954E+01 -0.37994861750E+02  0.18952018203E+02  0.47787265544E+02  0.19999974920E+02 0.  0.
         12    1    1    2    0    0 -0.89908418954E+01  0.37994861750E+02 -0.18952018203E+02  0.43400734456E+02  0.00000000000E+00 0. -1.
         11    1    3    3    0    0  0.19212731417E+01 -0.18252331045E+01  0.84202967525E+00  0.27806079562E+01  0.51100000000E-03 0. -1.
        -11    1    3    3    0    0 -0.61383322975E+01 -0.10009748051E+02  0.69749437063E+01  0.13657379668E+02  0.51100000000E-03 0.  1.
        -12    1    3    3    0    0  0.13207901051E+02 -0.26159880594E+02  0.11135044821E+02  0.31349277919E+02  0.00000000000E+00 0.  1.
</event>
<event>
 7    1  0.2459936E-009  0.4778727E+02  0.7816164E-02  0.1312668E+00
        -11   -1    0    0    0    0  0.00000000000E+00  0.00000000000E+00  0.45593999997E+02  0.45594000000E+02  0.51100000000E-03 0.  1.
         11   -1    0    0    0    0 -0.00000000000E+00 -0.00000000000E+00 -0.45593999997E+02  0.45594000000E+02  0.51100000000E-03 0. -1.
    9900012    2    1    2    0    0  0.38032863477E+02  0.17123844934E+02  0.11995759089E+02  0.47787274134E+02  0.20000014087E+02 0.  0.
         12    1    1    2    0    0 -0.38032863477E+02 -0.17123844934E+02 -0.11995759089E+02  0.43400725866E+02  0.00000000000E+00 0. -1.
         11    1    3    3    0    0  0.10109178842E+02  0.44523284503E+00  0.55774147355E+01  0.11554275595E+02  0.51100000000E-03 0. -1.
        -11    1    3    3    0    0  0.15072088184E+02  0.84279011650E+01  0.10771649758E+02  0.20352537902E+02  0.51100000000E-03 0.  1.
         12    1    3    3    0    0  0.12851596451E+02  0.82507109239E+01 -0.43533054047E+01  0.15880460637E+02  0.00000000000E+00 0. -1.
</event>
<event>
 7    1  0.2459936E-009  0.4778727E+02  0.7816164E-02  0.1312668E+00
        -11   -1    0    0    0    0  0.00000000000E+00  0.00000000000E+00  0.45593999997E+02  0.45594000000E+02  0.51100000000E-03 0.  1.
         11   -1    0    0    0    0 -0.00000000000E+00 -0.00000000000E+00 -0.45593999997E+02  0.45594000000E+02  0.51100000000E-03 0. -1.
    9900012    2    1    2    0    0 -0.33734106308E+01 -0.42238207000E+01  0.43062778378E+02  0.47787269105E+02  0.19999991157E+02 0.  0.
         12    1    1    2    0    0  0.33734106308E+01  0.42238207000E+01 -0.43062778378E+02  0.43400730895E+02  0.00000000000E+00 0. -1.
         11    1    3    3    0    0  0.76422217073E+00 -0.29404315321E+01  0.22043819104E+02  0.22252193916E+02  0.51100000000E-03 0.  1.
        -11    1    3    3    0    0  0.34670291297E+01 -0.44307107989E+01  0.50052650305E+01  0.75302169595E+01  0.51100000000E-03 0. -1.
        -12    1    3    3    0    0 -0.76046619312E+01  0.31473216309E+01  0.16013694244E+02  0.18004858229E+02  0.00000000000E+00 0.  1.
</event>
<event>
 7    1  0.2459936E-009  0.4778727E+02  0.7816164E-02  0.1312668E+00
        -11   -1    0    0    0    0  0.00000000000E+00  0.00000000000E+00  0.45593999997E+02  0.45594000000E+02  0.51100000000E-03 0.  1.
         11   -1    0    0    0    0 -0.00000000000E+00 -0.00000000000E+00 -0.45593999997E+02  0.45594000000E+02  0.51100000000E-03 0. -1.
    9900012    2    1    2    0    0  0.22616439023E+02 -0.11331734653E+02  0.35266297415E+02  0.47787271231E+02  0.20000000849E+02 0.  0.
         12    1    1    2    0    0 -0.22616439023E+02  0.11331734653E+02 -0.35266297415E+02  0.43400728769E+02  0.00000000000E+00 0. -1.
         11    1    3    3    0    0  0.22075457447E+01 -0.61061490965E+01  0.10688055118E+02  0.12505712193E+02  0.51100000000E-03 0. -1.
        -11    1    3    3    0    0  0.17710889597E+02 -0.96160464648E+01  0.19265318671E+02  0.27880037010E+02  0.51100000000E-03 0.  1.
        -12    1    3    3    0    0  0.26980036816E+01  0.43904609086E+01  0.53129236269E+01  0.74015220273E+01  0.00000000000E+00 0.  1.
</event>
<event>
 7    1  0.2459936E-009  0.4778727E+02  0.7816164E-02  0.1312668E+00
        -11   -1    0    0    0    0  0.00000000000E+00  0.00000000000E+00  0.45593999997E+02  0.45594000000E+02  0.51100000000E-03 0.  1.
         11   -1    0    0    0    0 -0.00000000000E+00 -0.00000000000E+00 -0.45593999997E+02  0.45594000000E+02  0.51100000000E-03 0. -1.
    9900012    2    1    2    0    0 -0.29542475074E+02 -0.15703430135E+02  0.27645392404E+02  0.47787271058E+02  0.20000000062E+02 0.  0.
         12    1    1    2    0    0  0.29542475074E+02  0.15703430135E+02 -0.27645392404E+02  0.43400728942E+02  0.00000000000E+00 0. -1.
         11    1    3    3    0    0  0.15957115093E+01 -0.10337053235E+01 -0.11141037455E+01  0.22036490949E+01  0.51100000000E-03 0. -1.
        -11    1    3    3    0    0  0.35699120814E+00  0.32438007776E+00  0.34501666833E+00  0.59304461896E+00  0.51100000000E-03 0.  1.
        -12    1    3    3    0    0 -0.31495177792E+02 -0.14994104890E+02  0.28414479481E+02  0.44990577344E+02  0.00000000000E+00 0.  1.
</event>
<event>
 7    1  0.2459936E-009  0.4778727E+02  0.7816164E-02  0.1312668E+00
        -11   -1    0    0    0    0  0.00000000000E+00  0.00000000000E+00  0.45593999997E+02  0.45594000000E+02  0.51100000000E-03 0.  1.
         11   -1    0    0    0    0 -0.00000000000E+00 -0.00000000000E+00 -0.45593999997E+02  0.45594000000E+02  0.51100000000E-03 0. -1.
    9900012    2    1    2    0    0 -0.32480075577E+02  0.13751721717E+02  0.25289485480E+02  0.47787271486E+02  0.20000002013E+02 0.  0.
         12    1    1    2    0    0  0.32480075577E+02 -0.13751721717E+02 -0.25289485480E+02  0.43400728514E+02  0.00000000000E+00 0. -1.
         11    1    3    3    0    0 -0.45438340038E+01 -0.77850222329E+00  0.11958702636E+01  0.47626252335E+01  0.51100000000E-03 0. -1.
        -11    1    3    3    0    0 -0.25991376098E+02  0.60412363360E+01  0.20286192614E+02  0.33519811738E+02  0.51100000000E-03 0.  1.
         12    1    3    3    0    0 -0.19448654754E+01  0.84889876046E+01  0.38074226024E+01  0.95048345142E+01  0.00000000000E+00 0. -1.
</event>
<event>
 7    1  0.2459936E-009  0.4778729E+02  0.7816164E-02  0.1312668E+00
        -11   -1    0    0    0    0  0.00000000000E+00  0.00000000000E+00  0.45593999997E+02  0.45594000000E+02  0.51100000000E-03 0.  1.
         11   -1    0    0    0    0 -0.00000000000E+00 -0.00000000000E+00 -0.45593999997E+02  0.45594000000E+02  0.51100000000E-03 0. -1.
    9900012    2    1    2    0    0  0.68977793625E+01  0.96479230809E+01  0.41748771100E+02  0.47787289542E+02  0.20000084339E+02 0.  0.
         12    1    1    2    0    0 -0.68977793625E+01 -0.96479230809E+01 -0.41748771100E+02  0.43400710458E+02  0.00000000000E+00 0. -1.
         11    1    3    3    0    0  0.45765918144E+01 -0.13090903063E+01  0.63428303012E+01  0.79303471902E+01  0.51100000000E-03 0. -1.
        -11    1    3    3    0    0 -0.18683389674E+00  0.14402139870E+01 -0.12417387870E+01  0.19107691408E+01  0.51100000000E-03 0.  1.
        -12    1    3    3    0    0  0.25080214449E+01  0.95167994002E+01  0.36647679585E+02  0.37946173211E+02  0.00000000000E+00 0.  1.
</event>
<event>
 7    1  0.2459936E-009  0.4778729E+02  0.7816164E-02  0.1312668E+00
        -11   -1    0    0    0    0  0.00000000000E+00  0.00000000000E+00  0.45593999997E+02  0.45594000000E+02  0.51100000000E-03 0. -1.
         11   -1    0    0    0    0 -0.00000000000E+00 -0.00000000000E+00 -0.45593999997E+02  0.45594000000E+02  0.51100000000E-03 0.  1.
    9900012    2    1    2    0    0 -0.21647368247E+02 -0.36011159873E+02 -0.10872433900E+02  0.47787285647E+02  0.20000066578E+02 0.  0.
         12    1    1    2    0    0  0.21647368247E+02  0.36011159873E+02  0.10872433900E+02  0.43400714353E+02  0.00000000000E+00 0. -1.
         11    1    3    3    0    0 -0.82873099358E+01 -0.54617776374E+01  0.79570172249E+00  0.99570910624E+01  0.51100000000E-03 0. -1.
        -11    1    3    3    0    0  0.19855565741E+01 -0.82589590122E+00  0.54646450103E+00  0.22188201055E+01  0.51100000000E-03 0.  1.
        -12    1    3    3    0    0 -0.15345614886E+02 -0.29723486335E+02 -0.12214600124E+02  0.35611374479E+02  0.00000000000E+00 0.  1.
</event>
<event>
 7    1  0.2459936E-009  0.4778724E+02  0.7816164E-02  0.1312668E+00
        -11   -1    0    0    0    0  0.00000000000E+00  0.00000000000E+00  0.45593999997E+02  0.45594000000E+02  0.51100000000E-03 0. -1.
         11   -1    0    0    0    0 -0.00000000000E+00 -0.00000000000E+00 -0.45593999997E+02  0.45594000000E+02  0.51100000000E-03 0.  1.
    9900012    2    1    2    0    0  0.21772717825E+02 -0.33763588907E+02 -0.16419335147E+02  0.47787242587E+02  0.19999870252E+02 0.  0.
         12    1    1    2    0    0 -0.21772717825E+02  0.33763588907E+02  0.16419335147E+02  0.43400757413E+02  0.00000000000E+00 0. -1.
         11    1    3    3    0    0  0.29507519872E+01 -0.46389060363E+01  0.85502958500E+00  0.55639430583E+01  0.51100000000E-03 0. -1.
        -11    1    3    3    0    0  0.19275552594E+02 -0.29685626322E+02 -0.19129150184E+02  0.40233166977E+02  0.51100000000E-03 0.  1.
        -12    1    3    3    0    0 -0.45358675679E+00  0.56094345211E+00  0.18547854518E+01  0.19901325520E+01  0.00000000000E+00 0.  1.
</event>
<event>
 7    1  0.2459936E-009  0.4778727E+02  0.7816164E-02  0.1312668E+00
        -11   -1    0    0    0    0  0.00000000000E+00  0.00000000000E+00  0.45593999997E+02  0.45594000000E+02  0.51100000000E-03 0. -1.
         11   -1    0    0    0    0 -0.00000000000E+00 -0.00000000000E+00 -0.45593999997E+02  0.45594000000E+02  0.51100000000E-03 0.  1.
    9900012    2    1    2    0    0 -0.40296339356E+02  0.57308802273E+01 -0.15066026003E+02  0.47787273126E+02  0.20000009492E+02 0.  0.
         12    1    1    2    0    0  0.40296339356E+02 -0.57308802273E+01  0.15066026003E+02  0.43400726874E+02  0.00000000000E+00 0. -1.
         11    1    3    3    0    0 -0.68506056812E+01  0.19826984923E+01  0.39043784562E+01  0.81305635045E+01  0.51100000000E-03 0. -1.
        -11    1    3    3    0    0 -0.98054889401E+01 -0.39101208580E-01 -0.12808735727E+01  0.98888715043E+01  0.51100000000E-03 0.  1.
        -12    1    3    3    0    0 -0.23640244734E+02  0.37872829436E+01 -0.17689530887E+02  0.29767838117E+02  0.00000000000E+00 0.  1.
</event>
<event>
 7    1  0.2459936E-009  0.4778727E+02  0.7816164E-02  0.1312668E+00
        -11   -1    0    0    0    0  0.00000000000E+00  0.00000000000E+00  0.45593999997E+02  0.45594000000E+02  0.51100000000E-03 0.  1.
         11   -1    0    0    0    0 -0.00000000000E+00 -0.00000000000E+00 -0.45593999997E+02  0.45594000000E+02  0.51100000000E-03 0. -1.
    9900012    2    1    2    0    0 -0.13565457992E+02  0.35877595658E+02 -0.20307627733E+02  0.47787271148E+02  0.20000000473E+02 0.  0.
         12    1    1    2    0    0  0.13565457992E+02 -0.35877595658E+02  0.20307627733E+02  0.43400728852E+02  0.00000000000E+00 0. -1.
         11    1    3    3    0    0 -0.73700027091E+01  0.12604788751E+02 -0.12932730865E+02  0.19505208722E+02  0.51100000000E-03 0. -1.
        -11    1    3    3    0    0 -0.38557651158E+01  0.17824304925E+00 -0.23904995930E+01  0.45401744216E+01  0.51100000000E-03 0.  1.
        -12    1    3    3    0    0 -0.23396901672E+01  0.23094563857E+02 -0.49843972750E+01  0.23741888005E+02  0.00000000000E+00 0.  1.
</event>
<event>
 7    1  0.2459936E-009  0.4778727E+02  0.7816164E-02  0.1312668E+00
        -11   -1    0    0    0    0  0.00000000000E+00  0.00000000000E+00  0.45593999997E+02  0.45594000000E+02  0.51100000000E-03 0.  1.
         11   -1    0    0    0    0 -0.00000000000E+00 -0.00000000000E+00 -0.45593999997E+02  0.45594000000E+02  0.51100000000E-03 0. -1.
    9900012    2    1    2    0    0 -0.76252910946E+01 -0.30732446392E+02  0.29681561812E+02  0.47787269164E+02  0.19999991424E+02 0.  0.
         12    1    1    2    0    0  0.76252910946E+01  0.30732446392E+02 -0.29681561812E+02  0.43400730836E+02  0.00000000000E+00 0. -1.
         11    1    3    3    0    0  0.44158627343E+01 -0.39104381419E+01  0.71907837379E+01  0.93004699438E+01  0.51100000000E-03 0. -1.
        -11    1    3    3    0    0 -0.99491395570E-01 -0.31606783710E+01  0.72585996418E+01  0.79175157293E+01  0.51100000000E-03 0.  1.
        -12    1    3    3    0    0 -0.11941662433E+02 -0.23661329879E+02  0.15232178433E+02  0.30569283490E+02  0.00000000000E+00 0.  1.
</event>
<event>
 7    1  0.2459936E-009  0.4778727E+02  0.7816164E-02  0.1312668E+00
        -11   -1    0    0    0    0  0.00000000000E+00  0.00000000000E+00  0.45593999997E+02  0.45594000000E+02  0.51100000000E-03 0.  1.
         11   -1    0    0    0    0 -0.00000000000E+00 -0.00000000000E+00 -0.45593999997E+02  0.45594000000E+02  0.51100000000E-03 0. -1.
    9900012    2    1    2    0    0  0.12079224582E+02  0.34323855247E+02  0.23655623804E+02  0.47787271399E+02  0.20000001616E+02 0.  0.
         12    1    1    2    0    0 -0.12079224582E+02 -0.34323855247E+02 -0.23655623804E+02  0.43400728601E+02  0.00000000000E+00 0. -1.
         11    1    3    3    0    0  0.11726310521E+01  0.43129482354E+01 -0.60492871962E+00  0.45102688482E+01  0.51100000000E-03 0. -1.
        -11    1    3    3    0    0  0.13520160322E+02  0.29111523260E+02  0.24669624071E+02  0.40482908414E+02  0.51100000000E-03 0.  1.
        -12    1    3    3    0    0 -0.26135667926E+01  0.89938375218E+00 -0.40907154646E+00  0.27940941365E+01  0.00000000000E+00 0.  1.
</event>
<event>
 7    1  0.2459936E-009  0.4778726E+02  0.7816164E-02  0.1312668E+00
        -11   -1    0    0    0    0  0.00000000000E+00  0.00000000000E+00  0.45593999997E+02  0.45594000000E+02  0.51100000000E-03 0. -1.
         11   -1    0    0    0    0 -0.00000000000E+00 -0.00000000000E+00 -0.45593999997E+02  0.45594000000E+02  0.51100000000E-03 0.  1.
    9900012    2    1    2    0    0  0.26631302856E+02 -0.27971781706E+02 -0.19798413213E+02  0.47787262341E+02  0.19999960317E+02 0.  0.
         12    1    1    2    0    0 -0.26631302856E+02  0.27971781706E+02  0.19798413213E+02  0.43400737659E+02  0.00000000000E+00 0. -1.
         11    1    3    3    0    0  0.27138790637E+01 -0.14886985369E+02 -0.49758875728E+01  0.15929435971E+02  0.51100000000E-03 0. -1.
        -11    1    3    3    0    0  0.48382934567E+01 -0.32182000849E+01 -0.90042120427E-01  0.58115405190E+01  0.51100000000E-03 0.  1.
         12    1    3    3    0    0  0.19079130336E+02 -0.98665962515E+01 -0.14732483520E+02  0.26046285851E+02  0.00000000000E+00 0. -1.
</event>
<event>
 7    1  0.2459936E-009  0.4778727E+02  0.7816164E-02  0.1312668E+00
        -11   -1    0    0    0    0  0.00000000000E+00  0.00000000000E+00  0.45593999997E+02  0.45594000000E+02  0.51100000000E-03 0. -1.
         11   -1    0    0    0    0 -0.00000000000E+00 -0.00000000000E+00 -0.45593999997E+02  0.45594000000E+02  0.51100000000E-03 0.  1.
    9900012    2    1    2    0    0 -0.10984088041E+02 -0.40164074233E+02 -0.12240116178E+02  0.47787268519E+02  0.19999988484E+02 0.  0.
         12    1    1    2    0    0  0.10984088041E+02  0.40164074233E+02  0.12240116178E+02  0.43400731481E+02  0.00000000000E+00 0. -1.
         11    1    3    3    0    0 -0.49042618561E+01 -0.17650396720E+02  0.51366141330E+00  0.18326269043E+02  0.51100000000E-03 0. -1.
        -11    1    3    3    0    0 -0.79862972341E+01 -0.63909702605E+01 -0.37358739956E+01  0.10889545406E+02  0.51100000000E-03 0.  1.
        -12    1    3    3    0    0  0.19064710490E+01 -0.16122707252E+02 -0.90179035954E+01  0.18571454070E+02  0.00000000000E+00 0.  1.
</event>
<event>
 7    1  0.2459936E-009  0.4778728E+02  0.7816164E-02  0.1312668E+00
        -11   -1    0    0    0    0  0.00000000000E+00  0.00000000000E+00  0.45593999997E+02  0.45594000000E+02  0.51100000000E-03 0. -1.
         11   -1    0    0    0    0 -0.00000000000E+00 -0.00000000000E+00 -0.45593999997E+02  0.45594000000E+02  0.51100000000E-03 0.  1.
    9900012    2    1    2    0    0 -0.40503064933E+02 -0.79652756115E+01  0.13404427460E+02  0.47787279268E+02  0.20000037494E+02 0.  0.
         12    1    1    2    0    0  0.40503064933E+02  0.79652756115E+01 -0.13404427460E+02  0.43400720732E+02  0.00000000000E+00 0. -1.
         11    1    3    3    0    0 -0.13186770589E+02 -0.65774750443E+01  0.97164258685E+01  0.17651148078E+02  0.51100000000E-03 0. -1.
        -11    1    3    3    0    0 -0.22624663502E+02 -0.34203517426E+01  0.71365992653E+01  0.23968839228E+02  0.51100000000E-03 0.  1.
         12    1    3    3    0    0 -0.46916308414E+01  0.20325511755E+01 -0.34485976734E+01  0.61672919620E+01  0.00000000000E+00 0. -1.
</event>
<event>
 7    1  0.2459936E-009  0.4778726E+02  0.7816164E-02  0.1312668E+00
        -11   -1    0    0    0    0  0.00000000000E+00  0.00000000000E+00  0.45593999997E+02  0.45594000000E+02  0.51100000000E-03 0.  1.
         11   -1    0    0    0    0 -0.00000000000E+00 -0.00000000000E+00 -0.45593999997E+02  0.45594000000E+02  0.51100000000E-03 0. -1.
    9900012    2    1    2    0    0  0.66523407013E+01  0.25357421729E+02  0.34588606500E+02  0.47787260684E+02  0.19999952764E+02 0.  0.
         12    1    1    2    0    0 -0.66523407013E+01 -0.25357421729E+02 -0.34588606500E+02  0.43400739316E+02  0.00000000000E+00 0. -1.
         11    1    3    3    0    0 -0.39660672007E+01  0.62480588281E+01  0.30231275726E+01  0.79941996936E+01  0.51100000000E-03 0. -1.
        -11    1    3    3    0    0  0.10038921141E+01 -0.13152740812E+01  0.22601338273E+01  0.28010623813E+01  0.51100000000E-03 0.  1.
        -12    1    3    3    0    0  0.96145157879E+01  0.20424636982E+02  0.29305345100E+02  0.36991998609E+02  0.00000000000E+00 0.  1.
</event>
<event>
 7    1  0.2459936E-009  0.4778728E+02  0.7816164E-02  0.1312668E+00
        -11   -1    0    0    0    0  0.00000000000E+00  0.00000000000E+00  0.45593999997E+02  0.45594000000E+02  0.51100000000E-03 0.  1.
         11   -1    0    0    0    0 -0.00000000000E+00 -0.00000000000E+00 -0.45593999997E+02  0.45594000000E+02  0.51100000000E-03 0. -1.
    9900012    2    1    2    0    0  0.14521882774E+01 -0.25585898770E+02  0.35026786482E+02  0.47787276067E+02  0.20000022900E+02 0.  0.
         12    1    1    2    0    0 -0.14521882774E+01  0.25585898770E+02 -0.35026786482E+02  0.43400723933E+02  0.00000000000E+00 0. -1.
         11    1    3    3    0    0  0.17382586460E+01 -0.44930565787E+01  0.11824732381E+01  0.49605789742E+01  0.51100000000E-03 0. -1.
        -11    1    3    3    0    0  0.37913099724E+01 -0.70069157286E+01  0.27157453112E+01  0.84170168226E+01  0.51100000000E-03 0.  1.
        -12    1    3    3    0    0 -0.40773803411E+01 -0.14085926463E+02  0.31128567932E+02  0.34409680270E+02  0.00000000000E+00 0.  1.
</event>
<event>
 7    1  0.2459936E-009  0.4778727E+02  0.7816164E-02  0.1312668E+00
        -11   -1    0    0    0    0  0.00000000000E+00  0.00000000000E+00  0.45593999997E+02  0.45594000000E+02  0.51100000000E-03 0.  1.
         11   -1    0    0    0    0 -0.00000000000E+00 -0.00000000000E+00 -0.45593999997E+02  0.45594000000E+02  0.51100000000E-03 0. -1.
    9900012    2    1    2    0    0  0.35890693863E+02 -0.15668587218E+02 -0.18707659095E+02  0.47787273736E+02  0.20000012273E+02 0.  0.
         12    1    1    2    0    0 -0.35890693863E+02  0.15668587218E+02  0.18707659095E+02  0.43400726264E+02  0.00000000000E+00 0. -1.
         11    1    3    3    0    0  0.14540207776E+02 -0.12489634700E+02 -0.92096557816E+01  0.21265614898E+02  0.51100000000E-03 0. -1.
        -11    1    3    3    0    0  0.16275940417E+02 -0.57047771844E+01 -0.23611537935E+01  0.17407635298E+02  0.51100000000E-03 0.  1.
        -12    1    3    3    0    0  0.50745456707E+01  0.25258246668E+01 -0.71368495203E+01  0.91140235399E+01  0.00000000000E+00 0.  1.
</event>
<event>
 7    1  0.2459936E-009  0.4778727E+02  0.7816164E-02  0.1312668E+00
        -11   -1    0    0    0    0  0.00000000000E+00  0.00000000000E+00  0.45593999997E+02  0.45594000000E+02  0.51100000000E-03 0. -1.
         11   -1    0    0    0    0 -0.00000000000E+00 -0.00000000000E+00 -0.45593999997E+02  0.45594000000E+02  0.51100000000E-03 0.  1.
    9900012    2    1    2    0    0  0.41138292752E+02  0.11369734131E+02 -0.78735687083E+01  0.47787273405E+02  0.20000010762E+02 0.  0.
         12    1    1    2    0    0 -0.41138292752E+02 -0.11369734131E+02  0.78735687083E+01  0.43400726595E+02  0.00000000000E+00 0. -1.
         11    1    3    3    0    0 -0.70948301097E+00 -0.19657881139E+01  0.49394820175E+00  0.21474808821E+01  0.51100000000E-03 0. -1.
        -11    1    3    3    0    0  0.14657690175E+02  0.22493595687E+01  0.87821961882E+00  0.14855260674E+02  0.51100000000E-03 0.  1.
        -12    1    3    3    0    0  0.27190085588E+02  0.11086162677E+02 -0.92457365289E+01  0.30784531849E+02  0.00000000000E+00 0.  1.
</event>
<event>
 7    1  0.2459936E-009  0.4778727E+02  0.7816164E-02  0.1312668E+00
        -11   -1    0    0    0    0  0.00000000000E+00  0.00000000000E+00  0.45593999997E+02  0.45594000000E+02  0.51100000000E-03 0. -1.
         11   -1    0    0    0    0 -0.00000000000E+00 -0.00000000000E+00 -0.45593999997E+02  0.45594000000E+02  0.51100000000E-03 0.  1.
    9900012    2    1    2    0    0  0.12977832973E+02  0.16584310979E+02 -0.37949440232E+02  0.47787268056E+02  0.19999986375E+02 0.  0.
         12    1    1    2    0    0 -0.12977832973E+02 -0.16584310979E+02  0.37949440232E+02  0.43400731944E+02  0.00000000000E+00 0. -1.
         11    1    3    3    0    0  0.81150633166E+01  0.76275690146E+01 -0.20415629311E+02  0.23255794592E+02  0.51100000000E-03 0. -1.
        -11    1    3    3    0    0  0.63612915038E+01  0.10852668986E+02 -0.85051683348E+01  0.15185003865E+02  0.51100000000E-03 0.  1.
         12    1    3    3    0    0 -0.14985218474E+01 -0.18959270220E+01 -0.90286425869E+01  0.93464695988E+01  0.00000000000E+00 0. -1.
</event>
<event>
 7    1  0.2459936E-009  0.4778727E+02  0.7816164E-02  0.1312668E+00
        -11   -1    0    0    0    0  0.00000000000E+00  0.00000000000E+00  0.45593999997E+02  0.45594000000E+02  0.51100000000E-03 0. -1.
         11   -1    0    0    0    0 -0.00000000000E+00 -0.00000000000E+00 -0.45593999997E+02  0.45594000000E+02  0.51100000000E-03 0.  1.
    9900012    2    1    2    0    0 -0.10757678315E+02  0.42026434846E+02 -0.12939047082E+01  0.47787273531E+02  0.20000011338E+02 0.  0.
         12    1    1    2    0    0  0.10757678315E+02 -0.42026434846E+02  0.12939047082E+01  0.43400726469E+02  0.00000000000E+00 0. -1.
         11    1    3    3    0    0  0.21045341950E+01  0.19411090215E+01  0.25772910254E+01  0.38521938817E+01  0.51100000000E-03 0. -1.
        -11    1    3    3    0    0 -0.37700812455E+00  0.69774405584E+01 -0.49031332621E+01  0.85362478829E+01  0.51100000000E-03 0.  1.
         12    1    3    3    0    0 -0.12485204385E+02  0.33107885267E+02  0.10319375285E+01  0.35398831767E+02  0.00000000000E+00 0. -1.
</event>
<event>
 7    1  0.2459936E-009  0.4778727E+02  0.7816164E-02  0.1312668E+00
        -11   -1    0    0    0    0  0.00000000000E+00  0.00000000000E+00  0.45593999997E+02  0.45594000000E+02  0.51100000000E-03 0.  1.
         11   -1    0    0    0    0 -0.00000000000E+00 -0.00000000000E+00 -0.45593999997E+02  0.45594000000E+02  0.51100000000E-03 0. -1.
    9900012    2    1    2    0    0 -0.30009929962E+02 -0.24784040934E+01  0.31255152910E+02  0.47787274584E+02  0.20000016139E+02 0.  0.
         12    1    1    2    0    0  0.30009929962E+02  0.24784040934E+01 -0.31255152910E+02  0.43400725416E+02  0.00000000000E+00 0. -1.
         11    1    3    3    0    0 -0.14526249313E+02 -0.62636459341E+01  0.22402461023E+02  0.27424723146E+02  0.51100000000E-03 0. -1.
        -11    1    3    3    0    0 -0.12674617780E+02  0.17237508086E+01  0.10461689691E+02  0.16524654434E+02  0.51100000000E-03 0.  1.
         12    1    3    3    0    0 -0.28090628699E+01  0.20614910320E+01 -0.16089978041E+01  0.38378970043E+01  0.00000000000E+00 0. -1.
</event>
<event>
 7    1  0.2459936E-009  0.4778727E+02  0.7816164E-02  0.1312668E+00
        -11   -1    0    0    0    0  0.00000000000E+00  0.00000000000E+00  0.45593999997E+02  0.45594000000E+02  0.51100000000E-03 0.  1.
         11   -1    0    0    0    0 -0.00000000000E+00 -0.00000000000E+00 -0.45593999997E+02  0.45594000000E+02  0.51100000000E-03 0. -1.
    9900012    2    1    2    0    0  0.28628044382E+02  0.26312749529E+02  0.19279450766E+02  0.47787274952E+02  0.20000017814E+02 0.  0.
         12    1    1    2    0    0 -0.28628044382E+02 -0.26312749529E+02 -0.19279450766E+02  0.43400725048E+02  0.00000000000E+00 0. -1.
         11    1    3    3    0    0  0.63429013215E+01  0.35032697032E+01 -0.92428319489E+00  0.73047652579E+01  0.51100000000E-03 0. -1.
        -11    1    3    3    0    0  0.56642520462E+01  0.34246023447E-01  0.78973430764E+01  0.97186908563E+01  0.51100000000E-03 0.  1.
        -12    1    3    3    0    0  0.16620891014E+02  0.22775233802E+02  0.12306390884E+02  0.30763818837E+02  0.00000000000E+00 0.  1.
</event>
<event>
 7    1  0.2459936E-009  0.4778728E+02  0.7816164E-02  0.1312668E+00
        -11   -1    0    0    0    0  0.00000000000E+00  0.00000000000E+00  0.45593999997E+02  0.45594000000E+02  0.51100000000E-03 0.  1.
         11   -1    0    0    0    0 -0.00000000000E+00 -0.00000000000E+00 -0.45593999997E+02  0.45594000000E+02  0.51100000000E-03 0. -1.
    9900012    2    1    2    0    0 -0.39898021760E+01 -0.40766019061E+02  0.14346988652E+02  0.47787275180E+02  0.20000018857E+02 0.  0.
         12    1    1    2    0    0  0.39898021760E+01  0.40766019061E+02 -0.14346988652E+02  0.43400724820E+02  0.00000000000E+00 0. -1.
         11    1    3    3    0    0  0.34187775398E+01 -0.36996127980E+01 -0.98875799021E+00  0.51334995224E+01  0.51100000000E-03 0. -1.
        -11    1    3    3    0    0 -0.27548008582E+01 -0.34381449761E+00  0.84132882882E+00  0.29008568797E+01  0.51100000000E-03 0.  1.
        -12    1    3    3    0    0 -0.46537788576E+01 -0.36722591765E+02  0.14494417814E+02  0.39752918778E+02  0.00000000000E+00 0.  1.
</event>
<event>
 7    1  0.2459936E-009  0.4778727E+02  0.7816164E-02  0.1312668E+00
        -11   -1    0    0    0    0  0.00000000000E+00  0.00000000000E+00  0.45593999997E+02  0.45594000000E+02  0.51100000000E-03 0. -1.
         11   -1    0    0    0    0 -0.00000000000E+00 -0.00000000000E+00 -0.45593999997E+02  0.45594000000E+02  0.51100000000E-03 0.  1.
    9900012    2    1    2    0    0 -0.86657647390E+01  0.40834653613E+02 -0.11876814826E+02  0.47787272534E+02  0.20000006790E+02 0.  0.
         12    1    1    2    0    0  0.86657647390E+01 -0.40834653613E+02  0.11876814826E+02  0.43400727466E+02  0.00000000000E+00 0. -1.
         11    1    3    3    0    0 -0.61537019548E+01  0.62759518938E+01 -0.37879277592E+01  0.95709987406E+01  0.51100000000E-03 0.  1.
        -11    1    3    3    0    0 -0.63021685073E+01  0.12031912897E+02  0.10267137133E+01  0.13621248003E+02  0.51100000000E-03 0. -1.
        -12    1    3    3    0    0  0.37901057231E+01  0.22526788822E+02 -0.91156007802E+01  0.24595025790E+02  0.00000000000E+00 0.  1.
</event>
<event>
 7    1  0.2459936E-009  0.4778727E+02  0.7816164E-02  0.1312668E+00
        -11   -1    0    0    0    0  0.00000000000E+00  0.00000000000E+00  0.45593999997E+02  0.45594000000E+02  0.51100000000E-03 0. -1.
         11   -1    0    0    0    0 -0.00000000000E+00 -0.00000000000E+00 -0.45593999997E+02  0.45594000000E+02  0.51100000000E-03 0.  1.
    9900012    2    1    2    0    0  0.19610850044E+02  0.30682337690E+02 -0.23614232532E+02  0.47787271162E+02  0.20000000537E+02 0.  0.
         12    1    1    2    0    0 -0.19610850044E+02 -0.30682337690E+02  0.23614232532E+02  0.43400728838E+02  0.00000000000E+00 0. -1.
         11    1    3    3    0    0  0.40308469845E+01  0.64462277990E+00 -0.12239342452E+01  0.42616054766E+01  0.51100000000E-03 0. -1.
        -11    1    3    3    0    0  0.91096861964E+01  0.19467894792E+02 -0.22521439629E+02  0.31131986018E+02  0.51100000000E-03 0.  1.
        -12    1    3    3    0    0  0.64703168636E+01  0.10569820118E+02  0.13114134253E+00  0.12393679667E+02  0.00000000000E+00 0.  1.
</event>
<event>
 7    1  0.2459936E-009  0.4778727E+02  0.7816164E-02  0.1312668E+00
        -11   -1    0    0    0    0  0.00000000000E+00  0.00000000000E+00  0.45593999997E+02  0.45594000000E+02  0.51100000000E-03 0.  1.
         11   -1    0    0    0    0 -0.00000000000E+00 -0.00000000000E+00 -0.45593999997E+02  0.45594000000E+02  0.51100000000E-03 0. -1.
    9900012    2    1    2    0    0 -0.35083620255E+02 -0.11744636167E+02  0.22689784626E+02  0.47787271719E+02  0.20000003076E+02 0.  0.
         12    1    1    2    0    0  0.35083620255E+02  0.11744636167E+02 -0.22689784626E+02  0.43400728281E+02  0.00000000000E+00 0. -1.
         11    1    3    3    0    0 -0.83862416264E+01  0.20873464361E+01  0.40687972469E+01  0.95520246575E+01  0.51100000000E-03 0. -1.
        -11    1    3    3    0    0 -0.47728341139E+01  0.44199405333E-01  0.96772292006E+01  0.10790304181E+02  0.51100000000E-03 0.  1.
        -12    1    3    3    0    0 -0.21924544515E+02 -0.13876182009E+02  0.89437581789E+01  0.27444942880E+02  0.00000000000E+00 0.  1.
</event>
<event>
 7    1  0.2459936E-009  0.4778727E+02  0.7816164E-02  0.1312668E+00
        -11   -1    0    0    0    0  0.00000000000E+00  0.00000000000E+00  0.45593999997E+02  0.45594000000E+02  0.51100000000E-03 0. -1.
         11   -1    0    0    0    0 -0.00000000000E+00 -0.00000000000E+00 -0.45593999997E+02  0.45594000000E+02  0.51100000000E-03 0.  1.
    9900012    2    1    2    0    0 -0.39470836705E+02 -0.16655223569E+02 -0.69483888357E+01  0.47787268097E+02  0.19999986561E+02 0.  0.
         12    1    1    2    0    0  0.39470836705E+02  0.16655223569E+02  0.69483888357E+01  0.43400731903E+02  0.00000000000E+00 0. -1.
         11    1    3    3    0    0 -0.21797077095E+02 -0.14566452837E+02 -0.55431309231E+01  0.26795903023E+02  0.51100000000E-03 0. -1.
        -11    1    3    3    0    0 -0.14948359844E+02 -0.41626271053E+01 -0.47261903825E+01  0.16220906332E+02  0.51100000000E-03 0.  1.
        -12    1    3    3    0    0 -0.27253997654E+01  0.20738563727E+01  0.33209324699E+01  0.47704587416E+01  0.00000000000E+00 0.  1.
</event>
<event>
 7    1  0.2459936E-009  0.4778729E+02  0.7816164E-02  0.1312668E+00
        -11   -1    0    0    0    0  0.00000000000E+00  0.00000000000E+00  0.45593999997E+02  0.45594000000E+02  0.51100000000E-03 0.  1.
         11   -1    0    0    0    0 -0.00000000000E+00 -0.00000000000E+00 -0.45593999997E+02  0.45594000000E+02  0.51100000000E-03 0. -1.
    9900012    2    1    2    0    0  0.13073377524E+02  0.37522087923E+02  0.17458566943E+02  0.47787287544E+02  0.20000075226E+02 0.  0.
         12    1    1    2    0    0 -0.13073377524E+02 -0.37522087923E+02 -0.17458566943E+02  0.43400712456E+02  0.00000000000E+00 0. -1.
         11    1    3    3    0    0 -0.10123598517E+01 -0.26379062433E+00 -0.11697033022E+01  0.15692877490E+01  0.51100000000E-03 0. -1.
        -11    1    3    3    0    0  0.11882740020E+01  0.19251752443E+02  0.11870449922E+02  0.22648389542E+02  0.51100000000E-03 0.  1.
         12    1    3    3    0    0  0.12897463374E+02  0.18534126104E+02  0.67578203237E+01  0.23569610252E+02  0.00000000000E+00 0. -1.
</event>
<event>
 7    1  0.2459936E-009  0.4778727E+02  0.7816164E-02  0.1312668E+00
        -11   -1    0    0    0    0  0.00000000000E+00  0.00000000000E+00  0.45593999997E+02  0.45594000000E+02  0.51100000000E-03 0.  1.
         11   -1    0    0    0    0 -0.00000000000E+00 -0.00000000000E+00 -0.45593999997E+02  0.45594000000E+02  0.51100000000E-03 0. -1.
    9900012    2    1    2    0    0  0.23073541395E+02 -0.90634530040E+01  0.35624272320E+02  0.47787271076E+02  0.20000000143E+02 0.  0.
         12    1    1    2    0    0 -0.23073541395E+02  0.90634530040E+01 -0.35624272320E+02  0.43400728924E+02  0.00000000000E+00 0. -1.
         11    1    3    3    0    0  0.40850936604E+00 -0.55846679083E+01  0.10373185296E+02  0.11788060443E+02  0.51100000000E-03 0. -1.
        -11    1    3    3    0    0  0.69643961721E+01  0.82440612202E+00  0.15524889268E+02  0.17035393936E+02  0.51100000000E-03 0.  1.
         12    1    3    3    0    0  0.15700635857E+02 -0.43031912178E+01  0.97261977552E+01  0.18963816697E+02  0.00000000000E+00 0. -1.
</event>
<event>
 7    1  0.2459936E-009  0.4778727E+02  0.7816164E-02  0.1312668E+00
        -11   -1    0    0    0    0  0.00000000000E+00  0.00000000000E+00  0.45593999997E+02  0.45594000000E+02  0.51100000000E-03 0.  1.
         11   -1    0    0    0    0 -0.00000000000E+00 -0.00000000000E+00 -0.45593999997E+02  0.45594000000E+02  0.51100000000E-03 0. -1.
    9900012    2    1    2    0    0  0.30139682678E+02 -0.22906480964E+01  0.31144435722E+02  0.47787269394E+02  0.19999992477E+02 0.  0.
         12    1    1    2    0    0 -0.30139682678E+02  0.22906480964E+01 -0.31144435722E+02  0.43400730606E+02  0.00000000000E+00 0. -1.
         11    1    3    3    0    0 -0.20080295359E+01  0.97358369261E+00  0.21296648965E+01  0.30847237569E+01  0.51100000000E-03 0. -1.
        -11    1    3    3    0    0  0.90848817580E+01 -0.37749062758E+01  0.38504204925E+01  0.10564598060E+02  0.51100000000E-03 0.  1.
        -12    1    3    3    0    0  0.23062830456E+02  0.51067448681E+00  0.25164350333E+02  0.34137947577E+02  0.00000000000E+00 0.  1.
</event>
<event>
 7    1  0.2459936E-009  0.4778727E+02  0.7816164E-02  0.1312668E+00
        -11   -1    0    0    0    0  0.00000000000E+00  0.00000000000E+00  0.45593999997E+02  0.45594000000E+02  0.51100000000E-03 0.  1.
         11   -1    0    0    0    0 -0.00000000000E+00 -0.00000000000E+00 -0.45593999997E+02  0.45594000000E+02  0.51100000000E-03 0. -1.
    9900012    2    1    2    0    0 -0.15560984258E+02 -0.20090430805E+02  0.35183142560E+02  0.47787272340E+02  0.20000005908E+02 0.  0.
         12    1    1    2    0    0  0.15560984258E+02  0.20090430805E+02 -0.35183142560E+02  0.43400727660E+02  0.00000000000E+00 0. -1.
         11    1    3    3    0    0 -0.60422390183E+01 -0.12870291528E+02  0.60754935084E+01  0.15461716528E+02  0.51100000000E-03 0. -1.
        -11    1    3    3    0    0  0.64673650636E+00 -0.48195137844E+00  0.45182963266E-01  0.80782857162E+00  0.51100000000E-03 0.  1.
        -12    1    3    3    0    0 -0.10165481746E+02 -0.67381878988E+01  0.29062466088E+02  0.31517727241E+02  0.00000000000E+00 0.  1.
</event>
<event>
 7    1  0.2459936E-009  0.4778727E+02  0.7816164E-02  0.1312668E+00
        -11   -1    0    0    0    0  0.00000000000E+00  0.00000000000E+00  0.45593999997E+02  0.45594000000E+02  0.51100000000E-03 0.  1.
         11   -1    0    0    0    0 -0.00000000000E+00 -0.00000000000E+00 -0.45593999997E+02  0.45594000000E+02  0.51100000000E-03 0. -1.
    9900012    2    1    2    0    0 -0.52090840288E+01  0.33020729049E+02  0.27678881568E+02  0.47787267423E+02  0.19999983490E+02 0.  0.
         12    1    1    2    0    0  0.52090840288E+01 -0.33020729049E+02 -0.27678881568E+02  0.43400732577E+02  0.00000000000E+00 0. -1.
         11    1    3    3    0    0 -0.78082815715E+01  0.53264630561E+01  0.75743656195E+01  0.12112451634E+02  0.51100000000E-03 0.  1.
        -11    1    3    3    0    0 -0.95442054651E+00  0.42314012794E+00  0.32633661223E+01  0.34262990029E+01  0.51100000000E-03 0. -1.
         12    1    3    3    0    0  0.35536180893E+01  0.27271125865E+02  0.16841149827E+02  0.32248516786E+02  0.00000000000E+00 0. -1.
</event>
<event>
 7    1  0.2459936E-009  0.4778728E+02  0.7816164E-02  0.1312668E+00
        -11   -1    0    0    0    0  0.00000000000E+00  0.00000000000E+00  0.45593999997E+02  0.45594000000E+02  0.51100000000E-03 0.  1.
         11   -1    0    0    0    0 -0.00000000000E+00 -0.00000000000E+00 -0.45593999997E+02  0.45594000000E+02  0.51100000000E-03 0. -1.
    9900012    2    1    2    0    0 -0.10781998691E+02 -0.41421600292E+02  0.71848441041E+01  0.47787280521E+02  0.20000043208E+02 0.  0.
         12    1    1    2    0    0  0.10781998691E+02  0.41421600292E+02 -0.71848441041E+01  0.43400719479E+02  0.00000000000E+00 0. -1.
         11    1    3    3    0    0  0.31192202399E+01 -0.62466721241E+01  0.20828860955E+00  0.69852581869E+01  0.51100000000E-03 0. -1.
        -11    1    3    3    0    0  0.17833561551E+01 -0.12474743098E+02  0.25616413315E+01  0.12859299402E+02  0.51100000000E-03 0.  1.
         12    1    3    3    0    0 -0.15684575085E+02 -0.22700185070E+02  0.44149141631E+01  0.27942722933E+02  0.00000000000E+00 0. -1.
</event>
<event>
 7    1  0.2459936E-009  0.4778727E+02  0.7816164E-02  0.1312668E+00
        -11   -1    0    0    0    0  0.00000000000E+00  0.00000000000E+00  0.45593999997E+02  0.45594000000E+02  0.51100000000E-03 0.  1.
         11   -1    0    0    0    0 -0.00000000000E+00 -0.00000000000E+00 -0.45593999997E+02  0.45594000000E+02  0.51100000000E-03 0. -1.
    9900012    2    1    2    0    0  0.30782904000E+02 -0.25529254947E+02  0.16861000911E+02  0.47787269723E+02  0.19999993977E+02 0.  0.
         12    1    1    2    0    0 -0.30782904000E+02  0.25529254947E+02 -0.16861000911E+02  0.43400730277E+02  0.00000000000E+00 0. -1.
         11    1    3    3    0    0  0.24534629188E+01 -0.23684088829E+01 -0.30516015442E+01  0.45761461052E+01  0.51100000000E-03 0. -1.
        -11    1    3    3    0    0  0.60742118120E+01 -0.39768895262E+01 -0.73815643637E+00  0.72977102317E+01  0.51100000000E-03 0.  1.
        -12    1    3    3    0    0  0.22255229269E+02 -0.19183956538E+02  0.20650758892E+02  0.35913413387E+02  0.00000000000E+00 0.  1.
</event>
<event>
 7    1  0.2459936E-009  0.4778727E+02  0.7816164E-02  0.1312668E+00
        -11   -1    0    0    0    0  0.00000000000E+00  0.00000000000E+00  0.45593999997E+02  0.45594000000E+02  0.51100000000E-03 0.  1.
         11   -1    0    0    0    0 -0.00000000000E+00 -0.00000000000E+00 -0.45593999997E+02  0.45594000000E+02  0.51100000000E-03 0. -1.
    9900012    2    1    2    0    0  0.11758773840E+02 -0.25353390308E+02  0.33204827469E+02  0.47787265795E+02  0.19999976064E+02 0.  0.
         12    1    1    2    0    0 -0.11758773840E+02  0.25353390308E+02 -0.33204827469E+02  0.43400734205E+02  0.00000000000E+00 0. -1.
         11    1    3    3    0    0  0.59245788781E+01 -0.12401299293E+02  0.43733706322E+01  0.14422871767E+02  0.51100000000E-03 0. -1.
        -11    1    3    3    0    0 -0.62383478623E-01  0.13340760132E+01  0.22892229472E+01  0.26503193148E+01  0.51100000000E-03 0.  1.
        -12    1    3    3    0    0  0.58965784408E+01 -0.14286167028E+02  0.26542233889E+02  0.30714074713E+02  0.00000000000E+00 0.  1.
</event>
<event>
 7    1  0.2459936E-009  0.4778726E+02  0.7816164E-02  0.1312668E+00
        -11   -1    0    0    0    0  0.00000000000E+00  0.00000000000E+00  0.45593999997E+02  0.45594000000E+02  0.51100000000E-03 0. -1.
         11   -1    0    0    0    0 -0.00000000000E+00 -0.00000000000E+00 -0.45593999997E+02  0.45594000000E+02  0.51100000000E-03 0.  1.
    9900012    2    1    2    0    0 -0.34155325824E+01  0.26697702945E+02 -0.34046888538E+02  0.47787264701E+02  0.19999971078E+02 0.  0.
         12    1    1    2    0    0  0.34155325824E+01 -0.26697702945E+02  0.34046888538E+02  0.43400735299E+02  0.00000000000E+00 0. -1.
         11    1    3    3    0    0  0.11539984482E+01  0.97744858321E+00 -0.97198307293E+01  0.98367793418E+01  0.51100000000E-03 0. -1.
        -11    1    3    3    0    0 -0.88138851117E+01  0.13542460088E+02 -0.14861585436E+02  0.21953348673E+02  0.51100000000E-03 0.  1.
        -12    1    3    3    0    0  0.42443540810E+01  0.12177794273E+02 -0.94654723729E+01  0.15997136687E+02  0.00000000000E+00 0.  1.
</event>
<event>
 7    1  0.2459936E-009  0.4778728E+02  0.7816164E-02  0.1312668E+00
        -11   -1    0    0    0    0  0.00000000000E+00  0.00000000000E+00  0.45593999997E+02  0.45594000000E+02  0.51100000000E-03 0. -1.
         11   -1    0    0    0    0 -0.00000000000E+00 -0.00000000000E+00 -0.45593999997E+02  0.45594000000E+02  0.51100000000E-03 0.  1.
    9900012    2    1    2    0    0 -0.26453995802E+02 -0.27026271035E+02 -0.21292948033E+02  0.47787275860E+02  0.20000021955E+02 0.  0.
         12    1    1    2    0    0  0.26453995802E+02  0.27026271035E+02  0.21292948033E+02  0.43400724140E+02  0.00000000000E+00 0. -1.
         11    1    3    3    0    0  0.26482258971E+01 -0.48937984902E+01 -0.27155967588E+01  0.61916742552E+01  0.51100000000E-03 0. -1.
        -11    1    3    3    0    0 -0.47791234975E+01 -0.30572528499E+01 -0.59028649816E+01  0.81872236836E+01  0.51100000000E-03 0.  1.
        -12    1    3    3    0    0 -0.24323098202E+02 -0.19075219695E+02 -0.12674486293E+02  0.33408377921E+02  0.00000000000E+00 0.  1.
</event>
<event>
 7    1  0.2459936E-009  0.4778726E+02  0.7816164E-02  0.1312668E+00
        -11   -1    0    0    0    0  0.00000000000E+00  0.00000000000E+00  0.45593999997E+02  0.45594000000E+02  0.51100000000E-03 0. -1.
         11   -1    0    0    0    0 -0.00000000000E+00 -0.00000000000E+00 -0.45593999997E+02  0.45594000000E+02  0.51100000000E-03 0.  1.
    9900012    2    1    2    0    0 -0.41988882862E+02  0.92062832633E+01 -0.59834670795E+01  0.47787264824E+02  0.19999971640E+02 0.  0.
         12    1    1    2    0    0  0.41988882862E+02 -0.92062832633E+01  0.59834670795E+01  0.43400735176E+02  0.00000000000E+00 0. -1.
         11    1    3    3    0    0 -0.11048691072E+02  0.73254043628E+01  0.10626836625E+01  0.13299038322E+02  0.51100000000E-03 0. -1.
        -11    1    3    3    0    0 -0.22521899351E+02 -0.33626404393E+01 -0.83658452330E+00  0.22786907974E+02  0.51100000000E-03 0.  1.
         12    1    3    3    0    0 -0.84182924394E+01  0.52435193399E+01 -0.62095662187E+01  0.11701318528E+02  0.00000000000E+00 0. -1.
</event>
<event>
 7    1  0.2459936E-009  0.4778727E+02  0.7816164E-02  0.1312668E+00
        -11   -1    0    0    0    0  0.00000000000E+00  0.00000000000E+00  0.45593999997E+02  0.45594000000E+02  0.51100000000E-03 0. -1.
         11   -1    0    0    0    0 -0.00000000000E+00 -0.00000000000E+00 -0.45593999997E+02  0.45594000000E+02  0.51100000000E-03 0.  1.
    9900012    2    1    2    0    0 -0.29820362446E+02  0.29112148389E+02 -0.12118248629E+02  0.47787272471E+02  0.20000006503E+02 0.  0.
         12    1    1    2    0    0  0.29820362446E+02 -0.29112148389E+02  0.12118248629E+02  0.43400727529E+02  0.00000000000E+00 0. -1.
         11    1    3    3    0    0 -0.15813213646E+01  0.22241851350E+01 -0.45986161664E+01  0.53474150465E+01  0.51100000000E-03 0. -1.
        -11    1    3    3    0    0 -0.18175758323E+02  0.25837488802E+02 -0.66676389774E+01  0.32286087221E+02  0.51100000000E-03 0.  1.
         12    1    3    3    0    0 -0.10063282758E+02  0.10504744516E+01 -0.85199348539E+00  0.10153770203E+02  0.00000000000E+00 0. -1.
</event>
<event>
 7    1  0.2459936E-009  0.4778727E+02  0.7816164E-02  0.1312668E+00
        -11   -1    0    0    0    0  0.00000000000E+00  0.00000000000E+00  0.45593999997E+02  0.45594000000E+02  0.51100000000E-03 0.  1.
         11   -1    0    0    0    0 -0.00000000000E+00 -0.00000000000E+00 -0.45593999997E+02  0.45594000000E+02  0.51100000000E-03 0. -1.
    9900012    2    1    2    0    0  0.26524977945E+02 -0.16115512781E+02  0.30337086290E+02  0.47787274065E+02  0.20000013771E+02 0.  0.
         12    1    1    2    0    0 -0.26524977945E+02  0.16115512781E+02 -0.30337086290E+02  0.43400725935E+02  0.00000000000E+00 0. -1.
         11    1    3    3    0    0  0.61969826299E+01 -0.11817824772E+02  0.11808770019E+02  0.17818827842E+02  0.51100000000E-03 0. -1.
        -11    1    3    3    0    0  0.63711967561E+00  0.89785525624E+00  0.59091315287E+01  0.60108153545E+01  0.51100000000E-03 0.  1.
        -12    1    3    3    0    0  0.19690875639E+02 -0.51955432659E+01  0.12619184742E+02  0.23957630868E+02  0.00000000000E+00 0.  1.
</event>
<event>
 7    1  0.2459936E-009  0.4778727E+02  0.7816164E-02  0.1312668E+00
        -11   -1    0    0    0    0  0.00000000000E+00  0.00000000000E+00  0.45593999997E+02  0.45594000000E+02  0.51100000000E-03 0.  1.
         11   -1    0    0    0    0 -0.00000000000E+00 -0.00000000000E+00 -0.45593999997E+02  0.45594000000E+02  0.51100000000E-03 0. -1.
    9900012    2    1    2    0    0  0.19510520502E+02  0.14130389519E+02  0.36101174764E+02  0.47787272615E+02  0.20000007160E+02 0.  0.
         12    1    1    2    0    0 -0.19510520502E+02 -0.14130389519E+02 -0.36101174764E+02  0.43400727385E+02  0.00000000000E+00 0. -1.
         11    1    3    3    0    0  0.75051787821E+01  0.15750948498E+01  0.50052640951E+01  0.91575816272E+01  0.51100000000E-03 0. -1.
        -11    1    3    3    0    0  0.61562184289E+01  0.46787531284E+01  0.26846956045E+02  0.27938303551E+02  0.51100000000E-03 0.  1.
        -12    1    3    3    0    0  0.58491232912E+01  0.78765415409E+01  0.42489546239E+01  0.10691387436E+02  0.00000000000E+00 0.  1.
</event>
<event>
 7    1  0.2459936E-009  0.4778727E+02  0.7816164E-02  0.1312668E+00
        -11   -1    0    0    0    0  0.00000000000E+00  0.00000000000E+00  0.45593999997E+02  0.45594000000E+02  0.51100000000E-03 0.  1.
         11   -1    0    0    0    0 -0.00000000000E+00 -0.00000000000E+00 -0.45593999997E+02  0.45594000000E+02  0.51100000000E-03 0. -1.
    9900012    2    1    2    0    0  0.40713709638E+02 -0.60778076604E+01  0.13750548521E+02  0.47787268635E+02  0.19999989013E+02 0.  0.
         12    1    1    2    0    0 -0.40713709638E+02  0.60778076604E+01 -0.13750548521E+02  0.43400731365E+02  0.00000000000E+00 0. -1.
         11    1    3    3    0    0  0.33038561027E+01  0.15298955775E+01  0.27779969643E+01  0.45796629811E+01  0.51100000000E-03 0.  1.
        -11    1    3    3    0    0  0.14013113950E+02 -0.95055131252E+01 -0.79105376309E+00  0.16951339435E+02  0.51100000000E-03 0. -1.
         12    1    3    3    0    0  0.23396739585E+02  0.18978098872E+01  0.11763605320E+02  0.26256266218E+02  0.00000000000E+00 0. -1.
</event>
<event>
 7    1  0.2459936E-009  0.4778727E+02  0.7816164E-02  0.1312668E+00
        -11   -1    0    0    0    0  0.00000000000E+00  0.00000000000E+00  0.45593999997E+02  0.45594000000E+02  0.51100000000E-03 0.  1.
         11   -1    0    0    0    0 -0.00000000000E+00 -0.00000000000E+00 -0.45593999997E+02  0.45594000000E+02  0.51100000000E-03 0. -1.
    9900012    2    1    2    0    0 -0.61388383511E+01  0.29058318364E+02  0.31647311402E+02  0.47787268192E+02  0.19999986996E+02 0.  0.
         12    1    1    2    0    0  0.61388383511E+01 -0.29058318364E+02 -0.31647311402E+02  0.43400731808E+02  0.00000000000E+00 0. -1.
         11    1    3    3    0    0 -0.19668189671E+01  0.14420400017E+02  0.15094700914E+02  0.20968221418E+02  0.51100000000E-03 0.  1.
        -11    1    3    3    0    0  0.31948472301E+01  0.78063216571E+01  0.12702178404E+01  0.85298980217E+01  0.51100000000E-03 0. -1.
         12    1    3    3    0    0 -0.73668666141E+01  0.68315966900E+01  0.15282392648E+02  0.18289148752E+02  0.00000000000E+00 0. -1.
</event>
<event>
 7    1  0.2459936E-009  0.4778727E+02  0.7816164E-02  0.1312668E+00
        -11   -1    0    0    0    0  0.00000000000E+00  0.00000000000E+00  0.45593999997E+02  0.45594000000E+02  0.51100000000E-03 0. -1.
         11   -1    0    0    0    0 -0.00000000000E+00 -0.00000000000E+00 -0.45593999997E+02  0.45594000000E+02  0.51100000000E-03 0.  1.
    9900012    2    1    2    0    0 -0.42301579860E+02  0.38085662880E+01  0.89271910339E+01  0.47787267569E+02  0.19999984154E+02 0.  0.
         12    1    1    2    0    0  0.42301579860E+02 -0.38085662880E+01 -0.89271910339E+01  0.43400732431E+02  0.00000000000E+00 0. -1.
         11    1    3    3    0    0 -0.19584548142E+02 -0.65240086301E+00  0.86042798149E+01  0.21401256604E+02  0.51100000000E-03 0. -1.
        -11    1    3    3    0    0 -0.66325441262E+01 -0.12107296228E+01  0.53483112504E+01  0.86058666790E+01  0.51100000000E-03 0.  1.
        -12    1    3    3    0    0 -0.16084487591E+02  0.56716967738E+01 -0.50254000314E+01  0.17780144286E+02  0.00000000000E+00 0.  1.
</event>
<event>
 7    1  0.2459936E-009  0.4778727E+02  0.7816164E-02  0.1312668E+00
        -11   -1    0    0    0    0  0.00000000000E+00  0.00000000000E+00  0.45593999997E+02  0.45594000000E+02  0.51100000000E-03 0.  1.
         11   -1    0    0    0    0 -0.00000000000E+00 -0.00000000000E+00 -0.45593999997E+02  0.45594000000E+02  0.51100000000E-03 0. -1.
    9900012    2    1    2    0    0 -0.26198059338E+02 -0.26814756415E+02  0.21869009032E+02  0.47787273846E+02  0.20000012772E+02 0.  0.
         12    1    1    2    0    0  0.26198059338E+02  0.26814756415E+02 -0.21869009032E+02  0.43400726154E+02  0.00000000000E+00 0. -1.
         11    1    3    3    0    0 -0.15769400610E+02 -0.14784973145E+02  0.63578207661E+01  0.22532006383E+02  0.51100000000E-03 0. -1.
        -11    1    3    3    0    0 -0.36338008102E+01  0.41442940478E+00 -0.69445191051E+00  0.37227038261E+01  0.51100000000E-03 0.  1.
         12    1    3    3    0    0 -0.67948579179E+01 -0.12444212675E+02  0.16205640176E+02  0.21532563636E+02  0.00000000000E+00 0. -1.
</event>
<event>
 7    1  0.2459936E-009  0.4778727E+02  0.7816164E-02  0.1312668E+00
        -11   -1    0    0    0    0  0.00000000000E+00  0.00000000000E+00  0.45593999997E+02  0.45594000000E+02  0.51100000000E-03 0.  1.
         11   -1    0    0    0    0 -0.00000000000E+00 -0.00000000000E+00 -0.45593999997E+02  0.45594000000E+02  0.51100000000E-03 0. -1.
    9900012    2    1    2    0    0 -0.18946902525E+02 -0.85696918919E+01  0.38094600996E+02  0.47787270059E+02  0.19999995507E+02 0.  0.
         12    1    1    2    0    0  0.18946902525E+02  0.85696918919E+01 -0.38094600996E+02  0.43400729941E+02  0.00000000000E+00 0. -1.
         11    1    3    3    0    0  0.11129094490E+01  0.42833759734E+00  0.97040301279E+00  0.15374403427E+01  0.51100000000E-03 0. -1.
        -11    1    3    3    0    0  0.37359708220E+00 -0.46358746480E+01  0.13875979289E+01  0.48534870769E+01  0.51100000000E-03 0.  1.
        -12    1    3    3    0    0 -0.20433409056E+02 -0.43621548412E+01  0.35736600054E+02  0.41396342639E+02  0.00000000000E+00 0.  1.
</event>
<event>
 7    1  0.2459936E-009  0.4778727E+02  0.7816164E-02  0.1312668E+00
        -11   -1    0    0    0    0  0.00000000000E+00  0.00000000000E+00  0.45593999997E+02  0.45594000000E+02  0.51100000000E-03 0. -1.
         11   -1    0    0    0    0 -0.00000000000E+00 -0.00000000000E+00 -0.45593999997E+02  0.45594000000E+02  0.51100000000E-03 0.  1.
    9900012    2    1    2    0    0  0.12591690598E+02 -0.17052173388E+02 -0.37872104675E+02  0.47787267266E+02  0.19999982771E+02 0.  0.
         12    1    1    2    0    0 -0.12591690598E+02  0.17052173388E+02  0.37872104675E+02  0.43400732734E+02  0.00000000000E+00 0. -1.
         11    1    3    3    0    0  0.13604666602E+02 -0.12931472004E+02 -0.15541764624E+02  0.24369168419E+02  0.51100000000E-03 0. -1.
        -11    1    3    3    0    0  0.18305494234E+01 -0.31376435502E+01 -0.81624807985E+01  0.89343053052E+01  0.51100000000E-03 0.  1.
        -12    1    3    3    0    0 -0.28435254271E+01 -0.98305783381E+00 -0.14167859252E+02  0.14483793542E+02  0.00000000000E+00 0.  1.
</event>
<event>
 7    1  0.2459936E-009  0.4778729E+02  0.7816164E-02  0.1312668E+00
        -11   -1    0    0    0    0  0.00000000000E+00  0.00000000000E+00  0.45593999997E+02  0.45594000000E+02  0.51100000000E-03 0.  1.
         11   -1    0    0    0    0 -0.00000000000E+00 -0.00000000000E+00 -0.45593999997E+02  0.45594000000E+02  0.51100000000E-03 0. -1.
    9900012    2    1    2    0    0  0.23547868024E+02 -0.35385560818E+02 -0.87739394387E+01  0.47787285534E+02  0.20000066064E+02 0.  0.
         12    1    1    2    0    0 -0.23547868024E+02  0.35385560818E+02  0.87739394387E+01  0.43400714466E+02  0.00000000000E+00 0. -1.
         11    1    3    3    0    0 -0.98760204572E+00  0.12194454123E+01 -0.11263276311E+01  0.19315846106E+01  0.51100000000E-03 0. -1.
        -11    1    3    3    0    0  0.35793402116E+01 -0.12853936001E+02 -0.33069096307E+00  0.13347085968E+02  0.51100000000E-03 0.  1.
         12    1    3    3    0    0  0.20956129858E+02 -0.23751070229E+02 -0.73169208445E+01  0.32508614955E+02  0.00000000000E+00 0. -1.
</event>
<event>
 7    1  0.2459936E-009  0.4778727E+02  0.7816164E-02  0.1312668E+00
        -11   -1    0    0    0    0  0.00000000000E+00  0.00000000000E+00  0.45593999997E+02  0.45594000000E+02  0.51100000000E-03 0.  1.
         11   -1    0    0    0    0 -0.00000000000E+00 -0.00000000000E+00 -0.45593999997E+02  0.45594000000E+02  0.51100000000E-03 0. -1.
    9900012    2    1    2    0    0  0.31229412790E+02 -0.27112634542E+02  0.13162527165E+02  0.47787270785E+02  0.19999998819E+02 0.  0.
         12    1    1    2    0    0 -0.31229412790E+02  0.27112634542E+02 -0.13162527165E+02  0.43400729215E+02  0.00000000000E+00 0. -1.
         11    1    3    3    0    0  0.75210873359E+01 -0.13190986935E+02  0.43612766839E+01  0.15798405793E+02  0.51100000000E-03 0. -1.
        -11    1    3    3    0    0  0.59639886758E+01 -0.94153024075E+01 -0.10578193570E+01  0.11195358967E+02  0.51100000000E-03 0.  1.
        -12    1    3    3    0    0  0.17744336778E+02 -0.45063451996E+01  0.98590698376E+01  0.20793506025E+02  0.00000000000E+00 0.  1.
</event>
<event>
 7    1  0.2459936E-009  0.4778727E+02  0.7816164E-02  0.1312668E+00
        -11   -1    0    0    0    0  0.00000000000E+00  0.00000000000E+00  0.45593999997E+02  0.45594000000E+02  0.51100000000E-03 0.  1.
         11   -1    0    0    0    0 -0.00000000000E+00 -0.00000000000E+00 -0.45593999997E+02  0.45594000000E+02  0.51100000000E-03 0. -1.
    9900012    2    1    2    0    0 -0.78998087502E+01  0.12315225129E+02  0.40860143814E+02  0.47787273038E+02  0.20000009091E+02 0.  0.
         12    1    1    2    0    0  0.78998087502E+01 -0.12315225129E+02 -0.40860143814E+02  0.43400726962E+02  0.00000000000E+00 0. -1.
         11    1    3    3    0    0  0.33578385294E+01  0.46298142712E+01  0.61612276381E+01  0.84066037164E+01  0.51100000000E-03 0. -1.
        -11    1    3    3    0    0 -0.31746937376E+00  0.76721433596E+01  0.14726936787E+02  0.16608589282E+02  0.51100000000E-03 0.  1.
        -12    1    3    3    0    0 -0.10940177906E+02  0.13267498601E-01  0.19971979389E+02  0.22772080040E+02  0.00000000000E+00 0.  1.
</event>
<event>
 7    1  0.2459936E-009  0.4778727E+02  0.7816164E-02  0.1312668E+00
        -11   -1    0    0    0    0  0.00000000000E+00  0.00000000000E+00  0.45593999997E+02  0.45594000000E+02  0.51100000000E-03 0. -1.
         11   -1    0    0    0    0 -0.00000000000E+00 -0.00000000000E+00 -0.45593999997E+02  0.45594000000E+02  0.51100000000E-03 0.  1.
    9900012    2    1    2    0    0  0.73597550051E+01  0.42770603811E+02  0.36408134155E+00  0.47787273056E+02  0.20000009171E+02 0.  0.
         12    1    1    2    0    0 -0.73597550051E+01 -0.42770603811E+02 -0.36408134155E+00  0.43400726944E+02  0.00000000000E+00 0. -1.
         11    1    3    3    0    0  0.44907051581E+01  0.13057354813E+01  0.29065910440E+01  0.55063281524E+01  0.51100000000E-03 0. -1.
        -11    1    3    3    0    0 -0.18433063031E+01  0.84880046688E+01 -0.22303117707E+01  0.89676246710E+01  0.51100000000E-03 0.  1.
        -12    1    3    3    0    0  0.47123561501E+01  0.32976863660E+02 -0.31219793171E+00  0.33313320233E+02  0.00000000000E+00 0.  1.
</event>
<event>
 7    1  0.2459936E-009  0.4778727E+02  0.7816164E-02  0.1312668E+00
        -11   -1    0    0    0    0  0.00000000000E+00  0.00000000000E+00  0.45593999997E+02  0.45594000000E+02  0.51100000000E-03 0.  1.
         11   -1    0    0    0    0 -0.00000000000E+00 -0.00000000000E+00 -0.45593999997E+02  0.45594000000E+02  0.51100000000E-03 0. -1.
    9900012    2    1    2    0    0 -0.31619038594E+02 -0.11297449018E+01  0.29708303566E+02  0.47787271597E+02  0.20000002520E+02 0.  0.
         12    1    1    2    0    0  0.31619038594E+02  0.11297449018E+01 -0.29708303566E+02  0.43400728403E+02  0.00000000000E+00 0. -1.
         11    1    3    3    0    0 -0.14022072773E+02  0.71565230202E+01  0.82336499808E+01  0.17765903829E+02  0.51100000000E-03 0. -1.
        -11    1    3    3    0    0  0.64313036293E+00  0.30291567920E+00  0.26590527285E+00  0.75899963615E+00  0.51100000000E-03 0.  1.
        -12    1    3    3    0    0 -0.18240096184E+02 -0.85891836012E+01  0.21208748312E+02  0.29262368132E+02  0.00000000000E+00 0.  1.
</event>
<event>
 7    1  0.2459936E-009  0.4778727E+02  0.7816164E-02  0.1312668E+00
        -11   -1    0    0    0    0  0.00000000000E+00  0.00000000000E+00  0.45593999997E+02  0.45594000000E+02  0.51100000000E-03 0.  1.
         11   -1    0    0    0    0 -0.00000000000E+00 -0.00000000000E+00 -0.45593999997E+02  0.45594000000E+02  0.51100000000E-03 0. -1.
    9900012    2    1    2    0    0 -0.35360213702E+02 -0.38689729702E+01  0.24865832334E+02  0.47787270944E+02  0.19999999544E+02 0.  0.
         12    1    1    2    0    0  0.35360213702E+02  0.38689729702E+01 -0.24865832334E+02  0.43400729056E+02  0.00000000000E+00 0. -1.
         11    1    3    3    0    0 -0.45175542086E+01  0.36216973391E+01 -0.32409022745E+00  0.57991397966E+01  0.51100000000E-03 0. -1.
        -11    1    3    3    0    0 -0.19242175251E+02 -0.24161347295E+01  0.88516995468E+01  0.21317870451E+02  0.51100000000E-03 0.  1.
         12    1    3    3    0    0 -0.11600484242E+02 -0.50745355797E+01  0.16338223014E+02  0.20670260697E+02  0.00000000000E+00 0. -1.
</event>
<event>
 7    1  0.2459936E-009  0.4778729E+02  0.7816164E-02  0.1312668E+00
        -11   -1    0    0    0    0  0.00000000000E+00  0.00000000000E+00  0.45593999997E+02  0.45594000000E+02  0.51100000000E-03 0. -1.
         11   -1    0    0    0    0 -0.00000000000E+00 -0.00000000000E+00 -0.45593999997E+02  0.45594000000E+02  0.51100000000E-03 0.  1.
    9900012    2    1    2    0    0 -0.44711483110E+01  0.42647280569E+02 -0.66962357788E+01  0.47787294006E+02  0.20000104692E+02 0.  0.
         12    1    1    2    0    0  0.44711483110E+01 -0.42647280569E+02  0.66962357788E+01  0.43400705994E+02  0.00000000000E+00 0. -1.
         11    1    3    3    0    0  0.35196272765E+01  0.21705337923E+02 -0.46457422596E+01  0.22474260653E+02  0.51100000000E-03 0. -1.
        -11    1    3    3    0    0  0.50799703997E+00  0.17137737077E+00 -0.28074900557E+01  0.28582218020E+01  0.51100000000E-03 0.  1.
         12    1    3    3    0    0 -0.84987726275E+01  0.20770565276E+02  0.75699653650E+00  0.22454811551E+02  0.00000000000E+00 0. -1.
</event>
<event>
 7    1  0.2459936E-009  0.4778727E+02  0.7816164E-02  0.1312668E+00
        -11   -1    0    0    0    0  0.00000000000E+00  0.00000000000E+00  0.45593999997E+02  0.45594000000E+02  0.51100000000E-03 0. -1.
         11   -1    0    0    0    0 -0.00000000000E+00 -0.00000000000E+00 -0.45593999997E+02  0.45594000000E+02  0.51100000000E-03 0.  1.
    9900012    2    1    2    0    0 -0.17778385289E+02  0.19246529488E+02 -0.34599469683E+02  0.47787272090E+02  0.20000004765E+02 0.  0.
         12    1    1    2    0    0  0.17778385289E+02 -0.19246529488E+02  0.34599469683E+02  0.43400727910E+02  0.00000000000E+00 0. -1.
         11    1    3    3    0    0  0.10655649762E+01  0.10937408079E+01 -0.72501796465E+01  0.74092376693E+01  0.51100000000E-03 0. -1.
        -11    1    3    3    0    0 -0.70126719086E+01  0.10870717122E+02 -0.21939031061E+02  0.25469023189E+02  0.51100000000E-03 0.  1.
         12    1    3    3    0    0 -0.11831278356E+02  0.72820715579E+01 -0.54102589761E+01  0.14909011232E+02  0.00000000000E+00 0. -1.
</event>
<event>
 7    1  0.2459936E-009  0.4778727E+02  0.7816164E-02  0.1312668E+00
        -11   -1    0    0    0    0  0.00000000000E+00  0.00000000000E+00  0.45593999997E+02  0.45594000000E+02  0.51100000000E-03 0.  1.
         11   -1    0    0    0    0 -0.00000000000E+00 -0.00000000000E+00 -0.45593999997E+02  0.45594000000E+02  0.51100000000E-03 0. -1.
    9900012    2    1    2    0    0  0.34903870029E+01 -0.11644826545E+02  0.41663398867E+02  0.47787267381E+02  0.19999983298E+02 0.  0.
         12    1    1    2    0    0 -0.34903870029E+01  0.11644826545E+02 -0.41663398867E+02  0.43400732619E+02  0.00000000000E+00 0. -1.
         11    1    3    3    0    0  0.52413809615E+01 -0.76943811926E+01  0.31640684854E+02  0.32981942250E+02  0.51100000000E-03 0. -1.
        -11    1    3    3    0    0  0.32691873404E+01  0.13392570810E+01  0.24996995787E+01  0.43277816073E+01  0.51100000000E-03 0.  1.
        -12    1    3    3    0    0 -0.50201812990E+01 -0.52897024335E+01  0.75230144348E+01  0.10477543524E+02  0.00000000000E+00 0.  1.
</event>
<event>
 7    1  0.2459936E-009  0.4778727E+02  0.7816164E-02  0.1312668E+00
        -11   -1    0    0    0    0  0.00000000000E+00  0.00000000000E+00  0.45593999997E+02  0.45594000000E+02  0.51100000000E-03 0.  1.
         11   -1    0    0    0    0 -0.00000000000E+00 -0.00000000000E+00 -0.45593999997E+02  0.45594000000E+02  0.51100000000E-03 0. -1.
    9900012    2    1    2    0    0  0.75131443853E+01  0.24802703366E+01  0.42673458469E+02  0.47787272619E+02  0.20000007179E+02 0.  0.
         12    1    1    2    0    0 -0.75131443853E+01 -0.24802703366E+01 -0.42673458469E+02  0.43400727381E+02  0.00000000000E+00 0. -1.
         11    1    3    3    0    0 -0.17651342364E+01 -0.38680857520E+01  0.35000526321E+01  0.55071004119E+01  0.51100000000E-03 0. -1.
        -11    1    3    3    0    0  0.11601386509E+01 -0.27107251853E+01  0.14185379131E+02  0.14488579436E+02  0.51100000000E-03 0.  1.
        -12    1    3    3    0    0  0.81181399708E+01  0.90590812739E+01  0.24988026706E+02  0.27791592771E+02  0.00000000000E+00 0.  1.
</event>
<event>
 7    1  0.2459936E-009  0.4778727E+02  0.7816164E-02  0.1312668E+00
        -11   -1    0    0    0    0  0.00000000000E+00  0.00000000000E+00  0.45593999997E+02  0.45594000000E+02  0.51100000000E-03 0.  1.
         11   -1    0    0    0    0 -0.00000000000E+00 -0.00000000000E+00 -0.45593999997E+02  0.45594000000E+02  0.51100000000E-03 0. -1.
    9900012    2    1    2    0    0 -0.52525490008E+01 -0.57337217037E+01  0.42698463065E+02  0.47787267475E+02  0.19999983726E+02 0.  0.
         12    1    1    2    0    0  0.52525490008E+01  0.57337217037E+01 -0.42698463065E+02  0.43400732525E+02  0.00000000000E+00 0. -1.
         11    1    3    3    0    0 -0.52608184415E+01 -0.59703501431E+01  0.30690140753E+02  0.31704984327E+02  0.51100000000E-03 0.  1.
        -11    1    3    3    0    0 -0.24029632783E+01  0.17642455347E+01  0.12781881330E+02  0.13124910873E+02  0.51100000000E-03 0. -1.
        -12    1    3    3    0    0  0.24112327189E+01 -0.15276170953E+01 -0.77355901827E+00  0.29573722744E+01  0.00000000000E+00 0.  1.
</event>
<event>
 7    1  0.2459936E-009  0.4778727E+02  0.7816164E-02  0.1312668E+00
        -11   -1    0    0    0    0  0.00000000000E+00  0.00000000000E+00  0.45593999997E+02  0.45594000000E+02  0.51100000000E-03 0. -1.
         11   -1    0    0    0    0 -0.00000000000E+00 -0.00000000000E+00 -0.45593999997E+02  0.45594000000E+02  0.51100000000E-03 0.  1.
    9900012    2    1    2    0    0  0.32880855257E+02  0.11761312378E+02 -0.25770997941E+02  0.47787269060E+02  0.19999990951E+02 0.  0.
         12    1    1    2    0    0 -0.32880855257E+02 -0.11761312378E+02  0.25770997941E+02  0.43400730940E+02  0.00000000000E+00 0. -1.
         11    1    3    3    0    0  0.16432099800E+02  0.25349348741E+01 -0.75038648951E+01  0.18241375696E+02  0.51100000000E-03 0. -1.
        -11    1    3    3    0    0  0.17303730275E+02  0.38719230602E+01 -0.13000651283E+02  0.21986991692E+02  0.51100000000E-03 0.  1.
         12    1    3    3    0    0 -0.85497481833E+00  0.53544544437E+01 -0.52664817629E+01  0.75589016721E+01  0.00000000000E+00 0. -1.
</event>
<event>
 7    1  0.2459936E-009  0.4778727E+02  0.7816164E-02  0.1312668E+00
        -11   -1    0    0    0    0  0.00000000000E+00  0.00000000000E+00  0.45593999997E+02  0.45594000000E+02  0.51100000000E-03 0. -1.
         11   -1    0    0    0    0 -0.00000000000E+00 -0.00000000000E+00 -0.45593999997E+02  0.45594000000E+02  0.51100000000E-03 0.  1.
    9900012    2    1    2    0    0 -0.36679968529E+02  0.19819071187E+02 -0.12058513100E+02  0.47787269451E+02  0.19999992733E+02 0.  0.
         12    1    1    2    0    0  0.36679968529E+02 -0.19819071187E+02  0.12058513100E+02  0.43400730549E+02  0.00000000000E+00 0. -1.
         11    1    3    3    0    0 -0.42699844461E+01  0.58273431554E+01 -0.51576638130E+01  0.88764965887E+01  0.51100000000E-03 0. -1.
        -11    1    3    3    0    0 -0.15409750798E+02  0.11043130026E+02 -0.99166921294E+01  0.21395137847E+02  0.51100000000E-03 0.  1.
         12    1    3    3    0    0 -0.17000233285E+02  0.29485980060E+01  0.30158428420E+01  0.17515635015E+02  0.00000000000E+00 0. -1.
</event>
<event>
 7    1  0.2459936E-009  0.4778727E+02  0.7816164E-02  0.1312668E+00
        -11   -1    0    0    0    0  0.00000000000E+00  0.00000000000E+00  0.45593999997E+02  0.45594000000E+02  0.51100000000E-03 0.  1.
         11   -1    0    0    0    0 -0.00000000000E+00 -0.00000000000E+00 -0.45593999997E+02  0.45594000000E+02  0.51100000000E-03 0. -1.
    9900012    2    1    2    0    0 -0.27797151607E+02  0.32593647875E+02  0.69710991870E+01  0.47787265638E+02  0.19999975351E+02 0.  0.
         12    1    1    2    0    0  0.27797151607E+02 -0.32593647875E+02 -0.69710991870E+01  0.43400734362E+02  0.00000000000E+00 0. -1.
         11    1    3    3    0    0  0.40610674050E+00  0.78934385142E+00 -0.24182861342E+01  0.25760618177E+01  0.51100000000E-03 0. -1.
        -11    1    3    3    0    0 -0.28133318970E+00 -0.34786804753E+00  0.19270672730E+01  0.19783197613E+01  0.51100000000E-03 0.  1.
        -12    1    3    3    0    0 -0.27921925158E+02  0.32152172071E+02  0.74623180481E+01  0.43232884059E+02  0.00000000000E+00 0.  1.
</event>
<event>
 7    1  0.2459936E-009  0.4778728E+02  0.7816164E-02  0.1312668E+00
        -11   -1    0    0    0    0  0.00000000000E+00  0.00000000000E+00  0.45593999997E+02  0.45594000000E+02  0.51100000000E-03 0.  1.
         11   -1    0    0    0    0 -0.00000000000E+00 -0.00000000000E+00 -0.45593999997E+02  0.45594000000E+02  0.51100000000E-03 0. -1.
    9900012    2    1    2    0    0 -0.77610144415E+01 -0.30100868254E+02  0.30287409200E+02  0.47787276840E+02  0.20000026423E+02 0.  0.
         12    1    1    2    0    0  0.77610144415E+01  0.30100868254E+02 -0.30287409200E+02  0.43400723160E+02  0.00000000000E+00 0. -1.
         11    1    3    3    0    0  0.29100343500E+01 -0.96338334172E+00  0.23256801595E+01  0.38477520511E+01  0.51100000000E-03 0. -1.
        -11    1    3    3    0    0 -0.34024205349E+01 -0.97866016228E+00  0.77604089592E+01  0.85298410703E+01  0.51100000000E-03 0.  1.
         12    1    3    3    0    0 -0.72686282567E+01 -0.28158824750E+02  0.20201320081E+02  0.35409683718E+02  0.00000000000E+00 0. -1.
</event>
<event>
 7    1  0.2459936E-009  0.4778729E+02  0.7816164E-02  0.1312668E+00
        -11   -1    0    0    0    0  0.00000000000E+00  0.00000000000E+00  0.45593999997E+02  0.45594000000E+02  0.51100000000E-03 0.  1.
         11   -1    0    0    0    0 -0.00000000000E+00 -0.00000000000E+00 -0.45593999997E+02  0.45594000000E+02  0.51100000000E-03 0. -1.
    9900012    2    1    2    0    0  0.32281019469E+02 -0.21234024309E+01  0.28931799175E+02  0.47787285037E+02  0.20000063796E+02 0.  0.
         12    1    1    2    0    0 -0.32281019469E+02  0.21234024309E+01 -0.28931799175E+02  0.43400714963E+02  0.00000000000E+00 0. -1.
         11    1    3    3    0    0  0.18014344911E+02 -0.94632170387E+00  0.98618916060E+01  0.20558916646E+02  0.51100000000E-03 0. -1.
        -11    1    3    3    0    0  0.15299677054E+02 -0.17787938181E+01  0.10654939260E+02  0.18728906970E+02  0.51100000000E-03 0.  1.
         12    1    3    3    0    0 -0.10330024959E+01  0.60171309106E+00  0.84149683088E+01  0.84994614205E+01  0.00000000000E+00 0. -1.
</event>
<event>
 7    1  0.2459936E-009  0.4778727E+02  0.7816164E-02  0.1312668E+00
        -11   -1    0    0    0    0  0.00000000000E+00  0.00000000000E+00  0.45593999997E+02  0.45594000000E+02  0.51100000000E-03 0.  1.
         11   -1    0    0    0    0 -0.00000000000E+00 -0.00000000000E+00 -0.45593999997E+02  0.45594000000E+02  0.51100000000E-03 0. -1.
    9900012    2    1    2    0    0  0.10992696135E+02  0.33982303181E+02  0.24657402154E+02  0.47787265228E+02  0.19999973479E+02 0.  0.
         12    1    1    2    0    0 -0.10992696135E+02 -0.33982303181E+02 -0.24657402154E+02  0.43400734772E+02  0.00000000000E+00 0. -1.
         11    1    3    3    0    0  0.35310292403E+01  0.17146025358E+02  0.72374803683E+01  0.18942953187E+02  0.51100000000E-03 0. -1.
        -11    1    3    3    0    0 -0.34296361519E+01  0.31786160257E+01  0.82207026166E+00  0.47478209475E+01  0.51100000000E-03 0.  1.
         12    1    3    3    0    0  0.10891303047E+02  0.13657661797E+02  0.16597851524E+02  0.24096491094E+02  0.00000000000E+00 0. -1.
</event>
<event>
 7    1  0.2459936E-009  0.4778727E+02  0.7816164E-02  0.1312668E+00
        -11   -1    0    0    0    0  0.00000000000E+00  0.00000000000E+00  0.45593999997E+02  0.45594000000E+02  0.51100000000E-03 0.  1.
         11   -1    0    0    0    0 -0.00000000000E+00 -0.00000000000E+00 -0.45593999997E+02  0.45594000000E+02  0.51100000000E-03 0. -1.
    9900012    2    1    2    0    0 -0.14559880108E+02  0.72851792227E+01  0.40231324345E+02  0.47787269550E+02  0.19999993186E+02 0.  0.
         12    1    1    2    0    0  0.14559880108E+02 -0.72851792227E+01 -0.40231324345E+02  0.43400730450E+02  0.00000000000E+00 0. -1.
         11    1    3    3    0    0  0.11769313034E+01 -0.10506677749E+01 -0.84029307295E+00  0.17875018254E+01  0.51100000000E-03 0. -1.
        -11    1    3    3    0    0 -0.60179007558E+01 -0.21718748402E+01  0.13089864961E+02  0.14569719791E+02  0.51100000000E-03 0.  1.
         12    1    3    3    0    0 -0.97189106558E+01  0.10507721838E+02  0.27981752457E+02  0.31430047934E+02  0.00000000000E+00 0. -1.
</event>
<event>
 7    1  0.2459936E-009  0.4778728E+02  0.7816164E-02  0.1312668E+00
        -11   -1    0    0    0    0  0.00000000000E+00  0.00000000000E+00  0.45593999997E+02  0.45594000000E+02  0.51100000000E-03 0. -1.
         11   -1    0    0    0    0 -0.00000000000E+00 -0.00000000000E+00 -0.45593999997E+02  0.45594000000E+02  0.51100000000E-03 0.  1.
    9900012    2    1    2    0    0  0.25824970136E+02 -0.34646538867E+02  0.40386615452E+01  0.47787279672E+02  0.20000039334E+02 0.  0.
         12    1    1    2    0    0 -0.25824970136E+02  0.34646538867E+02 -0.40386615452E+01  0.43400720328E+02  0.00000000000E+00 0. -1.
         11    1    3    3    0    0  0.74966486624E+01 -0.11398209153E+02 -0.17593049053E+01  0.13755510426E+02  0.51100000000E-03 0. -1.
        -11    1    3    3    0    0 -0.23982060192E+01 -0.48048925821E+01 -0.10101259088E+01  0.54643150942E+01  0.51100000000E-03 0.  1.
         12    1    3    3    0    0  0.20726527492E+02 -0.18443437132E+02  0.68080923594E+01  0.28567454151E+02  0.00000000000E+00 0. -1.
</event>
<event>
 7    1  0.2459936E-009  0.4778727E+02  0.7816164E-02  0.1312668E+00
        -11   -1    0    0    0    0  0.00000000000E+00  0.00000000000E+00  0.45593999997E+02  0.45594000000E+02  0.51100000000E-03 0.  1.
         11   -1    0    0    0    0 -0.00000000000E+00 -0.00000000000E+00 -0.45593999997E+02  0.45594000000E+02  0.51100000000E-03 0. -1.
    9900012    2    1    2    0    0  0.19806535523E+02 -0.96072306972E+00  0.38605718047E+02  0.47787270695E+02  0.19999998409E+02 0.  0.
         12    1    1    2    0    0 -0.19806535523E+02  0.96072306972E+00 -0.38605718047E+02  0.43400729305E+02  0.00000000000E+00 0. -1.
         11    1    3    3    0    0  0.43064128097E+01 -0.16969339958E+01  0.32131002056E+01  0.56346064162E+01  0.51100000000E-03 0. -1.
        -11    1    3    3    0    0  0.16442003694E+02 -0.10376133780E+01  0.17081385927E+02  0.23731621783E+02  0.51100000000E-03 0.  1.
        -12    1    3    3    0    0 -0.94188098038E+00  0.17738243041E+01  0.18311231914E+02  0.18421042497E+02  0.00000000000E+00 0.  1.
</event>
<event>
 7    1  0.2459936E-009  0.4778727E+02  0.7816164E-02  0.1312668E+00
        -11   -1    0    0    0    0  0.00000000000E+00  0.00000000000E+00  0.45593999997E+02  0.45594000000E+02  0.51100000000E-03 0. -1.
         11   -1    0    0    0    0 -0.00000000000E+00 -0.00000000000E+00 -0.45593999997E+02  0.45594000000E+02  0.51100000000E-03 0.  1.
    9900012    2    1    2    0    0  0.26335149587E+02 -0.12887033051E+02 -0.32000112593E+02  0.47787274999E+02  0.20000018031E+02 0.  0.
         12    1    1    2    0    0 -0.26335149587E+02  0.12887033051E+02  0.32000112593E+02  0.43400725001E+02  0.00000000000E+00 0. -1.
         11    1    3    3    0    0 -0.11161582981E+01 -0.30499687610E+01 -0.18534542786E+01  0.37394400401E+01  0.51100000000E-03 0. -1.
        -11    1    3    3    0    0  0.58813706125E+01  0.78141477906E+00 -0.61146488521E+00  0.59644797682E+01  0.51100000000E-03 0.  1.
        -12    1    3    3    0    0  0.21569937273E+02 -0.10618479069E+02 -0.29535193429E+02  0.38083355191E+02  0.00000000000E+00 0.  1.
</event>
<event>
 7    1  0.2459936E-009  0.4778727E+02  0.7816164E-02  0.1312668E+00
        -11   -1    0    0    0    0  0.00000000000E+00  0.00000000000E+00  0.45593999997E+02  0.45594000000E+02  0.51100000000E-03 0.  1.
         11   -1    0    0    0    0 -0.00000000000E+00 -0.00000000000E+00 -0.45593999997E+02  0.45594000000E+02  0.51100000000E-03 0. -1.
    9900012    2    1    2    0    0  0.24486090054E+02 -0.35833186455E+02  0.19323933556E+00  0.47787271906E+02  0.20000003929E+02 0.  0.
         12    1    1    2    0    0 -0.24486090054E+02  0.35833186455E+02 -0.19323933556E+00  0.43400728094E+02  0.00000000000E+00 0. -1.
         11    1    3    3    0    0  0.16202248033E+02 -0.24647102576E+02  0.83318445856E+01  0.30649831014E+02  0.51100000000E-03 0. -1.
        -11    1    3    3    0    0  0.63458191906E+01 -0.71634867519E+01 -0.24000154226E+01  0.98663588995E+01  0.51100000000E-03 0.  1.
         12    1    3    3    0    0  0.19380228296E+01 -0.40225971273E+01 -0.57385898275E+01  0.72710819927E+01  0.00000000000E+00 0. -1.
</event>
<event>
 7    1  0.2459936E-009  0.4778727E+02  0.7816164E-02  0.1312668E+00
        -11   -1    0    0    0    0  0.00000000000E+00  0.00000000000E+00  0.45593999997E+02  0.45594000000E+02  0.51100000000E-03 0.  1.
         11   -1    0    0    0    0 -0.00000000000E+00 -0.00000000000E+00 -0.45593999997E+02  0.45594000000E+02  0.51100000000E-03 0. -1.
    9900012    2    1    2    0    0  0.76424514065E+01  0.22937269683E+02  0.36042999444E+02  0.47787271746E+02  0.20000003201E+02 0.  0.
         12    1    1    2    0    0 -0.76424514065E+01 -0.22937269683E+02 -0.36042999444E+02  0.43400728254E+02  0.00000000000E+00 0. -1.
         11    1    3    3    0    0 -0.28548739580E+00 -0.11673088003E+01  0.43617433542E+00  0.12784213705E+01  0.51100000000E-03 0. -1.
        -11    1    3    3    0    0 -0.70084885314E+00  0.27667930964E+01  0.16061741008E+02  0.16313364387E+02  0.51100000000E-03 0.  1.
         12    1    3    3    0    0  0.86287876554E+01  0.21337785387E+02  0.19545084101E+02  0.30195485989E+02  0.00000000000E+00 0. -1.
</event>
<event>
 7    1  0.2459936E-009  0.4778726E+02  0.7816164E-02  0.1312668E+00
        -11   -1    0    0    0    0  0.00000000000E+00  0.00000000000E+00  0.45593999997E+02  0.45594000000E+02  0.51100000000E-03 0.  1.
         11   -1    0    0    0    0 -0.00000000000E+00 -0.00000000000E+00 -0.45593999997E+02  0.45594000000E+02  0.51100000000E-03 0. -1.
    9900012    2    1    2    0    0 -0.12722071034E+02 -0.39083734996E+02  0.13936813658E+02  0.47787260288E+02  0.19999950956E+02 0.  0.
         12    1    1    2    0    0  0.12722071034E+02  0.39083734996E+02 -0.13936813658E+02  0.43400739712E+02  0.00000000000E+00 0. -1.
         11    1    3    3    0    0 -0.15173691000E+01 -0.27278715177E+01 -0.72162761787E+00  0.32038162686E+01  0.51100000000E-03 0. -1.
        -11    1    3    3    0    0 -0.61866494868E+01 -0.31278306858E+02  0.45484368178E+01  0.32207070490E+02  0.51100000000E-03 0.  1.
         12    1    3    3    0    0 -0.50180524473E+01 -0.50775566197E+01  0.10110004458E+02  0.12376373529E+02  0.00000000000E+00 0. -1.
</event>
<event>
 7    1  0.2459936E-009  0.4778727E+02  0.7816164E-02  0.1312668E+00
        -11   -1    0    0    0    0  0.00000000000E+00  0.00000000000E+00  0.45593999997E+02  0.45594000000E+02  0.51100000000E-03 0. -1.
         11   -1    0    0    0    0 -0.00000000000E+00 -0.00000000000E+00 -0.45593999997E+02  0.45594000000E+02  0.51100000000E-03 0.  1.
    9900012    2    1    2    0    0  0.65218239438E+01  0.42016093325E+02 -0.87027049041E+01  0.47787270070E+02  0.19999995557E+02 0.  0.
         12    1    1    2    0    0 -0.65218239438E+01 -0.42016093325E+02  0.87027049041E+01  0.43400729930E+02  0.00000000000E+00 0. -1.
         11    1    3    3    0    0  0.17965240743E+01  0.83981936024E+01 -0.65576216011E+01  0.10805533576E+02  0.51100000000E-03 0. -1.
        -11    1    3    3    0    0 -0.50573871064E+01  0.15089340898E+02 -0.19041320636E+01  0.16027822443E+02  0.51100000000E-03 0.  1.
         12    1    3    3    0    0  0.97826869759E+01  0.18528558824E+02 -0.24095123944E+00  0.20953914051E+02  0.00000000000E+00 0. -1.
</event>
<event>
 7    1  0.2459936E-009  0.4778728E+02  0.7816164E-02  0.1312668E+00
        -11   -1    0    0    0    0  0.00000000000E+00  0.00000000000E+00  0.45593999997E+02  0.45594000000E+02  0.51100000000E-03 0.  1.
         11   -1    0    0    0    0 -0.00000000000E+00 -0.00000000000E+00 -0.45593999997E+02  0.45594000000E+02  0.51100000000E-03 0. -1.
    9900012    2    1    2    0    0  0.22558527862E+02 -0.31670089391E+02  0.19280575384E+02  0.47787281936E+02  0.20000049658E+02 0.  0.
         12    1    1    2    0    0 -0.22558527862E+02  0.31670089391E+02 -0.19280575384E+02  0.43400718064E+02  0.00000000000E+00 0. -1.
         11    1    3    3    0    0 -0.15059117730E+01 -0.25897305445E+01 -0.87438403792E+00  0.31207406602E+01  0.51100000000E-03 0. -1.
        -11    1    3    3    0    0  0.15448291967E-01 -0.75825099256E+00 -0.14861490316E+01  0.16684790747E+01  0.51100000000E-03 0.  1.
        -12    1    3    3    0    0  0.24048991343E+02 -0.28322107854E+02  0.21641108454E+02  0.42998062201E+02  0.00000000000E+00 0.  1.
</event>
<event>
 7    1  0.2459936E-009  0.4778727E+02  0.7816164E-02  0.1312668E+00
        -11   -1    0    0    0    0  0.00000000000E+00  0.00000000000E+00  0.45593999997E+02  0.45594000000E+02  0.51100000000E-03 0. -1.
         11   -1    0    0    0    0 -0.00000000000E+00 -0.00000000000E+00 -0.45593999997E+02  0.45594000000E+02  0.51100000000E-03 0.  1.
    9900012    2    1    2    0    0 -0.30542386607E+01 -0.40639021551E+02 -0.14925310033E+02  0.47787270444E+02  0.19999997263E+02 0.  0.
         12    1    1    2    0    0  0.30542386607E+01  0.40639021551E+02  0.14925310033E+02  0.43400729556E+02  0.00000000000E+00 0. -1.
         11    1    3    3    0    0  0.66431908309E+01 -0.72445579779E+01 -0.39385499825E+01  0.10589040605E+02  0.51100000000E-03 0. -1.
        -11    1    3    3    0    0 -0.32961833721E+00 -0.65257319562E+01 -0.47222386239E+01  0.80618461716E+01  0.51100000000E-03 0.  1.
         12    1    3    3    0    0 -0.93678111544E+01 -0.26868731617E+02 -0.62645214265E+01  0.29136383667E+02  0.00000000000E+00 0. -1.
</event>
<event>
 7    1  0.2459936E-009  0.4778727E+02  0.7816164E-02  0.1312668E+00
        -11   -1    0    0    0    0  0.00000000000E+00  0.00000000000E+00  0.45593999997E+02  0.45594000000E+02  0.51100000000E-03 0.  1.
         11   -1    0    0    0    0 -0.00000000000E+00 -0.00000000000E+00 -0.45593999997E+02  0.45594000000E+02  0.51100000000E-03 0. -1.
    9900012    2    1    2    0    0  0.16020423537E+02 -0.45543116073E+01  0.40077773051E+02  0.47787267089E+02  0.19999981964E+02 0.  0.
         12    1    1    2    0    0 -0.16020423537E+02  0.45543116073E+01 -0.40077773051E+02  0.43400732911E+02  0.00000000000E+00 0. -1.
         11    1    3    3    0    0 -0.18457582400E+01 -0.85961729243E-02  0.68104620515E+01  0.70561527046E+01  0.51100000000E-03 0. -1.
        -11    1    3    3    0    0  0.36060226391E+01  0.57368116338E+00  0.20776469721E+02  0.21094885723E+02  0.51100000000E-03 0.  1.
         12    1    3    3    0    0  0.14260159138E+02 -0.51193965978E+01  0.12490841278E+02  0.19636228661E+02  0.00000000000E+00 0. -1.
</event>
<event>
 7    1  0.2459936E-009  0.4778727E+02  0.7816164E-02  0.1312668E+00
        -11   -1    0    0    0    0  0.00000000000E+00  0.00000000000E+00  0.45593999997E+02  0.45594000000E+02  0.51100000000E-03 0.  1.
         11   -1    0    0    0    0 -0.00000000000E+00 -0.00000000000E+00 -0.45593999997E+02  0.45594000000E+02  0.51100000000E-03 0. -1.
    9900012    2    1    2    0    0 -0.43103897011E+02 -0.48158651704E+01  0.15762610564E+01  0.47787273119E+02  0.20000009458E+02 0.  0.
         12    1    1    2    0    0  0.43103897011E+02  0.48158651704E+01 -0.15762610564E+01  0.43400726881E+02  0.00000000000E+00 0. -1.
         11    1    3    3    0    0 -0.12742558820E+02  0.35230281904E+01  0.26533915791E+01  0.13484250815E+02  0.51100000000E-03 0. -1.
        -11    1    3    3    0    0 -0.12207786667E+02  0.30364327763E+01 -0.25264912152E+01  0.12830944526E+02  0.51100000000E-03 0.  1.
        -12    1    3    3    0    0 -0.18153551524E+02 -0.11375326137E+02  0.14493606925E+01  0.21472077778E+02  0.00000000000E+00 0.  1.
</event>
<event>
 7    1  0.2459936E-009  0.4778728E+02  0.7816164E-02  0.1312668E+00
        -11   -1    0    0    0    0  0.00000000000E+00  0.00000000000E+00  0.45593999997E+02  0.45594000000E+02  0.51100000000E-03 0.  1.
         11   -1    0    0    0    0 -0.00000000000E+00 -0.00000000000E+00 -0.45593999997E+02  0.45594000000E+02  0.51100000000E-03 0. -1.
    9900012    2    1    2    0    0 -0.34869655621E+02 -0.25345818826E+02  0.50318303831E+01  0.47787277286E+02  0.20000028456E+02 0.  0.
         12    1    1    2    0    0  0.34869655621E+02  0.25345818826E+02 -0.50318303831E+01  0.43400722714E+02  0.00000000000E+00 0. -1.
         11    1    3    3    0    0 -0.23510884208E+01 -0.22401107152E+01 -0.39521655506E+01  0.51152053311E+01  0.51100000000E-03 0. -1.
        -11    1    3    3    0    0 -0.19451327652E+02 -0.12163134556E+02 -0.92002210628E+00  0.22959582544E+02  0.51100000000E-03 0.  1.
        -12    1    3    3    0    0 -0.13067239548E+02 -0.10942573555E+02  0.99040180400E+01  0.19712489411E+02  0.00000000000E+00 0.  1.
</event>
<event>
 7    1  0.2459936E-009  0.4778727E+02  0.7816164E-02  0.1312668E+00
        -11   -1    0    0    0    0  0.00000000000E+00  0.00000000000E+00  0.45593999997E+02  0.45594000000E+02  0.51100000000E-03 0.  1.
         11   -1    0    0    0    0 -0.00000000000E+00 -0.00000000000E+00 -0.45593999997E+02  0.45594000000E+02  0.51100000000E-03 0. -1.
    9900012    2    1    2    0    0 -0.11251383446E+02 -0.93289717774E+00  0.41906552892E+02  0.47787273026E+02  0.20000009035E+02 0.  0.
         12    1    1    2    0    0  0.11251383446E+02  0.93289717774E+00 -0.41906552892E+02  0.43400726974E+02  0.00000000000E+00 0. -1.
         11    1    3    3    0    0 -0.88227144059E+01 -0.26040929908E+01  0.73286067050E+01  0.11761380288E+02  0.51100000000E-03 0. -1.
        -11    1    3    3    0    0 -0.51691741484E+01  0.33067480177E+01  0.15285101864E+02  0.16470861638E+02  0.51100000000E-03 0.  1.
        -12    1    3    3    0    0  0.27405051084E+01 -0.16355522047E+01  0.19292844322E+02  0.19555031100E+02  0.00000000000E+00 0.  1.
</event>
<event>
 7    1  0.2459936E-009  0.4778727E+02  0.7816164E-02  0.1312668E+00
        -11   -1    0    0    0    0  0.00000000000E+00  0.00000000000E+00  0.45593999997E+02  0.45594000000E+02  0.51100000000E-03 0.  1.
         11   -1    0    0    0    0 -0.00000000000E+00 -0.00000000000E+00 -0.45593999997E+02  0.45594000000E+02  0.51100000000E-03 0. -1.
    9900012    2    1    2    0    0 -0.39574536673E+02 -0.30050383325E+01  0.17562718261E+02  0.47787270963E+02  0.19999999627E+02 0.  0.
         12    1    1    2    0    0  0.39574536673E+02  0.30050383325E+01 -0.17562718261E+02  0.43400729037E+02  0.00000000000E+00 0. -1.
         11    1    3    3    0    0  0.54884714889E+00 -0.21254168786E+00  0.16492000397E+01  0.17510762959E+01  0.51100000000E-03 0. -1.
        -11    1    3    3    0    0 -0.28050294544E+02  0.50356547376E+01  0.79323993174E+01  0.29582085826E+02  0.51100000000E-03 0.  1.
        -12    1    3    3    0    0 -0.12073089278E+02 -0.78281513823E+01  0.79811189037E+01  0.16454108841E+02  0.00000000000E+00 0.  1.
</event>
<event>
 7    1  0.2459936E-009  0.4778728E+02  0.7816164E-02  0.1312668E+00
        -11   -1    0    0    0    0  0.00000000000E+00  0.00000000000E+00  0.45593999997E+02  0.45594000000E+02  0.51100000000E-03 0.  1.
         11   -1    0    0    0    0 -0.00000000000E+00 -0.00000000000E+00 -0.45593999997E+02  0.45594000000E+02  0.51100000000E-03 0. -1.
    9900012    2    1    2    0    0  0.31116294356E+02  0.29556284651E+02  0.64672368405E+01  0.47787275476E+02  0.20000020207E+02 0.  0.
         12    1    1    2    0    0 -0.31116294356E+02 -0.29556284651E+02 -0.64672368405E+01  0.43400724524E+02  0.00000000000E+00 0. -1.
         11    1    3    3    0    0  0.74299678250E+00  0.23708341326E+00 -0.23958396229E+01  0.25195834028E+01  0.51100000000E-03 0. -1.
        -11    1    3    3    0    0  0.68731314584E+01  0.15512431984E+02  0.14903576392E+01  0.17032223820E+02  0.51100000000E-03 0.  1.
        -12    1    3    3    0    0  0.23500166115E+02  0.13806769255E+02  0.73727188242E+01  0.28235468254E+02  0.00000000000E+00 0.  1.
</event>
<event>
 7    1  0.2459936E-009  0.4778727E+02  0.7816164E-02  0.1312668E+00
        -11   -1    0    0    0    0  0.00000000000E+00  0.00000000000E+00  0.45593999997E+02  0.45594000000E+02  0.51100000000E-03 0.  1.
         11   -1    0    0    0    0 -0.00000000000E+00 -0.00000000000E+00 -0.45593999997E+02  0.45594000000E+02  0.51100000000E-03 0. -1.
    9900012    2    1    2    0    0 -0.34058292865E+02 -0.56256922939E+01  0.26306043116E+02  0.47787266930E+02  0.19999981239E+02 0.  0.
         12    1    1    2    0    0  0.34058292865E+02  0.56256922939E+01 -0.26306043116E+02  0.43400733070E+02  0.00000000000E+00 0. -1.
         11    1    3    3    0    0 -0.88815631308E+01 -0.54606668600E+01 -0.65818649136E-01  0.10426187153E+02  0.51100000000E-03 0. -1.
        -11    1    3    3    0    0 -0.96341731427E+01 -0.28819216328E+01  0.64456427839E+01  0.11944416085E+02  0.51100000000E-03 0.  1.
        -12    1    3    3    0    0 -0.15542556591E+02  0.27168961989E+01  0.19926218981E+02  0.25416663692E+02  0.00000000000E+00 0.  1.
</event>
<event>
 7    1  0.2459936E-009  0.4778726E+02  0.7816164E-02  0.1312668E+00
        -11   -1    0    0    0    0  0.00000000000E+00  0.00000000000E+00  0.45593999997E+02  0.45594000000E+02  0.51100000000E-03 0. -1.
         11   -1    0    0    0    0 -0.00000000000E+00 -0.00000000000E+00 -0.45593999997E+02  0.45594000000E+02  0.51100000000E-03 0.  1.
    9900012    2    1    2    0    0 -0.10708839557E+02  0.64639884385E+01 -0.41559133088E+02  0.47787263437E+02  0.19999965316E+02 0.  0.
         12    1    1    2    0    0  0.10708839557E+02 -0.64639884385E+01  0.41559133088E+02  0.43400736563E+02  0.00000000000E+00 0. -1.
         11    1    3    3    0    0 -0.73108998124E+01  0.32882640160E+00 -0.12719437711E+02  0.14674518010E+02  0.51100000000E-03 0. -1.
        -11    1    3    3    0    0 -0.76996805368E+01  0.29653303599E+01 -0.76224894241E+01  0.11233014279E+02  0.51100000000E-03 0.  1.
        -12    1    3    3    0    0  0.43017407920E+01  0.31698316770E+01 -0.21217205952E+02  0.21879731148E+02  0.00000000000E+00 0.  1.
</event>
<event>
 7    1  0.2460366E-009  0.4778723E+02  0.7816164E-02  0.1312668E+00
        -11   -1    0    0    0    0  0.00000000000E+00  0.00000000000E+00  0.45593999997E+02  0.45594000000E+02  0.51100000000E-03 0. -1.
         11   -1    0    0    0    0 -0.00000000000E+00 -0.00000000000E+00 -0.45593999997E+02  0.45594000000E+02  0.51100000000E-03 0.  1.
    9900012    2    1    2    0    0  0.42033426366E+02 -0.79379380043E+01  0.73353505725E+01  0.47787226276E+02  0.19999795881E+02 0.  0.
         12    1    1    2    0    0 -0.42033426366E+02  0.79379380043E+01 -0.73353505725E+01  0.43400773724E+02  0.00000000000E+00 0. -1.
         11    1    3    3    0    0  0.22517210237E+00  0.23057508468E+01 -0.12016136837E+01  0.26098017452E+01  0.51100000000E-03 0. -1.
        -11    1    3    3    0    0  0.18767568213E+02 -0.18908818102E+01 -0.97620152157E+00  0.18887827305E+02  0.51100000000E-03 0.  1.
        -12    1    3    3    0    0  0.23040686051E+02 -0.83528070410E+01  0.95131657778E+01  0.26289597225E+02  0.00000000000E+00 0.  1.
</event>
<event>
 7    1  0.2459936E-009  0.4778727E+02  0.7816164E-02  0.1312668E+00
        -11   -1    0    0    0    0  0.00000000000E+00  0.00000000000E+00  0.45593999997E+02  0.45594000000E+02  0.51100000000E-03 0.  1.
         11   -1    0    0    0    0 -0.00000000000E+00 -0.00000000000E+00 -0.45593999997E+02  0.45594000000E+02  0.51100000000E-03 0. -1.
    9900012    2    1    2    0    0  0.16618062943E+02  0.17475474871E+02  0.36084221000E+02  0.47787271399E+02  0.20000001615E+02 0.  0.
         12    1    1    2    0    0 -0.16618062943E+02 -0.17475474871E+02 -0.36084221000E+02  0.43400728601E+02  0.00000000000E+00 0. -1.
         11    1    3    3    0    0  0.18784564364E+01  0.14926296314E+01 -0.90326096480E+00  0.25636736203E+01  0.51100000000E-03 0. -1.
        -11    1    3    3    0    0 -0.22025736198E+01  0.37265016150E+01  0.28234286032E+01  0.51681615857E+01  0.51100000000E-03 0.  1.
         12    1    3    3    0    0  0.16942180127E+02  0.12256343625E+02  0.34164053361E+02  0.40055436193E+02  0.00000000000E+00 0. -1.
</event>
<event>
 7    1  0.2459936E-009  0.4778727E+02  0.7816164E-02  0.1312668E+00
        -11   -1    0    0    0    0  0.00000000000E+00  0.00000000000E+00  0.45593999997E+02  0.45594000000E+02  0.51100000000E-03 0. -1.
         11   -1    0    0    0    0 -0.00000000000E+00 -0.00000000000E+00 -0.45593999997E+02  0.45594000000E+02  0.51100000000E-03 0.  1.
    9900012    2    1    2    0    0 -0.33755384508E+02  0.27224551671E+02 -0.17381150812E+01  0.47787271423E+02  0.20000001727E+02 0.  0.
         12    1    1    2    0    0  0.33755384508E+02 -0.27224551671E+02  0.17381150812E+01  0.43400728577E+02  0.00000000000E+00 0. -1.
         11    1    3    3    0    0 -0.59548742820E+01  0.93675853042E+01  0.38085278378E+01  0.11735291505E+02  0.51100000000E-03 0. -1.
        -11    1    3    3    0    0  0.17076536205E+00  0.17600388993E+01 -0.32476638967E+01  0.36978667881E+01  0.51100000000E-03 0.  1.
        -12    1    3    3    0    0 -0.27971275588E+02  0.16096927468E+02 -0.22989790223E+01  0.32354113130E+02  0.00000000000E+00 0.  1.
</event>
<event>
 7    1  0.2459936E-009  0.4778726E+02  0.7816164E-02  0.1312668E+00
        -11   -1    0    0    0    0  0.00000000000E+00  0.00000000000E+00  0.45593999997E+02  0.45594000000E+02  0.51100000000E-03 0. -1.
         11   -1    0    0    0    0 -0.00000000000E+00 -0.00000000000E+00 -0.45593999997E+02  0.45594000000E+02  0.51100000000E-03 0.  1.
    9900012    2    1    2    0    0  0.18625655515E+02  0.35859515049E+02 -0.15836794543E+02  0.47787263551E+02  0.19999965835E+02 0.  0.
         12    1    1    2    0    0 -0.18625655515E+02 -0.35859515049E+02  0.15836794543E+02  0.43400736449E+02  0.00000000000E+00 0. -1.
         11    1    3    3    0    0  0.78008821705E+01  0.33586910679E+01 -0.14211427311E+00  0.84943960972E+01  0.51100000000E-03 0. -1.
        -11    1    3    3    0    0  0.87455398690E+01  0.12005932122E+02 -0.10047927167E+02  0.17932866874E+02  0.51100000000E-03 0.  1.
         12    1    3    3    0    0  0.20792334754E+01  0.20494891859E+02 -0.56467531029E+01  0.21360000580E+02  0.00000000000E+00 0. -1.
</event>
<event>
 7    1  0.2459936E-009  0.4778727E+02  0.7816164E-02  0.1312668E+00
        -11   -1    0    0    0    0  0.00000000000E+00  0.00000000000E+00  0.45593999997E+02  0.45594000000E+02  0.51100000000E-03 0. -1.
         11   -1    0    0    0    0 -0.00000000000E+00 -0.00000000000E+00 -0.45593999997E+02  0.45594000000E+02  0.51100000000E-03 0.  1.
    9900012    2    1    2    0    0 -0.34919465941E+02 -0.10826574938E+02  0.23388879058E+02  0.47787268554E+02  0.19999988646E+02 0.  0.
         12    1    1    2    0    0  0.34919465941E+02  0.10826574938E+02 -0.23388879058E+02  0.43400731446E+02  0.00000000000E+00 0. -1.
         11    1    3    3    0    0 -0.18858735295E+01  0.20969947576E+01  0.35402550687E+01  0.45262912186E+01  0.51100000000E-03 0. -1.
        -11    1    3    3    0    0 -0.18789578984E+01 -0.17624335916E+01  0.75142243095E+01  0.79435648284E+01  0.51100000000E-03 0.  1.
        -12    1    3    3    0    0 -0.31154634513E+02 -0.11161136104E+02  0.12334399680E+02  0.35317412507E+02  0.00000000000E+00 0.  1.
</event>
<event>
 7    1  0.2459936E-009  0.4778728E+02  0.7816164E-02  0.1312668E+00
        -11   -1    0    0    0    0  0.00000000000E+00  0.00000000000E+00  0.45593999997E+02  0.45594000000E+02  0.51100000000E-03 0.  1.
         11   -1    0    0    0    0 -0.00000000000E+00 -0.00000000000E+00 -0.45593999997E+02  0.45594000000E+02  0.51100000000E-03 0. -1.
    9900012    2    1    2    0    0  0.39670431297E+02  0.11836111863E+02  0.13030203661E+02  0.47787275689E+02  0.20000021175E+02 0.  0.
         12    1    1    2    0    0 -0.39670431297E+02 -0.11836111863E+02 -0.13030203661E+02  0.43400724311E+02  0.00000000000E+00 0. -1.
         11    1    3    3    0    0  0.14975696162E+01  0.41778222839E+01  0.27279109273E+00  0.44464962648E+01  0.51100000000E-03 0. -1.
        -11    1    3    3    0    0  0.13642305088E+02  0.96795175467E+01  0.38483781678E+01  0.17164368990E+02  0.51100000000E-03 0.  1.
        -12    1    3    3    0    0  0.24530556593E+02 -0.20212279673E+01  0.89090344005E+01  0.26176410434E+02  0.00000000000E+00 0.  1.
</event>
<event>
 7    1  0.2459936E-009  0.4778727E+02  0.7816164E-02  0.1312668E+00
        -11   -1    0    0    0    0  0.00000000000E+00  0.00000000000E+00  0.45593999997E+02  0.45594000000E+02  0.51100000000E-03 0.  1.
         11   -1    0    0    0    0 -0.00000000000E+00 -0.00000000000E+00 -0.45593999997E+02  0.45594000000E+02  0.51100000000E-03 0. -1.
    9900012    2    1    2    0    0 -0.18278221935E+02  0.43623587798E+01  0.39121600273E+02  0.47787272136E+02  0.20000004976E+02 0.  0.
         12    1    1    2    0    0  0.18278221935E+02 -0.43623587798E+01 -0.39121600273E+02  0.43400727864E+02  0.00000000000E+00 0. -1.
         11    1    3    3    0    0 -0.14488689379E+01  0.81740302133E+01  0.15165349010E+02  0.17288776764E+02  0.51100000000E-03 0. -1.
        -11    1    3    3    0    0  0.25809499060E+00 -0.14344112835E+01  0.31449520802E+01  0.34662476257E+01  0.51100000000E-03 0.  1.
        -12    1    3    3    0    0 -0.17087447987E+02 -0.23772601500E+01  0.20811299183E+02  0.27032247746E+02  0.00000000000E+00 0.  1.
</event>
<event>
 7    1  0.2459936E-009  0.4778727E+02  0.7816164E-02  0.1312668E+00
        -11   -1    0    0    0    0  0.00000000000E+00  0.00000000000E+00  0.45593999997E+02  0.45594000000E+02  0.51100000000E-03 0.  1.
         11   -1    0    0    0    0 -0.00000000000E+00 -0.00000000000E+00 -0.45593999997E+02  0.45594000000E+02  0.51100000000E-03 0. -1.
    9900012    2    1    2    0    0 -0.34091120124E+02  0.28377366898E+01  0.26708910113E+02  0.47787273045E+02  0.20000009120E+02 0.  0.
         12    1    1    2    0    0  0.34091120124E+02 -0.28377366898E+01 -0.26708910113E+02  0.43400726955E+02  0.00000000000E+00 0. -1.
         11    1    3    3    0    0 -0.81840405337E+01 -0.29734793837E+01  0.45866944837E+01  0.98416393782E+01  0.51100000000E-03 0. -1.
        -11    1    3    3    0    0 -0.17090740397E+02 -0.16765983059E+01  0.61836924910E+01  0.18252190068E+02  0.51100000000E-03 0.  1.
        -12    1    3    3    0    0 -0.88163391938E+01  0.74878143795E+01  0.15938523138E+02  0.19693443599E+02  0.00000000000E+00 0.  1.
</event>
<event>
 7    1  0.2459936E-009  0.4778727E+02  0.7816164E-02  0.1312668E+00
        -11   -1    0    0    0    0  0.00000000000E+00  0.00000000000E+00  0.45593999997E+02  0.45594000000E+02  0.51100000000E-03 0. -1.
         11   -1    0    0    0    0 -0.00000000000E+00 -0.00000000000E+00 -0.45593999997E+02  0.45594000000E+02  0.51100000000E-03 0.  1.
    9900012    2    1    2    0    0  0.29125471566E+02  0.68903708354E+01 -0.31430132377E+02  0.47787268146E+02  0.19999986786E+02 0.  0.
         12    1    1    2    0    0 -0.29125471566E+02 -0.68903708354E+01  0.31430132377E+02  0.43400731854E+02  0.00000000000E+00 0. -1.
         11    1    3    3    0    0  0.42517613829E+01 -0.52328390884E+01 -0.29534989395E+01  0.73609263023E+01  0.51100000000E-03 0. -1.
        -11    1    3    3    0    0  0.11650857498E+02  0.15473795983E+01 -0.11163628619E+02  0.16209980514E+02  0.51100000000E-03 0.  1.
         12    1    3    3    0    0  0.13222852685E+02  0.10575830326E+02 -0.17313004819E+02  0.24216361330E+02  0.00000000000E+00 0. -1.
</event>
<event>
 7    1  0.2459936E-009  0.4778728E+02  0.7816164E-02  0.1312668E+00
        -11   -1    0    0    0    0  0.00000000000E+00  0.00000000000E+00  0.45593999997E+02  0.45594000000E+02  0.51100000000E-03 0.  1.
         11   -1    0    0    0    0 -0.00000000000E+00 -0.00000000000E+00 -0.45593999997E+02  0.45594000000E+02  0.51100000000E-03 0. -1.
    9900012    2    1    2    0    0 -0.24537183124E+02  0.24864082073E+02  0.25755121806E+02  0.47787283045E+02  0.20000054714E+02 0.  0.
         12    1    1    2    0    0  0.24537183124E+02 -0.24864082073E+02 -0.25755121806E+02  0.43400716955E+02  0.00000000000E+00 0. -1.
         11    1    3    3    0    0 -0.57159477431E-01  0.50925883622E+01  0.28470804083E+01  0.58346885560E+01  0.51100000000E-03 0. -1.
        -11    1    3    3    0    0 -0.16419552537E+02  0.20062817563E+02  0.21676609179E+02  0.33793397874E+02  0.51100000000E-03 0.  1.
         12    1    3    3    0    0 -0.80604711093E+01 -0.29132385216E+00  0.12314322187E+01  0.81591966148E+01  0.00000000000E+00 0. -1.
</event>
<event>
 7    1  0.2459936E-009  0.4778729E+02  0.7816164E-02  0.1312668E+00
        -11   -1    0    0    0    0  0.00000000000E+00  0.00000000000E+00  0.45593999997E+02  0.45594000000E+02  0.51100000000E-03 0. -1.
         11   -1    0    0    0    0 -0.00000000000E+00 -0.00000000000E+00 -0.45593999997E+02  0.45594000000E+02  0.51100000000E-03 0.  1.
    9900012    2    1    2    0    0  0.42504680375E+02 -0.85943484038E+01  0.17638229493E+01  0.47787288604E+02  0.20000080060E+02 0.  0.
         12    1    1    2    0    0 -0.42504680375E+02  0.85943484038E+01 -0.17638229493E+01  0.43400711396E+02  0.00000000000E+00 0. -1.
         11    1    3    3    0    0  0.23658453756E+02 -0.19094191393E+01 -0.26674793443E+01  0.23884801902E+02  0.51100000000E-03 0. -1.
        -11    1    3    3    0    0  0.19990306453E+02 -0.66598747077E+01  0.19384074477E+01  0.21159482671E+02  0.51100000000E-03 0.  1.
         12    1    3    3    0    0 -0.11440798344E+01 -0.25054556779E-01  0.24928948458E+01  0.27430040304E+01  0.00000000000E+00 0. -1.
</event>
<event>
 7    1  0.2459936E-009  0.4778727E+02  0.7816164E-02  0.1312668E+00
        -11   -1    0    0    0    0  0.00000000000E+00  0.00000000000E+00  0.45593999997E+02  0.45594000000E+02  0.51100000000E-03 0.  1.
         11   -1    0    0    0    0 -0.00000000000E+00 -0.00000000000E+00 -0.45593999997E+02  0.45594000000E+02  0.51100000000E-03 0. -1.
    9900012    2    1    2    0    0  0.18369461344E+02 -0.88295397075E+01  0.38317428171E+02  0.47787272090E+02  0.20000004766E+02 0.  0.
         12    1    1    2    0    0 -0.18369461344E+02  0.88295397075E+01 -0.38317428171E+02  0.43400727910E+02  0.00000000000E+00 0. -1.
         11    1    3    3    0    0  0.23353703159E+00 -0.62133863730E+00  0.13793503830E+02  0.13809465935E+02  0.51100000000E-03 0. -1.
        -11    1    3    3    0    0  0.43580764805E+01 -0.85730682575E+01  0.11770536077E+02  0.15199863479E+02  0.51100000000E-03 0.  1.
         12    1    3    3    0    0  0.13777847832E+02  0.36486718731E+00  0.12753388264E+02  0.18777942676E+02  0.00000000000E+00 0. -1.
</event>
<event>
 7    1  0.2459936E-009  0.4778727E+02  0.7816164E-02  0.1312668E+00
        -11   -1    0    0    0    0  0.00000000000E+00  0.00000000000E+00  0.45593999997E+02  0.45594000000E+02  0.51100000000E-03 0.  1.
         11   -1    0    0    0    0 -0.00000000000E+00 -0.00000000000E+00 -0.45593999997E+02  0.45594000000E+02  0.51100000000E-03 0. -1.
    9900012    2    1    2    0    0 -0.15581896022E+02 -0.24609902136E+02  0.32174216340E+02  0.47787274616E+02  0.20000016282E+02 0.  0.
         12    1    1    2    0    0  0.15581896022E+02  0.24609902136E+02 -0.32174216340E+02  0.43400725384E+02  0.00000000000E+00 0. -1.
         11    1    3    3    0    0 -0.29446943001E+01 -0.10312491734E+02  0.65224828224E+01  0.12552350088E+02  0.51100000000E-03 0. -1.
        -11    1    3    3    0    0 -0.26627863242E+01 -0.12439585299E+02  0.84764598232E+01  0.15286729043E+02  0.51100000000E-03 0.  1.
         12    1    3    3    0    0 -0.99744153981E+01 -0.18578251025E+01  0.17175273694E+02  0.19948195485E+02  0.00000000000E+00 0. -1.
</event>
<event>
 7    1  0.2459936E-009  0.4778727E+02  0.7816164E-02  0.1312668E+00
        -11   -1    0    0    0    0  0.00000000000E+00  0.00000000000E+00  0.45593999997E+02  0.45594000000E+02  0.51100000000E-03 0.  1.
         11   -1    0    0    0    0 -0.00000000000E+00 -0.00000000000E+00 -0.45593999997E+02  0.45594000000E+02  0.51100000000E-03 0. -1.
    9900012    2    1    2    0    0  0.13230548003E+02  0.27661587827E+02  0.30715023124E+02  0.47787268588E+02  0.19999988798E+02 0.  0.
         12    1    1    2    0    0 -0.13230548003E+02 -0.27661587827E+02 -0.30715023124E+02  0.43400731412E+02  0.00000000000E+00 0. -1.
         11    1    3    3    0    0  0.38327004524E+01  0.83423428591E+01  0.42870257574E+01  0.10132268613E+02  0.51100000000E-03 0. -1.
        -11    1    3    3    0    0  0.68522724117E+01  0.84420637092E+01  0.23676714283E+01  0.11127800552E+02  0.51100000000E-03 0.  1.
         12    1    3    3    0    0  0.25455751391E+01  0.10877181259E+02  0.24060325939E+02  0.26527199423E+02  0.00000000000E+00 0. -1.
</event>
<event>
 7    1  0.2459936E-009  0.4778727E+02  0.7816164E-02  0.1312668E+00
        -11   -1    0    0    0    0  0.00000000000E+00  0.00000000000E+00  0.45593999997E+02  0.45594000000E+02  0.51100000000E-03 0.  1.
         11   -1    0    0    0    0 -0.00000000000E+00 -0.00000000000E+00 -0.45593999997E+02  0.45594000000E+02  0.51100000000E-03 0. -1.
    9900012    2    1    2    0    0  0.33450914850E+02  0.84963837523E+00  0.27639420717E+02  0.47787272273E+02  0.20000005601E+02 0.  0.
         12    1    1    2    0    0 -0.33450914850E+02 -0.84963837523E+00 -0.27639420717E+02  0.43400727727E+02  0.00000000000E+00 0. -1.
         11    1    3    3    0    0  0.89855243272E+00 -0.12900984033E+01 -0.23582320569E+01  0.28342563504E+01  0.51100000000E-03 0. -1.
        -11    1    3    3    0    0  0.27450915055E+01 -0.56509968612E+00  0.58858819652E+01  0.65190851964E+01  0.51100000000E-03 0.  1.
        -12    1    3    3    0    0  0.29807270912E+02  0.27048364646E+01  0.24111770809E+02  0.38433930726E+02  0.00000000000E+00 0.  1.
</event>
<event>
 7    1  0.2459936E-009  0.4778727E+02  0.7816164E-02  0.1312668E+00
        -11   -1    0    0    0    0  0.00000000000E+00  0.00000000000E+00  0.45593999997E+02  0.45594000000E+02  0.51100000000E-03 0.  1.
         11   -1    0    0    0    0 -0.00000000000E+00 -0.00000000000E+00 -0.45593999997E+02  0.45594000000E+02  0.51100000000E-03 0. -1.
    9900012    2    1    2    0    0  0.41415637736E+02 -0.12886957130E+02  0.15148054625E+01  0.47787270182E+02  0.19999996068E+02 0.  0.
         12    1    1    2    0    0 -0.41415637736E+02  0.12886957130E+02 -0.15148054625E+01  0.43400729818E+02  0.00000000000E+00 0. -1.
         11    1    3    3    0    0  0.25856662363E+02 -0.80321617693E+01 -0.50938459368E+01  0.27550496873E+02  0.51100000000E-03 0. -1.
        -11    1    3    3    0    0  0.49223265477E+01 -0.59700925731E+01  0.14235070235E+00  0.77389642690E+01  0.51100000000E-03 0.  1.
         12    1    3    3    0    0  0.10636648825E+02  0.11152972128E+01  0.64663006969E+01  0.12497809040E+02  0.00000000000E+00 0. -1.
</event>
<event>
 7    1  0.2459936E-009  0.4778728E+02  0.7816164E-02  0.1312668E+00
        -11   -1    0    0    0    0  0.00000000000E+00  0.00000000000E+00  0.45593999997E+02  0.45594000000E+02  0.51100000000E-03 0.  1.
         11   -1    0    0    0    0 -0.00000000000E+00 -0.00000000000E+00 -0.45593999997E+02  0.45594000000E+02  0.51100000000E-03 0. -1.
    9900012    2    1    2    0    0 -0.83375469548E+01 -0.20059037732E+02  0.37573161532E+02  0.47787283976E+02  0.20000058958E+02 0.  0.
         12    1    1    2    0    0  0.83375469548E+01  0.20059037732E+02 -0.37573161532E+02  0.43400716024E+02  0.00000000000E+00 0. -1.
         11    1    3    3    0    0  0.51285889721E+01 -0.38133343535E+01  0.39494442339E+01  0.75127926735E+01  0.51100000000E-03 0. -1.
        -11    1    3    3    0    0 -0.28895619338E+01 -0.13272015663E+01  0.20381755825E+01  0.37769289288E+01  0.51100000000E-03 0.  1.
        -12    1    3    3    0    0 -0.10576573993E+02 -0.14918501812E+02  0.31585541715E+02  0.36497562373E+02  0.00000000000E+00 0.  1.
</event>
<event>
 7    1  0.2459936E-009  0.4778728E+02  0.7816164E-02  0.1312668E+00
        -11   -1    0    0    0    0  0.00000000000E+00  0.00000000000E+00  0.45593999997E+02  0.45594000000E+02  0.51100000000E-03 0. -1.
         11   -1    0    0    0    0 -0.00000000000E+00 -0.00000000000E+00 -0.45593999997E+02  0.45594000000E+02  0.51100000000E-03 0.  1.
    9900012    2    1    2    0    0 -0.23571388925E+02  0.29224318893E+02 -0.21770424254E+02  0.47787279236E+02  0.20000037349E+02 0.  0.
         12    1    1    2    0    0  0.23571388925E+02 -0.29224318893E+02  0.21770424254E+02  0.43400720764E+02  0.00000000000E+00 0. -1.
         11    1    3    3    0    0 -0.41482683677E+01  0.30863598487E+00  0.12314250761E+01  0.43381787193E+01  0.51100000000E-03 0. -1.
        -11    1    3    3    0    0  0.10916814666E+01 -0.32333472636E+00 -0.59564541363E+00  0.12849542753E+01  0.51100000000E-03 0.  1.
        -12    1    3    3    0    0 -0.20514802024E+02  0.29239017635E+02 -0.22406203916E+02  0.42164146241E+02  0.00000000000E+00 0.  1.
</event>
<event>
 7    1  0.2459936E-009  0.4778728E+02  0.7816164E-02  0.1312668E+00
        -11   -1    0    0    0    0  0.00000000000E+00  0.00000000000E+00  0.45593999997E+02  0.45594000000E+02  0.51100000000E-03 0.  1.
         11   -1    0    0    0    0 -0.00000000000E+00 -0.00000000000E+00 -0.45593999997E+02  0.45594000000E+02  0.51100000000E-03 0. -1.
    9900012    2    1    2    0    0  0.32361706108E+02 -0.20453413501E+02 -0.20445066198E+02  0.47787275606E+02  0.20000020800E+02 0.  0.
         12    1    1    2    0    0 -0.32361706108E+02  0.20453413501E+02  0.20445066198E+02  0.43400724394E+02  0.00000000000E+00 0. -1.
         11    1    3    3    0    0  0.71162264271E+01 -0.21832756314E+01 -0.89638439249E+00  0.74973912987E+01  0.51100000000E-03 0. -1.
        -11    1    3    3    0    0  0.17720650574E+02 -0.50633394082E+01 -0.46535754144E+01  0.19008277858E+02  0.51100000000E-03 0.  1.
         12    1    3    3    0    0  0.75248291070E+01 -0.13206798461E+02 -0.14895106391E+02  0.21281606450E+02  0.00000000000E+00 0. -1.
</event>
<event>
 7    1  0.2459936E-009  0.4778727E+02  0.7816164E-02  0.1312668E+00
        -11   -1    0    0    0    0  0.00000000000E+00  0.00000000000E+00  0.45593999997E+02  0.45594000000E+02  0.51100000000E-03 0.  1.
         11   -1    0    0    0    0 -0.00000000000E+00 -0.00000000000E+00 -0.45593999997E+02  0.45594000000E+02  0.51100000000E-03 0. -1.
    9900012    2    1    2    0    0 -0.68460603949E+01 -0.96995781907E+01  0.41745333678E+02  0.47787271390E+02  0.20000001576E+02 0.  0.
         12    1    1    2    0    0  0.68460603949E+01  0.96995781907E+01 -0.41745333678E+02  0.43400728610E+02  0.00000000000E+00 0. -1.
         11    1    3    3    0    0 -0.85166094532E+01  0.33662902224E+01  0.19566463638E+02  0.21603496152E+02  0.51100000000E-03 0. -1.
        -11    1    3    3    0    0 -0.11428211699E+01 -0.77414757696E+01  0.11220454806E+02  0.13679732952E+02  0.51100000000E-03 0.  1.
        -12    1    3    3    0    0  0.28133702281E+01 -0.53243926435E+01  0.10958415234E+02  0.12504042286E+02  0.00000000000E+00 0.  1.
</event>
<event>
 7    1  0.2459936E-009  0.4778727E+02  0.7816164E-02  0.1312668E+00
        -11   -1    0    0    0    0  0.00000000000E+00  0.00000000000E+00  0.45593999997E+02  0.45594000000E+02  0.51100000000E-03 0.  1.
         11   -1    0    0    0    0 -0.00000000000E+00 -0.00000000000E+00 -0.45593999997E+02  0.45594000000E+02  0.51100000000E-03 0. -1.
    9900012    2    1    2    0    0 -0.48651068071E+01  0.23614174767E+02  0.36087732628E+02  0.47787274656E+02  0.20000016465E+02 0.  0.
         12    1    1    2    0    0  0.48651068071E+01 -0.23614174767E+02 -0.36087732628E+02  0.43400725344E+02  0.00000000000E+00 0. -1.
         11    1    3    3    0    0 -0.46924328180E+01  0.18359375345E+02  0.12397263050E+02  0.22644595827E+02  0.51100000000E-03 0. -1.
        -11    1    3    3    0    0  0.32573254863E-01  0.59387707393E+01  0.11606914155E+02  0.13038041086E+02  0.51100000000E-03 0.  1.
         12    1    3    3    0    0 -0.20524724400E+00 -0.68397131659E+00  0.12083555424E+02  0.12104637742E+02  0.00000000000E+00 0. -1.
</event>
<event>
 7    1  0.2459936E-009  0.4778727E+02  0.7816164E-02  0.1312668E+00
        -11   -1    0    0    0    0  0.00000000000E+00  0.00000000000E+00  0.45593999997E+02  0.45594000000E+02  0.51100000000E-03 0. -1.
         11   -1    0    0    0    0 -0.00000000000E+00 -0.00000000000E+00 -0.45593999997E+02  0.45594000000E+02  0.51100000000E-03 0.  1.
    9900012    2    1    2    0    0  0.26230399549E+02 -0.21989415427E+02 -0.26684360862E+02  0.47787269984E+02  0.19999995163E+02 0.  0.
         12    1    1    2    0    0 -0.26230399549E+02  0.21989415427E+02  0.26684360862E+02  0.43400730016E+02  0.00000000000E+00 0. -1.
         11    1    3    3    0    0  0.43125635910E+01 -0.19268249913E+01  0.16531518821E+01  0.50043751538E+01  0.51100000000E-03 0. -1.
        -11    1    3    3    0    0  0.40562749191E+01 -0.29545996208E+01  0.19596530220E+00  0.50220939656E+01  0.51100000000E-03 0.  1.
        -12    1    3    3    0    0  0.17861561039E+02 -0.17107990815E+02 -0.28533478046E+02  0.37760800864E+02  0.00000000000E+00 0.  1.
</event>
<event>
 7    1  0.2459936E-009  0.4778727E+02  0.7816164E-02  0.1312668E+00
        -11   -1    0    0    0    0  0.00000000000E+00  0.00000000000E+00  0.45593999997E+02  0.45594000000E+02  0.51100000000E-03 0.  1.
         11   -1    0    0    0    0 -0.00000000000E+00 -0.00000000000E+00 -0.45593999997E+02  0.45594000000E+02  0.51100000000E-03 0. -1.
    9900012    2    1    2    0    0 -0.27086573186E+02 -0.33507304365E+02  0.52155268489E+01  0.47787267136E+02  0.19999982182E+02 0.  0.
         12    1    1    2    0    0  0.27086573186E+02  0.33507304365E+02 -0.52155268489E+01  0.43400732864E+02  0.00000000000E+00 0. -1.
         11    1    3    3    0    0 -0.36999621700E+01 -0.22538914293E+00 -0.15561425043E+01  0.40202114471E+01  0.51100000000E-03 0. -1.
        -11    1    3    3    0    0 -0.14770517554E+02 -0.18612768782E+02 -0.33115030158E+01  0.23991027553E+02  0.51100000000E-03 0.  1.
        -12    1    3    3    0    0 -0.86160934618E+01 -0.14669146440E+02  0.10083172369E+02  0.19776028136E+02  0.00000000000E+00 0.  1.
</event>
<event>
 7    1  0.2459936E-009  0.4778727E+02  0.7816164E-02  0.1312668E+00
        -11   -1    0    0    0    0  0.00000000000E+00  0.00000000000E+00  0.45593999997E+02  0.45594000000E+02  0.51100000000E-03 0. -1.
         11   -1    0    0    0    0 -0.00000000000E+00 -0.00000000000E+00 -0.45593999997E+02  0.45594000000E+02  0.51100000000E-03 0.  1.
    9900012    2    1    2    0    0  0.23777903465E+02  0.20456353614E+02 -0.29996201084E+02  0.47787272174E+02  0.20000005149E+02 0.  0.
         12    1    1    2    0    0 -0.23777903465E+02 -0.20456353614E+02  0.29996201084E+02  0.43400727826E+02  0.00000000000E+00 0. -1.
         11    1    3    3    0    0  0.60549496862E+01  0.72481299045E+01 -0.43891098899E+01  0.10414513368E+02  0.51100000000E-03 0. -1.
        -11    1    3    3    0    0  0.72778243158E+01  0.58259581408E+01 -0.66971580569E+00  0.93464985182E+01  0.51100000000E-03 0.  1.
         12    1    3    3    0    0  0.10445129463E+02  0.73822655688E+01 -0.24937375388E+02  0.28026260287E+02  0.00000000000E+00 0. -1.
</event>
<event>
 7    1  0.2459936E-009  0.4778727E+02  0.7816164E-02  0.1312668E+00
        -11   -1    0    0    0    0  0.00000000000E+00  0.00000000000E+00  0.45593999997E+02  0.45594000000E+02  0.51100000000E-03 0.  1.
         11   -1    0    0    0    0 -0.00000000000E+00 -0.00000000000E+00 -0.45593999997E+02  0.45594000000E+02  0.51100000000E-03 0. -1.
    9900012    2    1    2    0    0 -0.10440037603E+02  0.40087298362E+02  0.12947489828E+02  0.47787269961E+02  0.19999995059E+02 0.  0.
         12    1    1    2    0    0  0.10440037603E+02 -0.40087298362E+02 -0.12947489828E+02  0.43400730039E+02  0.00000000000E+00 0. -1.
         11    1    3    3    0    0 -0.11210295031E+00 -0.10992957525E+01  0.15191741979E+01  0.18785389875E+01  0.51100000000E-03 0. -1.
        -11    1    3    3    0    0 -0.88024057600E+01  0.16830839671E+02  0.99955177526E+01  0.21463221720E+02  0.51100000000E-03 0.  1.
         12    1    3    3    0    0 -0.15255288924E+01  0.24355754443E+02  0.14327978776E+01  0.24445509253E+02  0.00000000000E+00 0. -1.
</event>
<event>
 7    1  0.2459936E-009  0.4778727E+02  0.7816164E-02  0.1312668E+00
        -11   -1    0    0    0    0  0.00000000000E+00  0.00000000000E+00  0.45593999997E+02  0.45594000000E+02  0.51100000000E-03 0.  1.
         11   -1    0    0    0    0 -0.00000000000E+00 -0.00000000000E+00 -0.45593999997E+02  0.45594000000E+02  0.51100000000E-03 0. -1.
    9900012    2    1    2    0    0  0.23679418300E+02 -0.24027899924E+01  0.36292357790E+02  0.47787268616E+02  0.19999988927E+02 0.  0.
         12    1    1    2    0    0 -0.23679418300E+02  0.24027899924E+01 -0.36292357790E+02  0.43400731384E+02  0.00000000000E+00 0. -1.
         11    1    3    3    0    0  0.45035310339E+01 -0.60807051149E+01  0.80209650103E+01  0.11026905569E+02  0.51100000000E-03 0. -1.
        -11    1    3    3    0    0  0.91923270155E+01  0.26843971912E+00  0.23396205944E+02  0.25138683113E+02  0.51100000000E-03 0.  1.
        -12    1    3    3    0    0  0.99835602504E+01  0.34094754034E+01  0.48751868355E+01  0.11621679934E+02  0.00000000000E+00 0.  1.
</event>
<event>
 7    1  0.2459936E-009  0.4778727E+02  0.7816164E-02  0.1312668E+00
        -11   -1    0    0    0    0  0.00000000000E+00  0.00000000000E+00  0.45593999997E+02  0.45594000000E+02  0.51100000000E-03 0.  1.
         11   -1    0    0    0    0 -0.00000000000E+00 -0.00000000000E+00 -0.45593999997E+02  0.45594000000E+02  0.51100000000E-03 0. -1.
    9900012    2    1    2    0    0 -0.18819173549E+02 -0.15684125590E+02  0.35825551827E+02  0.47787271293E+02  0.20000001133E+02 0.  0.
         12    1    1    2    0    0  0.18819173549E+02  0.15684125590E+02 -0.35825551827E+02  0.43400728707E+02  0.00000000000E+00 0. -1.
         11    1    3    3    0    0 -0.68539855503E+01 -0.57364652545E+01  0.31448265521E+01  0.94749187777E+01  0.51100000000E-03 0. -1.
        -11    1    3    3    0    0 -0.26652145490E+01 -0.38655012664E+01  0.23304841391E+02  0.23773117195E+02  0.51100000000E-03 0.  1.
        -12    1    3    3    0    0 -0.92999734492E+01 -0.60821590687E+01  0.93758838841E+01  0.14539235320E+02  0.00000000000E+00 0.  1.
</event>
<event>
 7    1  0.2459936E-009  0.4778727E+02  0.7816164E-02  0.1312668E+00
        -11   -1    0    0    0    0  0.00000000000E+00  0.00000000000E+00  0.45593999997E+02  0.45594000000E+02  0.51100000000E-03 0.  1.
         11   -1    0    0    0    0 -0.00000000000E+00 -0.00000000000E+00 -0.45593999997E+02  0.45594000000E+02  0.51100000000E-03 0. -1.
    9900012    2    1    2    0    0  0.19120408600E+02  0.38419002591E+02  0.64817773442E+01  0.47787271635E+02  0.20000002691E+02 0.  0.
         12    1    1    2    0    0 -0.19120408600E+02 -0.38419002591E+02 -0.64817773442E+01  0.43400728365E+02  0.00000000000E+00 0. -1.
         11    1    3    3    0    0  0.14893825965E+01 -0.15233149725E+01 -0.88142253175E-01  0.21322566314E+01  0.51100000000E-03 0. -1.
        -11    1    3    3    0    0  0.62069993276E+01  0.52053545633E+01  0.38992090824E+01  0.89903497436E+01  0.51100000000E-03 0.  1.
        -12    1    3    3    0    0  0.11424026676E+02  0.34736963000E+02  0.26707105150E+01  0.36664665260E+02  0.00000000000E+00 0.  1.
</event>
<event>
 7    1  0.2459936E-009  0.4778727E+02  0.7816164E-02  0.1312668E+00
        -11   -1    0    0    0    0  0.00000000000E+00  0.00000000000E+00  0.45593999997E+02  0.45594000000E+02  0.51100000000E-03 0.  1.
         11   -1    0    0    0    0 -0.00000000000E+00 -0.00000000000E+00 -0.45593999997E+02  0.45594000000E+02  0.51100000000E-03 0. -1.
    9900012    2    1    2    0    0  0.42680673238E+02  0.30771890517E+01 -0.72467062518E+01  0.47787265997E+02  0.19999976988E+02 0.  0.
         12    1    1    2    0    0 -0.42680673238E+02 -0.30771890517E+01  0.72467062518E+01  0.43400734003E+02  0.00000000000E+00 0. -1.
         11    1    3    3    0    0  0.19316367667E+02  0.38256646241E+01 -0.71604722926E+01  0.20953045921E+02  0.51100000000E-03 0. -1.
        -11    1    3    3    0    0  0.11555535225E+02  0.46496009710E+01 -0.43098786895E+01  0.13180449086E+02  0.51100000000E-03 0.  1.
        -12    1    3    3    0    0  0.11808770346E+02 -0.53980765434E+01  0.42236447304E+01  0.13653770990E+02  0.00000000000E+00 0.  1.
</event>
<event>
 7    1  0.2459936E-009  0.4778727E+02  0.7816164E-02  0.1312668E+00
        -11   -1    0    0    0    0  0.00000000000E+00  0.00000000000E+00  0.45593999997E+02  0.45594000000E+02  0.51100000000E-03 0.  1.
         11   -1    0    0    0    0 -0.00000000000E+00 -0.00000000000E+00 -0.45593999997E+02  0.45594000000E+02  0.51100000000E-03 0. -1.
    9900012    2    1    2    0    0  0.38032440169E+02 -0.10982999753E+02  0.17791303109E+02  0.47787271260E+02  0.20000000985E+02 0.  0.
         12    1    1    2    0    0 -0.38032440169E+02  0.10982999753E+02 -0.17791303109E+02  0.43400728740E+02  0.00000000000E+00 0. -1.
         11    1    3    3    0    0  0.24217957037E+02 -0.37992637162E+01  0.27536013065E+01  0.24668323175E+02  0.51100000000E-03 0. -1.
        -11    1    3    3    0    0 -0.39503667639E+00 -0.19504747519E+01  0.34487514505E+00  0.20197388099E+01  0.51100000000E-03 0.  1.
        -12    1    3    3    0    0  0.14209519808E+02 -0.52332612851E+01  0.14692826658E+02  0.21099209276E+02  0.00000000000E+00 0.  1.
</event>
<event>
 7    1  0.2459936E-009  0.4778728E+02  0.7816164E-02  0.1312668E+00
        -11   -1    0    0    0    0  0.00000000000E+00  0.00000000000E+00  0.45593999997E+02  0.45594000000E+02  0.51100000000E-03 0. -1.
         11   -1    0    0    0    0 -0.00000000000E+00 -0.00000000000E+00 -0.45593999997E+02  0.45594000000E+02  0.51100000000E-03 0.  1.
    9900012    2    1    2    0    0  0.33587667832E+02 -0.17340542285E+02 -0.21325971608E+02  0.47787275327E+02  0.20000019525E+02 0.  0.
         12    1    1    2    0    0 -0.33587667832E+02  0.17340542285E+02  0.21325971608E+02  0.43400724673E+02  0.00000000000E+00 0. -1.
         11    1    3    3    0    0  0.23118303835E+01 -0.19467400739E+01 -0.70110674604E+01  0.76347510655E+01  0.51100000000E-03 0. -1.
        -11    1    3    3    0    0  0.15874300328E+02 -0.23467697299E+01 -0.11567387762E+02  0.19781435715E+02  0.51100000000E-03 0.  1.
         12    1    3    3    0    0  0.15401537121E+02 -0.13047032481E+02 -0.27475163854E+01  0.20371088546E+02  0.00000000000E+00 0. -1.
</event>
<event>
 7    1  0.2459936E-009  0.4778727E+02  0.7816164E-02  0.1312668E+00
        -11   -1    0    0    0    0  0.00000000000E+00  0.00000000000E+00  0.45593999997E+02  0.45594000000E+02  0.51100000000E-03 0.  1.
         11   -1    0    0    0    0 -0.00000000000E+00 -0.00000000000E+00 -0.45593999997E+02  0.45594000000E+02  0.51100000000E-03 0. -1.
    9900012    2    1    2    0    0  0.57271434306E+01  0.17642159489E+02  0.39237449504E+02  0.47787269512E+02  0.19999993015E+02 0.  0.
         12    1    1    2    0    0 -0.57271434306E+01 -0.17642159489E+02 -0.39237449504E+02  0.43400730488E+02  0.00000000000E+00 0. -1.
         11    1    3    3    0    0  0.25810379276E+00  0.16523078003E+01  0.15774031413E+00  0.16797681097E+01  0.51100000000E-03 0. -1.
        -11    1    3    3    0    0 -0.13120982664E+01  0.56168734464E+01  0.30485269031E+02  0.31026158275E+02  0.51100000000E-03 0.  1.
        -12    1    3    3    0    0  0.67811379042E+01  0.10372978242E+02  0.85944401589E+01  0.15081343128E+02  0.00000000000E+00 0.  1.
</event>
<event>
 7    1  0.2459936E-009  0.4778728E+02  0.7816164E-02  0.1312668E+00
        -11   -1    0    0    0    0  0.00000000000E+00  0.00000000000E+00  0.45593999997E+02  0.45594000000E+02  0.51100000000E-03 0. -1.
         11   -1    0    0    0    0 -0.00000000000E+00 -0.00000000000E+00 -0.45593999997E+02  0.45594000000E+02  0.51100000000E-03 0.  1.
    9900012    2    1    2    0    0 -0.65825385106E+01 -0.42828226391E+02 -0.24567623935E+01  0.47787280300E+02  0.20000042199E+02 0.  0.
         12    1    1    2    0    0  0.65825385106E+01  0.42828226391E+02  0.24567623935E+01  0.43400719700E+02  0.00000000000E+00 0. -1.
         11    1    3    3    0    0 -0.12508876359E+02 -0.26528895795E+02 -0.48852728208E+01  0.29734158651E+02  0.51100000000E-03 0. -1.
        -11    1    3    3    0    0  0.77731642763E+00 -0.68623152876E+00  0.11721526370E+01  0.15649525888E+01  0.51100000000E-03 0.  1.
         12    1    3    3    0    0  0.51490214207E+01 -0.15613099067E+02  0.12563577903E+01  0.16488169060E+02  0.00000000000E+00 0. -1.
</event>
<event>
 7    1  0.2459936E-009  0.4778728E+02  0.7816164E-02  0.1312668E+00
        -11   -1    0    0    0    0  0.00000000000E+00  0.00000000000E+00  0.45593999997E+02  0.45594000000E+02  0.51100000000E-03 0.  1.
         11   -1    0    0    0    0 -0.00000000000E+00 -0.00000000000E+00 -0.45593999997E+02  0.45594000000E+02  0.51100000000E-03 0. -1.
    9900012    2    1    2    0    0  0.27231404254E+02 -0.31652345377E+02 -0.11840704955E+02  0.47787278354E+02  0.20000033327E+02 0.  0.
         12    1    1    2    0    0 -0.27231404254E+02  0.31652345377E+02  0.11840704955E+02  0.43400721646E+02  0.00000000000E+00 0. -1.
         11    1    3    3    0    0  0.15730977308E+02 -0.17540786936E+02  0.26980525079E+01  0.23715445199E+02  0.51100000000E-03 0. -1.
        -11    1    3    3    0    0  0.76581071193E+01 -0.48236119838E+01 -0.57724274068E+01  0.10734745253E+02  0.51100000000E-03 0.  1.
         12    1    3    3    0    0  0.38423198275E+01 -0.92879464576E+01 -0.87663300559E+01  0.13337087902E+02  0.00000000000E+00 0. -1.
</event>
<event>
 7    1  0.2459936E-009  0.4778725E+02  0.7816164E-02  0.1312668E+00
        -11   -1    0    0    0    0  0.00000000000E+00  0.00000000000E+00  0.45593999997E+02  0.45594000000E+02  0.51100000000E-03 0.  1.
         11   -1    0    0    0    0 -0.00000000000E+00 -0.00000000000E+00 -0.45593999997E+02  0.45594000000E+02  0.51100000000E-03 0. -1.
    9900012    2    1    2    0    0  0.67724607838E+01  0.20919018593E+02  0.37418620550E+02  0.47787254294E+02  0.19999923630E+02 0.  0.
         12    1    1    2    0    0 -0.67724607838E+01 -0.20919018593E+02 -0.37418620550E+02  0.43400745706E+02  0.00000000000E+00 0. -1.
         11    1    3    3    0    0 -0.30672454791E+01  0.16921223598E+01  0.38188945693E+01  0.51822030935E+01  0.51100000000E-03 0.  1.
        -11    1    3    3    0    0  0.54032949921E+01  0.12475317013E+02  0.31423495381E+02  0.34238358512E+02  0.51100000000E-03 0. -1.
         12    1    3    3    0    0  0.44364112708E+01  0.67515792205E+01  0.21762305992E+01  0.83666926892E+01  0.00000000000E+00 0. -1.
</event>
<event>
 7    1  0.2459936E-009  0.4778727E+02  0.7816164E-02  0.1312668E+00
        -11   -1    0    0    0    0  0.00000000000E+00  0.00000000000E+00  0.45593999997E+02  0.45594000000E+02  0.51100000000E-03 0.  1.
         11   -1    0    0    0    0 -0.00000000000E+00 -0.00000000000E+00 -0.45593999997E+02  0.45594000000E+02  0.51100000000E-03 0. -1.
    9900012    2    1    2    0    0  0.14468104542E+02 -0.32796493950E+02  0.24468086250E+02  0.47787270638E+02  0.19999998145E+02 0.  0.
         12    1    1    2    0    0 -0.14468104542E+02  0.32796493950E+02 -0.24468086250E+02  0.43400729362E+02  0.00000000000E+00 0. -1.
         11    1    3    3    0    0  0.60441983310E+01 -0.77249790437E+01  0.21389695264E+01  0.10039064976E+02  0.51100000000E-03 0. -1.
        -11    1    3    3    0    0  0.78965028424E+01 -0.24617580330E+02  0.14019743923E+02  0.29409747336E+02  0.51100000000E-03 0.  1.
         12    1    3    3    0    0  0.52740336878E+00 -0.45393457617E+00  0.83093728008E+01  0.83384583261E+01  0.00000000000E+00 0. -1.
</event>
<event>
 7    1  0.2459936E-009  0.4778727E+02  0.7816164E-02  0.1312668E+00
        -11   -1    0    0    0    0  0.00000000000E+00  0.00000000000E+00  0.45593999997E+02  0.45594000000E+02  0.51100000000E-03 0. -1.
         11   -1    0    0    0    0 -0.00000000000E+00 -0.00000000000E+00 -0.45593999997E+02  0.45594000000E+02  0.51100000000E-03 0.  1.
    9900012    2    1    2    0    0  0.63311563348E+01 -0.33707193021E+02 -0.26596339195E+02  0.47787266591E+02  0.19999979694E+02 0.  0.
         12    1    1    2    0    0 -0.63311563348E+01  0.33707193021E+02  0.26596339195E+02  0.43400733409E+02  0.00000000000E+00 0. -1.
         11    1    3    3    0    0  0.68295750888E+01 -0.13605162927E+02 -0.10476797356E+02  0.18479903605E+02  0.51100000000E-03 0. -1.
        -11    1    3    3    0    0  0.43190356821E+01 -0.18827668713E+02 -0.11322648814E+02  0.22390568434E+02  0.51100000000E-03 0.  1.
        -12    1    3    3    0    0 -0.48174544361E+01 -0.12743613817E+01 -0.47968930250E+01  0.69167945516E+01  0.00000000000E+00 0.  1.
</event>
<event>
 7    1  0.2459936E-009  0.4778726E+02  0.7816164E-02  0.1312668E+00
        -11   -1    0    0    0    0  0.00000000000E+00  0.00000000000E+00  0.45593999997E+02  0.45594000000E+02  0.51100000000E-03 0.  1.
         11   -1    0    0    0    0 -0.00000000000E+00 -0.00000000000E+00 -0.45593999997E+02  0.45594000000E+02  0.51100000000E-03 0. -1.
    9900012    2    1    2    0    0  0.13808073272E+02 -0.94985486245E+01  0.40034217357E+02  0.47787264144E+02  0.19999968540E+02 0.  0.
         12    1    1    2    0    0 -0.13808073272E+02  0.94985486245E+01 -0.40034217357E+02  0.43400735856E+02  0.00000000000E+00 0. -1.
         11    1    3    3    0    0  0.16166996463E+02 -0.60097429140E+01  0.26646277823E+02  0.31741343806E+02  0.51100000000E-03 0.  1.
        -11    1    3    3    0    0  0.19310561380E+00  0.10615517457E+01  0.94449139888E+01  0.95063443239E+01  0.51100000000E-03 0. -1.
        -12    1    3    3    0    0 -0.25520288051E+01 -0.45503574563E+01  0.39430255446E+01  0.65395760144E+01  0.00000000000E+00 0.  1.
</event>
<event>
 7    1  0.2459936E-009  0.4778728E+02  0.7816164E-02  0.1312668E+00
        -11   -1    0    0    0    0  0.00000000000E+00  0.00000000000E+00  0.45593999997E+02  0.45594000000E+02  0.51100000000E-03 0. -1.
         11   -1    0    0    0    0 -0.00000000000E+00 -0.00000000000E+00 -0.45593999997E+02  0.45594000000E+02  0.51100000000E-03 0.  1.
    9900012    2    1    2    0    0  0.36679793539E+02 -0.18074020113E+02 -0.14544597567E+02  0.47787276786E+02  0.20000026176E+02 0.  0.
         12    1    1    2    0    0 -0.36679793539E+02  0.18074020113E+02  0.14544597567E+02  0.43400723214E+02  0.00000000000E+00 0. -1.
         11    1    3    3    0    0 -0.56265723412E+00  0.15467226438E+01 -0.15080924001E+01  0.22323254799E+01  0.51100000000E-03 0. -1.
        -11    1    3    3    0    0  0.13918772720E+02 -0.17751764513E+01 -0.65231910550E+01  0.15473703734E+02  0.51100000000E-03 0.  1.
        -12    1    3    3    0    0  0.23323678054E+02 -0.17845566306E+02 -0.65133141124E+01  0.30081247571E+02  0.00000000000E+00 0.  1.
</event>
<event>
 7    1  0.2459936E-009  0.4778727E+02  0.7816164E-02  0.1312668E+00
        -11   -1    0    0    0    0  0.00000000000E+00  0.00000000000E+00  0.45593999997E+02  0.45594000000E+02  0.51100000000E-03 0.  1.
         11   -1    0    0    0    0 -0.00000000000E+00 -0.00000000000E+00 -0.45593999997E+02  0.45594000000E+02  0.51100000000E-03 0. -1.
    9900012    2    1    2    0    0 -0.52556857904E+01  0.37304865133E+02  0.21548743232E+02  0.47787268087E+02  0.19999986517E+02 0.  0.
         12    1    1    2    0    0  0.52556857904E+01 -0.37304865133E+02 -0.21548743232E+02  0.43400731913E+02  0.00000000000E+00 0. -1.
         11    1    3    3    0    0 -0.56610237734E+01  0.87274655267E+01  0.15007977228E+01  0.10510387184E+02  0.51100000000E-03 0. -1.
        -11    1    3    3    0    0 -0.66146090233E+00  0.58874238716E+01 -0.13434516755E+01  0.60748788493E+01  0.51100000000E-03 0.  1.
        -12    1    3    3    0    0  0.10667988853E+01  0.22689975734E+02  0.21391397184E+02  0.31202002054E+02  0.00000000000E+00 0.  1.
</event>
<event>
 7    1  0.2459936E-009  0.4778727E+02  0.7816164E-02  0.1312668E+00
        -11   -1    0    0    0    0  0.00000000000E+00  0.00000000000E+00  0.45593999997E+02  0.45594000000E+02  0.51100000000E-03 0.  1.
         11   -1    0    0    0    0 -0.00000000000E+00 -0.00000000000E+00 -0.45593999997E+02  0.45594000000E+02  0.51100000000E-03 0. -1.
    9900012    2    1    2    0    0 -0.16129495506E+02  0.39913920183E+02 -0.55083473465E+01  0.47787267977E+02  0.19999986015E+02 0.  0.
         12    1    1    2    0    0  0.16129495506E+02 -0.39913920183E+02  0.55083473465E+01  0.43400732023E+02  0.00000000000E+00 0. -1.
         11    1    3    3    0    0  0.31208035731E+01  0.27586926265E+01 -0.29290649670E+01  0.50920744094E+01  0.51100000000E-03 0. -1.
        -11    1    3    3    0    0  0.50550066189E+00 -0.98815490992E-02  0.11813946760E+00  0.51921648578E+00  0.51100000000E-03 0.  1.
        -12    1    3    3    0    0 -0.19755799741E+02  0.37165109105E+02 -0.26974218471E+01  0.42175977082E+02  0.00000000000E+00 0.  1.
</event>
<event>
 7    1  0.2459936E-009  0.4778727E+02  0.7816164E-02  0.1312668E+00
        -11   -1    0    0    0    0  0.00000000000E+00  0.00000000000E+00  0.45593999997E+02  0.45594000000E+02  0.51100000000E-03 0. -1.
         11   -1    0    0    0    0 -0.00000000000E+00 -0.00000000000E+00 -0.45593999997E+02  0.45594000000E+02  0.51100000000E-03 0.  1.
    9900012    2    1    2    0    0 -0.15225963901E+02  0.98247560200E+01 -0.39436880473E+02  0.47787270179E+02  0.19999996053E+02 0.  0.
         12    1    1    2    0    0  0.15225963901E+02 -0.98247560200E+01  0.39436880473E+02  0.43400729821E+02  0.00000000000E+00 0. -1.
         11    1    3    3    0    0  0.33433871672E+01  0.39400551057E+00 -0.12728420718E+02  0.13166099359E+02  0.51100000000E-03 0. -1.
        -11    1    3    3    0    0 -0.41783921944E+01  0.57855922680E+01 -0.97504166750E+01  0.12083156244E+02  0.51100000000E-03 0.  1.
        -12    1    3    3    0    0 -0.14390958874E+02  0.36451582414E+01 -0.16958043080E+02  0.22538014576E+02  0.00000000000E+00 0.  1.
</event>
<event>
 7    1  0.2459936E-009  0.4778727E+02  0.7816164E-02  0.1312668E+00
        -11   -1    0    0    0    0  0.00000000000E+00  0.00000000000E+00  0.45593999997E+02  0.45594000000E+02  0.51100000000E-03 0.  1.
         11   -1    0    0    0    0 -0.00000000000E+00 -0.00000000000E+00 -0.45593999997E+02  0.45594000000E+02  0.51100000000E-03 0. -1.
    9900012    2    1    2    0    0  0.31034004645E+02 -0.32070537068E+01 -0.30169993079E+02  0.47787272815E+02  0.20000008073E+02 0.  0.
         12    1    1    2    0    0 -0.31034004645E+02  0.32070537068E+01  0.30169993079E+02  0.43400727185E+02  0.00000000000E+00 0. -1.
         11    1    3    3    0    0  0.17424009889E+02 -0.19794537618E+01 -0.25627413023E+02  0.31052836526E+02  0.51100000000E-03 0. -1.
        -11    1    3    3    0    0  0.10330188390E+01 -0.56064369642E+00 -0.39551516849E+01  0.41260967497E+01  0.51100000000E-03 0.  1.
        -12    1    3    3    0    0  0.12576975917E+02 -0.66695624851E+00 -0.58742837166E+00  0.12608339540E+02  0.00000000000E+00 0.  1.
</event>
<event>
 7    1  0.2459936E-009  0.4778727E+02  0.7816164E-02  0.1312668E+00
        -11   -1    0    0    0    0  0.00000000000E+00  0.00000000000E+00  0.45593999997E+02  0.45594000000E+02  0.51100000000E-03 0.  1.
         11   -1    0    0    0    0 -0.00000000000E+00 -0.00000000000E+00 -0.45593999997E+02  0.45594000000E+02  0.51100000000E-03 0. -1.
    9900012    2    1    2    0    0 -0.24724948707E+02  0.37997646394E+01  0.35466350757E+02  0.47787270330E+02  0.19999996743E+02 0.  0.
         12    1    1    2    0    0  0.24724948707E+02 -0.37997646394E+01 -0.35466350757E+02  0.43400729670E+02  0.00000000000E+00 0. -1.
         11    1    3    3    0    0 -0.67433688586E+01 -0.45857529376E+01  0.16472127855E+02  0.18380238026E+02  0.51100000000E-03 0.  1.
        -11    1    3    3    0    0 -0.23287861192E+01 -0.24749185367E+01  0.28703590368E+01  0.44483061736E+01  0.51100000000E-03 0. -1.
        -12    1    3    3    0    0 -0.15652793729E+02  0.10860436114E+02  0.16123863865E+02  0.24958726130E+02  0.00000000000E+00 0.  1.
</event>
<event>
 7    1  0.2459936E-009  0.4778727E+02  0.7816164E-02  0.1312668E+00
        -11   -1    0    0    0    0  0.00000000000E+00  0.00000000000E+00  0.45593999997E+02  0.45594000000E+02  0.51100000000E-03 0.  1.
         11   -1    0    0    0    0 -0.00000000000E+00 -0.00000000000E+00 -0.45593999997E+02  0.45594000000E+02  0.51100000000E-03 0. -1.
    9900012    2    1    2    0    0 -0.15897694130E+01 -0.80727870125E+01  0.42613680510E+02  0.47787273928E+02  0.20000013148E+02 0.  0.
         12    1    1    2    0    0  0.15897694130E+01  0.80727870125E+01 -0.42613680510E+02  0.43400726072E+02  0.00000000000E+00 0. -1.
         11    1    3    3    0    0 -0.67452805864E+00 -0.57104735921E+01  0.17554854372E+02  0.18472612405E+02  0.51100000000E-03 0. -1.
        -11    1    3    3    0    0 -0.78633249501E+00 -0.43180644595E+01  0.26513183604E+02  0.26874019137E+02  0.51100000000E-03 0.  1.
         12    1    3    3    0    0 -0.12890885935E+00  0.19557510391E+01 -0.14543574664E+01  0.24406423870E+01  0.00000000000E+00 0. -1.
</event>
<event>
 7    1  0.2459936E-009  0.4778728E+02  0.7816164E-02  0.1312668E+00
        -11   -1    0    0    0    0  0.00000000000E+00  0.00000000000E+00  0.45593999997E+02  0.45594000000E+02  0.51100000000E-03 0. -1.
         11   -1    0    0    0    0 -0.00000000000E+00 -0.00000000000E+00 -0.45593999997E+02  0.45594000000E+02  0.51100000000E-03 0.  1.
    9900012    2    1    2    0    0  0.13670811532E+02  0.21281930090E+02 -0.35267708526E+02  0.47787275341E+02  0.20000019587E+02 0.  0.
         12    1    1    2    0    0 -0.13670811532E+02 -0.21281930090E+02  0.35267708526E+02  0.43400724659E+02  0.00000000000E+00 0. -1.
         11    1    3    3    0    0  0.82897415656E+01  0.60540156862E+01 -0.62568782705E+01  0.12021624146E+02  0.51100000000E-03 0. -1.
        -11    1    3    3    0    0  0.88101704104E+01  0.55326039439E+01 -0.11939273924E+02  0.15835879236E+02  0.51100000000E-03 0.  1.
        -12    1    3    3    0    0 -0.34291004443E+01  0.96953104596E+01 -0.17071556331E+02  0.19929771959E+02  0.00000000000E+00 0.  1.
</event>
<event>
 7    1  0.2459936E-009  0.4778727E+02  0.7816164E-02  0.1312668E+00
        -11   -1    0    0    0    0  0.00000000000E+00  0.00000000000E+00  0.45593999997E+02  0.45594000000E+02  0.51100000000E-03 0.  1.
         11   -1    0    0    0    0 -0.00000000000E+00 -0.00000000000E+00 -0.45593999997E+02  0.45594000000E+02  0.51100000000E-03 0. -1.
    9900012    2    1    2    0    0  0.10942253745E+02  0.97284048251E+01  0.40856437538E+02  0.47787271138E+02  0.20000000428E+02 0.  0.
         12    1    1    2    0    0 -0.10942253745E+02 -0.97284048251E+01 -0.40856437538E+02  0.43400728862E+02  0.00000000000E+00 0. -1.
         11    1    3    3    0    0  0.18221345003E+00 -0.57731670861E+00 -0.99178597144E+00  0.11619535265E+01  0.51100000000E-03 0. -1.
        -11    1    3    3    0    0  0.51433407780E+01 -0.27580023870E+01  0.17275835157E+02  0.18234994164E+02  0.51100000000E-03 0.  1.
        -12    1    3    3    0    0  0.56166995166E+01  0.13063723921E+02  0.24572388352E+02  0.28390323448E+02  0.00000000000E+00 0.  1.
</event>
<event>
 7    1  0.2459936E-009  0.4778727E+02  0.7816164E-02  0.1312668E+00
        -11   -1    0    0    0    0  0.00000000000E+00  0.00000000000E+00  0.45593999997E+02  0.45594000000E+02  0.51100000000E-03 0. -1.
         11   -1    0    0    0    0 -0.00000000000E+00 -0.00000000000E+00 -0.45593999997E+02  0.45594000000E+02  0.51100000000E-03 0.  1.
    9900012    2    1    2    0    0  0.40909805940E+02 -0.13356898570E+02 -0.56217970217E+01  0.47787267711E+02  0.19999984801E+02 0.  0.
         12    1    1    2    0    0 -0.40909805940E+02  0.13356898570E+02  0.56217970217E+01  0.43400732289E+02  0.00000000000E+00 0. -1.
         11    1    3    3    0    0  0.54066970415E+01 -0.62256643543E+01 -0.68333317051E+00  0.82739479110E+01  0.51100000000E-03 0. -1.
        -11    1    3    3    0    0  0.29776817204E+02 -0.10004296058E+02  0.19195054715E-01  0.31412499919E+02  0.51100000000E-03 0.  1.
         12    1    3    3    0    0  0.57262916943E+01  0.28730618425E+01 -0.49576589059E+01  0.81008198811E+01  0.00000000000E+00 0. -1.
</event>
<event>
 7    1  0.2459936E-009  0.4778727E+02  0.7816164E-02  0.1312668E+00
        -11   -1    0    0    0    0  0.00000000000E+00  0.00000000000E+00  0.45593999997E+02  0.45594000000E+02  0.51100000000E-03 0. -1.
         11   -1    0    0    0    0 -0.00000000000E+00 -0.00000000000E+00 -0.45593999997E+02  0.45594000000E+02  0.51100000000E-03 0.  1.
    9900012    2    1    2    0    0  0.27041507663E+02  0.10047677295E+02 -0.32425676414E+02  0.47787269055E+02  0.19999990927E+02 0.  0.
         12    1    1    2    0    0 -0.27041507663E+02 -0.10047677295E+02  0.32425676414E+02  0.43400730945E+02  0.00000000000E+00 0. -1.
         11    1    3    3    0    0  0.15699974852E+02  0.84264505969E+01 -0.20389009022E+02  0.27077776296E+02  0.51100000000E-03 0. -1.
        -11    1    3    3    0    0  0.23688183200E+01  0.62980820714E+01 -0.45588234465E+01  0.81277308941E+01  0.51100000000E-03 0.  1.
         12    1    3    3    0    0  0.89727144909E+01 -0.46768553738E+01 -0.74778439458E+01  0.12581761864E+02  0.00000000000E+00 0. -1.
</event>
<event>
 7    1  0.2459936E-009  0.4778726E+02  0.7816164E-02  0.1312668E+00
        -11   -1    0    0    0    0  0.00000000000E+00  0.00000000000E+00  0.45593999997E+02  0.45594000000E+02  0.51100000000E-03 0.  1.
         11   -1    0    0    0    0 -0.00000000000E+00 -0.00000000000E+00 -0.45593999997E+02  0.45594000000E+02  0.51100000000E-03 0. -1.
    9900012    2    1    2    0    0  0.29614579292E+02  0.22444049590E+02  0.22424667315E+02  0.47787258384E+02  0.19999942274E+02 0.  0.
         12    1    1    2    0    0 -0.29614579292E+02 -0.22444049590E+02 -0.22424667315E+02  0.43400741616E+02  0.00000000000E+00 0. -1.
         11    1    3    3    0    0  0.80609446364E+01  0.56167855914E+01  0.14115661612E+02  0.17198226996E+02  0.51100000000E-03 0. -1.
        -11    1    3    3    0    0  0.73385490242E+01  0.10777880647E+02  0.76687614213E+01  0.15127025981E+02  0.51100000000E-03 0.  1.
         12    1    3    3    0    0  0.14215085632E+02  0.60493833516E+01  0.64024428195E+00  0.15462005406E+02  0.00000000000E+00 0. -1.
</event>
<event>
 7    1  0.2459936E-009  0.4778727E+02  0.7816164E-02  0.1312668E+00
        -11   -1    0    0    0    0  0.00000000000E+00  0.00000000000E+00  0.45593999997E+02  0.45594000000E+02  0.51100000000E-03 0.  1.
         11   -1    0    0    0    0 -0.00000000000E+00 -0.00000000000E+00 -0.45593999997E+02  0.45594000000E+02  0.51100000000E-03 0. -1.
    9900012    2    1    2    0    0 -0.14652205726E+02  0.30919297470E+02  0.26700808950E+02  0.47787270890E+02  0.19999999296E+02 0.  0.
         12    1    1    2    0    0  0.14652205726E+02 -0.30919297470E+02 -0.26700808950E+02  0.43400729110E+02  0.00000000000E+00 0. -1.
         11    1    3    3    0    0 -0.22317270525E+00  0.57090759599E+01  0.12953883843E+02  0.14157911613E+02  0.51100000000E-03 0. -1.
        -11    1    3    3    0    0 -0.78773444683E+01  0.16417316311E+02  0.13488383458E+02  0.22660920531E+02  0.51100000000E-03 0.  1.
        -12    1    3    3    0    0 -0.65516885524E+01  0.87929051995E+01  0.25854164831E+00  0.10968438746E+02  0.00000000000E+00 0.  1.
</event>
<event>
 7    1  0.2459936E-009  0.4778727E+02  0.7816164E-02  0.1312668E+00
        -11   -1    0    0    0    0  0.00000000000E+00  0.00000000000E+00  0.45593999997E+02  0.45594000000E+02  0.51100000000E-03 0.  1.
         11   -1    0    0    0    0 -0.00000000000E+00 -0.00000000000E+00 -0.45593999997E+02  0.45594000000E+02  0.51100000000E-03 0. -1.
    9900012    2    1    2    0    0 -0.36577263959E+02 -0.87943830776E+01  0.21642227853E+02  0.47787269144E+02  0.19999991333E+02 0.  0.
         12    1    1    2    0    0  0.36577263959E+02  0.87943830776E+01 -0.21642227853E+02  0.43400730856E+02  0.00000000000E+00 0. -1.
         11    1    3    3    0    0 -0.30944760519E+01 -0.29697253226E+01 -0.27264757627E+01  0.50821964615E+01  0.51100000000E-03 0. -1.
        -11    1    3    3    0    0 -0.13361277970E+02 -0.60718069448E+01  0.76914409024E+01  0.16569515744E+02  0.51100000000E-03 0.  1.
        -12    1    3    3    0    0 -0.20121509937E+02  0.24714918983E+00  0.16677262714E+02  0.26135556939E+02  0.00000000000E+00 0.  1.
</event>
<event>
 7    1  0.2459936E-009  0.4778728E+02  0.7816164E-02  0.1312668E+00
        -11   -1    0    0    0    0  0.00000000000E+00  0.00000000000E+00  0.45593999997E+02  0.45594000000E+02  0.51100000000E-03 0. -1.
         11   -1    0    0    0    0 -0.00000000000E+00 -0.00000000000E+00 -0.45593999997E+02  0.45594000000E+02  0.51100000000E-03 0.  1.
    9900012    2    1    2    0    0  0.79270089742E+01  0.21729150959E+02 -0.36723682500E+02  0.47787281929E+02  0.20000049629E+02 0.  0.
         12    1    1    2    0    0 -0.79270089742E+01 -0.21729150959E+02  0.36723682500E+02  0.43400718071E+02  0.00000000000E+00 0. -1.
         11    1    3    3    0    0 -0.39199302859E+00  0.73334104448E+01 -0.11854324327E+01  0.74389392792E+01  0.51100000000E-03 0. -1.
        -11    1    3    3    0    0 -0.13743499985E+01  0.62327887358E+01 -0.13317489282E+02  0.14767938732E+02  0.51100000000E-03 0.  1.
        -12    1    3    3    0    0  0.96933520013E+01  0.81629517779E+01 -0.22220760785E+02  0.25580403918E+02  0.00000000000E+00 0.  1.
</event>
<event>
 7    1  0.2459936E-009  0.4778727E+02  0.7816164E-02  0.1312668E+00
        -11   -1    0    0    0    0  0.00000000000E+00  0.00000000000E+00  0.45593999997E+02  0.45594000000E+02  0.51100000000E-03 0. -1.
         11   -1    0    0    0    0 -0.00000000000E+00 -0.00000000000E+00 -0.45593999997E+02  0.45594000000E+02  0.51100000000E-03 0.  1.
    9900012    2    1    2    0    0 -0.42096003803E+02  0.88976835825E+01 -0.56904199151E+01  0.47787272033E+02  0.20000004506E+02 0.  0.
         12    1    1    2    0    0  0.42096003803E+02 -0.88976835825E+01  0.56904199151E+01  0.43400727967E+02  0.00000000000E+00 0. -1.
         11    1    3    3    0    0 -0.33870546470E+02 -0.78831570479E+00 -0.30260203578E+01  0.34014587449E+02  0.51100000000E-03 0.  1.
        -11    1    3    3    0    0 -0.11465934545E+01  0.13487584266E+01 -0.22026391188E+01  0.28258530026E+01  0.51100000000E-03 0. -1.
        -12    1    3    3    0    0 -0.70788638776E+01  0.83372408607E+01 -0.46176043849E+00  0.10946831581E+02  0.00000000000E+00 0.  1.
</event>
<event>
 7    1  0.2459936E-009  0.4778729E+02  0.7816164E-02  0.1312668E+00
        -11   -1    0    0    0    0  0.00000000000E+00  0.00000000000E+00  0.45593999997E+02  0.45594000000E+02  0.51100000000E-03 0. -1.
         11   -1    0    0    0    0 -0.00000000000E+00 -0.00000000000E+00 -0.45593999997E+02  0.45594000000E+02  0.51100000000E-03 0.  1.
    9900012    2    1    2    0    0 -0.80733649736E+01 -0.42562187649E+02  0.26272961603E+01  0.47787288893E+02  0.20000081379E+02 0.  0.
         12    1    1    2    0    0  0.80733649736E+01  0.42562187649E+02 -0.26272961603E+01  0.43400711107E+02  0.00000000000E+00 0. -1.
         11    1    3    3    0    0 -0.86797452853E+01 -0.16732554413E+02  0.36560916519E+01  0.19201129181E+02  0.51100000000E-03 0. -1.
        -11    1    3    3    0    0  0.11154239104E+01 -0.11628671371E+01  0.31731900735E+01  0.35588714478E+01  0.51100000000E-03 0.  1.
         12    1    3    3    0    0 -0.50904359870E+00 -0.24666766099E+02 -0.42019855652E+01  0.25027288265E+02  0.00000000000E+00 0. -1.
</event>
<event>
 7    1  0.2459936E-009  0.4778727E+02  0.7816164E-02  0.1312668E+00
        -11   -1    0    0    0    0  0.00000000000E+00  0.00000000000E+00  0.45593999997E+02  0.45594000000E+02  0.51100000000E-03 0.  1.
         11   -1    0    0    0    0 -0.00000000000E+00 -0.00000000000E+00 -0.45593999997E+02  0.45594000000E+02  0.51100000000E-03 0. -1.
    9900012    2    1    2    0    0  0.33818665245E+02 -0.25368823351E+02  0.98155004485E+01  0.47787269981E+02  0.19999995150E+02 0.  0.
         12    1    1    2    0    0 -0.33818665245E+02  0.25368823351E+02 -0.98155004485E+01  0.43400730019E+02  0.00000000000E+00 0. -1.
         11    1    3    3    0    0  0.10777353371E+02 -0.44724498918E+01 -0.35986862734E+01  0.12210843414E+02  0.51100000000E-03 0. -1.
        -11    1    3    3    0    0 -0.11543190011E+01 -0.11389216157E+01  0.12759682809E+01  0.20634170974E+01  0.51100000000E-03 0.  1.
        -12    1    3    3    0    0  0.24195630875E+02 -0.19757451844E+02  0.12138218441E+02  0.33513009470E+02  0.00000000000E+00 0.  1.
</event>
<event>
 7    1  0.2459936E-009  0.4778727E+02  0.7816164E-02  0.1312668E+00
        -11   -1    0    0    0    0  0.00000000000E+00  0.00000000000E+00  0.45593999997E+02  0.45594000000E+02  0.51100000000E-03 0. -1.
         11   -1    0    0    0    0 -0.00000000000E+00 -0.00000000000E+00 -0.45593999997E+02  0.45594000000E+02  0.51100000000E-03 0.  1.
    9900012    2    1    2    0    0  0.40535971029E+02 -0.15492518384E+02 -0.66352049034E+00  0.47787270368E+02  0.19999996918E+02 0.  0.
         12    1    1    2    0    0 -0.40535971029E+02  0.15492518384E+02  0.66352049034E+00  0.43400729632E+02  0.00000000000E+00 0. -1.
         11    1    3    3    0    0  0.34176014878E+02 -0.18393134270E+02 -0.33552409832E+01  0.38955936949E+02  0.51100000000E-03 0. -1.
        -11    1    3    3    0    0  0.33451942452E+01 -0.95717245635E+00  0.71990290728E+00  0.35531344059E+01  0.51100000000E-03 0.  1.
         12    1    3    3    0    0  0.30147619052E+01  0.38577883422E+01  0.19718175856E+01  0.52781990138E+01  0.00000000000E+00 0. -1.
</event>
<event>
 7    1  0.2596339E-009  0.4778728E+02  0.7816164E-02  0.1312668E+00
        -11   -1    0    0    0    0  0.00000000000E+00  0.00000000000E+00  0.45593999997E+02  0.45594000000E+02  0.51100000000E-03 0. -1.
         11   -1    0    0    0    0 -0.00000000000E+00 -0.00000000000E+00 -0.45593999997E+02  0.45594000000E+02  0.51100000000E-03 0.  1.
    9900012    2    1    2    0    0  0.35771363032E+01  0.18354754624E+02 -0.39165417701E+02  0.47787275753E+02  0.20000021470E+02 0.  0.
         12    1    1    2    0    0 -0.35771363032E+01 -0.18354754624E+02  0.39165417701E+02  0.43400724247E+02  0.00000000000E+00 0. -1.
         11    1    3    3    0    0  0.23440793580E+01  0.16831933143E+01  0.13991426383E+01  0.32070934120E+01  0.51100000000E-03 0. -1.
        -11    1    3    3    0    0  0.22867151659E+01  0.42333598909E+01 -0.19589513049E+02  0.20171748163E+02  0.51100000000E-03 0.  1.
        -12    1    3    3    0    0 -0.10536582208E+01  0.12438201419E+02 -0.20975047291E+02  0.24408434178E+02  0.00000000000E+00 0.  1.
</event>
<event>
 7    1  0.2459936E-009  0.4778727E+02  0.7816164E-02  0.1312668E+00
        -11   -1    0    0    0    0  0.00000000000E+00  0.00000000000E+00  0.45593999997E+02  0.45594000000E+02  0.51100000000E-03 0. -1.
         11   -1    0    0    0    0 -0.00000000000E+00 -0.00000000000E+00 -0.45593999997E+02  0.45594000000E+02  0.51100000000E-03 0.  1.
    9900012    2    1    2    0    0 -0.29168255191E+02  0.28930964870E+02 -0.13994121604E+02  0.47787270989E+02  0.19999999748E+02 0.  0.
         12    1    1    2    0    0  0.29168255191E+02 -0.28930964870E+02  0.13994121604E+02  0.43400729011E+02  0.00000000000E+00 0. -1.
         11    1    3    3    0    0 -0.11812816842E+02  0.14071728950E+02 -0.30426264732E+01  0.18622936758E+02  0.51100000000E-03 0. -1.
        -11    1    3    3    0    0 -0.19741610790E+02  0.13864309635E+02 -0.11141192821E+02  0.26572099202E+02  0.51100000000E-03 0.  1.
         12    1    3    3    0    0  0.23861724412E+01  0.99492628535E+00  0.18969769048E+00  0.25922350291E+01  0.00000000000E+00 0. -1.
</event>
<event>
 7    1  0.2459936E-009  0.4778727E+02  0.7816164E-02  0.1312668E+00
        -11   -1    0    0    0    0  0.00000000000E+00  0.00000000000E+00  0.45593999997E+02  0.45594000000E+02  0.51100000000E-03 0. -1.
         11   -1    0    0    0    0 -0.00000000000E+00 -0.00000000000E+00 -0.45593999997E+02  0.45594000000E+02  0.51100000000E-03 0.  1.
    9900012    2    1    2    0    0 -0.56041144736E+01 -0.14291999214E+02 -0.40595023294E+02  0.47787271241E+02  0.20000000895E+02 0.  0.
         12    1    1    2    0    0  0.56041144736E+01  0.14291999214E+02  0.40595023294E+02  0.43400728759E+02  0.00000000000E+00 0. -1.
         11    1    3    3    0    0 -0.42410913186E+01 -0.56512887296E+01 -0.36352161595E+01  0.79459874569E+01  0.51100000000E-03 0. -1.
        -11    1    3    3    0    0 -0.26432453573E+01 -0.10408247075E+02 -0.19636412236E+02  0.22380952593E+02  0.51100000000E-03 0.  1.
         12    1    3    3    0    0  0.12802222023E+01  0.17675365905E+01 -0.17323394899E+02  0.17460331191E+02  0.00000000000E+00 0. -1.
</event>
<event>
 7    1  0.2459936E-009  0.4778727E+02  0.7816164E-02  0.1312668E+00
        -11   -1    0    0    0    0  0.00000000000E+00  0.00000000000E+00  0.45593999997E+02  0.45594000000E+02  0.51100000000E-03 0.  1.
         11   -1    0    0    0    0 -0.00000000000E+00 -0.00000000000E+00 -0.45593999997E+02  0.45594000000E+02  0.51100000000E-03 0. -1.
    9900012    2    1    2    0    0  0.36354832979E+01 -0.42496843670E+02 -0.80264928003E+01  0.47787273653E+02  0.20000011894E+02 0.  0.
         12    1    1    2    0    0 -0.36354832979E+01  0.42496843670E+02  0.80264928003E+01  0.43400726347E+02  0.00000000000E+00 0. -1.
         11    1    3    3    0    0 -0.25831532870E+01 -0.19404844742E+02 -0.56791869576E+01  0.20383175541E+02  0.51100000000E-03 0. -1.
        -11    1    3    3    0    0  0.21253080323E+01 -0.22773020432E+02 -0.35033044117E+01  0.23138723731E+02  0.51100000000E-03 0.  1.
         12    1    3    3    0    0  0.40933285526E+01 -0.31897849596E+00  0.11559985690E+01  0.42653743812E+01  0.00000000000E+00 0. -1.
</event>
<event>
 7    1  0.2459936E-009  0.4778727E+02  0.7816164E-02  0.1312668E+00
        -11   -1    0    0    0    0  0.00000000000E+00  0.00000000000E+00  0.45593999997E+02  0.45594000000E+02  0.51100000000E-03 0.  1.
         11   -1    0    0    0    0 -0.00000000000E+00 -0.00000000000E+00 -0.45593999997E+02  0.45594000000E+02  0.51100000000E-03 0. -1.
    9900012    2    1    2    0    0  0.35059973471E+02  0.23080568976E+02  0.11032188624E+02  0.47787267404E+02  0.19999983401E+02 0.  0.
         12    1    1    2    0    0 -0.35059973471E+02 -0.23080568976E+02 -0.11032188624E+02  0.43400732596E+02  0.00000000000E+00 0. -1.
         11    1    3    3    0    0  0.62074447832E+01  0.64487642567E+01 -0.28119828581E-01  0.89509620802E+01  0.51100000000E-03 0. -1.
        -11    1    3    3    0    0  0.20980549881E+02  0.12336208225E+02  0.15474146469E+02  0.28841198240E+02  0.51100000000E-03 0.  1.
         12    1    3    3    0    0  0.78719788068E+01  0.42955964945E+01 -0.44138380172E+01  0.99951070839E+01  0.00000000000E+00 0. -1.
</event>
<event>
 7    1  0.2459936E-009  0.4778726E+02  0.7816164E-02  0.1312668E+00
        -11   -1    0    0    0    0  0.00000000000E+00  0.00000000000E+00  0.45593999997E+02  0.45594000000E+02  0.51100000000E-03 0.  1.
         11   -1    0    0    0    0 -0.00000000000E+00 -0.00000000000E+00 -0.45593999997E+02  0.45594000000E+02  0.51100000000E-03 0. -1.
    9900012    2    1    2    0    0  0.26385699351E+02  0.26962319294E+02 -0.21458147825E+02  0.47787263831E+02  0.19999967109E+02 0.  0.
         12    1    1    2    0    0 -0.26385699351E+02 -0.26962319294E+02  0.21458147825E+02  0.43400736169E+02  0.00000000000E+00 0. -1.
         11    1    3    3    0    0  0.11959793022E+02  0.11291449436E+02 -0.79393875723E+01  0.18263826400E+02  0.51100000000E-03 0. -1.
        -11    1    3    3    0    0  0.94336193592E+01  0.18307164185E+02 -0.10347940755E+02  0.23048325597E+02  0.51100000000E-03 0.  1.
         12    1    3    3    0    0  0.49922869694E+01 -0.26362943265E+01 -0.31708194985E+01  0.64751118332E+01  0.00000000000E+00 0. -1.
</event>
<event>
 7    1  0.2459936E-009  0.4778727E+02  0.7816164E-02  0.1312668E+00
        -11   -1    0    0    0    0  0.00000000000E+00  0.00000000000E+00  0.45593999997E+02  0.45594000000E+02  0.51100000000E-03 0.  1.
         11   -1    0    0    0    0 -0.00000000000E+00 -0.00000000000E+00 -0.45593999997E+02  0.45594000000E+02  0.51100000000E-03 0. -1.
    9900012    2    1    2    0    0  0.39274561776E+02 -0.17529412599E+02  0.58182216570E+01  0.47787271757E+02  0.20000003249E+02 0.  0.
         12    1    1    2    0    0 -0.39274561776E+02  0.17529412599E+02 -0.58182216570E+01  0.43400728243E+02  0.00000000000E+00 0. -1.
         11    1    3    3    0    0  0.27697429191E+01 -0.12016355301E+01  0.53002579149E+01  0.60998473761E+01  0.51100000000E-03 0. -1.
        -11    1    3    3    0    0  0.13366889526E+02 -0.16904429270E+01  0.40800480190E+01  0.14077575252E+02  0.51100000000E-03 0.  1.
        -12    1    3    3    0    0  0.23137929331E+02 -0.14637334142E+02 -0.35620842769E+01  0.27609849129E+02  0.00000000000E+00 0.  1.
</event>
<event>
 7    1  0.2459936E-009  0.4778732E+02  0.7816164E-02  0.1312668E+00
        -11   -1    0    0    0    0  0.00000000000E+00  0.00000000000E+00  0.45593999997E+02  0.45594000000E+02  0.51100000000E-03 0.  1.
         11   -1    0    0    0    0 -0.00000000000E+00 -0.00000000000E+00 -0.45593999997E+02  0.45594000000E+02  0.51100000000E-03 0. -1.
    9900012    2    1    2    0    0  0.19875465770E+02  0.31492267986E+02  0.22289496894E+02  0.47787323113E+02  0.20000237400E+02 0.  0.
         12    1    1    2    0    0 -0.19875465770E+02 -0.31492267986E+02 -0.22289496894E+02  0.43400676887E+02  0.00000000000E+00 0. -1.
         11    1    3    3    0    0  0.77323834079E+00 -0.13583544083E+01 -0.14081890208E+01  0.21038110204E+01  0.51100000000E-03 0. -1.
        -11    1    3    3    0    0  0.19639613622E+01  0.86033905810E+01  0.24083300745E+01  0.91474328492E+01  0.51100000000E-03 0.  1.
        -12    1    3    3    0    0  0.17138266067E+02  0.24247231813E+02  0.21289355840E+02  0.36536079243E+02  0.00000000000E+00 0.  1.
</event>
<event>
 7    1  0.2459936E-009  0.4778727E+02  0.7816164E-02  0.1312668E+00
        -11   -1    0    0    0    0  0.00000000000E+00  0.00000000000E+00  0.45593999997E+02  0.45594000000E+02  0.51100000000E-03 0.  1.
         11   -1    0    0    0    0 -0.00000000000E+00 -0.00000000000E+00 -0.45593999997E+02  0.45594000000E+02  0.51100000000E-03 0. -1.
    9900012    2    1    2    0    0 -0.11677709130E+02 -0.18048054761E+02  0.37703081985E+02  0.47787267721E+02  0.19999984845E+02 0.  0.
         12    1    1    2    0    0  0.11677709130E+02  0.18048054761E+02 -0.37703081985E+02  0.43400732279E+02  0.00000000000E+00 0. -1.
         11    1    3    3    0    0 -0.81510493872E+01 -0.45035288720E+01  0.30438831008E+01  0.97972752848E+01  0.51100000000E-03 0. -1.
        -11    1    3    3    0    0 -0.17460865656E+01 -0.29924510939E+01  0.30408577523E+01  0.46098153949E+01  0.51100000000E-03 0.  1.
         12    1    3    3    0    0 -0.17805731771E+01 -0.10552074796E+02  0.31618341132E+02  0.33380177041E+02  0.00000000000E+00 0. -1.
</event>
<event>
 7    1  0.2459936E-009  0.4778727E+02  0.7816164E-02  0.1312668E+00
        -11   -1    0    0    0    0  0.00000000000E+00  0.00000000000E+00  0.45593999997E+02  0.45594000000E+02  0.51100000000E-03 0.  1.
         11   -1    0    0    0    0 -0.00000000000E+00 -0.00000000000E+00 -0.45593999997E+02  0.45594000000E+02  0.51100000000E-03 0. -1.
    9900012    2    1    2    0    0  0.31110917367E+02 -0.25095067802E+02 -0.16910693671E+02  0.47787272267E+02  0.20000005572E+02 0.  0.
         12    1    1    2    0    0 -0.31110917367E+02  0.25095067802E+02  0.16910693671E+02  0.43400727733E+02  0.00000000000E+00 0. -1.
         11    1    3    3    0    0  0.26461306941E+01 -0.19508241357E+01  0.27432580086E+01  0.42817271306E+01  0.51100000000E-03 0. -1.
        -11    1    3    3    0    0  0.15779889023E+02 -0.78429503417E+01 -0.36685987946E+01  0.17999316237E+02  0.51100000000E-03 0.  1.
        -12    1    3    3    0    0  0.12684897650E+02 -0.15301293324E+02 -0.15985352885E+02  0.25506228899E+02  0.00000000000E+00 0.  1.
</event>
<event>
 7    1  0.2459936E-009  0.4778727E+02  0.7816164E-02  0.1312668E+00
        -11   -1    0    0    0    0  0.00000000000E+00  0.00000000000E+00  0.45593999997E+02  0.45594000000E+02  0.51100000000E-03 0.  1.
         11   -1    0    0    0    0 -0.00000000000E+00 -0.00000000000E+00 -0.45593999997E+02  0.45594000000E+02  0.51100000000E-03 0. -1.
    9900012    2    1    2    0    0 -0.39319262988E+02  0.17912400769E+02  0.40944719675E+01  0.47787271390E+02  0.20000001575E+02 0.  0.
         12    1    1    2    0    0  0.39319262988E+02 -0.17912400769E+02 -0.40944719675E+01  0.43400728610E+02  0.00000000000E+00 0. -1.
         11    1    3    3    0    0 -0.96258277846E+01 -0.15055203385E+00 -0.29054598754E+00  0.96313884610E+01  0.51100000000E-03 0. -1.
        -11    1    3    3    0    0  0.10038394764E+01  0.44727375955E+00  0.24793943420E+01  0.27120368867E+01  0.51100000000E-03 0.  1.
        -12    1    3    3    0    0 -0.30697274680E+02  0.17615679043E+02  0.19056236130E+01  0.35443846042E+02  0.00000000000E+00 0.  1.
</event>
<event>
 7    1  0.2459936E-009  0.4778728E+02  0.7816164E-02  0.1312668E+00
        -11   -1    0    0    0    0  0.00000000000E+00  0.00000000000E+00  0.45593999997E+02  0.45594000000E+02  0.51100000000E-03 0.  1.
         11   -1    0    0    0    0 -0.00000000000E+00 -0.00000000000E+00 -0.45593999997E+02  0.45594000000E+02  0.51100000000E-03 0. -1.
    9900012    2    1    2    0    0 -0.12136585938E+02  0.15390808365E+02  0.38722718210E+02  0.47787278740E+02  0.20000035085E+02 0.  0.
         12    1    1    2    0    0  0.12136585938E+02 -0.15390808365E+02 -0.38722718210E+02  0.43400721260E+02  0.00000000000E+00 0. -1.
         11    1    3    3    0    0 -0.54091154370E+01  0.13459684283E+02  0.16783483635E+02  0.22183483811E+02  0.51100000000E-03 0. -1.
        -11    1    3    3    0    0  0.24455302266E+01  0.18758491718E+01  0.10487738799E+02  0.10931243918E+02  0.51100000000E-03 0.  1.
         12    1    3    3    0    0 -0.91730007274E+01  0.55274909904E-01  0.11451495776E+02  0.14672551011E+02  0.00000000000E+00 0. -1.
</event>
<event>
 7    1  0.2459936E-009  0.4778727E+02  0.7816164E-02  0.1312668E+00
        -11   -1    0    0    0    0  0.00000000000E+00  0.00000000000E+00  0.45593999997E+02  0.45594000000E+02  0.51100000000E-03 0.  1.
         11   -1    0    0    0    0 -0.00000000000E+00 -0.00000000000E+00 -0.45593999997E+02  0.45594000000E+02  0.51100000000E-03 0. -1.
    9900012    2    1    2    0    0 -0.19384357751E+02  0.36492447673E+02  0.13272953422E+02  0.47787270108E+02  0.19999995731E+02 0.  0.
         12    1    1    2    0    0  0.19384357751E+02 -0.36492447673E+02 -0.13272953422E+02  0.43400729892E+02  0.00000000000E+00 0. -1.
         11    1    3    3    0    0 -0.11714491521E+02  0.10805247313E+02  0.63192297737E+01  0.17143959469E+02  0.51100000000E-03 0. -1.
        -11    1    3    3    0    0 -0.48629730426E+01  0.12326828363E+02  0.10065986102E+02  0.16641012011E+02  0.51100000000E-03 0.  1.
         12    1    3    3    0    0 -0.28068931878E+01  0.13360371998E+02 -0.31122624533E+01  0.14002298628E+02  0.00000000000E+00 0. -1.
</event>
<event>
 7    1  0.2459936E-009  0.4778727E+02  0.7816164E-02  0.1312668E+00
        -11   -1    0    0    0    0  0.00000000000E+00  0.00000000000E+00  0.45593999997E+02  0.45594000000E+02  0.51100000000E-03 0.  1.
         11   -1    0    0    0    0 -0.00000000000E+00 -0.00000000000E+00 -0.45593999997E+02  0.45594000000E+02  0.51100000000E-03 0. -1.
    9900012    2    1    2    0    0  0.30455772745E+02 -0.29298454851E+02  0.98827941412E+01  0.47787272239E+02  0.20000005446E+02 0.  0.
         12    1    1    2    0    0 -0.30455772745E+02  0.29298454851E+02 -0.98827941412E+01  0.43400727761E+02  0.00000000000E+00 0. -1.
         11    1    3    3    0    0  0.86284423648E+01 -0.73593268234E+01 -0.33770713413E+01  0.11832764683E+02  0.51100000000E-03 0. -1.
        -11    1    3    3    0    0  0.96075080654E+01 -0.10854246274E+02 -0.45108615758E+00  0.14502494695E+02  0.51100000000E-03 0.  1.
        -12    1    3    3    0    0  0.12219822315E+02 -0.11084881754E+02  0.13710951640E+02  0.21452012861E+02  0.00000000000E+00 0.  1.
</event>
<event>
 7    1  0.2459936E-009  0.4778728E+02  0.7816164E-02  0.1312668E+00
        -11   -1    0    0    0    0  0.00000000000E+00  0.00000000000E+00  0.45593999997E+02  0.45594000000E+02  0.51100000000E-03 0.  1.
         11   -1    0    0    0    0 -0.00000000000E+00 -0.00000000000E+00 -0.45593999997E+02  0.45594000000E+02  0.51100000000E-03 0. -1.
    9900012    2    1    2    0    0  0.15956030419E+02  0.30040563522E+02  0.26955376172E+02  0.47787278024E+02  0.20000031822E+02 0.  0.
         12    1    1    2    0    0 -0.15956030419E+02 -0.30040563522E+02 -0.26955376172E+02  0.43400721976E+02  0.00000000000E+00 0. -1.
         11    1    3    3    0    0  0.33905888297E+01  0.92157832931E+01  0.35911971151E+00  0.98262770949E+01  0.51100000000E-03 0. -1.
        -11    1    3    3    0    0  0.73952709849E+01  0.15177474950E+02  0.98478875519E+01  0.19545502508E+02  0.51100000000E-03 0.  1.
         12    1    3    3    0    0  0.51701706047E+01  0.56473052797E+01  0.16748368908E+02  0.18415498421E+02  0.00000000000E+00 0. -1.
</event>
<event>
 7    1  0.2459936E-009  0.4778727E+02  0.7816164E-02  0.1312668E+00
        -11   -1    0    0    0    0  0.00000000000E+00  0.00000000000E+00  0.45593999997E+02  0.45594000000E+02  0.51100000000E-03 0.  1.
         11   -1    0    0    0    0 -0.00000000000E+00 -0.00000000000E+00 -0.45593999997E+02  0.45594000000E+02  0.51100000000E-03 0. -1.
    9900012    2    1    2    0    0  0.21479872069E+02 -0.32720407688E+02 -0.18751355183E+02  0.47787270691E+02  0.19999998387E+02 0.  0.
         12    1    1    2    0    0 -0.21479872069E+02  0.32720407688E+02  0.18751355183E+02  0.43400729309E+02  0.00000000000E+00 0. -1.
         11    1    3    3    0    0  0.37442359936E+01 -0.83383010466E+01 -0.29392996253E+01  0.96013566785E+01  0.51100000000E-03 0. -1.
        -11    1    3    3    0    0  0.44611096822E+01 -0.83997127528E+01  0.31888900412E+01  0.10031235910E+02  0.51100000000E-03 0.  1.
         12    1    3    3    0    0  0.13274526394E+02 -0.15982393889E+02 -0.19000945598E+02  0.28154678102E+02  0.00000000000E+00 0. -1.
</event>
<event>
 7    1  0.2459936E-009  0.4778727E+02  0.7816164E-02  0.1312668E+00
        -11   -1    0    0    0    0  0.00000000000E+00  0.00000000000E+00  0.45593999997E+02  0.45594000000E+02  0.51100000000E-03 0.  1.
         11   -1    0    0    0    0 -0.00000000000E+00 -0.00000000000E+00 -0.45593999997E+02  0.45594000000E+02  0.51100000000E-03 0. -1.
    9900012    2    1    2    0    0  0.32508135752E+02 -0.79879048211E+01  0.27623142159E+02  0.47787268482E+02  0.19999988318E+02 0.  0.
         12    1    1    2    0    0 -0.32508135752E+02  0.79879048211E+01 -0.27623142159E+02  0.43400731518E+02  0.00000000000E+00 0. -1.
         11    1    3    3    0    0  0.37629228598E+01  0.11045896464E+01 -0.21024588609E+01  0.44497236160E+01  0.51100000000E-03 0. -1.
        -11    1    3    3    0    0 -0.24819470577E+00 -0.15604463269E+01  0.14457489643E+01  0.21416777722E+01  0.51100000000E-03 0.  1.
        -12    1    3    3    0    0  0.28993407598E+02 -0.75320481405E+01  0.28279852055E+02  0.41195867094E+02  0.00000000000E+00 0.  1.
</event>
<event>
 7    1  0.2459936E-009  0.4778727E+02  0.7816164E-02  0.1312668E+00
        -11   -1    0    0    0    0  0.00000000000E+00  0.00000000000E+00  0.45593999997E+02  0.45594000000E+02  0.51100000000E-03 0. -1.
         11   -1    0    0    0    0 -0.00000000000E+00 -0.00000000000E+00 -0.45593999997E+02  0.45594000000E+02  0.51100000000E-03 0.  1.
    9900012    2    1    2    0    0 -0.37586057351E+02  0.68944891030E+01 -0.20576136272E+02  0.47787273381E+02  0.20000010653E+02 0.  0.
         12    1    1    2    0    0  0.37586057351E+02 -0.68944891030E+01  0.20576136272E+02  0.43400726619E+02  0.00000000000E+00 0. -1.
         11    1    3    3    0    0 -0.70391338235E+01 -0.32179314376E+01 -0.10677245241E+02  0.13187420291E+02  0.51100000000E-03 0. -1.
        -11    1    3    3    0    0 -0.21568791482E+01 -0.14566646984E+00 -0.28922625091E+01  0.36108903421E+01  0.51100000000E-03 0.  1.
        -12    1    3    3    0    0 -0.28390044379E+02  0.10258087010E+02 -0.70066285222E+01  0.30988962748E+02  0.00000000000E+00 0.  1.
</event>
<event>
 7    1  0.2459936E-009  0.4778727E+02  0.7816164E-02  0.1312668E+00
        -11   -1    0    0    0    0  0.00000000000E+00  0.00000000000E+00  0.45593999997E+02  0.45594000000E+02  0.51100000000E-03 0.  1.
         11   -1    0    0    0    0 -0.00000000000E+00 -0.00000000000E+00 -0.45593999997E+02  0.45594000000E+02  0.51100000000E-03 0. -1.
    9900012    2    1    2    0    0  0.23836940552E+02  0.32947374604E+02  0.15162273268E+02  0.47787265457E+02  0.19999974527E+02 0.  0.
         12    1    1    2    0    0 -0.23836940552E+02 -0.32947374604E+02 -0.15162273268E+02  0.43400734543E+02  0.00000000000E+00 0. -1.
         11    1    3    3    0    0 -0.69781195354E+00  0.63555232270E+01  0.66888672583E+01  0.92531379797E+01  0.51100000000E-03 0. -1.
        -11    1    3    3    0    0  0.47532987563E+01  0.23582713626E+01  0.45823190794E+01  0.70109158669E+01  0.51100000000E-03 0.  1.
        -12    1    3    3    0    0  0.19781453749E+02  0.24233580015E+02  0.38910869298E+01  0.31523211611E+02  0.00000000000E+00 0.  1.
</event>
<event>
 7    1  0.2459936E-009  0.4778727E+02  0.7816164E-02  0.1312668E+00
        -11   -1    0    0    0    0  0.00000000000E+00  0.00000000000E+00  0.45593999997E+02  0.45594000000E+02  0.51100000000E-03 0. -1.
         11   -1    0    0    0    0 -0.00000000000E+00 -0.00000000000E+00 -0.45593999997E+02  0.45594000000E+02  0.51100000000E-03 0.  1.
    9900012    2    1    2    0    0  0.18345812173E+02  0.35997570622E+02 -0.15850218621E+02  0.47787270221E+02  0.19999996247E+02 0.  0.
         12    1    1    2    0    0 -0.18345812173E+02 -0.35997570622E+02  0.15850218621E+02  0.43400729779E+02  0.00000000000E+00 0. -1.
         11    1    3    3    0    0  0.11304708738E+01 -0.11378557848E+01 -0.18594993607E+01  0.24556910060E+01  0.51100000000E-03 0. -1.
        -11    1    3    3    0    0  0.52244331879E+01  0.65556929431E+01 -0.86644583502E+01  0.12055896933E+02  0.51100000000E-03 0.  1.
        -12    1    3    3    0    0  0.11990908111E+02  0.30579733464E+02 -0.53262609105E+01  0.33275682282E+02  0.00000000000E+00 0.  1.
</event>
<event>
 7    1  0.2459936E-009  0.4778728E+02  0.7816164E-02  0.1312668E+00
        -11   -1    0    0    0    0  0.00000000000E+00  0.00000000000E+00  0.45593999997E+02  0.45594000000E+02  0.51100000000E-03 0. -1.
         11   -1    0    0    0    0 -0.00000000000E+00 -0.00000000000E+00 -0.45593999997E+02  0.45594000000E+02  0.51100000000E-03 0.  1.
    9900012    2    1    2    0    0 -0.28791528004E+02 -0.18201485299E+02 -0.26895662044E+02  0.47787276634E+02  0.20000025487E+02 0.  0.
         12    1    1    2    0    0  0.28791528004E+02  0.18201485299E+02  0.26895662044E+02  0.43400723366E+02  0.00000000000E+00 0. -1.
         11    1    3    3    0    0 -0.12155717886E+02 -0.49498119395E+01 -0.46801693860E+01  0.13934349690E+02  0.51100000000E-03 0. -1.
        -11    1    3    3    0    0 -0.13176703655E+02 -0.16051859357E+01 -0.13235087160E+02  0.18744857254E+02  0.51100000000E-03 0.  1.
         12    1    3    3    0    0 -0.34591064632E+01 -0.11646487424E+02 -0.89804054979E+01  0.15108069690E+02  0.00000000000E+00 0. -1.
</event>
<event>
 7    1  0.2459936E-009  0.4778727E+02  0.7816164E-02  0.1312668E+00
        -11   -1    0    0    0    0  0.00000000000E+00  0.00000000000E+00  0.45593999997E+02  0.45594000000E+02  0.51100000000E-03 0. -1.
         11   -1    0    0    0    0 -0.00000000000E+00 -0.00000000000E+00 -0.45593999997E+02  0.45594000000E+02  0.51100000000E-03 0.  1.
    9900012    2    1    2    0    0 -0.42933842927E+02  0.18893846031E+01 -0.60612502022E+01  0.47787269630E+02  0.19999993550E+02 0.  0.
         12    1    1    2    0    0  0.42933842927E+02 -0.18893846031E+01  0.60612502022E+01  0.43400730370E+02  0.00000000000E+00 0. -1.
         11    1    3    3    0    0 -0.14095315276E+02  0.23908708036E+01  0.34092376411E+01  0.14697519433E+02  0.51100000000E-03 0. -1.
        -11    1    3    3    0    0 -0.25270466342E+02  0.31412480563E+01 -0.42955185312E+01  0.25824704997E+02  0.51100000000E-03 0.  1.
        -12    1    3    3    0    0 -0.35680613095E+01 -0.36427342567E+01 -0.51749693121E+01  0.72650451997E+01  0.00000000000E+00 0.  1.
</event>
<event>
 7    1  0.2459936E-009  0.4778727E+02  0.7816164E-02  0.1312668E+00
        -11   -1    0    0    0    0  0.00000000000E+00  0.00000000000E+00  0.45593999997E+02  0.45594000000E+02  0.51100000000E-03 0.  1.
         11   -1    0    0    0    0 -0.00000000000E+00 -0.00000000000E+00 -0.45593999997E+02  0.45594000000E+02  0.51100000000E-03 0. -1.
    9900012    2    1    2    0    0  0.53533160522E+01  0.81735144392E+01  0.42286633810E+02  0.47787265789E+02  0.19999976040E+02 0.  0.
         12    1    1    2    0    0 -0.53533160522E+01 -0.81735144392E+01 -0.42286633810E+02  0.43400734211E+02  0.00000000000E+00 0. -1.
         11    1    3    3    0    0  0.74763745597E+00  0.74671798549E+01  0.11223235067E+02  0.13501064491E+02  0.51100000000E-03 0. -1.
        -11    1    3    3    0    0  0.70659700323E+01  0.52729286476E+01  0.23635721430E+02  0.25226554200E+02  0.51100000000E-03 0.  1.
         12    1    3    3    0    0 -0.24602914361E+01 -0.45665940634E+01  0.74276773123E+01  0.90596470983E+01  0.00000000000E+00 0. -1.
</event>
<event>
 7    1  0.2459936E-009  0.4778727E+02  0.7816164E-02  0.1312668E+00
        -11   -1    0    0    0    0  0.00000000000E+00  0.00000000000E+00  0.45593999997E+02  0.45594000000E+02  0.51100000000E-03 0. -1.
         11   -1    0    0    0    0 -0.00000000000E+00 -0.00000000000E+00 -0.45593999997E+02  0.45594000000E+02  0.51100000000E-03 0.  1.
    9900012    2    1    2    0    0  0.26169181840E+02  0.34567366599E+02  0.19733453087E+01  0.47787274160E+02  0.20000014206E+02 0.  0.
         12    1    1    2    0    0 -0.26169181840E+02 -0.34567366599E+02 -0.19733453087E+01  0.43400725840E+02  0.00000000000E+00 0. -1.
         11    1    3    3    0    0  0.22759836150E+02  0.21053467542E+02  0.39218710313E+01  0.31251235332E+02  0.51100000000E-03 0. -1.
        -11    1    3    3    0    0  0.51811803484E+01  0.44870586236E+01 -0.25602345811E+01  0.73166335337E+01  0.51100000000E-03 0.  1.
        -12    1    3    3    0    0 -0.17718346587E+01  0.90268404331E+01  0.61170885856E+00  0.92194052948E+01  0.00000000000E+00 0.  1.
</event>
<event>
 7    1  0.2459936E-009  0.4778727E+02  0.7816164E-02  0.1312668E+00
        -11   -1    0    0    0    0  0.00000000000E+00  0.00000000000E+00  0.45593999997E+02  0.45594000000E+02  0.51100000000E-03 0. -1.
         11   -1    0    0    0    0 -0.00000000000E+00 -0.00000000000E+00 -0.45593999997E+02  0.45594000000E+02  0.51100000000E-03 0.  1.
    9900012    2    1    2    0    0 -0.17787603254E+02 -0.23074678073E+02 -0.32168057546E+02  0.47787268163E+02  0.19999986863E+02 0.  0.
         12    1    1    2    0    0  0.17787603254E+02  0.23074678073E+02  0.32168057546E+02  0.43400731837E+02  0.00000000000E+00 0. -1.
         11    1    3    3    0    0  0.13187274529E+01 -0.11210588793E+02 -0.83270510284E+01  0.14026978373E+02  0.51100000000E-03 0. -1.
        -11    1    3    3    0    0 -0.54206241815E+01 -0.80005036595E+01 -0.10304931709E+02  0.14127379202E+02  0.51100000000E-03 0.  1.
        -12    1    3    3    0    0 -0.13685706525E+02 -0.38635856202E+01 -0.13536074809E+02  0.19632910588E+02  0.00000000000E+00 0.  1.
</event>
<event>
 7    1  0.2459936E-009  0.4778727E+02  0.7816164E-02  0.1312668E+00
        -11   -1    0    0    0    0  0.00000000000E+00  0.00000000000E+00  0.45593999997E+02  0.45594000000E+02  0.51100000000E-03 0.  1.
         11   -1    0    0    0    0 -0.00000000000E+00 -0.00000000000E+00 -0.45593999997E+02  0.45594000000E+02  0.51100000000E-03 0. -1.
    9900012    2    1    2    0    0 -0.88312093947E+01 -0.36004698881E+02  0.22567559181E+02  0.47787270418E+02  0.19999997144E+02 0.  0.
         12    1    1    2    0    0  0.88312093947E+01  0.36004698881E+02 -0.22567559181E+02  0.43400729582E+02  0.00000000000E+00 0. -1.
         11    1    3    3    0    0 -0.80363650228E+01 -0.23544843612E+02  0.12117106734E+02  0.27672497165E+02  0.51100000000E-03 0. -1.
        -11    1    3    3    0    0 -0.59950729966E+01 -0.62983523055E+01  0.31814822968E+01  0.92591561097E+01  0.51100000000E-03 0.  1.
         12    1    3    3    0    0  0.52002286246E+01 -0.61615029628E+01  0.72689701504E+01  0.10855617143E+02  0.00000000000E+00 0. -1.
</event>
<event>
 7    1  0.2459936E-009  0.4778727E+02  0.7816164E-02  0.1312668E+00
        -11   -1    0    0    0    0  0.00000000000E+00  0.00000000000E+00  0.45593999997E+02  0.45594000000E+02  0.51100000000E-03 0.  1.
         11   -1    0    0    0    0 -0.00000000000E+00 -0.00000000000E+00 -0.45593999997E+02  0.45594000000E+02  0.51100000000E-03 0. -1.
    9900012    2    1    2    0    0  0.84741742290E+01  0.32361179499E+02  0.27650780697E+02  0.47787271428E+02  0.20000001749E+02 0.  0.
         12    1    1    2    0    0 -0.84741742290E+01 -0.32361179499E+02 -0.27650780697E+02  0.43400728572E+02  0.00000000000E+00 0. -1.
         11    1    3    3    0    0  0.97050502452E+00  0.10276382406E+02  0.16318308484E+01  0.10450300835E+02  0.51100000000E-03 0.  1.
        -11    1    3    3    0    0  0.48069540268E+01  0.22422921474E+02  0.25932518960E+02  0.34617766455E+02  0.51100000000E-03 0. -1.
         12    1    3    3    0    0  0.26967151776E+01 -0.33812438128E+00  0.86430888450E-01  0.27192041382E+01  0.00000000000E+00 0. -1.
</event>
<event>
 7    1  0.2459936E-009  0.4778727E+02  0.7816164E-02  0.1312668E+00
        -11   -1    0    0    0    0  0.00000000000E+00  0.00000000000E+00  0.45593999997E+02  0.45594000000E+02  0.51100000000E-03 0.  1.
         11   -1    0    0    0    0 -0.00000000000E+00 -0.00000000000E+00 -0.45593999997E+02  0.45594000000E+02  0.51100000000E-03 0. -1.
    9900012    2    1    2    0    0  0.91920113619E+01 -0.40889574229E+02  0.11277096466E+02  0.47787271224E+02  0.20000000821E+02 0.  0.
         12    1    1    2    0    0 -0.91920113619E+01  0.40889574229E+02 -0.11277096466E+02  0.43400728776E+02  0.00000000000E+00 0. -1.
         11    1    3    3    0    0 -0.15531908644E+01 -0.11168378444E+02  0.40783790226E+01  0.11990757051E+02  0.51100000000E-03 0. -1.
        -11    1    3    3    0    0  0.29048254012E+00 -0.21312097688E+02  0.68041264540E+01  0.22373779856E+02  0.51100000000E-03 0.  1.
         12    1    3    3    0    0  0.10454719686E+02 -0.84090980970E+01  0.39459098972E+00  0.13422734318E+02  0.00000000000E+00 0. -1.
</event>
<event>
 7    1  0.2459936E-009  0.4778727E+02  0.7816164E-02  0.1312668E+00
        -11   -1    0    0    0    0  0.00000000000E+00  0.00000000000E+00  0.45593999997E+02  0.45594000000E+02  0.51100000000E-03 0. -1.
         11   -1    0    0    0    0 -0.00000000000E+00 -0.00000000000E+00 -0.45593999997E+02  0.45594000000E+02  0.51100000000E-03 0.  1.
    9900012    2    1    2    0    0  0.48921342315E+01 -0.37370729311E+02 -0.21520196410E+02  0.47787271433E+02  0.20000001774E+02 0.  0.
         12    1    1    2    0    0 -0.48921342315E+01  0.37370729311E+02  0.21520196410E+02  0.43400728567E+02  0.00000000000E+00 0. -1.
         11    1    3    3    0    0  0.66794641330E+01 -0.49844147488E+01 -0.16229842794E+01  0.84908014771E+01  0.51100000000E-03 0. -1.
        -11    1    3    3    0    0  0.21612716526E+01 -0.12818872255E+02 -0.34980226948E+01  0.13462196852E+02  0.51100000000E-03 0.  1.
         12    1    3    3    0    0 -0.39486015541E+01 -0.19567442308E+02 -0.16399189436E+02  0.25834273105E+02  0.00000000000E+00 0. -1.
</event>
<event>
 7    1  0.2459936E-009  0.4778727E+02  0.7816164E-02  0.1312668E+00
        -11   -1    0    0    0    0  0.00000000000E+00  0.00000000000E+00  0.45593999997E+02  0.45594000000E+02  0.51100000000E-03 0.  1.
         11   -1    0    0    0    0 -0.00000000000E+00 -0.00000000000E+00 -0.45593999997E+02  0.45594000000E+02  0.51100000000E-03 0. -1.
    9900012    2    1    2    0    0 -0.90642065310E+01 -0.25994232994E+02  0.33552397420E+02  0.47787270034E+02  0.19999995393E+02 0.  0.
         12    1    1    2    0    0  0.90642065310E+01  0.25994232994E+02 -0.33552397420E+02  0.43400729966E+02  0.00000000000E+00 0. -1.
         11    1    3    3    0    0  0.30796999860E+01 -0.48832443493E+01  0.15179460066E+02  0.16240278185E+02  0.51100000000E-03 0. -1.
        -11    1    3    3    0    0 -0.34090218182E+01 -0.99115825447E+01  0.12133832357E+02  0.16034050837E+02  0.51100000000E-03 0.  1.
         12    1    3    3    0    0 -0.87348846989E+01 -0.11199406100E+02  0.62391049970E+01  0.15512941012E+02  0.00000000000E+00 0. -1.
</event>
<event>
 7    1  0.2477377E-009  0.4778727E+02  0.7816164E-02  0.1312668E+00
        -11   -1    0    0    0    0  0.00000000000E+00  0.00000000000E+00  0.45593999997E+02  0.45594000000E+02  0.51100000000E-03 0. -1.
         11   -1    0    0    0    0 -0.00000000000E+00 -0.00000000000E+00 -0.45593999997E+02  0.45594000000E+02  0.51100000000E-03 0.  1.
    9900012    2    1    2    0    0 -0.17193351572E+02  0.39834106870E+02 -0.11207726432E+01  0.47787267981E+02  0.19999986034E+02 0.  0.
         12    1    1    2    0    0  0.17193351572E+02 -0.39834106870E+02  0.11207726432E+01  0.43400732019E+02  0.00000000000E+00 0. -1.
         11    1    3    3    0    0 -0.30871583221E+01 -0.19550051803E+00 -0.13041503225E+01  0.33570188089E+01  0.51100000000E-03 0. -1.
        -11    1    3    3    0    0  0.90172092600E+00  0.10079381278E+02  0.36353721458E+01  0.10752811654E+02  0.51100000000E-03 0.  1.
        -12    1    3    3    0    0 -0.15007914176E+02  0.29950226111E+02 -0.34519944665E+01  0.33677437518E+02  0.00000000000E+00 0.  1.
</event>
<event>
 7    1  0.2459936E-009  0.4778726E+02  0.7816164E-02  0.1312668E+00
        -11   -1    0    0    0    0  0.00000000000E+00  0.00000000000E+00  0.45593999997E+02  0.45594000000E+02  0.51100000000E-03 0. -1.
         11   -1    0    0    0    0 -0.00000000000E+00 -0.00000000000E+00 -0.45593999997E+02  0.45594000000E+02  0.51100000000E-03 0.  1.
    9900012    2    1    2    0    0  0.21802394234E+02  0.34647708758E+02 -0.14415829552E+02  0.47787259705E+02  0.19999948299E+02 0.  0.
         12    1    1    2    0    0 -0.21802394234E+02 -0.34647708758E+02  0.14415829552E+02  0.43400740295E+02  0.00000000000E+00 0. -1.
         11    1    3    3    0    0  0.67625715468E+01  0.21363069906E+01 -0.23602480518E+01  0.74744198845E+01  0.51100000000E-03 0. -1.
        -11    1    3    3    0    0  0.88934592340E+01  0.13451398457E+02 -0.12305994958E+02  0.20284754121E+02  0.51100000000E-03 0.  1.
         12    1    3    3    0    0  0.61463634530E+01  0.19060003310E+02  0.25041345809E+00  0.20028085699E+02  0.00000000000E+00 0. -1.
</event>
<event>
 7    1  0.2459936E-009  0.4778727E+02  0.7816164E-02  0.1312668E+00
        -11   -1    0    0    0    0  0.00000000000E+00  0.00000000000E+00  0.45593999997E+02  0.45594000000E+02  0.51100000000E-03 0.  1.
         11   -1    0    0    0    0 -0.00000000000E+00 -0.00000000000E+00 -0.45593999997E+02  0.45594000000E+02  0.51100000000E-03 0. -1.
    9900012    2    1    2    0    0  0.24672310724E+02  0.29353979881E+02  0.20328416658E+02  0.47787267573E+02  0.19999984174E+02 0.  0.
         12    1    1    2    0    0 -0.24672310724E+02 -0.29353979881E+02 -0.20328416658E+02  0.43400732427E+02  0.00000000000E+00 0. -1.
         11    1    3    3    0    0  0.16540741265E+02  0.15644934192E+02  0.10937241669E+02  0.25258332151E+02  0.51100000000E-03 0. -1.
        -11    1    3    3    0    0  0.96577571569E+01  0.54854248417E+01  0.18355061171E+01  0.11257497145E+02  0.51100000000E-03 0.  1.
         12    1    3    3    0    0 -0.15261876982E+01  0.82236208478E+01  0.75556688721E+01  0.11271438278E+02  0.00000000000E+00 0. -1.
</event>
<event>
 7    1  0.2459936E-009  0.4778727E+02  0.7816164E-02  0.1312668E+00
        -11   -1    0    0    0    0  0.00000000000E+00  0.00000000000E+00  0.45593999997E+02  0.45594000000E+02  0.51100000000E-03 0.  1.
         11   -1    0    0    0    0 -0.00000000000E+00 -0.00000000000E+00 -0.45593999997E+02  0.45594000000E+02  0.51100000000E-03 0. -1.
    9900012    2    1    2    0    0 -0.38500715614E+02 -0.86887973476E+00  0.20014085365E+02  0.47787266506E+02  0.19999979308E+02 0.  0.
         12    1    1    2    0    0  0.38500715614E+02  0.86887973476E+00 -0.20014085365E+02  0.43400733494E+02  0.00000000000E+00 0. -1.
         11    1    3    3    0    0 -0.37786959499E+02  0.27730125988E+00  0.13431131644E+02  0.40103946210E+02  0.51100000000E-03 0. -1.
        -11    1    3    3    0    0 -0.21984514985E+01 -0.21551839269E+00  0.35929117332E+01  0.42176595586E+01  0.51100000000E-03 0.  1.
         12    1    3    3    0    0  0.14846953829E+01 -0.93066260195E+00  0.29900419874E+01  0.34656607371E+01  0.00000000000E+00 0. -1.
</event>
<event>
 7    1  0.2459936E-009  0.4778727E+02  0.7816164E-02  0.1312668E+00
        -11   -1    0    0    0    0  0.00000000000E+00  0.00000000000E+00  0.45593999997E+02  0.45594000000E+02  0.51100000000E-03 0.  1.
         11   -1    0    0    0    0 -0.00000000000E+00 -0.00000000000E+00 -0.45593999997E+02  0.45594000000E+02  0.51100000000E-03 0. -1.
    9900012    2    1    2    0    0  0.24146831266E+02  0.35384418892E+02  0.69639601847E+01  0.47787270720E+02  0.19999998522E+02 0.  0.
         12    1    1    2    0    0 -0.24146831266E+02 -0.35384418892E+02 -0.69639601847E+01  0.43400729280E+02  0.00000000000E+00 0. -1.
         11    1    3    3    0    0  0.93628624304E+01  0.19966264468E+02 -0.10965679411E+00  0.22052821465E+02  0.51100000000E-03 0. -1.
        -11    1    3    3    0    0 -0.82724019896E+00  0.64623779625E+01  0.34626596349E+01  0.73781208506E+01  0.51100000000E-03 0.  1.
        -12    1    3    3    0    0  0.15611209035E+02  0.89557764621E+01  0.36109573439E+01  0.18356328405E+02  0.00000000000E+00 0.  1.
</event>
<event>
 7    1  0.2459936E-009  0.4778727E+02  0.7816164E-02  0.1312668E+00
        -11   -1    0    0    0    0  0.00000000000E+00  0.00000000000E+00  0.45593999997E+02  0.45594000000E+02  0.51100000000E-03 0.  1.
         11   -1    0    0    0    0 -0.00000000000E+00 -0.00000000000E+00 -0.45593999997E+02  0.45594000000E+02  0.51100000000E-03 0. -1.
    9900012    2    1    2    0    0 -0.42461231478E+02 -0.80437923552E+01  0.39955427807E+01  0.47787272631E+02  0.20000007232E+02 0.  0.
         12    1    1    2    0    0  0.42461231478E+02  0.80437923552E+01 -0.39955427807E+01  0.43400727369E+02  0.00000000000E+00 0. -1.
         11    1    3    3    0    0 -0.18071214199E+02 -0.59701253677E+01  0.41742265526E+00  0.19036423547E+02  0.51100000000E-03 0. -1.
        -11    1    3    3    0    0 -0.18294199309E+02 -0.14763589503E+01  0.91165367319E+01  0.20493135591E+02  0.51100000000E-03 0.  1.
        -12    1    3    3    0    0 -0.60958179697E+01 -0.59730803718E+00 -0.55384166065E+01  0.82577134921E+01  0.00000000000E+00 0.  1.
</event>
<event>
 7    1  0.2459936E-009  0.4778727E+02  0.7816164E-02  0.1312668E+00
        -11   -1    0    0    0    0  0.00000000000E+00  0.00000000000E+00  0.45593999997E+02  0.45594000000E+02  0.51100000000E-03 0. -1.
         11   -1    0    0    0    0 -0.00000000000E+00 -0.00000000000E+00 -0.45593999997E+02  0.45594000000E+02  0.51100000000E-03 0.  1.
    9900012    2    1    2    0    0  0.34940947823E+02 -0.11491381569E+02 -0.23036964535E+02  0.47787269359E+02  0.19999992317E+02 0.  0.
         12    1    1    2    0    0 -0.34940947823E+02  0.11491381569E+02  0.23036964535E+02  0.43400730641E+02  0.00000000000E+00 0. -1.
         11    1    3    3    0    0  0.72386476079E+01 -0.10640624837E+02 -0.11121951707E+02  0.17009371715E+02  0.51100000000E-03 0. -1.
        -11    1    3    3    0    0  0.91858587326E+01 -0.25561615904E+01 -0.59972053459E+01  0.11264121579E+02  0.51100000000E-03 0.  1.
         12    1    3    3    0    0  0.18516441483E+02  0.17054048579E+01 -0.59178074824E+01  0.19513776065E+02  0.00000000000E+00 0. -1.
</event>
<event>
 7    1  0.2459936E-009  0.4778727E+02  0.7816164E-02  0.1312668E+00
        -11   -1    0    0    0    0  0.00000000000E+00  0.00000000000E+00  0.45593999997E+02  0.45594000000E+02  0.51100000000E-03 0.  1.
         11   -1    0    0    0    0 -0.00000000000E+00 -0.00000000000E+00 -0.45593999997E+02  0.45594000000E+02  0.51100000000E-03 0. -1.
    9900012    2    1    2    0    0 -0.34696351126E+02  0.19131249456E+02  0.17713891020E+02  0.47787269334E+02  0.19999992203E+02 0.  0.
         12    1    1    2    0    0  0.34696351126E+02 -0.19131249456E+02 -0.17713891020E+02  0.43400730666E+02  0.00000000000E+00 0. -1.
         11    1    3    3    0    0 -0.86771163348E+01  0.25459273017E+00  0.30238770627E+00  0.86861155836E+01  0.51100000000E-03 0. -1.
        -11    1    3    3    0    0  0.10982484552E+01  0.17850495598E+01  0.36683948087E+01  0.42248872570E+01  0.51100000000E-03 0.  1.
        -12    1    3    3    0    0 -0.27117483247E+02  0.17091607166E+02  0.13743108505E+02  0.34876266494E+02  0.00000000000E+00 0.  1.
</event>
<event>
 7    1  0.2459936E-009  0.4778722E+02  0.7816164E-02  0.1312668E+00
        -11   -1    0    0    0    0  0.00000000000E+00  0.00000000000E+00  0.45593999997E+02  0.45594000000E+02  0.51100000000E-03 0.  1.
         11   -1    0    0    0    0 -0.00000000000E+00 -0.00000000000E+00 -0.45593999997E+02  0.45594000000E+02  0.51100000000E-03 0. -1.
    9900012    2    1    2    0    0 -0.19229202460E+01  0.70149854991E+01  0.42786911016E+02  0.47787223530E+02  0.19999783364E+02 0.  0.
         12    1    1    2    0    0  0.19229202460E+01 -0.70149854991E+01 -0.42786911016E+02  0.43400776470E+02  0.00000000000E+00 0. -1.
         11    1    3    3    0    0 -0.22439457506E+01  0.73143039770E+01  0.13218904478E+02  0.15273302559E+02  0.51100000000E-03 0. -1.
        -11    1    3    3    0    0 -0.38165230880E+01  0.51788858343E+01  0.17272865707E+02  0.18431999267E+02  0.51100000000E-03 0.  1.
         12    1    3    3    0    0  0.41375485925E+01 -0.54782043122E+01  0.12295140831E+02  0.14081921705E+02  0.00000000000E+00 0. -1.
</event>
<event>
 7    1  0.2459936E-009  0.4778727E+02  0.7816164E-02  0.1312668E+00
        -11   -1    0    0    0    0  0.00000000000E+00  0.00000000000E+00  0.45593999997E+02  0.45594000000E+02  0.51100000000E-03 0. -1.
         11   -1    0    0    0    0 -0.00000000000E+00 -0.00000000000E+00 -0.45593999997E+02  0.45594000000E+02  0.51100000000E-03 0.  1.
    9900012    2    1    2    0    0 -0.18540548765E+02 -0.11617993120E+02 -0.37481916485E+02  0.47787265259E+02  0.19999973624E+02 0.  0.
         12    1    1    2    0    0  0.18540548765E+02  0.11617993120E+02  0.37481916485E+02  0.43400734741E+02  0.00000000000E+00 0. -1.
         11    1    3    3    0    0 -0.16020165539E+02 -0.67895569997E+01 -0.21630387120E+02  0.27759997035E+02  0.51100000000E-03 0. -1.
        -11    1    3    3    0    0 -0.66700032742E+01 -0.26302124031E+01 -0.11885560814E+02  0.13880688639E+02  0.51100000000E-03 0.  1.
         12    1    3    3    0    0  0.41496200484E+01 -0.21982237171E+01 -0.39659685503E+01  0.61465795853E+01  0.00000000000E+00 0. -1.
</event>
<event>
 7    1  0.2459936E-009  0.4778727E+02  0.7816164E-02  0.1312668E+00
        -11   -1    0    0    0    0  0.00000000000E+00  0.00000000000E+00  0.45593999997E+02  0.45594000000E+02  0.51100000000E-03 0.  1.
         11   -1    0    0    0    0 -0.00000000000E+00 -0.00000000000E+00 -0.45593999997E+02  0.45594000000E+02  0.51100000000E-03 0. -1.
    9900012    2    1    2    0    0  0.24076568571E+02 -0.32989956713E+02  0.14683486896E+02  0.47787272062E+02  0.20000004641E+02 0.  0.
         12    1    1    2    0    0 -0.24076568571E+02  0.32989956713E+02 -0.14683486896E+02  0.43400727938E+02  0.00000000000E+00 0. -1.
         11    1    3    3    0    0  0.13859595459E+02 -0.17904978297E+02  0.13076958349E+02  0.26147341624E+02  0.51100000000E-03 0. -1.
        -11    1    3    3    0    0  0.11968231838E+02 -0.84983805952E+01  0.19944150347E+01  0.14813464742E+02  0.51100000000E-03 0.  1.
         12    1    3    3    0    0 -0.17512587253E+01 -0.65865978212E+01 -0.38788648768E+00  0.68264656968E+01  0.00000000000E+00 0. -1.
</event>
<event>
 7    1  0.2459936E-009  0.4778727E+02  0.7816164E-02  0.1312668E+00
        -11   -1    0    0    0    0  0.00000000000E+00  0.00000000000E+00  0.45593999997E+02  0.45594000000E+02  0.51100000000E-03 0.  1.
         11   -1    0    0    0    0 -0.00000000000E+00 -0.00000000000E+00 -0.45593999997E+02  0.45594000000E+02  0.51100000000E-03 0. -1.
    9900012    2    1    2    0    0  0.16187009073E+02 -0.33078149330E+02  0.22966067396E+02  0.47787268700E+02  0.19999989309E+02 0.  0.
         12    1    1    2    0    0 -0.16187009073E+02  0.33078149330E+02 -0.22966067396E+02  0.43400731300E+02  0.00000000000E+00 0. -1.
         11    1    3    3    0    0  0.72671381136E+01 -0.91429508018E+01  0.12228418584E+02  0.16909732909E+02  0.51100000000E-03 0.  1.
        -11    1    3    3    0    0  0.49825173146E+01 -0.20551874272E+01 -0.13723859832E+01  0.55617189518E+01  0.51100000000E-03 0. -1.
        -12    1    3    3    0    0  0.39373536447E+01 -0.21880011101E+02  0.12110034795E+02  0.25315816839E+02  0.00000000000E+00 0.  1.
</event>
<event>
 7    1  0.2459936E-009  0.4778727E+02  0.7816164E-02  0.1312668E+00
        -11   -1    0    0    0    0  0.00000000000E+00  0.00000000000E+00  0.45593999997E+02  0.45594000000E+02  0.51100000000E-03 0. -1.
         11   -1    0    0    0    0 -0.00000000000E+00 -0.00000000000E+00 -0.45593999997E+02  0.45594000000E+02  0.51100000000E-03 0.  1.
    9900012    2    1    2    0    0 -0.16222475744E+02 -0.31819376812E+02 -0.24657283312E+02  0.47787273275E+02  0.20000010170E+02 0.  0.
         12    1    1    2    0    0  0.16222475744E+02  0.31819376812E+02  0.24657283312E+02  0.43400726725E+02  0.00000000000E+00 0. -1.
         11    1    3    3    0    0 -0.79353273353E+01 -0.13128793994E+02 -0.10584081723E+02  0.18637527675E+02  0.51100000000E-03 0. -1.
        -11    1    3    3    0    0 -0.10524224689E+02 -0.20063886210E+02 -0.11253895324E+02  0.25297608491E+02  0.51100000000E-03 0.  1.
         12    1    3    3    0    0  0.22370762803E+01  0.13733033924E+01 -0.28193062640E+01  0.38521371084E+01  0.00000000000E+00 0. -1.
</event>
<event>
 7    1  0.2459936E-009  0.4778727E+02  0.7816164E-02  0.1312668E+00
        -11   -1    0    0    0    0  0.00000000000E+00  0.00000000000E+00  0.45593999997E+02  0.45594000000E+02  0.51100000000E-03 0. -1.
         11   -1    0    0    0    0 -0.00000000000E+00 -0.00000000000E+00 -0.45593999997E+02  0.45594000000E+02  0.51100000000E-03 0.  1.
    9900012    2    1    2    0    0 -0.32706761980E+02 -0.20167934559E+02 -0.20177843420E+02  0.47787271566E+02  0.20000002376E+02 0.  0.
         12    1    1    2    0    0  0.32706761980E+02  0.20167934559E+02  0.20177843420E+02  0.43400728434E+02  0.00000000000E+00 0. -1.
         11    1    3    3    0    0 -0.10084460933E+02 -0.34889965178E+01 -0.10749393763E+02  0.15146580986E+02  0.51100000000E-03 0. -1.
        -11    1    3    3    0    0 -0.13831040899E+02 -0.18027977460E+01 -0.48156423580E+01  0.14755954176E+02  0.51100000000E-03 0.  1.
        -12    1    3    3    0    0 -0.87912601469E+01 -0.14876140295E+02 -0.46128072986E+01  0.17884736403E+02  0.00000000000E+00 0.  1.
</event>
<event>
 7    1  0.2459936E-009  0.4778728E+02  0.7816164E-02  0.1312668E+00
        -11   -1    0    0    0    0  0.00000000000E+00  0.00000000000E+00  0.45593999997E+02  0.45594000000E+02  0.51100000000E-03 0. -1.
         11   -1    0    0    0    0 -0.00000000000E+00 -0.00000000000E+00 -0.45593999997E+02  0.45594000000E+02  0.51100000000E-03 0.  1.
    9900012    2    1    2    0    0  0.28446612074E+02  0.11300959580E+02 -0.30768512569E+02  0.47787276600E+02  0.20000025331E+02 0.  0.
         12    1    1    2    0    0 -0.28446612074E+02 -0.11300959580E+02  0.30768512569E+02  0.43400723400E+02  0.00000000000E+00 0. -1.
         11    1    3    3    0    0  0.58874038059E+01 -0.75928041441E+00 -0.59482762960E+00  0.59658905866E+01  0.51100000000E-03 0. -1.
        -11    1    3    3    0    0  0.12689309186E+02  0.35711297294E+01 -0.62585994779E+01  0.14592518729E+02  0.51100000000E-03 0.  1.
         12    1    3    3    0    0  0.98698990820E+01  0.84891102650E+01 -0.23915085462E+02  0.27228867285E+02  0.00000000000E+00 0. -1.
</event>
<event>
 7    1  0.2459936E-009  0.4778727E+02  0.7816164E-02  0.1312668E+00
        -11   -1    0    0    0    0  0.00000000000E+00  0.00000000000E+00  0.45593999997E+02  0.45594000000E+02  0.51100000000E-03 0.  1.
         11   -1    0    0    0    0 -0.00000000000E+00 -0.00000000000E+00 -0.45593999997E+02  0.45594000000E+02  0.51100000000E-03 0. -1.
    9900012    2    1    2    0    0  0.31526223770E+02  0.21010390770E+02  0.21172710038E+02  0.47787274708E+02  0.20000016705E+02 0.  0.
         12    1    1    2    0    0 -0.31526223770E+02 -0.21010390770E+02 -0.21172710038E+02  0.43400725292E+02  0.00000000000E+00 0. -1.
         11    1    3    3    0    0  0.16757586682E+01  0.55712696690E+01  0.36088881978E+01  0.68462608134E+01  0.51100000000E-03 0. -1.
        -11    1    3    3    0    0  0.72066753552E+01 -0.19602158342E+01  0.10292212942E+00  0.74692174301E+01  0.51100000000E-03 0.  1.
         12    1    3    3    0    0  0.22643789746E+02  0.17399336935E+02  0.17460899711E+02  0.33471796465E+02  0.00000000000E+00 0. -1.
</event>
<event>
 7    1  0.2459936E-009  0.4778727E+02  0.7816164E-02  0.1312668E+00
        -11   -1    0    0    0    0  0.00000000000E+00  0.00000000000E+00  0.45593999997E+02  0.45594000000E+02  0.51100000000E-03 0.  1.
         11   -1    0    0    0    0 -0.00000000000E+00 -0.00000000000E+00 -0.45593999997E+02  0.45594000000E+02  0.51100000000E-03 0. -1.
    9900012    2    1    2    0    0  0.14378165693E+02 -0.11995229966E+02  0.39153621520E+02  0.47787271104E+02  0.20000000270E+02 0.  0.
         12    1    1    2    0    0 -0.14378165693E+02  0.11995229966E+02 -0.39153621520E+02  0.43400728896E+02  0.00000000000E+00 0. -1.
         11    1    3    3    0    0 -0.21751405935E+01 -0.30421482022E+01  0.28855408649E+01  0.47235842990E+01  0.51100000000E-03 0. -1.
        -11    1    3    3    0    0  0.20716207562E+01  0.16851210805E+01  0.14931966314E+02  0.15168878135E+02  0.51100000000E-03 0.  1.
        -12    1    3    3    0    0  0.14481685531E+02 -0.10638202844E+02  0.21336114341E+02  0.27894808670E+02  0.00000000000E+00 0.  1.
</event>
<event>
 7    1  0.2459936E-009  0.4778727E+02  0.7816164E-02  0.1312668E+00
        -11   -1    0    0    0    0  0.00000000000E+00  0.00000000000E+00  0.45593999997E+02  0.45594000000E+02  0.51100000000E-03 0.  1.
         11   -1    0    0    0    0 -0.00000000000E+00 -0.00000000000E+00 -0.45593999997E+02  0.45594000000E+02  0.51100000000E-03 0. -1.
    9900012    2    1    2    0    0 -0.61608866498E+01  0.36057319375E+02  0.23356717167E+02  0.47787273720E+02  0.20000012199E+02 0.  0.
         12    1    1    2    0    0  0.61608866498E+01 -0.36057319375E+02 -0.23356717167E+02  0.43400726280E+02  0.00000000000E+00 0. -1.
         11    1    3    3    0    0 -0.51289388036E+01  0.20183899970E+02  0.44372011189E+01  0.21292829433E+02  0.51100000000E-03 0. -1.
        -11    1    3    3    0    0 -0.78803821747E+00  0.35481040819E+01 -0.31528176930E+00  0.36482118446E+01  0.51100000000E-03 0.  1.
        -12    1    3    3    0    0 -0.24390962871E+00  0.12325315323E+02  0.19234797818E+02  0.22846232442E+02  0.00000000000E+00 0.  1.
</event>
<event>
 7    1  0.2459936E-009  0.4778727E+02  0.7816164E-02  0.1312668E+00
        -11   -1    0    0    0    0  0.00000000000E+00  0.00000000000E+00  0.45593999997E+02  0.45594000000E+02  0.51100000000E-03 0. -1.
         11   -1    0    0    0    0 -0.00000000000E+00 -0.00000000000E+00 -0.45593999997E+02  0.45594000000E+02  0.51100000000E-03 0.  1.
    9900012    2    1    2    0    0  0.11888653740E+02  0.16097994088E+02 -0.38511526170E+02  0.47787272479E+02  0.20000006539E+02 0.  0.
         12    1    1    2    0    0 -0.11888653740E+02 -0.16097994088E+02  0.38511526170E+02  0.43400727521E+02  0.00000000000E+00 0. -1.
         11    1    3    3    0    0 -0.81595414362E+00 -0.28072737851E+01 -0.12975978492E+02  0.13301224957E+02  0.51100000000E-03 0. -1.
        -11    1    3    3    0    0  0.10679465490E+02  0.14775025175E+02 -0.22569647062E+02  0.29012778578E+02  0.51100000000E-03 0.  1.
         12    1    3    3    0    0  0.20251423944E+01  0.41302426978E+01 -0.29659006166E+01  0.54732689435E+01  0.00000000000E+00 0. -1.
</event>
<event>
 7    1  0.2459936E-009  0.4778727E+02  0.7816164E-02  0.1312668E+00
        -11   -1    0    0    0    0  0.00000000000E+00  0.00000000000E+00  0.45593999997E+02  0.45594000000E+02  0.51100000000E-03 0.  1.
         11   -1    0    0    0    0 -0.00000000000E+00 -0.00000000000E+00 -0.45593999997E+02  0.45594000000E+02  0.51100000000E-03 0. -1.
    9900012    2    1    2    0    0 -0.38069804427E+01  0.34971523712E+02  0.25418941797E+02  0.47787272208E+02  0.20000005306E+02 0.  0.
         12    1    1    2    0    0  0.38069804427E+01 -0.34971523712E+02 -0.25418941797E+02  0.43400727792E+02  0.00000000000E+00 0. -1.
         11    1    3    3    0    0  0.31610894530E+01  0.43624996009E+01 -0.67128078026E+00  0.54290429585E+01  0.51100000000E-03 0. -1.
        -11    1    3    3    0    0 -0.75661246300E-01  0.17274059767E+02  0.19244009405E+02  0.25859829151E+02  0.51100000000E-03 0.  1.
        -12    1    3    3    0    0 -0.68924086494E+01  0.13334964344E+02  0.68462131718E+01  0.16498400099E+02  0.00000000000E+00 0.  1.
</event>
<event>
 7    1  0.2459936E-009  0.4778728E+02  0.7816164E-02  0.1312668E+00
        -11   -1    0    0    0    0  0.00000000000E+00  0.00000000000E+00  0.45593999997E+02  0.45594000000E+02  0.51100000000E-03 0.  1.
         11   -1    0    0    0    0 -0.00000000000E+00 -0.00000000000E+00 -0.45593999997E+02  0.45594000000E+02  0.51100000000E-03 0. -1.
    9900012    2    1    2    0    0 -0.37015580962E+02  0.22095315095E+02  0.50265823968E+01  0.47787277498E+02  0.20000029423E+02 0.  0.
         12    1    1    2    0    0  0.37015580962E+02 -0.22095315095E+02 -0.50265823968E+01  0.43400722502E+02  0.00000000000E+00 0. -1.
         11    1    3    3    0    0 -0.34090525211E+01  0.41414740632E+01 -0.34427650022E+01  0.63738589276E+01  0.51100000000E-03 0. -1.
        -11    1    3    3    0    0 -0.20872366423E+01 -0.75572645754E+00  0.38841963807E+01  0.44737748116E+01  0.51100000000E-03 0.  1.
        -12    1    3    3    0    0 -0.31519291799E+02  0.18709567490E+02  0.45851510183E+01  0.36939643759E+02  0.00000000000E+00 0.  1.
</event>
<event>
 7    1  0.2459936E-009  0.4778727E+02  0.7816164E-02  0.1312668E+00
        -11   -1    0    0    0    0  0.00000000000E+00  0.00000000000E+00  0.45593999997E+02  0.45594000000E+02  0.51100000000E-03 0.  1.
         11   -1    0    0    0    0 -0.00000000000E+00 -0.00000000000E+00 -0.45593999997E+02  0.45594000000E+02  0.51100000000E-03 0. -1.
    9900012    2    1    2    0    0  0.16227474481E+01 -0.17585153336E+02  0.39645331972E+02  0.47787271039E+02  0.19999999976E+02 0.  0.
         12    1    1    2    0    0 -0.16227474481E+01  0.17585153336E+02 -0.39645331972E+02  0.43400728961E+02  0.00000000000E+00 0. -1.
         11    1    3    3    0    0  0.89788038209E+01 -0.10882828151E+02  0.29132765136E+02  0.32369319909E+02  0.51100000000E-03 0. -1.
        -11    1    3    3    0    0 -0.30078342049E+01 -0.59276333660E+01  0.48093256432E+01  0.82044815394E+01  0.51100000000E-03 0.  1.
        -12    1    3    3    0    0 -0.43482221679E+01 -0.77469181934E+00  0.57032411929E+01  0.72134695910E+01  0.00000000000E+00 0.  1.
</event>
<event>
 7    1  0.2459936E-009  0.4778727E+02  0.7816164E-02  0.1312668E+00
        -11   -1    0    0    0    0  0.00000000000E+00  0.00000000000E+00  0.45593999997E+02  0.45594000000E+02  0.51100000000E-03 0. -1.
         11   -1    0    0    0    0 -0.00000000000E+00 -0.00000000000E+00 -0.45593999997E+02  0.45594000000E+02  0.51100000000E-03 0.  1.
    9900012    2    1    2    0    0 -0.39217322980E+02  0.55322176221E+01 -0.17748787698E+02  0.47787270533E+02  0.19999997666E+02 0.  0.
         12    1    1    2    0    0  0.39217322980E+02 -0.55322176221E+01  0.17748787698E+02  0.43400729467E+02  0.00000000000E+00 0. -1.
         11    1    3    3    0    0  0.69905082567E+00 -0.18747924105E+01 -0.15416681327E+01  0.25259175623E+01  0.51100000000E-03 0. -1.
        -11    1    3    3    0    0 -0.83248267378E+01  0.42209585949E-01 -0.85454394882E+01  0.11930174272E+02  0.51100000000E-03 0.  1.
        -12    1    3    3    0    0 -0.31591547068E+02  0.73648004466E+01 -0.76616800773E+01  0.33331178698E+02  0.00000000000E+00 0.  1.
</event>
<event>
 7    1  0.2459936E-009  0.4778727E+02  0.7816164E-02  0.1312668E+00
        -11   -1    0    0    0    0  0.00000000000E+00  0.00000000000E+00  0.45593999997E+02  0.45594000000E+02  0.51100000000E-03 0.  1.
         11   -1    0    0    0    0 -0.00000000000E+00 -0.00000000000E+00 -0.45593999997E+02  0.45594000000E+02  0.51100000000E-03 0. -1.
    9900012    2    1    2    0    0  0.41921075411E+02  0.75693870915E+01  0.83036979461E+01  0.47787267470E+02  0.19999983705E+02 0.  0.
         12    1    1    2    0    0 -0.41921075411E+02 -0.75693870915E+01 -0.83036979461E+01  0.43400732530E+02  0.00000000000E+00 0. -1.
         11    1    3    3    0    0  0.11895819102E+02  0.49849107755E+01 -0.16265804737E+00  0.12899081574E+02  0.51100000000E-03 0. -1.
        -11    1    3    3    0    0  0.25362115480E+02 -0.16414036749E+01  0.14404078345E+01  0.25455959669E+02  0.51100000000E-03 0.  1.
         12    1    3    3    0    0  0.46631408281E+01  0.42258799909E+01  0.70259481590E+01  0.94322262278E+01  0.00000000000E+00 0. -1.
</event>
<event>
 7    1  0.2459936E-009  0.4778727E+02  0.7816164E-02  0.1312668E+00
        -11   -1    0    0    0    0  0.00000000000E+00  0.00000000000E+00  0.45593999997E+02  0.45594000000E+02  0.51100000000E-03 0.  1.
         11   -1    0    0    0    0 -0.00000000000E+00 -0.00000000000E+00 -0.45593999997E+02  0.45594000000E+02  0.51100000000E-03 0. -1.
    9900012    2    1    2    0    0  0.16487479920E+02 -0.28846604988E+01  0.40043293291E+02  0.47787267312E+02  0.19999982981E+02 0.  0.
         12    1    1    2    0    0 -0.16487479920E+02  0.28846604988E+01 -0.40043293291E+02  0.43400732688E+02  0.00000000000E+00 0. -1.
         11    1    3    3    0    0  0.93602810485E+00  0.52254553283E+01  0.71170271264E+01  0.88788291672E+01  0.51100000000E-03 0. -1.
        -11    1    3    3    0    0  0.97441902567E+01  0.10044189585E+01  0.17809668805E+02  0.20325904763E+02  0.51100000000E-03 0.  1.
        -12    1    3    3    0    0  0.58072615589E+01 -0.91145347856E+01  0.15116597359E+02  0.18582533382E+02  0.00000000000E+00 0.  1.
</event>
<event>
 7    1  0.2459936E-009  0.4778722E+02  0.7816164E-02  0.1312668E+00
        -11   -1    0    0    0    0  0.00000000000E+00  0.00000000000E+00  0.45593999997E+02  0.45594000000E+02  0.51100000000E-03 0. -1.
         11   -1    0    0    0    0 -0.00000000000E+00 -0.00000000000E+00 -0.45593999997E+02  0.45594000000E+02  0.51100000000E-03 0.  1.
    9900012    2    1    2    0    0  0.67316959972E+00  0.27552573574E+02 -0.33526554250E+02  0.47787224572E+02  0.19999788114E+02 0.  0.
         12    1    1    2    0    0 -0.67316959972E+00 -0.27552573574E+02  0.33526554250E+02  0.43400775428E+02  0.00000000000E+00 0. -1.
         11    1    3    3    0    0 -0.15908105242E+00 -0.11105092945E+01 -0.20767126680E+01  0.23603545159E+01  0.51100000000E-03 0. -1.
        -11    1    3    3    0    0  0.43380128438E+01  0.15127327778E+02 -0.26057180841E+02  0.30440615545E+02  0.51100000000E-03 0.  1.
         12    1    3    3    0    0 -0.35057621917E+01  0.13535755090E+02 -0.53926607408E+01  0.14986254511E+02  0.00000000000E+00 0. -1.
</event>
<event>
 7    1  0.2459936E-009  0.4778727E+02  0.7816164E-02  0.1312668E+00
        -11   -1    0    0    0    0  0.00000000000E+00  0.00000000000E+00  0.45593999997E+02  0.45594000000E+02  0.51100000000E-03 0.  1.
         11   -1    0    0    0    0 -0.00000000000E+00 -0.00000000000E+00 -0.45593999997E+02  0.45594000000E+02  0.51100000000E-03 0. -1.
    9900012    2    1    2    0    0  0.47126109570E+00 -0.28405528020E+02  0.32810469426E+02  0.47787274049E+02  0.20000013701E+02 0.  0.
         12    1    1    2    0    0 -0.47126109570E+00  0.28405528020E+02 -0.32810469426E+02  0.43400725951E+02  0.00000000000E+00 0. -1.
         11    1    3    3    0    0  0.18074111992E+01  0.11232288671E+01  0.21312290013E+01  0.30117296771E+01  0.51100000000E-03 0. -1.
        -11    1    3    3    0    0 -0.16740056819E+01 -0.51321875488E+01  0.14571109387E+02  0.15538946975E+02  0.51100000000E-03 0.  1.
         12    1    3    3    0    0  0.33785557844E+00 -0.24396569338E+02  0.16108131037E+02  0.29236597397E+02  0.00000000000E+00 0. -1.
</event>
<event>
 7    1  0.2459936E-009  0.4778727E+02  0.7816164E-02  0.1312668E+00
        -11   -1    0    0    0    0  0.00000000000E+00  0.00000000000E+00  0.45593999997E+02  0.45594000000E+02  0.51100000000E-03 0.  1.
         11   -1    0    0    0    0 -0.00000000000E+00 -0.00000000000E+00 -0.45593999997E+02  0.45594000000E+02  0.51100000000E-03 0. -1.
    9900012    2    1    2    0    0 -0.17188979902E+02 -0.13412223066E+02  0.37526986194E+02  0.47787269010E+02  0.19999990726E+02 0.  0.
         12    1    1    2    0    0  0.17188979902E+02  0.13412223066E+02 -0.37526986194E+02  0.43400730990E+02  0.00000000000E+00 0. -1.
         11    1    3    3    0    0 -0.14076184495E+01 -0.39962363511E+00  0.72482589551E+01  0.73944808399E+01  0.51100000000E-03 0.  1.
        -11    1    3    3    0    0 -0.11494401019E+02 -0.15789530509E+02  0.16063245660E+02  0.25287514506E+02  0.51100000000E-03 0. -1.
         12    1    3    3    0    0 -0.42869604335E+01  0.27769310780E+01  0.14215481579E+02  0.15105273665E+02  0.00000000000E+00 0. -1.
</event>
<event>
 7    1  0.2459936E-009  0.4778727E+02  0.7816164E-02  0.1312668E+00
        -11   -1    0    0    0    0  0.00000000000E+00  0.00000000000E+00  0.45593999997E+02  0.45594000000E+02  0.51100000000E-03 0.  1.
         11   -1    0    0    0    0 -0.00000000000E+00 -0.00000000000E+00 -0.45593999997E+02  0.45594000000E+02  0.51100000000E-03 0. -1.
    9900012    2    1    2    0    0 -0.37711862778E+02  0.20727226488E+02  0.56410103868E+01  0.47787268321E+02  0.19999987581E+02 0.  0.
         12    1    1    2    0    0  0.37711862778E+02 -0.20727226488E+02 -0.56410103868E+01  0.43400731679E+02  0.00000000000E+00 0. -1.
         11    1    3    3    0    0 -0.51397594499E+01 -0.39273181308E+01 -0.13784679273E+00  0.64699271172E+01  0.51100000000E-03 0. -1.
        -11    1    3    3    0    0 -0.59191146964E+01  0.37596042576E+01  0.37846541432E+00  0.70223770401E+01  0.51100000000E-03 0.  1.
         12    1    3    3    0    0 -0.26652988632E+02  0.20894940362E+02  0.54003917652E+01  0.34294964163E+02  0.00000000000E+00 0. -1.
</event>
<event>
 7    1  0.2459936E-009  0.4778727E+02  0.7816164E-02  0.1312668E+00
        -11   -1    0    0    0    0  0.00000000000E+00  0.00000000000E+00  0.45593999997E+02  0.45594000000E+02  0.51100000000E-03 0.  1.
         11   -1    0    0    0    0 -0.00000000000E+00 -0.00000000000E+00 -0.45593999997E+02  0.45594000000E+02  0.51100000000E-03 0. -1.
    9900012    2    1    2    0    0 -0.41598207946E+02  0.39953313576E+01 -0.11715358264E+02  0.47787271939E+02  0.20000004080E+02 0.  0.
         12    1    1    2    0    0  0.41598207946E+02 -0.39953313576E+01  0.11715358264E+02  0.43400728061E+02  0.00000000000E+00 0. -1.
         11    1    3    3    0    0 -0.17799659953E+02 -0.38932280875E+01 -0.54458026274E+01  0.19016884232E+02  0.51100000000E-03 0. -1.
        -11    1    3    3    0    0 -0.22468172629E+02  0.39632499785E+01 -0.81394426782E+01  0.24223473307E+02  0.51100000000E-03 0.  1.
        -12    1    3    3    0    0 -0.13303753637E+01  0.39253094666E+01  0.18698870411E+01  0.45469144003E+01  0.00000000000E+00 0.  1.
</event>
<event>
 7    1  0.2459936E-009  0.4778726E+02  0.7816164E-02  0.1312668E+00
        -11   -1    0    0    0    0  0.00000000000E+00  0.00000000000E+00  0.45593999997E+02  0.45594000000E+02  0.51100000000E-03 0.  1.
         11   -1    0    0    0    0 -0.00000000000E+00 -0.00000000000E+00 -0.45593999997E+02  0.45594000000E+02  0.51100000000E-03 0. -1.
    9900012    2    1    2    0    0  0.41478781267E+01 -0.43588096463E+01  0.42981620758E+02  0.47787264552E+02  0.19999970396E+02 0.  0.
         12    1    1    2    0    0 -0.41478781267E+01  0.43588096463E+01 -0.42981620758E+02  0.43400735448E+02  0.00000000000E+00 0. -1.
         11    1    3    3    0    0  0.83239297280E+01 -0.27667941840E+01  0.65496388659E+01  0.10947178893E+02  0.51100000000E-03 0. -1.
        -11    1    3    3    0    0  0.11844015304E+00  0.62214002142E+00  0.46509649244E+01  0.46938855189E+01  0.51100000000E-03 0.  1.
        -12    1    3    3    0    0 -0.42944917544E+01 -0.22141554838E+01  0.31781016968E+02  0.32146200140E+02  0.00000000000E+00 0.  1.
</event>
<event>
 7    1  0.2459936E-009  0.4778724E+02  0.7816164E-02  0.1312668E+00
        -11   -1    0    0    0    0  0.00000000000E+00  0.00000000000E+00  0.45593999997E+02  0.45594000000E+02  0.51100000000E-03 0.  1.
         11   -1    0    0    0    0 -0.00000000000E+00 -0.00000000000E+00 -0.45593999997E+02  0.45594000000E+02  0.51100000000E-03 0. -1.
    9900012    2    1    2    0    0 -0.11624343417E+02 -0.18109510120E+02  0.37690136809E+02  0.47787238148E+02  0.19999850011E+02 0.  0.
         12    1    1    2    0    0  0.11624343417E+02  0.18109510120E+02 -0.37690136809E+02  0.43400761852E+02  0.00000000000E+00 0. -1.
         11    1    3    3    0    0  0.12387820995E+01 -0.30093407171E+00  0.26513341600E+00  0.13020900103E+01  0.51100000000E-03 0. -1.
        -11    1    3    3    0    0 -0.14485863209E+02 -0.81835073539E+01  0.16683092765E+02  0.23561315965E+02  0.51100000000E-03 0.  1.
        -12    1    3    3    0    0  0.16227376924E+01 -0.96250686944E+01  0.20741910628E+02  0.22923832173E+02  0.00000000000E+00 0.  1.
</event>
<event>
 7    1  0.2459936E-009  0.4778727E+02  0.7816164E-02  0.1312668E+00
        -11   -1    0    0    0    0  0.00000000000E+00  0.00000000000E+00  0.45593999997E+02  0.45594000000E+02  0.51100000000E-03 0.  1.
         11   -1    0    0    0    0 -0.00000000000E+00 -0.00000000000E+00 -0.45593999997E+02  0.45594000000E+02  0.51100000000E-03 0. -1.
    9900012    2    1    2    0    0 -0.39329798284E+01 -0.41227432034E+02  0.12978984720E+02  0.47787268131E+02  0.19999986715E+02 0.  0.
         12    1    1    2    0    0  0.39329798284E+01  0.41227432034E+02 -0.12978984720E+02  0.43400731869E+02  0.00000000000E+00 0. -1.
         11    1    3    3    0    0  0.37569167179E+01 -0.10088018575E+02 -0.17409383209E+01  0.10904742477E+02  0.51100000000E-03 0. -1.
        -11    1    3    3    0    0  0.39469385554E+00 -0.18708226301E+02  0.58601557081E+01  0.19608542520E+02  0.51100000000E-03 0.  1.
        -12    1    3    3    0    0 -0.80845904018E+01 -0.12431187158E+02  0.88597673324E+01  0.17273983134E+02  0.00000000000E+00 0.  1.
</event>
<event>
 7    1  0.2459936E-009  0.4778727E+02  0.7816164E-02  0.1312668E+00
        -11   -1    0    0    0    0  0.00000000000E+00  0.00000000000E+00  0.45593999997E+02  0.45594000000E+02  0.51100000000E-03 0. -1.
         11   -1    0    0    0    0 -0.00000000000E+00 -0.00000000000E+00 -0.45593999997E+02  0.45594000000E+02  0.51100000000E-03 0.  1.
    9900012    2    1    2    0    0  0.47208708924E+00  0.74703204093E+01 -0.42750376316E+02  0.47787271568E+02  0.20000002388E+02 0.  0.
         12    1    1    2    0    0 -0.47208708924E+00 -0.74703204093E+01  0.42750376316E+02  0.43400728432E+02  0.00000000000E+00 0. -1.
         11    1    3    3    0    0 -0.38497121832E+01  0.37187879989E+01 -0.75677616584E+01  0.92693411230E+01  0.51100000000E-03 0. -1.
        -11    1    3    3    0    0 -0.31050139973E+01  0.66870281645E+01 -0.13050243082E+02  0.14988872618E+02  0.51100000000E-03 0.  1.
         12    1    3    3    0    0  0.74268132698E+01 -0.29354957541E+01 -0.22132371576E+02  0.23529057828E+02  0.00000000000E+00 0. -1.
</event>
<event>
 7    1  0.2459936E-009  0.4778728E+02  0.7816164E-02  0.1312668E+00
        -11   -1    0    0    0    0  0.00000000000E+00  0.00000000000E+00  0.45593999997E+02  0.45594000000E+02  0.51100000000E-03 0.  1.
         11   -1    0    0    0    0 -0.00000000000E+00 -0.00000000000E+00 -0.45593999997E+02  0.45594000000E+02  0.51100000000E-03 0. -1.
    9900012    2    1    2    0    0  0.33099135374E+02  0.18148274599E+02  0.21417515902E+02  0.47787278568E+02  0.20000034302E+02 0.  0.
         12    1    1    2    0    0 -0.33099135374E+02 -0.18148274599E+02 -0.21417515902E+02  0.43400721432E+02  0.00000000000E+00 0. -1.
         11    1    3    3    0    0  0.17867739399E+02  0.13176287969E+01  0.15743373307E+02  0.23850493920E+02  0.51100000000E-03 0. -1.
        -11    1    3    3    0    0  0.53976323091E+01  0.29722967019E+01  0.25015235368E+01  0.66503084511E+01  0.51100000000E-03 0.  1.
         12    1    3    3    0    0  0.98337636661E+01  0.13858349100E+02  0.31726190584E+01  0.17286476197E+02  0.00000000000E+00 0. -1.
</event>
<event>
 7    1  0.2459936E-009  0.4778727E+02  0.7816164E-02  0.1312668E+00
        -11   -1    0    0    0    0  0.00000000000E+00  0.00000000000E+00  0.45593999997E+02  0.45594000000E+02  0.51100000000E-03 0.  1.
         11   -1    0    0    0    0 -0.00000000000E+00 -0.00000000000E+00 -0.45593999997E+02  0.45594000000E+02  0.51100000000E-03 0. -1.
    9900012    2    1    2    0    0  0.24238846396E+02  0.35953362583E+01  0.35821434666E+02  0.47787270755E+02  0.19999998682E+02 0.  0.
         12    1    1    2    0    0 -0.24238846396E+02 -0.35953362583E+01 -0.35821434666E+02  0.43400729245E+02  0.00000000000E+00 0. -1.
         11    1    3    3    0    0  0.65299489212E+00 -0.12199184134E+01 -0.66638250600E+00  0.15357959402E+01  0.51100000000E-03 0. -1.
        -11    1    3    3    0    0  0.24821193037E+02  0.58802172141E+01  0.36605195390E+02  0.44616240408E+02  0.51100000000E-03 0.  1.
         12    1    3    3    0    0 -0.12353415337E+01 -0.10649625424E+01 -0.11737821789E+00  0.16352344075E+01  0.00000000000E+00 0. -1.
</event>
<event>
 7    1  0.2459936E-009  0.4778727E+02  0.7816164E-02  0.1312668E+00
        -11   -1    0    0    0    0  0.00000000000E+00  0.00000000000E+00  0.45593999997E+02  0.45594000000E+02  0.51100000000E-03 0. -1.
         11   -1    0    0    0    0 -0.00000000000E+00 -0.00000000000E+00 -0.45593999997E+02  0.45594000000E+02  0.51100000000E-03 0.  1.
    9900012    2    1    2    0    0 -0.37276127061E+02 -0.87191898226E+01 -0.20447227876E+02  0.47787273651E+02  0.20000011883E+02 0.  0.
         12    1    1    2    0    0  0.37276127061E+02  0.87191898226E+01  0.20447227876E+02  0.43400726349E+02  0.00000000000E+00 0. -1.
         11    1    3    3    0    0 -0.57935571276E+01  0.36347047555E+01 -0.28187484901E+01  0.73974134778E+01  0.51100000000E-03 0. -1.
        -11    1    3    3    0    0 -0.15269095944E+02 -0.17268547279E+01 -0.13749401292E+02  0.20619732160E+02  0.51100000000E-03 0.  1.
        -12    1    3    3    0    0 -0.16213473990E+02 -0.10627039850E+02 -0.38790780936E+01  0.19770128013E+02  0.00000000000E+00 0.  1.
</event>
<event>
 7    1  0.2459936E-009  0.4778728E+02  0.7816164E-02  0.1312668E+00
        -11   -1    0    0    0    0  0.00000000000E+00  0.00000000000E+00  0.45593999997E+02  0.45594000000E+02  0.51100000000E-03 0.  1.
         11   -1    0    0    0    0 -0.00000000000E+00 -0.00000000000E+00 -0.45593999997E+02  0.45594000000E+02  0.51100000000E-03 0. -1.
    9900012    2    1    2    0    0 -0.10472848819E+02  0.50615278181E+01  0.41812954724E+02  0.47787276400E+02  0.20000024419E+02 0.  0.
         12    1    1    2    0    0  0.10472848819E+02 -0.50615278181E+01 -0.41812954724E+02  0.43400723600E+02  0.00000000000E+00 0. -1.
         11    1    3    3    0    0 -0.19333656565E+01  0.20775842283E+01  0.62386344893E+01  0.68538178805E+01  0.51100000000E-03 0. -1.
        -11    1    3    3    0    0  0.19193253205E+01  0.19087478812E+01  0.27613063080E+02  0.27745420903E+02  0.51100000000E-03 0.  1.
         12    1    3    3    0    0 -0.10458808483E+02  0.10751957086E+01  0.79612571544E+01  0.13188037617E+02  0.00000000000E+00 0. -1.
</event>
<event>
 7    1  0.2459936E-009  0.4778723E+02  0.7816164E-02  0.1312668E+00
        -11   -1    0    0    0    0  0.00000000000E+00  0.00000000000E+00  0.45593999997E+02  0.45594000000E+02  0.51100000000E-03 0.  1.
         11   -1    0    0    0    0 -0.00000000000E+00 -0.00000000000E+00 -0.45593999997E+02  0.45594000000E+02  0.51100000000E-03 0. -1.
    9900012    2    1    2    0    0  0.40349283000E+02 -0.10665918720E+02 -0.11907992370E+02  0.47787231078E+02  0.19999817776E+02 0.  0.
         12    1    1    2    0    0 -0.40349283000E+02  0.10665918720E+02  0.11907992370E+02  0.43400768922E+02  0.00000000000E+00 0. -1.
         11    1    3    3    0    0  0.55731675436E+01 -0.70327114905E+01 -0.86659348439E+00  0.90149992738E+01  0.51100000000E-03 0. -1.
        -11    1    3    3    0    0  0.24760700889E+02 -0.82873824135E+01 -0.82092437675E+01  0.27370873192E+02  0.51100000000E-03 0.  1.
         12    1    3    3    0    0  0.10015414567E+02  0.46541751843E+01 -0.28321551177E+01  0.11401358612E+02  0.00000000000E+00 0. -1.
</event>
<event>
 7    1  0.2459936E-009  0.4778727E+02  0.7816164E-02  0.1312668E+00
        -11   -1    0    0    0    0  0.00000000000E+00  0.00000000000E+00  0.45593999997E+02  0.45594000000E+02  0.51100000000E-03 0.  1.
         11   -1    0    0    0    0 -0.00000000000E+00 -0.00000000000E+00 -0.45593999997E+02  0.45594000000E+02  0.51100000000E-03 0. -1.
    9900012    2    1    2    0    0  0.38752154332E+02 -0.59507957407E+01  0.18614020318E+02  0.47787272037E+02  0.20000004524E+02 0.  0.
         12    1    1    2    0    0 -0.38752154332E+02  0.59507957407E+01 -0.18614020318E+02  0.43400727963E+02  0.00000000000E+00 0. -1.
         11    1    3    3    0    0  0.89751759925E+01 -0.37748677878E+01  0.45167604665E+00  0.97471750997E+01  0.51100000000E-03 0. -1.
        -11    1    3    3    0    0  0.27192205894E+02 -0.68535487804E+01  0.14581409564E+02  0.31607035568E+02  0.51100000000E-03 0.  1.
        -12    1    3    3    0    0  0.25847724462E+01  0.46776208274E+01  0.35809347072E+01  0.64330613693E+01  0.00000000000E+00 0.  1.
</event>
<event>
 7    1  0.2459936E-009  0.4778727E+02  0.7816164E-02  0.1312668E+00
        -11   -1    0    0    0    0  0.00000000000E+00  0.00000000000E+00  0.45593999997E+02  0.45594000000E+02  0.51100000000E-03 0. -1.
         11   -1    0    0    0    0 -0.00000000000E+00 -0.00000000000E+00 -0.45593999997E+02  0.45594000000E+02  0.51100000000E-03 0.  1.
    9900012    2    1    2    0    0 -0.65037255027E+01 -0.36600929833E+02 -0.22398598759E+02  0.47787265716E+02  0.19999975705E+02 0.  0.
         12    1    1    2    0    0  0.65037255027E+01  0.36600929833E+02  0.22398598759E+02  0.43400734284E+02  0.00000000000E+00 0. -1.
         11    1    3    3    0    0 -0.16017126397E+01 -0.80409532674E+01  0.10780726845E+01  0.82695014241E+01  0.51100000000E-03 0. -1.
        -11    1    3    3    0    0  0.24743647488E+01 -0.81371643118E+01 -0.15245292004E+01  0.86406083982E+01  0.51100000000E-03 0.  1.
        -12    1    3    3    0    0 -0.73763776118E+01 -0.20422812254E+02 -0.21952142243E+02  0.30877155894E+02  0.00000000000E+00 0.  1.
</event>
<event>
 7    1  0.2459936E-009  0.4778730E+02  0.7816164E-02  0.1312668E+00
        -11   -1    0    0    0    0  0.00000000000E+00  0.00000000000E+00  0.45593999997E+02  0.45594000000E+02  0.51100000000E-03 0. -1.
         11   -1    0    0    0    0 -0.00000000000E+00 -0.00000000000E+00 -0.45593999997E+02  0.45594000000E+02  0.51100000000E-03 0.  1.
    9900012    2    1    2    0    0 -0.28832899671E+02 -0.24187185676E+02 -0.21616308436E+02  0.47787299029E+02  0.20000127592E+02 0.  0.
         12    1    1    2    0    0  0.28832899671E+02  0.24187185676E+02  0.21616308436E+02  0.43400700971E+02  0.00000000000E+00 0. -1.
         11    1    3    3    0    0 -0.32284984861E+01 -0.65679549679E+00 -0.29069738594E+01  0.43937546677E+01  0.51100000000E-03 0. -1.
        -11    1    3    3    0    0 -0.44816869923E+00 -0.10429574718E+02 -0.25344852555E+01  0.10742462462E+02  0.51100000000E-03 0.  1.
        -12    1    3    3    0    0 -0.25156232486E+02 -0.13100815462E+02 -0.16174849321E+02  0.32651081899E+02  0.00000000000E+00 0.  1.
</event>
<event>
 7    1  0.2459936E-009  0.4778727E+02  0.7816164E-02  0.1312668E+00
        -11   -1    0    0    0    0  0.00000000000E+00  0.00000000000E+00  0.45593999997E+02  0.45594000000E+02  0.51100000000E-03 0.  1.
         11   -1    0    0    0    0 -0.00000000000E+00 -0.00000000000E+00 -0.45593999997E+02  0.45594000000E+02  0.51100000000E-03 0. -1.
    9900012    2    1    2    0    0  0.18558795366E+02 -0.38599075441E+02  0.70218063377E+01  0.47787271036E+02  0.19999999961E+02 0.  0.
         12    1    1    2    0    0 -0.18558795366E+02  0.38599075441E+02 -0.70218063377E+01  0.43400728964E+02  0.00000000000E+00 0. -1.
         11    1    3    3    0    0  0.11002260053E+02 -0.34227622311E+02  0.47456890077E+01  0.36264327096E+02  0.51100000000E-03 0. -1.
        -11    1    3    3    0    0  0.69091516378E+01 -0.62426025244E+01  0.17555016733E+01  0.94756661516E+01  0.51100000000E-03 0.  1.
         12    1    3    3    0    0  0.64738367559E+00  0.18711493941E+01  0.52061565667E+00  0.20472777878E+01  0.00000000000E+00 0. -1.
</event>
<event>
 7    1  0.2459936E-009  0.4778727E+02  0.7816164E-02  0.1312668E+00
        -11   -1    0    0    0    0  0.00000000000E+00  0.00000000000E+00  0.45593999997E+02  0.45594000000E+02  0.51100000000E-03 0.  1.
         11   -1    0    0    0    0 -0.00000000000E+00 -0.00000000000E+00 -0.45593999997E+02  0.45594000000E+02  0.51100000000E-03 0. -1.
    9900012    2    1    2    0    0 -0.31830398262E+02 -0.17530948169E+02  0.23730046528E+02  0.47787268376E+02  0.19999987833E+02 0.  0.
         12    1    1    2    0    0  0.31830398262E+02  0.17530948169E+02 -0.23730046528E+02  0.43400731624E+02  0.00000000000E+00 0. -1.
         11    1    3    3    0    0 -0.47014922759E+01 -0.39699337976E+01  0.20574880082E+01  0.64882710442E+01  0.51100000000E-03 0.  1.
        -11    1    3    3    0    0 -0.42254244662E+01 -0.11320251680E+02  0.86144032785E+01  0.14839482947E+02  0.51100000000E-03 0. -1.
         12    1    3    3    0    0 -0.22903481520E+02 -0.22407626920E+01  0.13058155242E+02  0.26459514385E+02  0.00000000000E+00 0. -1.
</event>
<event>
 7    1  0.2459936E-009  0.4778727E+02  0.7816164E-02  0.1312668E+00
        -11   -1    0    0    0    0  0.00000000000E+00  0.00000000000E+00  0.45593999997E+02  0.45594000000E+02  0.51100000000E-03 0.  1.
         11   -1    0    0    0    0 -0.00000000000E+00 -0.00000000000E+00 -0.45593999997E+02  0.45594000000E+02  0.51100000000E-03 0. -1.
    9900012    2    1    2    0    0  0.82670975099E+01 -0.14088798747E+02  0.40209252920E+02  0.47787272220E+02  0.20000005362E+02 0.  0.
         12    1    1    2    0    0 -0.82670975099E+01  0.14088798747E+02 -0.40209252920E+02  0.43400727780E+02  0.00000000000E+00 0. -1.
         11    1    3    3    0    0 -0.19538009114E+01 -0.31774954577E+01  0.35239222689E+01  0.51314563043E+01  0.51100000000E-03 0. -1.
        -11    1    3    3    0    0  0.57946542835E+01 -0.12041407759E+02  0.13391986936E+02  0.18918742913E+02  0.51100000000E-03 0.  1.
        -12    1    3    3    0    0  0.44262441378E+01  0.11301044690E+01  0.23293343716E+02  0.23737073003E+02  0.00000000000E+00 0.  1.
</event>
<event>
 7    1  0.2459936E-009  0.4778727E+02  0.7816164E-02  0.1312668E+00
        -11   -1    0    0    0    0  0.00000000000E+00  0.00000000000E+00  0.45593999997E+02  0.45594000000E+02  0.51100000000E-03 0.  1.
         11   -1    0    0    0    0 -0.00000000000E+00 -0.00000000000E+00 -0.45593999997E+02  0.45594000000E+02  0.51100000000E-03 0. -1.
    9900012    2    1    2    0    0 -0.31361604303E+02  0.16003135120E+01  0.29958502924E+02  0.47787272757E+02  0.20000007806E+02 0.  0.
         12    1    1    2    0    0  0.31361604303E+02 -0.16003135120E+01 -0.29958502924E+02  0.43400727243E+02  0.00000000000E+00 0. -1.
         11    1    3    3    0    0 -0.28772752764E+00  0.41733257706E+00  0.56419097075E+01  0.56646358240E+01  0.51100000000E-03 0. -1.
        -11    1    3    3    0    0 -0.71319578272E+01 -0.28064449013E+01 -0.14070434870E+00  0.76655563013E+01  0.51100000000E-03 0.  1.
        -12    1    3    3    0    0 -0.23941918948E+02  0.39894258362E+01  0.24457297565E+02  0.34457080631E+02  0.00000000000E+00 0.  1.
</event>
<event>
 7    1  0.2459936E-009  0.4778727E+02  0.7816164E-02  0.1312668E+00
        -11   -1    0    0    0    0  0.00000000000E+00  0.00000000000E+00  0.45593999997E+02  0.45594000000E+02  0.51100000000E-03 0.  1.
         11   -1    0    0    0    0 -0.00000000000E+00 -0.00000000000E+00 -0.45593999997E+02  0.45594000000E+02  0.51100000000E-03 0. -1.
    9900012    2    1    2    0    0  0.97237015277E+01 -0.32998949212E+02  0.26460199683E+02  0.47787272037E+02  0.20000004524E+02 0.  0.
         12    1    1    2    0    0 -0.97237015277E+01  0.32998949212E+02 -0.26460199683E+02  0.43400727963E+02  0.00000000000E+00 0. -1.
         11    1    3    3    0    0  0.38818087193E+01 -0.23919143639E+01  0.59679535003E+01  0.75104036177E+01  0.51100000000E-03 0. -1.
        -11    1    3    3    0    0  0.10205786488E+02 -0.17702613041E+02  0.85116501115E+01  0.22135690055E+02  0.51100000000E-03 0.  1.
        -12    1    3    3    0    0 -0.43638936799E+01 -0.12904421808E+02  0.11980596071E+02  0.18141178364E+02  0.00000000000E+00 0.  1.
</event>
<event>
 7    1  0.2459936E-009  0.4778727E+02  0.7816164E-02  0.1312668E+00
        -11   -1    0    0    0    0  0.00000000000E+00  0.00000000000E+00  0.45593999997E+02  0.45594000000E+02  0.51100000000E-03 0.  1.
         11   -1    0    0    0    0 -0.00000000000E+00 -0.00000000000E+00 -0.45593999997E+02  0.45594000000E+02  0.51100000000E-03 0. -1.
    9900012    2    1    2    0    0  0.21626184014E+02  0.71737619799E+01  0.36938713425E+02  0.47787271372E+02  0.20000001495E+02 0.  0.
         12    1    1    2    0    0 -0.21626184014E+02 -0.71737619799E+01 -0.36938713425E+02  0.43400728628E+02  0.00000000000E+00 0. -1.
         11    1    3    3    0    0  0.11635540646E+01 -0.26747691746E+01  0.56168131421E+01  0.63290471900E+01  0.51100000000E-03 0. -1.
        -11    1    3    3    0    0  0.27363112426E+01 -0.13704537559E+01  0.13769371756E+02  0.14105358610E+02  0.51100000000E-03 0.  1.
         12    1    3    3    0    0  0.17726318707E+02  0.11218984910E+02  0.17552528527E+02  0.27352865572E+02  0.00000000000E+00 0. -1.
</event>
<event>
 7    1  0.2459936E-009  0.4778727E+02  0.7816164E-02  0.1312668E+00
        -11   -1    0    0    0    0  0.00000000000E+00  0.00000000000E+00  0.45593999997E+02  0.45594000000E+02  0.51100000000E-03 0. -1.
         11   -1    0    0    0    0 -0.00000000000E+00 -0.00000000000E+00 -0.45593999997E+02  0.45594000000E+02  0.51100000000E-03 0.  1.
    9900012    2    1    2    0    0 -0.37654820814E+02  0.23754782713E+01 -0.21449828861E+02  0.47787267452E+02  0.19999983618E+02 0.  0.
         12    1    1    2    0    0  0.37654820814E+02 -0.23754782713E+01  0.21449828861E+02  0.43400732548E+02  0.00000000000E+00 0. -1.
         11    1    3    3    0    0 -0.20086518425E+02  0.57926130729E+01 -0.12875700454E+02  0.24552112966E+02  0.51100000000E-03 0. -1.
        -11    1    3    3    0    0 -0.15269461315E+02 -0.32744978664E+01 -0.11584831508E+02  0.19444462103E+02  0.51100000000E-03 0.  1.
         12    1    3    3    0    0 -0.22988410739E+01 -0.14263693511E+00  0.30107031009E+01  0.37906923826E+01  0.00000000000E+00 0. -1.
</event>
<event>
 7    1  0.2459936E-009  0.4778727E+02  0.7816164E-02  0.1312668E+00
        -11   -1    0    0    0    0  0.00000000000E+00  0.00000000000E+00  0.45593999997E+02  0.45594000000E+02  0.51100000000E-03 0. -1.
         11   -1    0    0    0    0 -0.00000000000E+00 -0.00000000000E+00 -0.45593999997E+02  0.45594000000E+02  0.51100000000E-03 0.  1.
    9900012    2    1    2    0    0  0.42359239957E+01  0.28251295814E+02 -0.32673300460E+02  0.47787270395E+02  0.19999997039E+02 0.  0.
         12    1    1    2    0    0 -0.42359239957E+01 -0.28251295814E+02  0.32673300460E+02  0.43400729605E+02  0.00000000000E+00 0. -1.
         11    1    3    3    0    0  0.65078837120E+01  0.15032879340E+02 -0.19525656945E+02  0.25487080866E+02  0.51100000000E-03 0.  1.
        -11    1    3    3    0    0  0.37252229498E-01 -0.37598834357E+00 -0.73206846325E+01  0.73304282762E+01  0.51100000000E-03 0. -1.
         12    1    3    3    0    0 -0.23092119458E+01  0.13594404817E+02 -0.58269588826E+01  0.14969761253E+02  0.00000000000E+00 0. -1.
</event>
<event>
 7    1  0.2459936E-009  0.4778728E+02  0.7816164E-02  0.1312668E+00
        -11   -1    0    0    0    0  0.00000000000E+00  0.00000000000E+00  0.45593999997E+02  0.45594000000E+02  0.51100000000E-03 0.  1.
         11   -1    0    0    0    0 -0.00000000000E+00 -0.00000000000E+00 -0.45593999997E+02  0.45594000000E+02  0.51100000000E-03 0. -1.
    9900012    2    1    2    0    0  0.42700458726E+02  0.37108242736E+01  0.68208034199E+01  0.47787277062E+02  0.20000027438E+02 0.  0.
         12    1    1    2    0    0 -0.42700458726E+02 -0.37108242736E+01 -0.68208034199E+01  0.43400722938E+02  0.00000000000E+00 0. -1.
         11    1    3    3    0    0  0.13167494949E+02 -0.15277843600E+01 -0.20726321024E+00  0.13257450983E+02  0.51100000000E-03 0. -1.
        -11    1    3    3    0    0  0.10797489246E+02 -0.55149567124E+01  0.36734974098E+01  0.12668666269E+02  0.51100000000E-03 0.  1.
         12    1    3    3    0    0  0.18735474531E+02  0.10753565346E+02  0.33545692203E+01  0.21861159810E+02  0.00000000000E+00 0. -1.
</event>
<event>
 7    1  0.2459936E-009  0.4778727E+02  0.7816164E-02  0.1312668E+00
        -11   -1    0    0    0    0  0.00000000000E+00  0.00000000000E+00  0.45593999997E+02  0.45594000000E+02  0.51100000000E-03 0. -1.
         11   -1    0    0    0    0 -0.00000000000E+00 -0.00000000000E+00 -0.45593999997E+02  0.45594000000E+02  0.51100000000E-03 0.  1.
    9900012    2    1    2    0    0  0.41761788464E+02 -0.10247153578E+02 -0.58798010500E+01  0.47787271982E+02  0.20000004273E+02 0.  0.
         12    1    1    2    0    0 -0.41761788464E+02  0.10247153578E+02  0.58798010500E+01  0.43400728018E+02  0.00000000000E+00 0. -1.
         11    1    3    3    0    0  0.70051762866E+01 -0.27473427629E+01  0.45924067509E+01  0.88153608599E+01  0.51100000000E-03 0.  1.
        -11    1    3    3    0    0  0.93056338229E+01  0.28592897682E+01 -0.52742657015E+00  0.97492839671E+01  0.51100000000E-03 0. -1.
         12    1    3    3    0    0  0.25450978354E+02 -0.10359100583E+02 -0.99447812308E+01  0.29222627155E+02  0.00000000000E+00 0. -1.
</event>
<event>
 7    1  0.2459936E-009  0.4778727E+02  0.7816164E-02  0.1312668E+00
        -11   -1    0    0    0    0  0.00000000000E+00  0.00000000000E+00  0.45593999997E+02  0.45594000000E+02  0.51100000000E-03 0.  1.
         11   -1    0    0    0    0 -0.00000000000E+00 -0.00000000000E+00 -0.45593999997E+02  0.45594000000E+02  0.51100000000E-03 0. -1.
    9900012    2    1    2    0    0  0.10051380071E+02 -0.41235760287E+02  0.90666978070E+01  0.47787272161E+02  0.20000005092E+02 0.  0.
         12    1    1    2    0    0 -0.10051380071E+02  0.41235760287E+02 -0.90666978070E+01  0.43400727839E+02  0.00000000000E+00 0. -1.
         11    1    3    3    0    0  0.42109552432E+01 -0.39181431066E+01  0.30671398338E+01  0.65185379101E+01  0.51100000000E-03 0. -1.
        -11    1    3    3    0    0 -0.35388670918E+01 -0.88256016326E+01 -0.29675557539E+01  0.99609844837E+01  0.51100000000E-03 0.  1.
        -12    1    3    3    0    0  0.93792919196E+01 -0.28492015548E+02  0.89671137271E+01  0.31307749767E+02  0.00000000000E+00 0.  1.
</event>
<event>
 7    1  0.2459936E-009  0.4778726E+02  0.7816164E-02  0.1312668E+00
        -11   -1    0    0    0    0  0.00000000000E+00  0.00000000000E+00  0.45593999997E+02  0.45594000000E+02  0.51100000000E-03 0.  1.
         11   -1    0    0    0    0 -0.00000000000E+00 -0.00000000000E+00 -0.45593999997E+02  0.45594000000E+02  0.51100000000E-03 0. -1.
    9900012    2    1    2    0    0  0.25027672918E+02  0.16295253763E+02  0.31491337342E+02  0.47787262282E+02  0.19999960048E+02 0.  0.
         12    1    1    2    0    0 -0.25027672918E+02 -0.16295253763E+02 -0.31491337342E+02  0.43400737718E+02  0.00000000000E+00 0. -1.
         11    1    3    3    0    0  0.31308131070E+01  0.85246833227E+01  0.84397690378E+01  0.12397657768E+02  0.51100000000E-03 0. -1.
        -11    1    3    3    0    0  0.16664394181E+02  0.97220844741E+01  0.22704124882E+02  0.29794265335E+02  0.51100000000E-03 0.  1.
         12    1    3    3    0    0  0.52324656300E+01 -0.19515140336E+01  0.34744342231E+00  0.55953391786E+01  0.00000000000E+00 0. -1.
</event>
<event>
 7    1  0.2459936E-009  0.4778727E+02  0.7816164E-02  0.1312668E+00
        -11   -1    0    0    0    0  0.00000000000E+00  0.00000000000E+00  0.45593999997E+02  0.45594000000E+02  0.51100000000E-03 0.  1.
         11   -1    0    0    0    0 -0.00000000000E+00 -0.00000000000E+00 -0.45593999997E+02  0.45594000000E+02  0.51100000000E-03 0. -1.
    9900012    2    1    2    0    0 -0.84310553188E+01  0.11808624071E+02  0.40903510001E+02  0.47787269285E+02  0.19999991976E+02 0.  0.
         12    1    1    2    0    0  0.84310553188E+01 -0.11808624071E+02 -0.40903510001E+02  0.43400730715E+02  0.00000000000E+00 0. -1.
         11    1    3    3    0    0  0.13481490456E+01  0.60594072806E+01  0.17686733647E+01  0.64546206839E+01  0.51100000000E-03 0. -1.
        -11    1    3    3    0    0 -0.19404735761E+01 -0.12393212314E+01  0.35562387326E+01  0.42365303018E+01  0.51100000000E-03 0.  1.
         12    1    3    3    0    0 -0.78387307882E+01  0.69885380219E+01  0.35578597904E+02  0.37096118299E+02  0.00000000000E+00 0. -1.
</event>
<event>
 7    1  0.2459936E-009  0.4778727E+02  0.7816164E-02  0.1312668E+00
        -11   -1    0    0    0    0  0.00000000000E+00  0.00000000000E+00  0.45593999997E+02  0.45594000000E+02  0.51100000000E-03 0.  1.
         11   -1    0    0    0    0 -0.00000000000E+00 -0.00000000000E+00 -0.45593999997E+02  0.45594000000E+02  0.51100000000E-03 0. -1.
    9900012    2    1    2    0    0  0.32226520560E+02  0.81336136146E+01  0.27909123119E+02  0.47787269003E+02  0.19999990691E+02 0.  0.
         12    1    1    2    0    0 -0.32226520560E+02 -0.81336136146E+01 -0.27909123119E+02  0.43400730997E+02  0.00000000000E+00 0. -1.
         11    1    3    3    0    0 -0.70264709636E+00 -0.12900718950E+00  0.19645915946E+01  0.20904488015E+01  0.51100000000E-03 0. -1.
        -11    1    3    3    0    0  0.22098402613E+02  0.13147629536E+02  0.18471139973E+02  0.31660425971E+02  0.51100000000E-03 0.  1.
        -12    1    3    3    0    0  0.10830765043E+02 -0.48850087316E+01  0.74733915511E+01  0.14036394231E+02  0.00000000000E+00 0.  1.
</event>
<event>
 7    1  0.2459936E-009  0.4778727E+02  0.7816164E-02  0.1312668E+00
        -11   -1    0    0    0    0  0.00000000000E+00  0.00000000000E+00  0.45593999997E+02  0.45594000000E+02  0.51100000000E-03 0.  1.
         11   -1    0    0    0    0 -0.00000000000E+00 -0.00000000000E+00 -0.45593999997E+02  0.45594000000E+02  0.51100000000E-03 0. -1.
    9900012    2    1    2    0    0  0.84311229214E+01 -0.39867064964E+02  0.14938422367E+02  0.47787272295E+02  0.20000005701E+02 0.  0.
         12    1    1    2    0    0 -0.84311229214E+01  0.39867064964E+02 -0.14938422367E+02  0.43400727705E+02  0.00000000000E+00 0. -1.
         11    1    3    3    0    0  0.13908274158E+01 -0.24719670437E+02  0.70093526795E+01  0.25731838890E+02  0.51100000000E-03 0. -1.
        -11    1    3    3    0    0 -0.32913326655E+01 -0.41257551296E+01  0.34237629116E+01  0.62910157241E+01  0.51100000000E-03 0.  1.
         12    1    3    3    0    0  0.10331628171E+02 -0.11021639397E+02  0.45053067759E+01  0.15764417681E+02  0.00000000000E+00 0. -1.
</event>
<event>
 7    1  0.2459936E-009  0.4778727E+02  0.7816164E-02  0.1312668E+00
        -11   -1    0    0    0    0  0.00000000000E+00  0.00000000000E+00  0.45593999997E+02  0.45594000000E+02  0.51100000000E-03 0.  1.
         11   -1    0    0    0    0 -0.00000000000E+00 -0.00000000000E+00 -0.45593999997E+02  0.45594000000E+02  0.51100000000E-03 0. -1.
    9900012    2    1    2    0    0 -0.27122685512E+02 -0.14254804423E+02  0.30737333855E+02  0.47787271768E+02  0.20000003301E+02 0.  0.
         12    1    1    2    0    0  0.27122685512E+02  0.14254804423E+02 -0.30737333855E+02  0.43400728232E+02  0.00000000000E+00 0. -1.
         11    1    3    3    0    0  0.12436492159E+01 -0.48585074564E+01  0.53424944173E+01  0.73276193225E+01  0.51100000000E-03 0. -1.
        -11    1    3    3    0    0 -0.11534876019E+02 -0.60876008536E+01  0.16813757385E+02  0.21279442817E+02  0.51100000000E-03 0.  1.
        -12    1    3    3    0    0 -0.16831458708E+02 -0.33086961133E+01  0.85810820530E+01  0.19180209629E+02  0.00000000000E+00 0.  1.
</event>
<event>
 7    1  0.2459936E-009  0.4778727E+02  0.7816164E-02  0.1312668E+00
        -11   -1    0    0    0    0  0.00000000000E+00  0.00000000000E+00  0.45593999997E+02  0.45594000000E+02  0.51100000000E-03 0. -1.
         11   -1    0    0    0    0 -0.00000000000E+00 -0.00000000000E+00 -0.45593999997E+02  0.45594000000E+02  0.51100000000E-03 0.  1.
    9900012    2    1    2    0    0  0.77084823727E+01 -0.30207828775E+02 -0.30194197561E+02  0.47787272055E+02  0.20000004607E+02 0.  0.
         12    1    1    2    0    0 -0.77084823727E+01  0.30207828775E+02  0.30194197561E+02  0.43400727945E+02  0.00000000000E+00 0. -1.
         11    1    3    3    0    0  0.30104019385E+01 -0.80561981971E+00 -0.17401929604E+01  0.35692877337E+01  0.51100000000E-03 0. -1.
        -11    1    3    3    0    0  0.10447911349E+02 -0.22860979025E+02 -0.21357479446E+02  0.32983710254E+02  0.51100000000E-03 0.  1.
         12    1    3    3    0    0 -0.57498309151E+01 -0.65412299302E+01 -0.70965251549E+01  0.11234274068E+02  0.00000000000E+00 0. -1.
</event>
<event>
 7    1  0.2459936E-009  0.4778727E+02  0.7816164E-02  0.1312668E+00
        -11   -1    0    0    0    0  0.00000000000E+00  0.00000000000E+00  0.45593999997E+02  0.45594000000E+02  0.51100000000E-03 0.  1.
         11   -1    0    0    0    0 -0.00000000000E+00 -0.00000000000E+00 -0.45593999997E+02  0.45594000000E+02  0.51100000000E-03 0. -1.
    9900012    2    1    2    0    0 -0.13872973577E+02  0.40416052808E+02  0.75964971372E+01  0.47787268564E+02  0.19999988690E+02 0.  0.
         12    1    1    2    0    0  0.13872973577E+02 -0.40416052808E+02 -0.75964971372E+01  0.43400731436E+02  0.00000000000E+00 0. -1.
         11    1    3    3    0    0 -0.14809952616E+02  0.26719009872E+02  0.33180017396E+01  0.30728640074E+02  0.51100000000E-03 0. -1.
        -11    1    3    3    0    0 -0.95072516353E+00  0.12364403472E+02  0.23696292265E+00  0.12403165049E+02  0.51100000000E-03 0.  1.
        -12    1    3    3    0    0  0.18877042022E+01  0.13326394642E+01  0.40415324750E+01  0.46554634402E+01  0.00000000000E+00 0.  1.
</event>
<event>
 7    1  0.2459936E-009  0.4778727E+02  0.7816164E-02  0.1312668E+00
        -11   -1    0    0    0    0  0.00000000000E+00  0.00000000000E+00  0.45593999997E+02  0.45594000000E+02  0.51100000000E-03 0.  1.
         11   -1    0    0    0    0 -0.00000000000E+00 -0.00000000000E+00 -0.45593999997E+02  0.45594000000E+02  0.51100000000E-03 0. -1.
    9900012    2    1    2    0    0  0.39535689586E+02  0.16860213105E+02  0.60237524174E+01  0.47787272700E+02  0.20000007549E+02 0.  0.
         12    1    1    2    0    0 -0.39535689586E+02 -0.16860213105E+02 -0.60237524174E+01  0.43400727300E+02  0.00000000000E+00 0. -1.
         11    1    3    3    0    0  0.13997949597E+02  0.95498408598E+01 -0.16010892434E+01  0.17020738538E+02  0.51100000000E-03 0. -1.
        -11    1    3    3    0    0  0.14508525849E+02  0.10911449961E+02  0.37730328013E+01  0.18541651473E+02  0.51100000000E-03 0.  1.
         12    1    3    3    0    0  0.11029214140E+02 -0.36010777159E+01  0.38518088595E+01  0.12224882689E+02  0.00000000000E+00 0. -1.
</event>
<event>
 7    1  0.2459936E-009  0.4778727E+02  0.7816164E-02  0.1312668E+00
        -11   -1    0    0    0    0  0.00000000000E+00  0.00000000000E+00  0.45593999997E+02  0.45594000000E+02  0.51100000000E-03 0. -1.
         11   -1    0    0    0    0 -0.00000000000E+00 -0.00000000000E+00 -0.45593999997E+02  0.45594000000E+02  0.51100000000E-03 0.  1.
    9900012    2    1    2    0    0  0.40839954787E+02 -0.17165731559E+01 -0.14586795775E+02  0.47787272571E+02  0.20000006958E+02 0.  0.
         12    1    1    2    0    0 -0.40839954787E+02  0.17165731559E+01  0.14586795775E+02  0.43400727429E+02  0.00000000000E+00 0. -1.
         11    1    3    3    0    0  0.26822250320E+01  0.25791627026E+01 -0.22817297701E+01  0.43649401340E+01  0.51100000000E-03 0. -1.
        -11    1    3    3    0    0  0.22993998514E+02  0.12457394399E+01 -0.14374110975E+02  0.27145734489E+02  0.51100000000E-03 0.  1.
         12    1    3    3    0    0  0.15163731241E+02 -0.55414752984E+01  0.20690449693E+01  0.16276597947E+02  0.00000000000E+00 0. -1.
</event>
<event>
 7    1  0.2459936E-009  0.4778727E+02  0.7816164E-02  0.1312668E+00
        -11   -1    0    0    0    0  0.00000000000E+00  0.00000000000E+00  0.45593999997E+02  0.45594000000E+02  0.51100000000E-03 0.  1.
         11   -1    0    0    0    0 -0.00000000000E+00 -0.00000000000E+00 -0.45593999997E+02  0.45594000000E+02  0.51100000000E-03 0. -1.
    9900012    2    1    2    0    0  0.22341360544E+02  0.12376660490E+02  0.35089957331E+02  0.47787271650E+02  0.20000002759E+02 0.  0.
         12    1    1    2    0    0 -0.22341360544E+02 -0.12376660490E+02 -0.35089957331E+02  0.43400728350E+02  0.00000000000E+00 0. -1.
         11    1    3    3    0    0  0.10639359997E+02  0.59952582114E+01  0.45284155620E+01  0.13024809017E+02  0.51100000000E-03 0. -1.
        -11    1    3    3    0    0  0.52166570307E+01  0.79670582212E+01  0.14267776738E+02  0.17153920269E+02  0.51100000000E-03 0.  1.
        -12    1    3    3    0    0  0.64853435160E+01 -0.15856559422E+01  0.16293765031E+02  0.17608542364E+02  0.00000000000E+00 0.  1.
</event>
<event>
 7    1  0.2459936E-009  0.4778726E+02  0.7816164E-02  0.1312668E+00
        -11   -1    0    0    0    0  0.00000000000E+00  0.00000000000E+00  0.45593999997E+02  0.45594000000E+02  0.51100000000E-03 0.  1.
         11   -1    0    0    0    0 -0.00000000000E+00 -0.00000000000E+00 -0.45593999997E+02  0.45594000000E+02  0.51100000000E-03 0. -1.
    9900012    2    1    2    0    0  0.33475524935E+02 -0.26843514625E+02 -0.65145179606E+01  0.47787262779E+02  0.19999962312E+02 0.  0.
         12    1    1    2    0    0 -0.33475524935E+02  0.26843514625E+02  0.65145179606E+01  0.43400737221E+02  0.00000000000E+00 0. -1.
         11    1    3    3    0    0  0.57552993425E+01  0.24591292564E+00 -0.32461829188E+01  0.66122346822E+01  0.51100000000E-03 0. -1.
        -11    1    3    3    0    0  0.15984581578E+02 -0.13541038141E+02 -0.83379953527E+01  0.22547477218E+02  0.51100000000E-03 0.  1.
        -12    1    3    3    0    0  0.11735644015E+02 -0.13548389410E+02  0.50696603110E+01  0.18627550878E+02  0.00000000000E+00 0.  1.
</event>
<event>
 7    1  0.2459936E-009  0.4778727E+02  0.7816164E-02  0.1312668E+00
        -11   -1    0    0    0    0  0.00000000000E+00  0.00000000000E+00  0.45593999997E+02  0.45594000000E+02  0.51100000000E-03 0. -1.
         11   -1    0    0    0    0 -0.00000000000E+00 -0.00000000000E+00 -0.45593999997E+02  0.45594000000E+02  0.51100000000E-03 0.  1.
    9900012    2    1    2    0    0  0.24087816159E+02  0.22802705073E+01 -0.36030555872E+02  0.47787268700E+02  0.19999989310E+02 0.  0.
         12    1    1    2    0    0 -0.24087816159E+02 -0.22802705073E+01  0.36030555872E+02  0.43400731300E+02  0.00000000000E+00 0. -1.
         11    1    3    3    0    0  0.25194253399E+01  0.53738863037E+01 -0.10124204293E+02  0.11735658093E+02  0.51100000000E-03 0. -1.
        -11    1    3    3    0    0  0.16487684794E+02  0.20520580096E+01 -0.22726046709E+02  0.28151871896E+02  0.51100000000E-03 0.  1.
        -12    1    3    3    0    0  0.50807060254E+01 -0.51456738060E+01 -0.31803048697E+01  0.78997387108E+01  0.00000000000E+00 0.  1.
</event>
<event>
 7    1  0.2459936E-009  0.4778730E+02  0.7816164E-02  0.1312668E+00
        -11   -1    0    0    0    0  0.00000000000E+00  0.00000000000E+00  0.45593999997E+02  0.45594000000E+02  0.51100000000E-03 0.  1.
         11   -1    0    0    0    0 -0.00000000000E+00 -0.00000000000E+00 -0.45593999997E+02  0.45594000000E+02  0.51100000000E-03 0. -1.
    9900012    2    1    2    0    0 -0.12234779491E+02 -0.26682561855E+02  0.31968290375E+02  0.47787302703E+02  0.20000144345E+02 0.  0.
         12    1    1    2    0    0  0.12234779491E+02  0.26682561855E+02 -0.31968290375E+02  0.43400697297E+02  0.00000000000E+00 0. -1.
         11    1    3    3    0    0 -0.13081638197E+01 -0.52128658764E+01  0.10704315547E+02  0.11977797578E+02  0.51100000000E-03 0. -1.
        -11    1    3    3    0    0 -0.10565247581E+01 -0.15375780944E+02  0.57750344227E+01  0.16458490424E+02  0.51100000000E-03 0.  1.
         12    1    3    3    0    0 -0.98700909133E+01 -0.60939150348E+01  0.15488940405E+02  0.19351014701E+02  0.00000000000E+00 0. -1.
</event>
<event>
 7    1  0.2459936E-009  0.4778727E+02  0.7816164E-02  0.1312668E+00
        -11   -1    0    0    0    0  0.00000000000E+00  0.00000000000E+00  0.45593999997E+02  0.45594000000E+02  0.51100000000E-03 0.  1.
         11   -1    0    0    0    0 -0.00000000000E+00 -0.00000000000E+00 -0.45593999997E+02  0.45594000000E+02  0.51100000000E-03 0. -1.
    9900012    2    1    2    0    0  0.39796930068E+02  0.12557858977E+02 -0.11921747594E+02  0.47787268086E+02  0.19999986513E+02 0.  0.
         12    1    1    2    0    0 -0.39796930068E+02 -0.12557858977E+02  0.11921747594E+02  0.43400731914E+02  0.00000000000E+00 0. -1.
         11    1    3    3    0    0  0.28281016555E+02  0.14644798221E+02 -0.92747210142E+01  0.33170867678E+02  0.51100000000E-03 0.  1.
        -11    1    3    3    0    0  0.71084000238E+01 -0.10918136418E+01  0.26405475761E+01  0.76611944036E+01  0.51100000000E-03 0. -1.
        -12    1    3    3    0    0  0.44075134891E+01 -0.99512560233E+00 -0.52875741558E+01  0.69552060052E+01  0.00000000000E+00 0.  1.
</event>
<event>
 7    1  0.2459936E-009  0.4778725E+02  0.7816164E-02  0.1312668E+00
        -11   -1    0    0    0    0  0.00000000000E+00  0.00000000000E+00  0.45593999997E+02  0.45594000000E+02  0.51100000000E-03 0. -1.
         11   -1    0    0    0    0 -0.00000000000E+00 -0.00000000000E+00 -0.45593999997E+02  0.45594000000E+02  0.51100000000E-03 0.  1.
    9900012    2    1    2    0    0  0.29562081541E+01 -0.29254421022E+02 -0.31922788267E+02  0.47787254307E+02  0.19999923685E+02 0.  0.
         12    1    1    2    0    0 -0.29562081541E+01  0.29254421022E+02  0.31922788267E+02  0.43400745693E+02  0.00000000000E+00 0. -1.
         11    1    3    3    0    0  0.64812206434E+00 -0.62059389434E+01 -0.17206532229E+02  0.18302964022E+02  0.51100000000E-03 0. -1.
        -11    1    3    3    0    0  0.37229881374E+01 -0.12258131164E+02 -0.13372693470E+02  0.18518945737E+02  0.51100000000E-03 0.  1.
         12    1    3    3    0    0 -0.14149020476E+01 -0.10790350915E+02 -0.13435625677E+01  0.10965344547E+02  0.00000000000E+00 0. -1.
</event>
<event>
 7    1  0.2459936E-009  0.4778727E+02  0.7816164E-02  0.1312668E+00
        -11   -1    0    0    0    0  0.00000000000E+00  0.00000000000E+00  0.45593999997E+02  0.45594000000E+02  0.51100000000E-03 0.  1.
         11   -1    0    0    0    0 -0.00000000000E+00 -0.00000000000E+00 -0.45593999997E+02  0.45594000000E+02  0.51100000000E-03 0. -1.
    9900012    2    1    2    0    0 -0.91190954270E+01  0.40916345867E+02  0.11239130609E+02  0.47787270544E+02  0.19999997717E+02 0.  0.
         12    1    1    2    0    0  0.91190954270E+01 -0.40916345867E+02 -0.11239130609E+02  0.43400729456E+02  0.00000000000E+00 0. -1.
         11    1    3    3    0    0 -0.53258890964E+01  0.19800618272E+02  0.11043667974E+02  0.23289314743E+02  0.51100000000E-03 0. -1.
        -11    1    3    3    0    0 -0.50353688909E+01  0.18499227076E+02  0.41302281363E+01  0.19612116841E+02  0.51100000000E-03 0.  1.
         12    1    3    3    0    0  0.12421625602E+01  0.26165005190E+01 -0.39347655011E+01  0.48858389598E+01  0.00000000000E+00 0. -1.
</event>
<event>
 7    1  0.2459936E-009  0.4778727E+02  0.7816164E-02  0.1312668E+00
        -11   -1    0    0    0    0  0.00000000000E+00  0.00000000000E+00  0.45593999997E+02  0.45594000000E+02  0.51100000000E-03 0.  1.
         11   -1    0    0    0    0 -0.00000000000E+00 -0.00000000000E+00 -0.45593999997E+02  0.45594000000E+02  0.51100000000E-03 0. -1.
    9900012    2    1    2    0    0  0.10570766172E+02 -0.82784719206E+01  0.41271648448E+02  0.47787272351E+02  0.20000005959E+02 0.  0.
         12    1    1    2    0    0 -0.10570766172E+02  0.82784719206E+01 -0.41271648448E+02  0.43400727649E+02  0.00000000000E+00 0. -1.
         11    1    3    3    0    0  0.34394028581E+01 -0.63170868667E+01  0.97045042520E+01  0.12079423891E+02  0.51100000000E-03 0. -1.
        -11    1    3    3    0    0  0.88495909987E+01 -0.65848424669E+01  0.16446898984E+02  0.19803431460E+02  0.51100000000E-03 0.  1.
         12    1    3    3    0    0 -0.17182276847E+01  0.46234574130E+01  0.15120245212E+02  0.15904417000E+02  0.00000000000E+00 0. -1.
</event>
<event>
 7    1  0.2459936E-009  0.4778727E+02  0.7816164E-02  0.1312668E+00
        -11   -1    0    0    0    0  0.00000000000E+00  0.00000000000E+00  0.45593999997E+02  0.45594000000E+02  0.51100000000E-03 0.  1.
         11   -1    0    0    0    0 -0.00000000000E+00 -0.00000000000E+00 -0.45593999997E+02  0.45594000000E+02  0.51100000000E-03 0. -1.
    9900012    2    1    2    0    0 -0.52187956187E+01 -0.28757453522E+02  0.32084213680E+02  0.47787265810E+02  0.19999976134E+02 0.  0.
         12    1    1    2    0    0  0.52187956187E+01  0.28757453522E+02 -0.32084213680E+02  0.43400734190E+02  0.00000000000E+00 0. -1.
         11    1    3    3    0    0 -0.78535544550E+01 -0.20017099609E+02  0.20660371933E+02  0.29819684154E+02  0.51100000000E-03 0. -1.
        -11    1    3    3    0    0  0.10442961343E+01 -0.74161170168E+01  0.13241765571E+02  0.15212945202E+02  0.51100000000E-03 0.  1.
         12    1    3    3    0    0  0.15904627021E+01 -0.13242368962E+01 -0.18179238245E+01  0.27546364544E+01  0.00000000000E+00 0. -1.
</event>
<event>
 7    1  0.2459936E-009  0.4778726E+02  0.7816164E-02  0.1312668E+00
        -11   -1    0    0    0    0  0.00000000000E+00  0.00000000000E+00  0.45593999997E+02  0.45594000000E+02  0.51100000000E-03 0. -1.
         11   -1    0    0    0    0 -0.00000000000E+00 -0.00000000000E+00 -0.45593999997E+02  0.45594000000E+02  0.51100000000E-03 0.  1.
    9900012    2    1    2    0    0 -0.33530327774E+02  0.13593252888E+02 -0.23970073923E+02  0.47787264423E+02  0.19999969810E+02 0.  0.
         12    1    1    2    0    0  0.33530327774E+02 -0.13593252888E+02  0.23970073923E+02  0.43400735577E+02  0.00000000000E+00 0. -1.
         11    1    3    3    0    0 -0.89335336148E+01  0.87512575778E+01 -0.64909753074E+01  0.14089900381E+02  0.51100000000E-03 0. -1.
        -11    1    3    3    0    0 -0.46428686332E+01  0.52728314676E+01 -0.10338800491E+02  0.12499991068E+02  0.51100000000E-03 0.  1.
        -12    1    3    3    0    0 -0.19953925526E+02 -0.43083615693E+00 -0.71402981246E+01  0.21197372974E+02  0.00000000000E+00 0.  1.
</event>
<event>
 7    1  0.2459936E-009  0.4778727E+02  0.7816164E-02  0.1312668E+00
        -11   -1    0    0    0    0  0.00000000000E+00  0.00000000000E+00  0.45593999997E+02  0.45594000000E+02  0.51100000000E-03 0.  1.
         11   -1    0    0    0    0 -0.00000000000E+00 -0.00000000000E+00 -0.45593999997E+02  0.45594000000E+02  0.51100000000E-03 0. -1.
    9900012    2    1    2    0    0 -0.23290471652E+02  0.80003913911E+01  0.35737529934E+02  0.47787269845E+02  0.19999994532E+02 0.  0.
         12    1    1    2    0    0  0.23290471652E+02 -0.80003913911E+01 -0.35737529934E+02  0.43400730155E+02  0.00000000000E+00 0. -1.
         11    1    3    3    0    0 -0.78563947121E+01 -0.39117318351E+01  0.40791432851E+01  0.96780160169E+01  0.51100000000E-03 0. -1.
        -11    1    3    3    0    0 -0.53053334742E+01  0.63767724313E+00  0.44050781609E+01  0.69251649369E+01  0.51100000000E-03 0.  1.
        -12    1    3    3    0    0 -0.10128743465E+02  0.11274445983E+02  0.27253308488E+02  0.31184088891E+02  0.00000000000E+00 0.  1.
</event>
<event>
 7    1  0.2459936E-009  0.4778727E+02  0.7816164E-02  0.1312668E+00
        -11   -1    0    0    0    0  0.00000000000E+00  0.00000000000E+00  0.45593999997E+02  0.45594000000E+02  0.51100000000E-03 0. -1.
         11   -1    0    0    0    0 -0.00000000000E+00 -0.00000000000E+00 -0.45593999997E+02  0.45594000000E+02  0.51100000000E-03 0.  1.
    9900012    2    1    2    0    0 -0.21033782973E+02  0.37749350386E+02 -0.40236433450E+01  0.47787272051E+02  0.20000004589E+02 0.  0.
         12    1    1    2    0    0  0.21033782973E+02 -0.37749350386E+02  0.40236433450E+01  0.43400727949E+02  0.00000000000E+00 0. -1.
         11    1    3    3    0    0  0.19250122108E+01  0.66748584308E+01 -0.75217209947E+00  0.69875009991E+01  0.51100000000E-03 0. -1.
        -11    1    3    3    0    0  0.11433268198E+01  0.55134267252E+00 -0.13609886549E+01  0.18610387796E+01  0.51100000000E-03 0.  1.
        -12    1    3    3    0    0 -0.24102122004E+02  0.30523149283E+02 -0.19104825906E+01  0.38938732272E+02  0.00000000000E+00 0.  1.
</event>
<event>
 7    1  0.2459936E-009  0.4778727E+02  0.7816164E-02  0.1312668E+00
        -11   -1    0    0    0    0  0.00000000000E+00  0.00000000000E+00  0.45593999997E+02  0.45594000000E+02  0.51100000000E-03 0.  1.
         11   -1    0    0    0    0 -0.00000000000E+00 -0.00000000000E+00 -0.45593999997E+02  0.45594000000E+02  0.51100000000E-03 0. -1.
    9900012    2    1    2    0    0  0.32434695742E+02 -0.28559849720E+02  0.39936053440E+01  0.47787269735E+02  0.19999994029E+02 0.  0.
         12    1    1    2    0    0 -0.32434695742E+02  0.28559849720E+02 -0.39936053440E+01  0.43400730265E+02  0.00000000000E+00 0. -1.
         11    1    3    3    0    0  0.13816455412E+02 -0.11718260776E+02 -0.63831729671E+01  0.19208252736E+02  0.51100000000E-03 0. -1.
        -11    1    3    3    0    0  0.53990799060E+01 -0.16123874316E+01 -0.51726527426E+00  0.56583938256E+01  0.51100000000E-03 0.  1.
        -12    1    3    3    0    0  0.13219160424E+02 -0.15229201512E+02  0.10894043585E+02  0.22920623173E+02  0.00000000000E+00 0.  1.
</event>
<event>
 7    1  0.2459936E-009  0.4778727E+02  0.7816164E-02  0.1312668E+00
        -11   -1    0    0    0    0  0.00000000000E+00  0.00000000000E+00  0.45593999997E+02  0.45594000000E+02  0.51100000000E-03 0.  1.
         11   -1    0    0    0    0 -0.00000000000E+00 -0.00000000000E+00 -0.45593999997E+02  0.45594000000E+02  0.51100000000E-03 0. -1.
    9900012    2    1    2    0    0  0.33072305405E+02 -0.20545799415E+01  0.28028996618E+02  0.47787270341E+02  0.19999996791E+02 0.  0.
         12    1    1    2    0    0 -0.33072305405E+02  0.20545799415E+01 -0.28028996618E+02  0.43400729659E+02  0.00000000000E+00 0. -1.
         11    1    3    3    0    0  0.79609668795E+01 -0.10140617962E+01  0.14117131497E+02  0.16238802817E+02  0.51100000000E-03 0. -1.
        -11    1    3    3    0    0  0.10486239290E+02  0.30135075865E+01  0.12054021441E+02  0.16258593899E+02  0.51100000000E-03 0.  1.
        -12    1    3    3    0    0  0.14625099236E+02 -0.40540257318E+01  0.18578436800E+01  0.15289873624E+02  0.00000000000E+00 0.  1.
</event>
<event>
 7    1  0.2459936E-009  0.4778729E+02  0.7816164E-02  0.1312668E+00
        -11   -1    0    0    0    0  0.00000000000E+00  0.00000000000E+00  0.45593999997E+02  0.45594000000E+02  0.51100000000E-03 0. -1.
         11   -1    0    0    0    0 -0.00000000000E+00 -0.00000000000E+00 -0.45593999997E+02  0.45594000000E+02  0.51100000000E-03 0.  1.
    9900012    2    1    2    0    0 -0.25549631419E+02 -0.34594977146E+02  0.58331441635E+01  0.47787289404E+02  0.20000083710E+02 0.  0.
         12    1    1    2    0    0  0.25549631419E+02  0.34594977146E+02 -0.58331441635E+01  0.43400710596E+02  0.00000000000E+00 0. -1.
         11    1    3    3    0    0 -0.86677389024E+01 -0.13965659365E+02 -0.41148089155E+01  0.16944054764E+02  0.51100000000E-03 0. -1.
        -11    1    3    3    0    0 -0.12010294833E+02 -0.19162233241E+02  0.39149858033E+01  0.22951372047E+02  0.51100000000E-03 0.  1.
         12    1    3    3    0    0 -0.48715976837E+01 -0.14670845407E+01  0.60329672757E+01  0.78918625933E+01  0.00000000000E+00 0. -1.
</event>
<event>
 7    1  0.2459936E-009  0.4778727E+02  0.7816164E-02  0.1312668E+00
        -11   -1    0    0    0    0  0.00000000000E+00  0.00000000000E+00  0.45593999997E+02  0.45594000000E+02  0.51100000000E-03 0.  1.
         11   -1    0    0    0    0 -0.00000000000E+00 -0.00000000000E+00 -0.45593999997E+02  0.45594000000E+02  0.51100000000E-03 0. -1.
    9900012    2    1    2    0    0  0.31919235862E+02  0.20270297865E+02  0.21304946086E+02  0.47787270499E+02  0.19999997511E+02 0.  0.
         12    1    1    2    0    0 -0.31919235862E+02 -0.20270297865E+02 -0.21304946086E+02  0.43400729501E+02  0.00000000000E+00 0. -1.
         11    1    3    3    0    0  0.70720962805E+01  0.60268839085E+01 -0.18682816674E+00  0.92936957381E+01  0.51100000000E-03 0. -1.
        -11    1    3    3    0    0  0.23587518113E+02  0.11196885099E+02  0.12562392382E+02  0.28975074620E+02  0.51100000000E-03 0.  1.
         12    1    3    3    0    0  0.12596214688E+01  0.30465288573E+01  0.89293818709E+01  0.95185001402E+01  0.00000000000E+00 0. -1.
</event>
<event>
 7    1  0.2459936E-009  0.4778727E+02  0.7816164E-02  0.1312668E+00
        -11   -1    0    0    0    0  0.00000000000E+00  0.00000000000E+00  0.45593999997E+02  0.45594000000E+02  0.51100000000E-03 0.  1.
         11   -1    0    0    0    0 -0.00000000000E+00 -0.00000000000E+00 -0.45593999997E+02  0.45594000000E+02  0.51100000000E-03 0. -1.
    9900012    2    1    2    0    0  0.27774129597E+02  0.10009102569E+02  0.31812557192E+02  0.47787271847E+02  0.20000003660E+02 0.  0.
         12    1    1    2    0    0 -0.27774129597E+02 -0.10009102569E+02 -0.31812557192E+02  0.43400728153E+02  0.00000000000E+00 0. -1.
         11    1    3    3    0    0  0.40951117955E+01  0.25780823783E+01 -0.20423976914E+00  0.48433628308E+01  0.51100000000E-03 0. -1.
        -11    1    3    3    0    0  0.45866729711E+01  0.14420803367E+01 -0.42584385876E+00  0.48268527940E+01  0.51100000000E-03 0.  1.
        -12    1    3    3    0    0  0.19092344831E+02  0.59889398541E+01  0.32442640819E+02  0.38117056222E+02  0.00000000000E+00 0.  1.
</event>
<event>
 7    1  0.2459936E-009  0.4778727E+02  0.7816164E-02  0.1312668E+00
        -11   -1    0    0    0    0  0.00000000000E+00  0.00000000000E+00  0.45593999997E+02  0.45594000000E+02  0.51100000000E-03 0.  1.
         11   -1    0    0    0    0 -0.00000000000E+00 -0.00000000000E+00 -0.45593999997E+02  0.45594000000E+02  0.51100000000E-03 0. -1.
    9900012    2    1    2    0    0 -0.18405142464E+02 -0.10397087644E+02  0.37904808801E+02  0.47787271540E+02  0.20000002261E+02 0.  0.
         12    1    1    2    0    0  0.18405142464E+02  0.10397087644E+02 -0.37904808801E+02  0.43400728460E+02  0.00000000000E+00 0. -1.
         11    1    3    3    0    0 -0.36473799010E+00 -0.65148326323E+01  0.18698093274E+01  0.67876553544E+01  0.51100000000E-03 0.  1.
        -11    1    3    3    0    0 -0.91282702911E+01 -0.35266800049E+00  0.11693536333E+02  0.14838749457E+02  0.51100000000E-03 0. -1.
        -12    1    3    3    0    0 -0.89121341830E+01 -0.35295870110E+01  0.24341463141E+02  0.26160866729E+02  0.00000000000E+00 0.  1.
</event>
<event>
 7    1  0.2459936E-009  0.4778727E+02  0.7816164E-02  0.1312668E+00
        -11   -1    0    0    0    0  0.00000000000E+00  0.00000000000E+00  0.45593999997E+02  0.45594000000E+02  0.51100000000E-03 0. -1.
         11   -1    0    0    0    0 -0.00000000000E+00 -0.00000000000E+00 -0.45593999997E+02  0.45594000000E+02  0.51100000000E-03 0.  1.
    9900012    2    1    2    0    0 -0.18178383808E+02 -0.34648872819E+02  0.18778320507E+02  0.47787270207E+02  0.19999996180E+02 0.  0.
         12    1    1    2    0    0  0.18178383808E+02  0.34648872819E+02 -0.18778320507E+02  0.43400729793E+02  0.00000000000E+00 0. -1.
         11    1    3    3    0    0 -0.70126123264E+01 -0.13091976836E+02  0.30820420637E+01  0.15168242240E+02  0.51100000000E-03 0.  1.
        -11    1    3    3    0    0 -0.11055545257E+02 -0.23837687194E+02  0.13992261860E+02  0.29769847227E+02  0.51100000000E-03 0. -1.
         12    1    3    3    0    0 -0.11022622435E+00  0.22807912109E+01  0.17040165838E+01  0.28491807395E+01  0.00000000000E+00 0. -1.
</event>
<event>
 7    1  0.2459936E-009  0.4778727E+02  0.7816164E-02  0.1312668E+00
        -11   -1    0    0    0    0  0.00000000000E+00  0.00000000000E+00  0.45593999997E+02  0.45594000000E+02  0.51100000000E-03 0.  1.
         11   -1    0    0    0    0 -0.00000000000E+00 -0.00000000000E+00 -0.45593999997E+02  0.45594000000E+02  0.51100000000E-03 0. -1.
    9900012    2    1    2    0    0  0.33115050329E+01  0.31510481650E+02  0.29660524453E+02  0.47787271547E+02  0.20000002293E+02 0.  0.
         12    1    1    2    0    0 -0.33115050329E+01 -0.31510481650E+02 -0.29660524453E+02  0.43400728453E+02  0.00000000000E+00 0. -1.
         11    1    3    3    0    0  0.27770562684E+01  0.17668569361E+01 -0.68729844895E+00  0.33624699805E+01  0.51100000000E-03 0. -1.
        -11    1    3    3    0    0  0.90884038071E+00  0.13814206454E+01 -0.11678659523E+01  0.20244073159E+01  0.51100000000E-03 0.  1.
        -12    1    3    3    0    0 -0.37439161620E+00  0.28362204069E+02  0.31515688854E+02  0.42400394251E+02  0.00000000000E+00 0.  1.
</event>
<event>
 7    1  0.2459936E-009  0.4778728E+02  0.7816164E-02  0.1312668E+00
        -11   -1    0    0    0    0  0.00000000000E+00  0.00000000000E+00  0.45593999997E+02  0.45594000000E+02  0.51100000000E-03 0. -1.
         11   -1    0    0    0    0 -0.00000000000E+00 -0.00000000000E+00 -0.45593999997E+02  0.45594000000E+02  0.51100000000E-03 0.  1.
    9900012    2    1    2    0    0  0.28018365986E+02  0.21440902853E+02 -0.25276106698E+02  0.47787277454E+02  0.20000029223E+02 0.  0.
         12    1    1    2    0    0 -0.28018365986E+02 -0.21440902853E+02  0.25276106698E+02  0.43400722546E+02  0.00000000000E+00 0. -1.
         11    1    3    3    0    0  0.69783633420E+00  0.20100515273E+01 -0.23883209330E+01  0.31986496888E+01  0.51100000000E-03 0. -1.
        -11    1    3    3    0    0  0.12598893478E+01  0.54371386448E+00 -0.97161809561E+01  0.98125999902E+01  0.51100000000E-03 0.  1.
        -12    1    3    3    0    0  0.26060640304E+02  0.18887137461E+02 -0.13171604809E+02  0.34776027775E+02  0.00000000000E+00 0.  1.
</event>
<event>
 7    1  0.2459936E-009  0.4778728E+02  0.7816164E-02  0.1312668E+00
        -11   -1    0    0    0    0  0.00000000000E+00  0.00000000000E+00  0.45593999997E+02  0.45594000000E+02  0.51100000000E-03 0. -1.
         11   -1    0    0    0    0 -0.00000000000E+00 -0.00000000000E+00 -0.45593999997E+02  0.45594000000E+02  0.51100000000E-03 0.  1.
    9900012    2    1    2    0    0 -0.29230571369E+02 -0.25218476608E+02 -0.19829896590E+02  0.47787278073E+02  0.20000032047E+02 0.  0.
         12    1    1    2    0    0  0.29230571369E+02  0.25218476608E+02  0.19829896590E+02  0.43400721927E+02  0.00000000000E+00 0. -1.
         11    1    3    3    0    0 -0.13404085967E+02 -0.96289504413E+01 -0.95606993886E+01  0.19073363109E+02  0.51100000000E-03 0. -1.
        -11    1    3    3    0    0 -0.17293983201E+02 -0.87131792890E+01 -0.97032715406E+01  0.21659982159E+02  0.51100000000E-03 0.  1.
         12    1    3    3    0    0  0.14674977991E+01 -0.68763468774E+01 -0.56592566095E+00  0.70539328054E+01  0.00000000000E+00 0. -1.
</event>
<event>
 7    1  0.2459936E-009  0.4778727E+02  0.7816164E-02  0.1312668E+00
        -11   -1    0    0    0    0  0.00000000000E+00  0.00000000000E+00  0.45593999997E+02  0.45594000000E+02  0.51100000000E-03 0. -1.
         11   -1    0    0    0    0 -0.00000000000E+00 -0.00000000000E+00 -0.45593999997E+02  0.45594000000E+02  0.51100000000E-03 0.  1.
    9900012    2    1    2    0    0 -0.20582671102E+02 -0.31475463896E+02 -0.21662690362E+02  0.47787270388E+02  0.19999997005E+02 0.  0.
         12    1    1    2    0    0  0.20582671102E+02  0.31475463896E+02  0.21662690362E+02  0.43400729612E+02  0.00000000000E+00 0. -1.
         11    1    3    3    0    0 -0.12882655627E+01 -0.11745148682E+02 -0.54211419226E+01  0.12999881758E+02  0.51100000000E-03 0. -1.
        -11    1    3    3    0    0 -0.12786081357E+02 -0.17290515631E+02 -0.17498039108E+02  0.27724126319E+02  0.51100000000E-03 0.  1.
        -12    1    3    3    0    0 -0.65083241820E+01 -0.24397995841E+01  0.12564906693E+01  0.70632623108E+01  0.00000000000E+00 0.  1.
</event>
<event>
 7    1  0.2459936E-009  0.4778727E+02  0.7816164E-02  0.1312668E+00
        -11   -1    0    0    0    0  0.00000000000E+00  0.00000000000E+00  0.45593999997E+02  0.45594000000E+02  0.51100000000E-03 0. -1.
         11   -1    0    0    0    0 -0.00000000000E+00 -0.00000000000E+00 -0.45593999997E+02  0.45594000000E+02  0.51100000000E-03 0.  1.
    9900012    2    1    2    0    0 -0.43291226706E+02 -0.28773823707E+01 -0.11016743268E+01  0.47787270451E+02  0.19999997296E+02 0.  0.
         12    1    1    2    0    0  0.43291226706E+02  0.28773823707E+01  0.11016743268E+01  0.43400729549E+02  0.00000000000E+00 0. -1.
         11    1    3    3    0    0 -0.77865213443E+01 -0.15652971417E+01 -0.30763274818E+01  0.85172683897E+01  0.51100000000E-03 0. -1.
        -11    1    3    3    0    0 -0.24728075117E+02 -0.27378724199E+01 -0.62339810571E+01  0.25648316990E+02  0.51100000000E-03 0.  1.
         12    1    3    3    0    0 -0.10776630245E+02  0.14257871909E+01  0.82086342121E+01  0.13621685071E+02  0.00000000000E+00 0. -1.
</event>
<event>
 7    1  0.2459936E-009  0.4778727E+02  0.7816164E-02  0.1312668E+00
        -11   -1    0    0    0    0  0.00000000000E+00  0.00000000000E+00  0.45593999997E+02  0.45594000000E+02  0.51100000000E-03 0.  1.
         11   -1    0    0    0    0 -0.00000000000E+00 -0.00000000000E+00 -0.45593999997E+02  0.45594000000E+02  0.51100000000E-03 0. -1.
    9900012    2    1    2    0    0 -0.87627365454E+01  0.92748558306E+01  0.41482710327E+02  0.47787265461E+02  0.19999974541E+02 0.  0.
         12    1    1    2    0    0  0.87627365454E+01 -0.92748558306E+01 -0.41482710327E+02  0.43400734539E+02  0.00000000000E+00 0. -1.
         11    1    3    3    0    0 -0.52806838854E+01 -0.13140923005E+01  0.11748159252E+02  0.12947266389E+02  0.51100000000E-03 0.  1.
        -11    1    3    3    0    0  0.41559849052E+01 -0.82144189947E+00  0.93162921878E+01  0.10234269770E+02  0.51100000000E-03 0. -1.
        -12    1    3    3    0    0 -0.76380375651E+01  0.11410390031E+02  0.20418258888E+02  0.24605729302E+02  0.00000000000E+00 0.  1.
</event>
<event>
 7    1  0.2459936E-009  0.4778727E+02  0.7816164E-02  0.1312668E+00
        -11   -1    0    0    0    0  0.00000000000E+00  0.00000000000E+00  0.45593999997E+02  0.45594000000E+02  0.51100000000E-03 0. -1.
         11   -1    0    0    0    0 -0.00000000000E+00 -0.00000000000E+00 -0.45593999997E+02  0.45594000000E+02  0.51100000000E-03 0.  1.
    9900012    2    1    2    0    0 -0.18721973719E+02  0.28453458800E+02 -0.26898174987E+02  0.47787269185E+02  0.19999991523E+02 0.  0.
         12    1    1    2    0    0  0.18721973719E+02 -0.28453458800E+02  0.26898174987E+02  0.43400730815E+02  0.00000000000E+00 0. -1.
         11    1    3    3    0    0 -0.21190432701E+01  0.44480403527E+01 -0.23890629994E+00  0.49327967565E+01  0.51100000000E-03 0. -1.
        -11    1    3    3    0    0 -0.11205769599E+02  0.36792104042E+01 -0.14007468778E+02  0.18311609524E+02  0.51100000000E-03 0.  1.
        -12    1    3    3    0    0 -0.53971608494E+01  0.20326208043E+02 -0.12651799909E+02  0.24542862905E+02  0.00000000000E+00 0.  1.
</event>
<event>
 7    1  0.2459936E-009  0.4778727E+02  0.7816164E-02  0.1312668E+00
        -11   -1    0    0    0    0  0.00000000000E+00  0.00000000000E+00  0.45593999997E+02  0.45594000000E+02  0.51100000000E-03 0.  1.
         11   -1    0    0    0    0 -0.00000000000E+00 -0.00000000000E+00 -0.45593999997E+02  0.45594000000E+02  0.51100000000E-03 0. -1.
    9900012    2    1    2    0    0 -0.40652949859E+02 -0.25715459697E+00  0.15195220242E+02  0.47787272138E+02  0.20000004988E+02 0.  0.
         12    1    1    2    0    0  0.40652949859E+02  0.25715459697E+00 -0.15195220242E+02  0.43400727862E+02  0.00000000000E+00 0. -1.
         11    1    3    3    0    0 -0.17875579590E+01  0.13413912969E+01  0.37790582752E+00  0.22666069673E+01  0.51100000000E-03 0. -1.
        -11    1    3    3    0    0 -0.21200893501E+02 -0.73063027277E+01  0.11235377065E+01  0.22452667592E+02  0.51100000000E-03 0.  1.
         12    1    3    3    0    0 -0.17664498399E+02  0.57077568338E+01  0.13693776708E+02  0.23067997579E+02  0.00000000000E+00 0. -1.
</event>
<event>
 7    1  0.2459936E-009  0.4778728E+02  0.7816164E-02  0.1312668E+00
        -11   -1    0    0    0    0  0.00000000000E+00  0.00000000000E+00  0.45593999997E+02  0.45594000000E+02  0.51100000000E-03 0.  1.
         11   -1    0    0    0    0 -0.00000000000E+00 -0.00000000000E+00 -0.45593999997E+02  0.45594000000E+02  0.51100000000E-03 0. -1.
    9900012    2    1    2    0    0  0.19049954456E+02  0.77746458635E+01  0.38213570058E+02  0.47787276277E+02  0.20000023857E+02 0.  0.
         12    1    1    2    0    0 -0.19049954456E+02 -0.77746458635E+01 -0.38213570058E+02  0.43400723723E+02  0.00000000000E+00 0. -1.
         11    1    3    3    0    0  0.29372850462E+01 -0.60984357711E+01  0.85387703316E+01  0.10896291173E+02  0.51100000000E-03 0. -1.
        -11    1    3    3    0    0  0.29806915202E+01  0.47227938704E+00  0.56751922602E+01  0.64277038832E+01  0.51100000000E-03 0.  1.
         12    1    3    3    0    0  0.13131977890E+02  0.13400802247E+02  0.23999607466E+02  0.30463281221E+02  0.00000000000E+00 0. -1.
</event>
<event>
 7    1  0.2459936E-009  0.4778727E+02  0.7816164E-02  0.1312668E+00
        -11   -1    0    0    0    0  0.00000000000E+00  0.00000000000E+00  0.45593999997E+02  0.45594000000E+02  0.51100000000E-03 0.  1.
         11   -1    0    0    0    0 -0.00000000000E+00 -0.00000000000E+00 -0.45593999997E+02  0.45594000000E+02  0.51100000000E-03 0. -1.
    9900012    2    1    2    0    0 -0.12986600343E+02 -0.29615097018E+02  0.28946804349E+02  0.47787271413E+02  0.20000001682E+02 0.  0.
         12    1    1    2    0    0  0.12986600343E+02  0.29615097018E+02 -0.28946804349E+02  0.43400728587E+02  0.00000000000E+00 0. -1.
         11    1    3    3    0    0 -0.21592486374E+00 -0.46854438643E+01 -0.48250220442E+00  0.47151687553E+01  0.51100000000E-03 0. -1.
        -11    1    3    3    0    0  0.22476618088E+00 -0.15199687738E+02  0.13575306574E+02  0.20380627468E+02  0.51100000000E-03 0.  1.
        -12    1    3    3    0    0 -0.12995441661E+02 -0.97299654156E+01  0.15853999979E+02  0.22691475190E+02  0.00000000000E+00 0.  1.
</event>
<event>
 7    1  0.2459936E-009  0.4778727E+02  0.7816164E-02  0.1312668E+00
        -11   -1    0    0    0    0  0.00000000000E+00  0.00000000000E+00  0.45593999997E+02  0.45594000000E+02  0.51100000000E-03 0. -1.
         11   -1    0    0    0    0 -0.00000000000E+00 -0.00000000000E+00 -0.45593999997E+02  0.45594000000E+02  0.51100000000E-03 0.  1.
    9900012    2    1    2    0    0  0.16765353869E+02  0.39343072561E+02  0.73938170069E+01  0.47787274443E+02  0.20000015497E+02 0.  0.
         12    1    1    2    0    0 -0.16765353869E+02 -0.39343072561E+02 -0.73938170069E+01  0.43400725557E+02  0.00000000000E+00 0. -1.
         11    1    3    3    0    0 -0.44749913922E+00  0.11011862760E+02  0.63204890688E+01  0.12704721927E+02  0.51100000000E-03 0. -1.
        -11    1    3    3    0    0  0.63088581592E+01  0.18632313319E+02  0.43019526792E+01  0.20136325087E+02  0.51100000000E-03 0.  1.
        -12    1    3    3    0    0  0.10903994849E+02  0.96988964821E+01 -0.32286247411E+01  0.14946227429E+02  0.00000000000E+00 0.  1.
</event>
<event>
 7    1  0.2459936E-009  0.4778727E+02  0.7816164E-02  0.1312668E+00
        -11   -1    0    0    0    0  0.00000000000E+00  0.00000000000E+00  0.45593999997E+02  0.45594000000E+02  0.51100000000E-03 0.  1.
         11   -1    0    0    0    0 -0.00000000000E+00 -0.00000000000E+00 -0.45593999997E+02  0.45594000000E+02  0.51100000000E-03 0. -1.
    9900012    2    1    2    0    0  0.17528834828E+02  0.30244869115E+00  0.39702291229E+02  0.47787268964E+02  0.19999990515E+02 0.  0.
         12    1    1    2    0    0 -0.17528834828E+02 -0.30244869115E+00 -0.39702291229E+02  0.43400731036E+02  0.00000000000E+00 0. -1.
         11    1    3    3    0    0 -0.22362900304E+01 -0.18569262644E+01  0.38682252279E+01  0.48386294471E+01  0.51100000000E-03 0. -1.
        -11    1    3    3    0    0  0.97829360163E+01 -0.53196935722E+01  0.15307312143E+02  0.18929310133E+02  0.51100000000E-03 0.  1.
        -12    1    3    3    0    0  0.99821888418E+01  0.74790685278E+01  0.20526753858E+02  0.24019329384E+02  0.00000000000E+00 0.  1.
</event>
<event>
 7    1  0.2459936E-009  0.4778728E+02  0.7816164E-02  0.1312668E+00
        -11   -1    0    0    0    0  0.00000000000E+00  0.00000000000E+00  0.45593999997E+02  0.45594000000E+02  0.51100000000E-03 0. -1.
         11   -1    0    0    0    0 -0.00000000000E+00 -0.00000000000E+00 -0.45593999997E+02  0.45594000000E+02  0.51100000000E-03 0.  1.
    9900012    2    1    2    0    0 -0.38263904434E+02 -0.20275692853E+02 -0.28970101453E+01  0.47787276838E+02  0.20000026416E+02 0.  0.
         12    1    1    2    0    0  0.38263904434E+02  0.20275692853E+02  0.28970101453E+01  0.43400723162E+02  0.00000000000E+00 0. -1.
         11    1    3    3    0    0 -0.33980981807E+01  0.93053142631E+00 -0.90921046145E+00  0.36386293993E+01  0.51100000000E-03 0. -1.
        -11    1    3    3    0    0 -0.24313081660E+02 -0.19010521088E+02 -0.78957224356E+01  0.31856997424E+02  0.51100000000E-03 0.  1.
        -12    1    3    3    0    0 -0.10552724593E+02 -0.21957031908E+01  0.59079227518E+01  0.12291650015E+02  0.00000000000E+00 0.  1.
</event>
<event>
 7    1  0.2459936E-009  0.4778727E+02  0.7816164E-02  0.1312668E+00
        -11   -1    0    0    0    0  0.00000000000E+00  0.00000000000E+00  0.45593999997E+02  0.45594000000E+02  0.51100000000E-03 0.  1.
         11   -1    0    0    0    0 -0.00000000000E+00 -0.00000000000E+00 -0.45593999997E+02  0.45594000000E+02  0.51100000000E-03 0. -1.
    9900012    2    1    2    0    0 -0.47715006660E+01  0.33840139534E+02  0.26752592490E+02  0.47787268817E+02  0.19999989843E+02 0.  0.
         12    1    1    2    0    0  0.47715006660E+01 -0.33840139534E+02 -0.26752592490E+02  0.43400731183E+02  0.00000000000E+00 0. -1.
         11    1    3    3    0    0  0.55241996678E+01  0.16293078513E+02  0.87435359245E+01  0.19298461341E+02  0.51100000000E-03 0. -1.
        -11    1    3    3    0    0  0.15276329217E+01  0.21185387895E+01  0.25858238364E+01  0.36753712901E+01  0.51100000000E-03 0.  1.
        -12    1    3    3    0    0 -0.11823333255E+02  0.15428522231E+02  0.15423232730E+02  0.24813436186E+02  0.00000000000E+00 0.  1.
</event>
<event>
 7    1  0.2459936E-009  0.4778727E+02  0.7816164E-02  0.1312668E+00
        -11   -1    0    0    0    0  0.00000000000E+00  0.00000000000E+00  0.45593999997E+02  0.45594000000E+02  0.51100000000E-03 0. -1.
         11   -1    0    0    0    0 -0.00000000000E+00 -0.00000000000E+00 -0.45593999997E+02  0.45594000000E+02  0.51100000000E-03 0.  1.
    9900012    2    1    2    0    0  0.34353239664E+02 -0.22454939466E+02  0.14115746402E+02  0.47787266385E+02  0.19999978755E+02 0.  0.
         12    1    1    2    0    0 -0.34353239664E+02  0.22454939466E+02 -0.14115746402E+02  0.43400733615E+02  0.00000000000E+00 0. -1.
         11    1    3    3    0    0  0.14491603787E+02 -0.16970930897E+02  0.14984714565E+02  0.26880490075E+02  0.51100000000E-03 0. -1.
        -11    1    3    3    0    0  0.36143555850E+01 -0.24340146364E+01 -0.15384659052E+00  0.43602365279E+01  0.51100000000E-03 0.  1.
         12    1    3    3    0    0  0.16247280293E+02 -0.30499939329E+01 -0.71512157238E+00  0.16546539782E+02  0.00000000000E+00 0. -1.
</event>
<event>
 7    1  0.2459936E-009  0.4778727E+02  0.7816164E-02  0.1312668E+00
        -11   -1    0    0    0    0  0.00000000000E+00  0.00000000000E+00  0.45593999997E+02  0.45594000000E+02  0.51100000000E-03 0.  1.
         11   -1    0    0    0    0 -0.00000000000E+00 -0.00000000000E+00 -0.45593999997E+02  0.45594000000E+02  0.51100000000E-03 0. -1.
    9900012    2    1    2    0    0  0.18431383982E+02 -0.27557616725E+02  0.28008662374E+02  0.47787270478E+02  0.19999997416E+02 0.  0.
         12    1    1    2    0    0 -0.18431383982E+02  0.27557616725E+02 -0.28008662374E+02  0.43400729522E+02  0.00000000000E+00 0. -1.
         11    1    3    3    0    0  0.37945003472E+01 -0.10124017867E+02  0.17442810236E+02  0.20521832272E+02  0.51100000000E-03 0. -1.
        -11    1    3    3    0    0  0.48187851952E+01 -0.10774985243E+02  0.98626144851E+01  0.15381552669E+02  0.51100000000E-03 0.  1.
         12    1    3    3    0    0  0.98180984397E+01 -0.66586136155E+01  0.70323765328E+00  0.11883885537E+02  0.00000000000E+00 0. -1.
</event>
<event>
 7    1  0.2459936E-009  0.4778731E+02  0.7816164E-02  0.1312668E+00
        -11   -1    0    0    0    0  0.00000000000E+00  0.00000000000E+00  0.45593999997E+02  0.45594000000E+02  0.51100000000E-03 0. -1.
         11   -1    0    0    0    0 -0.00000000000E+00 -0.00000000000E+00 -0.45593999997E+02  0.45594000000E+02  0.51100000000E-03 0.  1.
    9900012    2    1    2    0    0  0.14020176079E+02 -0.69572134677E+01 -0.40480261780E+02  0.47787311638E+02  0.20000185081E+02 0.  0.
         12    1    1    2    0    0 -0.14020176079E+02  0.69572134677E+01  0.40480261780E+02  0.43400688362E+02  0.00000000000E+00 0. -1.
         11    1    3    3    0    0 -0.12407937713E+01 -0.57031248881E+01 -0.13505496385E+02  0.14712703203E+02  0.51100000000E-03 0. -1.
        -11    1    3    3    0    0  0.91858472495E+01 -0.28784842292E+01 -0.24488195119E+02  0.26312300576E+02  0.51100000000E-03 0.  1.
        -12    1    3    3    0    0  0.60751226008E+01  0.16243956495E+01 -0.24865702758E+01  0.67623078589E+01  0.00000000000E+00 0.  1.
</event>
<event>
 7    1  0.2459936E-009  0.4778727E+02  0.7816164E-02  0.1312668E+00
        -11   -1    0    0    0    0  0.00000000000E+00  0.00000000000E+00  0.45593999997E+02  0.45594000000E+02  0.51100000000E-03 0.  1.
         11   -1    0    0    0    0 -0.00000000000E+00 -0.00000000000E+00 -0.45593999997E+02  0.45594000000E+02  0.51100000000E-03 0. -1.
    9900012    2    1    2    0    0 -0.25156663858E+02  0.14154831468E+02  0.32409974045E+02  0.47787269500E+02  0.19999992957E+02 0.  0.
         12    1    1    2    0    0  0.25156663858E+02 -0.14154831468E+02 -0.32409974045E+02  0.43400730500E+02  0.00000000000E+00 0. -1.
         11    1    3    3    0    0 -0.12546805622E+02  0.61589370574E+01  0.45342376615E+01  0.14694017436E+02  0.51100000000E-03 0. -1.
        -11    1    3    3    0    0 -0.11611933090E+02  0.71602443408E+01  0.15496453620E+02  0.20645729926E+02  0.51100000000E-03 0.  1.
         12    1    3    3    0    0 -0.99792514680E+00  0.83565006978E+00  0.12379282764E+02  0.12447522138E+02  0.00000000000E+00 0. -1.
</event>
<event>
 7    1  0.2459936E-009  0.4778727E+02  0.7816164E-02  0.1312668E+00
        -11   -1    0    0    0    0  0.00000000000E+00  0.00000000000E+00  0.45593999997E+02  0.45594000000E+02  0.51100000000E-03 0. -1.
         11   -1    0    0    0    0 -0.00000000000E+00 -0.00000000000E+00 -0.45593999997E+02  0.45594000000E+02  0.51100000000E-03 0.  1.
    9900012    2    1    2    0    0 -0.11531628262E+02 -0.30432271987E+02 -0.28714491804E+02  0.47787266501E+02  0.19999979285E+02 0.  0.
         12    1    1    2    0    0  0.11531628262E+02  0.30432271987E+02  0.28714491804E+02  0.43400733499E+02  0.00000000000E+00 0. -1.
         11    1    3    3    0    0 -0.41064495456E+01  0.74242297224E-01  0.64686731934E+00  0.41577490760E+01  0.51100000000E-03 0. -1.
        -11    1    3    3    0    0 -0.31892922666E+01 -0.11365267047E+02 -0.63651143832E+01  0.13411023883E+02  0.51100000000E-03 0.  1.
         12    1    3    3    0    0 -0.42358864502E+01 -0.19141247238E+02 -0.22996244740E+02  0.30218493542E+02  0.00000000000E+00 0. -1.
</event>
<event>
 7    1  0.2459936E-009  0.4778727E+02  0.7816164E-02  0.1312668E+00
        -11   -1    0    0    0    0  0.00000000000E+00  0.00000000000E+00  0.45593999997E+02  0.45594000000E+02  0.51100000000E-03 0. -1.
         11   -1    0    0    0    0 -0.00000000000E+00 -0.00000000000E+00 -0.45593999997E+02  0.45594000000E+02  0.51100000000E-03 0.  1.
    9900012    2    1    2    0    0 -0.67269549372E+01 -0.42364386175E+02 -0.66053057659E+01  0.47787271861E+02  0.20000003722E+02 0.  0.
         12    1    1    2    0    0  0.67269549372E+01  0.42364386175E+02  0.66053057659E+01  0.43400728139E+02  0.00000000000E+00 0. -1.
         11    1    3    3    0    0 -0.43080868022E+01 -0.45485158660E+01 -0.14426310312E+01  0.64288251673E+01  0.51100000000E-03 0. -1.
        -11    1    3    3    0    0 -0.76041686643E+01 -0.91626024584E+01 -0.18982123671E+01  0.12057357726E+02  0.51100000000E-03 0.  1.
        -12    1    3    3    0    0  0.51853005294E+01 -0.28653267851E+02 -0.32644623676E+01  0.29301088967E+02  0.00000000000E+00 0.  1.
</event>
<event>
 7    1  0.2459936E-009  0.4778727E+02  0.7816164E-02  0.1312668E+00
        -11   -1    0    0    0    0  0.00000000000E+00  0.00000000000E+00  0.45593999997E+02  0.45594000000E+02  0.51100000000E-03 0.  1.
         11   -1    0    0    0    0 -0.00000000000E+00 -0.00000000000E+00 -0.45593999997E+02  0.45594000000E+02  0.51100000000E-03 0. -1.
    9900012    2    1    2    0    0  0.35800093840E+02 -0.19993196031E+02  0.14221420802E+02  0.47787269406E+02  0.19999992528E+02 0.  0.
         12    1    1    2    0    0 -0.35800093840E+02  0.19993196031E+02 -0.14221420802E+02  0.43400730594E+02  0.00000000000E+00 0. -1.
         11    1    3    3    0    0  0.15408413261E+02 -0.55007787139E+01  0.41304684949E+01  0.16874197342E+02  0.51100000000E-03 0.  1.
        -11    1    3    3    0    0  0.12725353530E+02 -0.58854568513E+01  0.12897191929E+02  0.19050217445E+02  0.51100000000E-03 0. -1.
         12    1    3    3    0    0  0.76663270489E+01 -0.86069604661E+01 -0.28062396211E+01  0.11862854618E+02  0.00000000000E+00 0. -1.
</event>
<event>
 7    1  0.2459936E-009  0.4778727E+02  0.7816164E-02  0.1312668E+00
        -11   -1    0    0    0    0  0.00000000000E+00  0.00000000000E+00  0.45593999997E+02  0.45594000000E+02  0.51100000000E-03 0.  1.
         11   -1    0    0    0    0 -0.00000000000E+00 -0.00000000000E+00 -0.45593999997E+02  0.45594000000E+02  0.51100000000E-03 0. -1.
    9900012    2    1    2    0    0 -0.42261813430E+02  0.65845371837E+00  0.98553904325E+01  0.47787272399E+02  0.20000006176E+02 0.  0.
         12    1    1    2    0    0  0.42261813430E+02 -0.65845371837E+00 -0.98553904325E+01  0.43400727601E+02  0.00000000000E+00 0. -1.
         11    1    3    3    0    0 -0.15876555175E+02 -0.21823248135E+01  0.24627144612E+01  0.16213960300E+02  0.51100000000E-03 0. -1.
        -11    1    3    3    0    0 -0.12331727280E+02 -0.44009763374E+01 -0.19064809413E+01  0.13231581926E+02  0.51100000000E-03 0.  1.
        -12    1    3    3    0    0 -0.14053530976E+02  0.72417548693E+01  0.92991569126E+01  0.18341730174E+02  0.00000000000E+00 0.  1.
</event>
<event>
 7    1  0.2459936E-009  0.4778726E+02  0.7816164E-02  0.1312668E+00
        -11   -1    0    0    0    0  0.00000000000E+00  0.00000000000E+00  0.45593999997E+02  0.45594000000E+02  0.51100000000E-03 0. -1.
         11   -1    0    0    0    0 -0.00000000000E+00 -0.00000000000E+00 -0.45593999997E+02  0.45594000000E+02  0.51100000000E-03 0.  1.
    9900012    2    1    2    0    0  0.74381050763E+01  0.13541547985E+02 -0.40557674548E+02  0.47787263904E+02  0.19999967444E+02 0.  0.
         12    1    1    2    0    0 -0.74381050763E+01 -0.13541547985E+02  0.40557674548E+02  0.43400736096E+02  0.00000000000E+00 0. -1.
         11    1    3    3    0    0 -0.29692081746E+01  0.11095665921E+00 -0.16290848117E+02  0.16559596649E+02  0.51100000000E-03 0. -1.
        -11    1    3    3    0    0 -0.18901245803E+01  0.23700097221E+01 -0.27878779293E+01  0.41184682374E+01  0.51100000000E-03 0.  1.
        -12    1    3    3    0    0  0.12297437831E+02  0.11060581603E+02 -0.21478948502E+02  0.27109199017E+02  0.00000000000E+00 0.  1.
</event>
<event>
 7    1  0.2459936E-009  0.4778727E+02  0.7816164E-02  0.1312668E+00
        -11   -1    0    0    0    0  0.00000000000E+00  0.00000000000E+00  0.45593999997E+02  0.45594000000E+02  0.51100000000E-03 0.  1.
         11   -1    0    0    0    0 -0.00000000000E+00 -0.00000000000E+00 -0.45593999997E+02  0.45594000000E+02  0.51100000000E-03 0. -1.
    9900012    2    1    2    0    0  0.30474504093E+02  0.82602862709E+01  0.29777433271E+02  0.47787271190E+02  0.20000000666E+02 0.  0.
         12    1    1    2    0    0 -0.30474504093E+02 -0.82602862709E+01 -0.29777433271E+02  0.43400728810E+02  0.00000000000E+00 0. -1.
         11    1    3    3    0    0  0.13870376568E+02  0.10751678805E+02  0.14069970306E+02  0.22493332522E+02  0.51100000000E-03 0. -1.
        -11    1    3    3    0    0  0.98244085085E+01  0.14653135548E+01  0.14154294030E+02  0.17291911002E+02  0.51100000000E-03 0.  1.
         12    1    3    3    0    0  0.67797190169E+01 -0.39567060894E+01  0.15531689339E+01  0.80020276658E+01  0.00000000000E+00 0. -1.
</event>
<event>
 7    1  0.2459936E-009  0.4778727E+02  0.7816164E-02  0.1312668E+00
        -11   -1    0    0    0    0  0.00000000000E+00  0.00000000000E+00  0.45593999997E+02  0.45594000000E+02  0.51100000000E-03 0.  1.
         11   -1    0    0    0    0 -0.00000000000E+00 -0.00000000000E+00 -0.45593999997E+02  0.45594000000E+02  0.51100000000E-03 0. -1.
    9900012    2    1    2    0    0 -0.23964291324E+02  0.46535931065E+01  0.35884259367E+02  0.47787271230E+02  0.20000000844E+02 0.  0.
         12    1    1    2    0    0  0.23964291324E+02 -0.46535931065E+01 -0.35884259367E+02  0.43400728770E+02  0.00000000000E+00 0. -1.
         11    1    3    3    0    0 -0.92588936896E+00 -0.62665581300E+00  0.14425288922E+01  0.18250639708E+01  0.51100000000E-03 0. -1.
        -11    1    3    3    0    0 -0.17350322399E+02  0.96892399305E+01  0.33150352205E+02  0.38650496884E+02  0.51100000000E-03 0.  1.
        -12    1    3    3    0    0 -0.56880795558E+01 -0.44089910110E+01  0.12913782696E+01  0.73117103747E+01  0.00000000000E+00 0.  1.
</event>
<event>
 7    1  0.2459936E-009  0.4778727E+02  0.7816164E-02  0.1312668E+00
        -11   -1    0    0    0    0  0.00000000000E+00  0.00000000000E+00  0.45593999997E+02  0.45594000000E+02  0.51100000000E-03 0. -1.
         11   -1    0    0    0    0 -0.00000000000E+00 -0.00000000000E+00 -0.45593999997E+02  0.45594000000E+02  0.51100000000E-03 0.  1.
    9900012    2    1    2    0    0 -0.12242763119E+02 -0.21724484279E+02 -0.35521606429E+02  0.47787274324E+02  0.20000014951E+02 0.  0.
         12    1    1    2    0    0  0.12242763119E+02  0.21724484279E+02  0.35521606429E+02  0.43400725676E+02  0.00000000000E+00 0. -1.
         11    1    3    3    0    0 -0.19923629857E+00 -0.40575973955E-01  0.10150822484E+01  0.10352457411E+01  0.51100000000E-03 0. -1.
        -11    1    3    3    0    0 -0.10134983881E+02 -0.37244421695E+01 -0.17063220420E+02  0.20192643688E+02  0.51100000000E-03 0.  1.
        -12    1    3    3    0    0 -0.19085429397E+01 -0.17959466135E+02 -0.19473468257E+02  0.26559384894E+02  0.00000000000E+00 0.  1.
</event>
<event>
 7    1  0.2459936E-009  0.4778727E+02  0.7816164E-02  0.1312668E+00
        -11   -1    0    0    0    0  0.00000000000E+00  0.00000000000E+00  0.45593999997E+02  0.45594000000E+02  0.51100000000E-03 0.  1.
         11   -1    0    0    0    0 -0.00000000000E+00 -0.00000000000E+00 -0.45593999997E+02  0.45594000000E+02  0.51100000000E-03 0. -1.
    9900012    2    1    2    0    0 -0.40502685423E+02  0.11272662373E+02  0.10774182115E+02  0.47787269088E+02  0.19999991078E+02 0.  0.
         12    1    1    2    0    0  0.40502685423E+02 -0.11272662373E+02 -0.10774182115E+02  0.43400730912E+02  0.00000000000E+00 0. -1.
         11    1    3    3    0    0 -0.19475978772E+02 -0.31366852287E+01  0.40389785163E+01  0.20136183627E+02  0.51100000000E-03 0. -1.
        -11    1    3    3    0    0 -0.61635666835E+01  0.11072962897E+01  0.42092283788E+01  0.75454133844E+01  0.51100000000E-03 0.  1.
        -12    1    3    3    0    0 -0.14863139968E+02  0.13302051312E+02  0.25259752200E+01  0.20105672076E+02  0.00000000000E+00 0.  1.
</event>
<event>
 7    1  0.2459936E-009  0.4778727E+02  0.7816164E-02  0.1312668E+00
        -11   -1    0    0    0    0  0.00000000000E+00  0.00000000000E+00  0.45593999997E+02  0.45594000000E+02  0.51100000000E-03 0. -1.
         11   -1    0    0    0    0 -0.00000000000E+00 -0.00000000000E+00 -0.45593999997E+02  0.45594000000E+02  0.51100000000E-03 0.  1.
    9900012    2    1    2    0    0 -0.35134071452E+02  0.16761342541E+01 -0.25424610318E+02  0.47787271750E+02  0.20000003218E+02 0.  0.
         12    1    1    2    0    0  0.35134071452E+02 -0.16761342541E+01  0.25424610318E+02  0.43400728250E+02  0.00000000000E+00 0. -1.
         11    1    3    3    0    0 -0.10600764732E+02 -0.41003449564E+01 -0.47031216929E+01  0.12300747765E+02  0.51100000000E-03 0. -1.
        -11    1    3    3    0    0 -0.15210795765E+02 -0.13161822324E+01 -0.53876114737E+01  0.16190336659E+02  0.51100000000E-03 0.  1.
        -12    1    3    3    0    0 -0.93225109546E+01  0.70926614429E+01 -0.15333877151E+02  0.19296187326E+02  0.00000000000E+00 0.  1.
</event>
<event>
 7    1  0.2459936E-009  0.4778726E+02  0.7816164E-02  0.1312668E+00
        -11   -1    0    0    0    0  0.00000000000E+00  0.00000000000E+00  0.45593999997E+02  0.45594000000E+02  0.51100000000E-03 0. -1.
         11   -1    0    0    0    0 -0.00000000000E+00 -0.00000000000E+00 -0.45593999997E+02  0.45594000000E+02  0.51100000000E-03 0.  1.
    9900012    2    1    2    0    0 -0.10491943257E+02  0.34877958336E+02 -0.23602352866E+02  0.47787263696E+02  0.19999966494E+02 0.  0.
         12    1    1    2    0    0  0.10491943257E+02 -0.34877958336E+02  0.23602352866E+02  0.43400736304E+02  0.00000000000E+00 0. -1.
         11    1    3    3    0    0 -0.46084964977E+01  0.17957786632E+01 -0.55055765767E+01  0.74009752519E+01  0.51100000000E-03 0. -1.
        -11    1    3    3    0    0 -0.24251249877E+01 -0.37636427947E+00 -0.15187809973E+01  0.28861007009E+01  0.51100000000E-03 0.  1.
        -12    1    3    3    0    0 -0.34583217717E+01  0.33458543952E+02 -0.16577995292E+02  0.37500187743E+02  0.00000000000E+00 0.  1.
</event>
<event>
 7    1  0.2459936E-009  0.4778728E+02  0.7816164E-02  0.1312668E+00
        -11   -1    0    0    0    0  0.00000000000E+00  0.00000000000E+00  0.45593999997E+02  0.45594000000E+02  0.51100000000E-03 0.  1.
         11   -1    0    0    0    0 -0.00000000000E+00 -0.00000000000E+00 -0.45593999997E+02  0.45594000000E+02  0.51100000000E-03 0. -1.
    9900012    2    1    2    0    0  0.40142515472E+02 -0.10965598399E+02  0.12327074893E+02  0.47787277977E+02  0.20000031610E+02 0.  0.
         12    1    1    2    0    0 -0.40142515472E+02  0.10965598399E+02 -0.12327074893E+02  0.43400722023E+02  0.00000000000E+00 0. -1.
         11    1    3    3    0    0  0.76123015345E+01 -0.63296262293E+01  0.16899783159E+01  0.10043272864E+02  0.51100000000E-03 0. -1.
        -11    1    3    3    0    0  0.20364915723E+02 -0.92058976650E+01  0.10631007402E+02  0.24748669921E+02  0.51100000000E-03 0.  1.
         12    1    3    3    0    0  0.12165298214E+02  0.45699254950E+01  0.60891755583E-02  0.12995335192E+02  0.00000000000E+00 0. -1.
</event>
<event>
 7    1  0.2459936E-009  0.4778727E+02  0.7816164E-02  0.1312668E+00
        -11   -1    0    0    0    0  0.00000000000E+00  0.00000000000E+00  0.45593999997E+02  0.45594000000E+02  0.51100000000E-03 0.  1.
         11   -1    0    0    0    0 -0.00000000000E+00 -0.00000000000E+00 -0.45593999997E+02  0.45594000000E+02  0.51100000000E-03 0. -1.
    9900012    2    1    2    0    0 -0.90232524547E+01  0.28301563878E+01  0.42357933169E+02  0.47787269909E+02  0.19999994825E+02 0.  0.
         12    1    1    2    0    0  0.90232524547E+01 -0.28301563878E+01 -0.42357933169E+02  0.43400730091E+02  0.00000000000E+00 0. -1.
         11    1    3    3    0    0  0.11663226086E+01 -0.20235067691E+01  0.11683666281E+01  0.26115070191E+01  0.51100000000E-03 0. -1.
        -11    1    3    3    0    0  0.11981930469E+01  0.64600062405E+01  0.20205263279E+02  0.21246647068E+02  0.51100000000E-03 0.  1.
        -12    1    3    3    0    0 -0.11387768110E+02 -0.16063430836E+01  0.20984303262E+02  0.23929115822E+02  0.00000000000E+00 0.  1.
</event>
<event>
 7    1  0.2459936E-009  0.4778727E+02  0.7816164E-02  0.1312668E+00
        -11   -1    0    0    0    0  0.00000000000E+00  0.00000000000E+00  0.45593999997E+02  0.45594000000E+02  0.51100000000E-03 0.  1.
         11   -1    0    0    0    0 -0.00000000000E+00 -0.00000000000E+00 -0.45593999997E+02  0.45594000000E+02  0.51100000000E-03 0. -1.
    9900012    2    1    2    0    0 -0.28012577611E+02 -0.26508486934E+02  0.19905244332E+02  0.47787272634E+02  0.20000007248E+02 0.  0.
         12    1    1    2    0    0  0.28012577611E+02  0.26508486934E+02 -0.19905244332E+02  0.43400727366E+02  0.00000000000E+00 0. -1.
         11    1    3    3    0    0 -0.24655566856E+01 -0.42648199851E+01  0.51308256004E+00  0.49528691937E+01  0.51100000000E-03 0. -1.
        -11    1    3    3    0    0 -0.10732827045E+02 -0.18792648129E+02  0.16816227368E+02  0.27406982746E+02  0.51100000000E-03 0.  1.
         12    1    3    3    0    0 -0.14814193881E+02 -0.34510188194E+01  0.25759344042E+01  0.15427420694E+02  0.00000000000E+00 0. -1.
</event>
<event>
 7    1  0.2459936E-009  0.4778727E+02  0.7816164E-02  0.1312668E+00
        -11   -1    0    0    0    0  0.00000000000E+00  0.00000000000E+00  0.45593999997E+02  0.45594000000E+02  0.51100000000E-03 0. -1.
         11   -1    0    0    0    0 -0.00000000000E+00 -0.00000000000E+00 -0.45593999997E+02  0.45594000000E+02  0.51100000000E-03 0.  1.
    9900012    2    1    2    0    0  0.28937979975E+02 -0.31544176320E+02 -0.71541240151E+01  0.47787271490E+02  0.20000002033E+02 0.  0.
         12    1    1    2    0    0 -0.28937979975E+02  0.31544176320E+02  0.71541240151E+01  0.43400728510E+02  0.00000000000E+00 0. -1.
         11    1    3    3    0    0  0.91118877318E+01 -0.50421263282E+01 -0.72876048377E+01  0.12710575143E+02  0.51100000000E-03 0. -1.
        -11    1    3    3    0    0  0.55100054963E+01 -0.52062070344E+01  0.48319211551E+01  0.89895614223E+01  0.51100000000E-03 0.  1.
        -12    1    3    3    0    0  0.14316086747E+02 -0.21295842957E+02 -0.46984403326E+01  0.26087134925E+02  0.00000000000E+00 0.  1.
</event>
<event>
 7    1  0.2459936E-009  0.4778727E+02  0.7816164E-02  0.1312668E+00
        -11   -1    0    0    0    0  0.00000000000E+00  0.00000000000E+00  0.45593999997E+02  0.45594000000E+02  0.51100000000E-03 0.  1.
         11   -1    0    0    0    0 -0.00000000000E+00 -0.00000000000E+00 -0.45593999997E+02  0.45594000000E+02  0.51100000000E-03 0. -1.
    9900012    2    1    2    0    0 -0.23394307630E+02 -0.19087080841E+02  0.31177128134E+02  0.47787267251E+02  0.19999982703E+02 0.  0.
         12    1    1    2    0    0  0.23394307630E+02  0.19087080841E+02 -0.31177128134E+02  0.43400732749E+02  0.00000000000E+00 0. -1.
         11    1    3    3    0    0 -0.13112820563E+02 -0.74588954629E+01  0.27130711495E+02  0.31042820283E+02  0.51100000000E-03 0. -1.
        -11    1    3    3    0    0 -0.15006075241E+00 -0.56842789904E+00  0.13940303494E+01  0.15129274213E+01  0.51100000000E-03 0.  1.
        -12    1    3    3    0    0 -0.10131426315E+02 -0.11059757479E+02  0.26523862892E+01  0.15231519546E+02  0.00000000000E+00 0.  1.
</event>
<event>
 7    1  0.2459936E-009  0.4778727E+02  0.7816164E-02  0.1312668E+00
        -11   -1    0    0    0    0  0.00000000000E+00  0.00000000000E+00  0.45593999997E+02  0.45594000000E+02  0.51100000000E-03 0. -1.
         11   -1    0    0    0    0 -0.00000000000E+00 -0.00000000000E+00 -0.45593999997E+02  0.45594000000E+02  0.51100000000E-03 0.  1.
    9900012    2    1    2    0    0  0.90071126297E+01  0.30051452416E+02 -0.29990089840E+02  0.47787270065E+02  0.19999995535E+02 0.  0.
         12    1    1    2    0    0 -0.90071126297E+01 -0.30051452416E+02  0.29990089840E+02  0.43400729935E+02  0.00000000000E+00 0. -1.
         11    1    3    3    0    0 -0.29547203411E+01  0.20944728874E+01 -0.22352526516E+01  0.42560008984E+01  0.51100000000E-03 0. -1.
        -11    1    3    3    0    0  0.36755711745E+01  0.23297572369E+02 -0.16424445117E+02  0.28741069907E+02  0.51100000000E-03 0.  1.
         12    1    3    3    0    0  0.82862617962E+01  0.46594071599E+01 -0.11330392072E+02  0.14790199260E+02  0.00000000000E+00 0. -1.
</event>
<event>
 7    1  0.2459936E-009  0.4778727E+02  0.7816164E-02  0.1312668E+00
        -11   -1    0    0    0    0  0.00000000000E+00  0.00000000000E+00  0.45593999997E+02  0.45594000000E+02  0.51100000000E-03 0.  1.
         11   -1    0    0    0    0 -0.00000000000E+00 -0.00000000000E+00 -0.45593999997E+02  0.45594000000E+02  0.51100000000E-03 0. -1.
    9900012    2    1    2    0    0 -0.87844412952E+01 -0.88953168228E+01  0.41561159757E+02  0.47787273386E+02  0.20000010676E+02 0.  0.
         12    1    1    2    0    0  0.87844412952E+01  0.88953168228E+01 -0.41561159757E+02  0.43400726614E+02  0.00000000000E+00 0. -1.
         11    1    3    3    0    0 -0.32709266405E+01  0.32979434418E+01  0.15723476362E+02  0.16395215802E+02  0.51100000000E-03 0. -1.
        -11    1    3    3    0    0  0.35938917689E+01 -0.21190144920E+01  0.48985819147E+01  0.64344685484E+01  0.51100000000E-03 0.  1.
        -12    1    3    3    0    0 -0.91074064236E+01 -0.10074245773E+02  0.20939101481E+02  0.24957589035E+02  0.00000000000E+00 0.  1.
</event>
<event>
 7    1  0.2459936E-009  0.4778727E+02  0.7816164E-02  0.1312668E+00
        -11   -1    0    0    0    0  0.00000000000E+00  0.00000000000E+00  0.45593999997E+02  0.45594000000E+02  0.51100000000E-03 0. -1.
         11   -1    0    0    0    0 -0.00000000000E+00 -0.00000000000E+00 -0.45593999997E+02  0.45594000000E+02  0.51100000000E-03 0.  1.
    9900012    2    1    2    0    0 -0.33278491848E+02 -0.16813992587E+02 -0.22213845600E+02  0.47787270712E+02  0.19999998485E+02 0.  0.
         12    1    1    2    0    0  0.33278491848E+02  0.16813992587E+02  0.22213845600E+02  0.43400729288E+02  0.00000000000E+00 0. -1.
         11    1    3    3    0    0 -0.15970938408E+02 -0.22781329550E+00 -0.48912016726E+01  0.16704688761E+02  0.51100000000E-03 0. -1.
        -11    1    3    3    0    0 -0.44579542645E+01 -0.17098241544E+01 -0.80230987519E+01  0.93363252250E+01  0.51100000000E-03 0.  1.
         12    1    3    3    0    0 -0.12849599175E+02 -0.14876355138E+02 -0.92995451751E+01  0.21746256726E+02  0.00000000000E+00 0. -1.
</event>
<event>
 7    1  0.2459936E-009  0.4778727E+02  0.7816164E-02  0.1312668E+00
        -11   -1    0    0    0    0  0.00000000000E+00  0.00000000000E+00  0.45593999997E+02  0.45594000000E+02  0.51100000000E-03 0.  1.
         11   -1    0    0    0    0 -0.00000000000E+00 -0.00000000000E+00 -0.45593999997E+02  0.45594000000E+02  0.51100000000E-03 0. -1.
    9900012    2    1    2    0    0 -0.19878686365E+02  0.74156663819E+01  0.37861178357E+02  0.47787272978E+02  0.20000008815E+02 0.  0.
         12    1    1    2    0    0  0.19878686365E+02 -0.74156663819E+01 -0.37861178357E+02  0.43400727022E+02  0.00000000000E+00 0. -1.
         11    1    3    3    0    0 -0.16560519654E+02  0.52965977549E+01  0.13517715682E+02  0.22023473761E+02  0.51100000000E-03 0. -1.
        -11    1    3    3    0    0 -0.52057739618E+01  0.37322525164E+00  0.11006256454E+02  0.12181012315E+02  0.51100000000E-03 0.  1.
        -12    1    3    3    0    0  0.18876072508E+01  0.17458433753E+01  0.13337206221E+02  0.13582786901E+02  0.00000000000E+00 0.  1.
</event>
<event>
 7    1  0.2459936E-009  0.4778727E+02  0.7816164E-02  0.1312668E+00
        -11   -1    0    0    0    0  0.00000000000E+00  0.00000000000E+00  0.45593999997E+02  0.45594000000E+02  0.51100000000E-03 0. -1.
         11   -1    0    0    0    0 -0.00000000000E+00 -0.00000000000E+00 -0.45593999997E+02  0.45594000000E+02  0.51100000000E-03 0.  1.
    9900012    2    1    2    0    0 -0.30375031288E+02  0.26879761102E+02 -0.15442134630E+02  0.47787267234E+02  0.19999982626E+02 0.  0.
         12    1    1    2    0    0  0.30375031288E+02 -0.26879761102E+02  0.15442134630E+02  0.43400732766E+02  0.00000000000E+00 0. -1.
         11    1    3    3    0    0 -0.42755098896E+01  0.69619879593E+00  0.17617971617E+01  0.46763882516E+01  0.51100000000E-03 0. -1.
        -11    1    3    3    0    0  0.58495759296E-01  0.60668763155E+01 -0.40116496173E+00  0.60804065299E+01  0.51100000000E-03 0.  1.
        -12    1    3    3    0    0 -0.26158017158E+02  0.20116685991E+02 -0.16802766830E+02  0.37030472452E+02  0.00000000000E+00 0.  1.
</event>
<event>
 7    1  0.2459936E-009  0.4778727E+02  0.7816164E-02  0.1312668E+00
        -11   -1    0    0    0    0  0.00000000000E+00  0.00000000000E+00  0.45593999997E+02  0.45594000000E+02  0.51100000000E-03 0. -1.
         11   -1    0    0    0    0 -0.00000000000E+00 -0.00000000000E+00 -0.45593999997E+02  0.45594000000E+02  0.51100000000E-03 0.  1.
    9900012    2    1    2    0    0 -0.28924798886E+02 -0.22631605423E+02 -0.23125517601E+02  0.47787272830E+02  0.20000008140E+02 0.  0.
         12    1    1    2    0    0  0.28924798886E+02  0.22631605423E+02  0.23125517601E+02  0.43400727170E+02  0.00000000000E+00 0. -1.
         11    1    3    3    0    0 -0.16472937440E+02 -0.21211880495E+02 -0.98526914168E+01  0.28607290513E+02  0.51100000000E-03 0.  1.
        -11    1    3    3    0    0 -0.38652460634E+01 -0.30807369198E+01 -0.62195917811E+01  0.79444565128E+01  0.51100000000E-03 0. -1.
         12    1    3    3    0    0 -0.85866153820E+01  0.16610119923E+01 -0.70532344028E+01  0.11235525804E+02  0.00000000000E+00 0. -1.
</event>
<event>
 7    1  0.2459936E-009  0.4778727E+02  0.7816164E-02  0.1312668E+00
        -11   -1    0    0    0    0  0.00000000000E+00  0.00000000000E+00  0.45593999997E+02  0.45594000000E+02  0.51100000000E-03 0.  1.
         11   -1    0    0    0    0 -0.00000000000E+00 -0.00000000000E+00 -0.45593999997E+02  0.45594000000E+02  0.51100000000E-03 0. -1.
    9900012    2    1    2    0    0  0.11058506137E+02  0.58547582463E+01  0.41557848624E+02  0.47787268044E+02  0.19999986318E+02 0.  0.
         12    1    1    2    0    0 -0.11058506137E+02 -0.58547582463E+01 -0.41557848624E+02  0.43400731956E+02  0.00000000000E+00 0. -1.
         11    1    3    3    0    0  0.31903179410E+01 -0.39918512157E+01  0.55384169707E+01  0.75357194412E+01  0.51100000000E-03 0. -1.
        -11    1    3    3    0    0  0.83134996520E+01  0.29120535191E+01  0.29260848300E+02  0.30558003463E+02  0.51100000000E-03 0.  1.
        -12    1    3    3    0    0 -0.44531145636E+00  0.69345559429E+01  0.67585833532E+01  0.96935451389E+01  0.00000000000E+00 0.  1.
</event>
<event>
 7    1  0.2459936E-009  0.4778727E+02  0.7816164E-02  0.1312668E+00
        -11   -1    0    0    0    0  0.00000000000E+00  0.00000000000E+00  0.45593999997E+02  0.45594000000E+02  0.51100000000E-03 0.  1.
         11   -1    0    0    0    0 -0.00000000000E+00 -0.00000000000E+00 -0.45593999997E+02  0.45594000000E+02  0.51100000000E-03 0. -1.
    9900012    2    1    2    0    0 -0.40689405185E+02  0.58226564142E+01  0.13931697484E+02  0.47787271702E+02  0.20000002996E+02 0.  0.
         12    1    1    2    0    0  0.40689405185E+02 -0.58226564142E+01 -0.13931697484E+02  0.43400728298E+02  0.00000000000E+00 0. -1.
         11    1    3    3    0    0 -0.33949871387E+02  0.99985943301E+01  0.58529566726E+01  0.35872311855E+02  0.51100000000E-03 0. -1.
        -11    1    3    3    0    0 -0.43649645325E+01 -0.10989386779E+01  0.26017319473E+01  0.51989990358E+01  0.51100000000E-03 0.  1.
         12    1    3    3    0    0 -0.23745692661E+01 -0.30769992379E+01  0.54770088646E+01  0.67159608108E+01  0.00000000000E+00 0. -1.
</event>
<event>
 7    1  0.2459936E-009  0.4778727E+02  0.7816164E-02  0.1312668E+00
        -11   -1    0    0    0    0  0.00000000000E+00  0.00000000000E+00  0.45593999997E+02  0.45594000000E+02  0.51100000000E-03 0.  1.
         11   -1    0    0    0    0 -0.00000000000E+00 -0.00000000000E+00 -0.45593999997E+02  0.45594000000E+02  0.51100000000E-03 0. -1.
    9900012    2    1    2    0    0  0.31945087131E+02 -0.17355079513E+02  0.23705186284E+02  0.47787271510E+02  0.20000002122E+02 0.  0.
         12    1    1    2    0    0 -0.31945087131E+02  0.17355079513E+02 -0.23705186284E+02  0.43400728490E+02  0.00000000000E+00 0. -1.
         11    1    3    3    0    0  0.96545472408E+01 -0.46235864931E+01  0.15954907862E+02  0.19213196497E+02  0.51100000000E-03 0. -1.
        -11    1    3    3    0    0  0.13484909596E+02 -0.24889602576E+01  0.59475962455E+01  0.14946959936E+02  0.51100000000E-03 0.  1.
         12    1    3    3    0    0  0.88056302949E+01 -0.10242532763E+02  0.18026821758E+01  0.13627115077E+02  0.00000000000E+00 0. -1.
</event>
<event>
 7    1  0.2459936E-009  0.4778726E+02  0.7816164E-02  0.1312668E+00
        -11   -1    0    0    0    0  0.00000000000E+00  0.00000000000E+00  0.45593999997E+02  0.45594000000E+02  0.51100000000E-03 0.  1.
         11   -1    0    0    0    0 -0.00000000000E+00 -0.00000000000E+00 -0.45593999997E+02  0.45594000000E+02  0.51100000000E-03 0. -1.
    9900012    2    1    2    0    0 -0.26883915265E+02 -0.10179694437E+02  0.32515426622E+02  0.47787262135E+02  0.19999959377E+02 0.  0.
         12    1    1    2    0    0  0.26883915265E+02  0.10179694437E+02 -0.32515426622E+02  0.43400737865E+02  0.00000000000E+00 0. -1.
         11    1    3    3    0    0 -0.22739937849E+01 -0.85622175298E+00 -0.29789755997E+00  0.24480413888E+01  0.51100000000E-03 0. -1.
        -11    1    3    3    0    0 -0.90393202189E+01 -0.11952186758E+02  0.20072070630E+02  0.25048993950E+02  0.51100000000E-03 0.  1.
        -12    1    3    3    0    0 -0.15570601262E+02  0.26287140731E+01  0.12741253552E+02  0.20290226795E+02  0.00000000000E+00 0.  1.
</event>
<event>
 7    1  0.2459936E-009  0.4778726E+02  0.7816164E-02  0.1312668E+00
        -11   -1    0    0    0    0  0.00000000000E+00  0.00000000000E+00  0.45593999997E+02  0.45594000000E+02  0.51100000000E-03 0.  1.
         11   -1    0    0    0    0 -0.00000000000E+00 -0.00000000000E+00 -0.45593999997E+02  0.45594000000E+02  0.51100000000E-03 0. -1.
    9900012    2    1    2    0    0  0.11525799479E+02 -0.27178705089E+02  0.31813484430E+02  0.47787264343E+02  0.19999969447E+02 0.  0.
         12    1    1    2    0    0 -0.11525799479E+02  0.27178705089E+02 -0.31813484430E+02  0.43400735657E+02  0.00000000000E+00 0. -1.
         11    1    3    3    0    0  0.10551493873E+01 -0.52426372959E+00 -0.60274062589E+00  0.13234384046E+01  0.51100000000E-03 0. -1.
        -11    1    3    3    0    0  0.11716253143E+02 -0.10204548677E+02  0.22071316029E+02  0.26991598562E+02  0.51100000000E-03 0.  1.
         12    1    3    3    0    0 -0.12456030516E+01 -0.16449892683E+02  0.10344909027E+02  0.19472227377E+02  0.00000000000E+00 0. -1.
</event>
<event>
 7    1  0.2459936E-009  0.4778727E+02  0.7816164E-02  0.1312668E+00
        -11   -1    0    0    0    0  0.00000000000E+00  0.00000000000E+00  0.45593999997E+02  0.45594000000E+02  0.51100000000E-03 0.  1.
         11   -1    0    0    0    0 -0.00000000000E+00 -0.00000000000E+00 -0.45593999997E+02  0.45594000000E+02  0.51100000000E-03 0. -1.
    9900012    2    1    2    0    0  0.42556906127E+01  0.17688301630E+02  0.39403510728E+02  0.47787267577E+02  0.19999984191E+02 0.  0.
         12    1    1    2    0    0 -0.42556906127E+01 -0.17688301630E+02 -0.39403510728E+02  0.43400732423E+02  0.00000000000E+00 0. -1.
         11    1    3    3    0    0 -0.31403232362E+01  0.30647101894E+01  0.12655850062E+02  0.13394947541E+02  0.51100000000E-03 0. -1.
        -11    1    3    3    0    0 -0.22477026630E+01  0.75053877332E+01  0.17758012823E+02  0.19409534563E+02  0.51100000000E-03 0.  1.
         12    1    3    3    0    0  0.96437165118E+01  0.71182037076E+01  0.89896478428E+01  0.14982785473E+02  0.00000000000E+00 0. -1.
</event>
<event>
 7    1  0.2459936E-009  0.4778728E+02  0.7816164E-02  0.1312668E+00
        -11   -1    0    0    0    0  0.00000000000E+00  0.00000000000E+00  0.45593999997E+02  0.45594000000E+02  0.51100000000E-03 0. -1.
         11   -1    0    0    0    0 -0.00000000000E+00 -0.00000000000E+00 -0.45593999997E+02  0.45594000000E+02  0.51100000000E-03 0.  1.
    9900012    2    1    2    0    0 -0.27603499163E+02  0.36167226285E+01 -0.33295475523E+02  0.47787279512E+02  0.20000038606E+02 0.  0.
         12    1    1    2    0    0  0.27603499163E+02 -0.36167226285E+01  0.33295475523E+02  0.43400720488E+02  0.00000000000E+00 0. -1.
         11    1    3    3    0    0 -0.23554606046E+01  0.53103437981E+01 -0.28285251805E+01  0.64613079846E+01  0.51100000000E-03 0. -1.
        -11    1    3    3    0    0 -0.47841065879E+01 -0.21978139779E+01 -0.86457000454E+00  0.53353110200E+01  0.51100000000E-03 0.  1.
         12    1    3    3    0    0 -0.20463931971E+02  0.50419280829E+00 -0.29602380338E+02  0.35990660507E+02  0.00000000000E+00 0. -1.
</event>
<event>
 7    1  0.2459936E-009  0.4778727E+02  0.7816164E-02  0.1312668E+00
        -11   -1    0    0    0    0  0.00000000000E+00  0.00000000000E+00  0.45593999997E+02  0.45594000000E+02  0.51100000000E-03 0. -1.
         11   -1    0    0    0    0 -0.00000000000E+00 -0.00000000000E+00 -0.45593999997E+02  0.45594000000E+02  0.51100000000E-03 0.  1.
    9900012    2    1    2    0    0  0.25894768233E+02 -0.12787843178E+01 -0.34805875827E+02  0.47787270706E+02  0.19999998458E+02 0.  0.
         12    1    1    2    0    0 -0.25894768233E+02  0.12787843178E+01  0.34805875827E+02  0.43400729294E+02  0.00000000000E+00 0. -1.
         11    1    3    3    0    0  0.15429707937E+01 -0.49741178497E+01 -0.40391751204E+01  0.65907164381E+01  0.51100000000E-03 0. -1.
        -11    1    3    3    0    0  0.32283416858E+00 -0.24003791185E+01 -0.15304701297E+01  0.28650272061E+01  0.51100000000E-03 0.  1.
        -12    1    3    3    0    0  0.24028963270E+02  0.60957126504E+01 -0.29236230577E+02  0.38331527062E+02  0.00000000000E+00 0.  1.
</event>
<event>
 7    1  0.2459936E-009  0.4778727E+02  0.7816164E-02  0.1312668E+00
        -11   -1    0    0    0    0  0.00000000000E+00  0.00000000000E+00  0.45593999997E+02  0.45594000000E+02  0.51100000000E-03 0. -1.
         11   -1    0    0    0    0 -0.00000000000E+00 -0.00000000000E+00 -0.45593999997E+02  0.45594000000E+02  0.51100000000E-03 0.  1.
    9900012    2    1    2    0    0 -0.22105693502E+02 -0.16397677715E+02  0.33557082390E+02  0.47787270765E+02  0.19999998724E+02 0.  0.
         12    1    1    2    0    0  0.22105693502E+02  0.16397677715E+02 -0.33557082390E+02  0.43400729235E+02  0.00000000000E+00 0. -1.
         11    1    3    3    0    0 -0.73937233969E+01  0.34230840579E+00  0.12816732798E+01  0.75117912225E+01  0.51100000000E-03 0. -1.
        -11    1    3    3    0    0 -0.87371276746E+01 -0.58323087444E+01  0.87778492765E+01  0.13689553078E+02  0.51100000000E-03 0.  1.
         12    1    3    3    0    0 -0.59748424301E+01 -0.10907677376E+02  0.23497559834E+02  0.26585926464E+02  0.00000000000E+00 0. -1.
</event>
<event>
 7    1  0.2459936E-009  0.4778727E+02  0.7816164E-02  0.1312668E+00
        -11   -1    0    0    0    0  0.00000000000E+00  0.00000000000E+00  0.45593999997E+02  0.45594000000E+02  0.51100000000E-03 0.  1.
         11   -1    0    0    0    0 -0.00000000000E+00 -0.00000000000E+00 -0.45593999997E+02  0.45594000000E+02  0.51100000000E-03 0. -1.
    9900012    2    1    2    0    0 -0.27307905975E+01 -0.30887712706E+02  0.30366352389E+02  0.47787269927E+02  0.19999994903E+02 0.  0.
         12    1    1    2    0    0  0.27307905975E+01  0.30887712706E+02 -0.30366352389E+02  0.43400730073E+02  0.00000000000E+00 0. -1.
         11    1    3    3    0    0  0.20434278207E+01 -0.49187022332E+01 -0.15445962555E+01  0.55457196801E+01  0.51100000000E-03 0. -1.
        -11    1    3    3    0    0  0.37067812192E+00 -0.15473818389E+00 -0.39947009278E+00  0.56650047818E+00  0.51100000000E-03 0.  1.
        -12    1    3    3    0    0 -0.51448965401E+01 -0.25814272289E+02  0.32310418737E+02  0.41675049768E+02  0.00000000000E+00 0.  1.
</event>
<event>
 7    1  0.2459936E-009  0.4778727E+02  0.7816164E-02  0.1312668E+00
        -11   -1    0    0    0    0  0.00000000000E+00  0.00000000000E+00  0.45593999997E+02  0.45594000000E+02  0.51100000000E-03 0.  1.
         11   -1    0    0    0    0 -0.00000000000E+00 -0.00000000000E+00 -0.45593999997E+02  0.45594000000E+02  0.51100000000E-03 0. -1.
    9900012    2    1    2    0    0 -0.28933396327E+02  0.65053472158E+01  0.31688521623E+02  0.47787269960E+02  0.19999995054E+02 0.  0.
         12    1    1    2    0    0  0.28933396327E+02 -0.65053472158E+01 -0.31688521623E+02  0.43400730040E+02  0.00000000000E+00 0. -1.
         11    1    3    3    0    0 -0.12939735844E+02 -0.33476447655E+01  0.10533874041E+02  0.17017813954E+02  0.51100000000E-03 0. -1.
        -11    1    3    3    0    0 -0.91852461397E+01 -0.94730722061E+00  0.11580155511E+02  0.14811014129E+02  0.51100000000E-03 0.  1.
        -12    1    3    3    0    0 -0.68084143428E+01  0.10800299202E+02  0.95744920708E+01  0.15958441877E+02  0.00000000000E+00 0.  1.
</event>
<event>
 7    1  0.2459936E-009  0.4778729E+02  0.7816164E-02  0.1312668E+00
        -11   -1    0    0    0    0  0.00000000000E+00  0.00000000000E+00  0.45593999997E+02  0.45594000000E+02  0.51100000000E-03 0.  1.
         11   -1    0    0    0    0 -0.00000000000E+00 -0.00000000000E+00 -0.45593999997E+02  0.45594000000E+02  0.51100000000E-03 0. -1.
    9900012    2    1    2    0    0 -0.28526669300E+02  0.26078136486E+02  0.19742891388E+02  0.47787287744E+02  0.20000076141E+02 0.  0.
         12    1    1    2    0    0  0.28526669300E+02 -0.26078136486E+02 -0.19742891388E+02  0.43400712256E+02  0.00000000000E+00 0. -1.
         11    1    3    3    0    0 -0.93254347847E+01  0.34225361329E+01  0.91331811235E+00  0.99755520018E+01  0.51100000000E-03 0. -1.
        -11    1    3    3    0    0 -0.72830352797E+00 -0.17554689057E+01  0.57204500248E-01  0.19014125601E+01  0.51100000000E-03 0.  1.
        -12    1    3    3    0    0 -0.18472930987E+02  0.24411069259E+02  0.18772368776E+02  0.35910323182E+02  0.00000000000E+00 0.  1.
</event>
<event>
 7    1  0.2459936E-009  0.4778727E+02  0.7816164E-02  0.1312668E+00
        -11   -1    0    0    0    0  0.00000000000E+00  0.00000000000E+00  0.45593999997E+02  0.45594000000E+02  0.51100000000E-03 0.  1.
         11   -1    0    0    0    0 -0.00000000000E+00 -0.00000000000E+00 -0.45593999997E+02  0.45594000000E+02  0.51100000000E-03 0. -1.
    9900012    2    1    2    0    0  0.24035108529E+02 -0.10782887240E+02  0.34491535659E+02  0.47787272687E+02  0.20000007487E+02 0.  0.
         12    1    1    2    0    0 -0.24035108529E+02  0.10782887240E+02 -0.34491535659E+02  0.43400727313E+02  0.00000000000E+00 0. -1.
         11    1    3    3    0    0  0.24244035361E+01 -0.43184497729E+00  0.93046910845E+01  0.96250454040E+01  0.51100000000E-03 0. -1.
        -11    1    3    3    0    0  0.60867285703E+01 -0.87988800662E+01  0.18102307441E+02  0.21027650607E+02  0.51100000000E-03 0.  1.
        -12    1    3    3    0    0  0.15523976423E+02 -0.15521621966E+01  0.70845371334E+01  0.17134576676E+02  0.00000000000E+00 0.  1.
</event>
<event>
 7    1  0.2459936E-009  0.4778727E+02  0.7816164E-02  0.1312668E+00
        -11   -1    0    0    0    0  0.00000000000E+00  0.00000000000E+00  0.45593999997E+02  0.45594000000E+02  0.51100000000E-03 0.  1.
         11   -1    0    0    0    0 -0.00000000000E+00 -0.00000000000E+00 -0.45593999997E+02  0.45594000000E+02  0.51100000000E-03 0. -1.
    9900012    2    1    2    0    0  0.32874159548E+01  0.13048807739E+02  0.41261905982E+02  0.47787269910E+02  0.19999994828E+02 0.  0.
         12    1    1    2    0    0 -0.32874159548E+01 -0.13048807739E+02 -0.41261905982E+02  0.43400730090E+02  0.00000000000E+00 0. -1.
         11    1    3    3    0    0 -0.64599596586E+00  0.64013921525E+00 -0.19229232715E+00  0.92955129122E+00  0.51100000000E-03 0. -1.
        -11    1    3    3    0    0  0.56029092824E+01  0.16430493417E+02  0.30936821545E+02  0.35474506817E+02  0.51100000000E-03 0.  1.
         12    1    3    3    0    0 -0.16694973617E+01 -0.40218248940E+01  0.10517376764E+02  0.11383211802E+02  0.00000000000E+00 0. -1.
</event>
<event>
 7    1  0.2459936E-009  0.4778727E+02  0.7816164E-02  0.1312668E+00
        -11   -1    0    0    0    0  0.00000000000E+00  0.00000000000E+00  0.45593999997E+02  0.45594000000E+02  0.51100000000E-03 0.  1.
         11   -1    0    0    0    0 -0.00000000000E+00 -0.00000000000E+00 -0.45593999997E+02  0.45594000000E+02  0.51100000000E-03 0. -1.
    9900012    2    1    2    0    0 -0.33605813166E+02  0.25429973926E+02  0.10372508955E+02  0.47787271960E+02  0.20000004173E+02 0.  0.
         12    1    1    2    0    0  0.33605813166E+02 -0.25429973926E+02 -0.10372508955E+02  0.43400728040E+02  0.00000000000E+00 0. -1.
         11    1    3    3    0    0 -0.19862336127E+02  0.13696353966E+02  0.14629290774E+00  0.24127244150E+02  0.51100000000E-03 0. -1.
        -11    1    3    3    0    0 -0.61666412632E+01  0.10887610034E+02  0.24124948053E+01  0.12743141220E+02  0.51100000000E-03 0.  1.
        -12    1    3    3    0    0 -0.75768357758E+01  0.84600992625E+00  0.78137212417E+01  0.10916886590E+02  0.00000000000E+00 0.  1.
</event>
<event>
 7    1  0.2459936E-009  0.4778727E+02  0.7816164E-02  0.1312668E+00
        -11   -1    0    0    0    0  0.00000000000E+00  0.00000000000E+00  0.45593999997E+02  0.45594000000E+02  0.51100000000E-03 0.  1.
         11   -1    0    0    0    0 -0.00000000000E+00 -0.00000000000E+00 -0.45593999997E+02  0.45594000000E+02  0.51100000000E-03 0. -1.
    9900012    2    1    2    0    0  0.18830288163E+02  0.81461591185E+01  0.38245046543E+02  0.47787271368E+02  0.20000001477E+02 0.  0.
         12    1    1    2    0    0 -0.18830288163E+02 -0.81461591185E+01 -0.38245046543E+02  0.43400728632E+02  0.00000000000E+00 0. -1.
         11    1    3    3    0    0  0.46736041717E+01  0.30755328611E+01  0.28424586075E+01  0.62754322186E+01  0.51100000000E-03 0. -1.
        -11    1    3    3    0    0  0.15532253119E+02 -0.97096981170E-01  0.20790829474E+02  0.25952242779E+02  0.51100000000E-03 0.  1.
        -12    1    3    3    0    0 -0.13755691274E+01  0.51677232385E+01  0.14611758461E+02  0.15559596371E+02  0.00000000000E+00 0.  1.
</event>
<event>
 7    1  0.2459936E-009  0.4778727E+02  0.7816164E-02  0.1312668E+00
        -11   -1    0    0    0    0  0.00000000000E+00  0.00000000000E+00  0.45593999997E+02  0.45594000000E+02  0.51100000000E-03 0.  1.
         11   -1    0    0    0    0 -0.00000000000E+00 -0.00000000000E+00 -0.45593999997E+02  0.45594000000E+02  0.51100000000E-03 0. -1.
    9900012    2    1    2    0    0 -0.24504246033E+02 -0.29827634306E+02  0.19836264367E+02  0.47787271596E+02  0.20000002515E+02 0.  0.
         12    1    1    2    0    0  0.24504246033E+02  0.29827634306E+02 -0.19836264367E+02  0.43400728404E+02  0.00000000000E+00 0. -1.
         11    1    3    3    0    0 -0.13564505467E+02 -0.10107862714E+02  0.12223657067E+02  0.20870613061E+02  0.51100000000E-03 0. -1.
        -11    1    3    3    0    0 -0.25682732948E+01 -0.48110778620E+01  0.81541460286E+01  0.98098213861E+01  0.51100000000E-03 0.  1.
         12    1    3    3    0    0 -0.83714672716E+01 -0.14908693731E+02 -0.54153872918E+00  0.17106837149E+02  0.00000000000E+00 0. -1.
</event>
<event>
 7    1  0.2459936E-009  0.4778727E+02  0.7816164E-02  0.1312668E+00
        -11   -1    0    0    0    0  0.00000000000E+00  0.00000000000E+00  0.45593999997E+02  0.45594000000E+02  0.51100000000E-03 0. -1.
         11   -1    0    0    0    0 -0.00000000000E+00 -0.00000000000E+00 -0.45593999997E+02  0.45594000000E+02  0.51100000000E-03 0.  1.
    9900012    2    1    2    0    0  0.88562899212E+01 -0.23942329571E+01 -0.42420004635E+02  0.47787274017E+02  0.20000013554E+02 0.  0.
         12    1    1    2    0    0 -0.88562899212E+01  0.23942329571E+01  0.42420004635E+02  0.43400725983E+02  0.00000000000E+00 0. -1.
         11    1    3    3    0    0  0.23983581536E+00 -0.12989504641E+00 -0.10521003455E+02  0.10524538370E+02  0.51100000000E-03 0.  1.
        -11    1    3    3    0    0  0.39102023804E+01 -0.16707284781E+01  0.70954939306E+00  0.43109716893E+01  0.51100000000E-03 0. -1.
         12    1    3    3    0    0  0.47062517254E+01 -0.59360943261E+00 -0.32608550573E+02  0.32951763958E+02  0.00000000000E+00 0. -1.
</event>
<event>
 7    1  0.2459936E-009  0.4778728E+02  0.7816164E-02  0.1312668E+00
        -11   -1    0    0    0    0  0.00000000000E+00  0.00000000000E+00  0.45593999997E+02  0.45594000000E+02  0.51100000000E-03 0. -1.
         11   -1    0    0    0    0 -0.00000000000E+00 -0.00000000000E+00 -0.45593999997E+02  0.45594000000E+02  0.51100000000E-03 0.  1.
    9900012    2    1    2    0    0  0.11432218450E+02  0.22998091307E+02 -0.34985919468E+02  0.47787281303E+02  0.20000046771E+02 0.  0.
         12    1    1    2    0    0 -0.11432218450E+02 -0.22998091307E+02  0.34985919468E+02  0.43400718697E+02  0.00000000000E+00 0. -1.
         11    1    3    3    0    0 -0.25691422749E+01  0.94875043493E+01 -0.54244780766E+01  0.11226673304E+02  0.51100000000E-03 0. -1.
        -11    1    3    3    0    0 -0.54294064644E+00 -0.87358017779E+00 -0.10472833619E+01  0.14678997152E+01  0.51100000000E-03 0.  1.
        -12    1    3    3    0    0  0.14544301371E+02  0.14384167135E+02 -0.28514158029E+02  0.35092708283E+02  0.00000000000E+00 0.  1.
</event>
<event>
 7    1  0.2459936E-009  0.4778728E+02  0.7816164E-02  0.1312668E+00
        -11   -1    0    0    0    0  0.00000000000E+00  0.00000000000E+00  0.45593999997E+02  0.45594000000E+02  0.51100000000E-03 0.  1.
         11   -1    0    0    0    0 -0.00000000000E+00 -0.00000000000E+00 -0.45593999997E+02  0.45594000000E+02  0.51100000000E-03 0. -1.
    9900012    2    1    2    0    0  0.12272191093E+02 -0.41551949073E+02  0.25399203452E+01  0.47787281787E+02  0.20000048980E+02 0.  0.
         12    1    1    2    0    0 -0.12272191093E+02  0.41551949073E+02 -0.25399203452E+01  0.43400718213E+02  0.00000000000E+00 0. -1.
         11    1    3    3    0    0  0.56593739551E+01 -0.90816777766E+01 -0.32316030910E+00  0.10705597491E+02  0.51100000000E-03 0.  1.
        -11    1    3    3    0    0  0.12008171698E+02 -0.19686044085E+02  0.25733161382E+01  0.23202553210E+02  0.51100000000E-03 0. -1.
         12    1    3    3    0    0 -0.53953545595E+01 -0.12784227212E+02  0.28976451610E+00  0.13879131086E+02  0.00000000000E+00 0. -1.
</event>
<event>
 7    1  0.2459936E-009  0.4778727E+02  0.7816164E-02  0.1312668E+00
        -11   -1    0    0    0    0  0.00000000000E+00  0.00000000000E+00  0.45593999997E+02  0.45594000000E+02  0.51100000000E-03 0.  1.
         11   -1    0    0    0    0 -0.00000000000E+00 -0.00000000000E+00 -0.45593999997E+02  0.45594000000E+02  0.51100000000E-03 0. -1.
    9900012    2    1    2    0    0  0.22448354885E+02 -0.21473630489E+02  0.30308049866E+02  0.47787270396E+02  0.19999997045E+02 0.  0.
         12    1    1    2    0    0 -0.22448354885E+02  0.21473630489E+02 -0.30308049866E+02  0.43400729604E+02  0.00000000000E+00 0. -1.
         11    1    3    3    0    0  0.12483112587E+01 -0.80803117528E+01  0.46682027858E+01  0.94149793697E+01  0.51100000000E-03 0. -1.
        -11    1    3    3    0    0  0.12692036983E+02 -0.14778577590E+02  0.14488961636E+02  0.24278059393E+02  0.51100000000E-03 0.  1.
        -12    1    3    3    0    0  0.85080066434E+01  0.13852588538E+01  0.11150885445E+02  0.14094231634E+02  0.00000000000E+00 0.  1.
</event>
<event>
 7    1  0.2459936E-009  0.4778727E+02  0.7816164E-02  0.1312668E+00
        -11   -1    0    0    0    0  0.00000000000E+00  0.00000000000E+00  0.45593999997E+02  0.45594000000E+02  0.51100000000E-03 0. -1.
         11   -1    0    0    0    0 -0.00000000000E+00 -0.00000000000E+00 -0.45593999997E+02  0.45594000000E+02  0.51100000000E-03 0.  1.
    9900012    2    1    2    0    0  0.39525385552E+02 -0.17614202776E+02 -0.33327764689E+01  0.47787266810E+02  0.19999980693E+02 0.  0.
         12    1    1    2    0    0 -0.39525385552E+02  0.17614202776E+02  0.33327764689E+01  0.43400733190E+02  0.00000000000E+00 0. -1.
         11    1    3    3    0    0  0.44671009265E+01 -0.17476830331E+01 -0.34542401489E+01  0.59111049676E+01  0.51100000000E-03 0. -1.
        -11    1    3    3    0    0  0.32291627054E+02 -0.79073959416E+01 -0.15661206915E+01  0.33282560338E+02  0.51100000000E-03 0.  1.
         12    1    3    3    0    0  0.27666575710E+01 -0.79591238012E+01  0.16875843714E+01  0.85936015039E+01  0.00000000000E+00 0. -1.
</event>
<event>
 7    1  0.2459936E-009  0.4778727E+02  0.7816164E-02  0.1312668E+00
        -11   -1    0    0    0    0  0.00000000000E+00  0.00000000000E+00  0.45593999997E+02  0.45594000000E+02  0.51100000000E-03 0. -1.
         11   -1    0    0    0    0 -0.00000000000E+00 -0.00000000000E+00 -0.45593999997E+02  0.45594000000E+02  0.51100000000E-03 0.  1.
    9900012    2    1    2    0    0 -0.42395690587E+01  0.17103379009E+02 -0.39662626689E+02  0.47787268725E+02  0.19999989424E+02 0.  0.
         12    1    1    2    0    0  0.42395690587E+01 -0.17103379009E+02  0.39662626689E+02  0.43400731275E+02  0.00000000000E+00 0. -1.
         11    1    3    3    0    0  0.31115441396E+00  0.65838326068E+01 -0.28907804127E+01  0.71972411742E+01  0.51100000000E-03 0. -1.
        -11    1    3    3    0    0 -0.28674249094E+01  0.64295663332E+01 -0.53079322667E+01  0.88167791201E+01  0.51100000000E-03 0.  1.
         12    1    3    3    0    0 -0.16832985633E+01  0.40899800687E+01 -0.31463914010E+02  0.31773248431E+02  0.00000000000E+00 0. -1.
</event>
<event>
 7    1  0.2459936E-009  0.4778727E+02  0.7816164E-02  0.1312668E+00
        -11   -1    0    0    0    0  0.00000000000E+00  0.00000000000E+00  0.45593999997E+02  0.45594000000E+02  0.51100000000E-03 0.  1.
         11   -1    0    0    0    0 -0.00000000000E+00 -0.00000000000E+00 -0.45593999997E+02  0.45594000000E+02  0.51100000000E-03 0. -1.
    9900012    2    1    2    0    0  0.20377555073E+01 -0.20356008545E+02  0.38276673486E+02  0.47787271152E+02  0.20000000490E+02 0.  0.
         12    1    1    2    0    0 -0.20377555073E+01  0.20356008545E+02 -0.38276673486E+02  0.43400728848E+02  0.00000000000E+00 0. -1.
         11    1    3    3    0    0  0.23811909041E+01 -0.99858790434E+01  0.96304661689E+01  0.14075998341E+02  0.51100000000E-03 0. -1.
        -11    1    3    3    0    0  0.33689552412E+01 -0.11752658779E+02  0.14230606661E+02  0.18761263657E+02  0.51100000000E-03 0.  1.
         12    1    3    3    0    0 -0.37123906380E+01  0.13825292773E+01  0.14415600656E+02  0.14950009155E+02  0.00000000000E+00 0. -1.
</event>
<event>
 7    1  0.2459936E-009  0.4778727E+02  0.7816164E-02  0.1312668E+00
        -11   -1    0    0    0    0  0.00000000000E+00  0.00000000000E+00  0.45593999997E+02  0.45594000000E+02  0.51100000000E-03 0.  1.
         11   -1    0    0    0    0 -0.00000000000E+00 -0.00000000000E+00 -0.45593999997E+02  0.45594000000E+02  0.51100000000E-03 0. -1.
    9900012    2    1    2    0    0 -0.36365217071E+02 -0.21792263265E+02  0.92893226726E+01  0.47787271128E+02  0.20000000383E+02 0.  0.
         12    1    1    2    0    0  0.36365217071E+02  0.21792263265E+02 -0.92893226726E+01  0.43400728872E+02  0.00000000000E+00 0. -1.
         11    1    3    3    0    0  0.59832259542E-01  0.10413157023E+00  0.88420204360E-01  0.14913643707E+00  0.51100000000E-03 0. -1.
        -11    1    3    3    0    0 -0.79747669646E+00  0.24611076301E+01 -0.17364466738E+01  0.31158092304E+01  0.51100000000E-03 0.  1.
        -12    1    3    3    0    0 -0.35627572635E+02 -0.24357502466E+02  0.10937349142E+02  0.44522325461E+02  0.00000000000E+00 0.  1.
</event>
<event>
 7    1  0.2459936E-009  0.4778727E+02  0.7816164E-02  0.1312668E+00
        -11   -1    0    0    0    0  0.00000000000E+00  0.00000000000E+00  0.45593999997E+02  0.45594000000E+02  0.51100000000E-03 0.  1.
         11   -1    0    0    0    0 -0.00000000000E+00 -0.00000000000E+00 -0.45593999997E+02  0.45594000000E+02  0.51100000000E-03 0. -1.
    9900012    2    1    2    0    0 -0.23647653722E+02  0.33894916521E+02  0.13249389972E+02  0.47787271583E+02  0.20000002454E+02 0.  0.
         12    1    1    2    0    0  0.23647653722E+02 -0.33894916521E+02 -0.13249389972E+02  0.43400728417E+02  0.00000000000E+00 0. -1.
         11    1    3    3    0    0 -0.26777215119E+01  0.11256119486E+00 -0.38687157641E+00  0.27078649146E+01  0.51100000000E-03 0. -1.
        -11    1    3    3    0    0 -0.17992763998E+02  0.14899022691E+02  0.10862444090E+02  0.25762630404E+02  0.51100000000E-03 0.  1.
         12    1    3    3    0    0 -0.29771682122E+01  0.18883332635E+02  0.27738174582E+01  0.19316776265E+02  0.00000000000E+00 0. -1.
</event>
<event>
 7    1  0.2459936E-009  0.4778727E+02  0.7816164E-02  0.1312668E+00
        -11   -1    0    0    0    0  0.00000000000E+00  0.00000000000E+00  0.45593999997E+02  0.45594000000E+02  0.51100000000E-03 0. -1.
         11   -1    0    0    0    0 -0.00000000000E+00 -0.00000000000E+00 -0.45593999997E+02  0.45594000000E+02  0.51100000000E-03 0.  1.
    9900012    2    1    2    0    0  0.57872952023E+01  0.41320273044E+02 -0.11948454048E+02  0.47787270694E+02  0.19999998401E+02 0.  0.
         12    1    1    2    0    0 -0.57872952023E+01 -0.41320273044E+02  0.11948454048E+02  0.43400729306E+02  0.00000000000E+00 0. -1.
         11    1    3    3    0    0  0.58307663639E+00  0.59156014056E+01 -0.73433505849E+01  0.94477042941E+01  0.51100000000E-03 0. -1.
        -11    1    3    3    0    0 -0.28116185252E+01  0.14299381713E+01 -0.35661210167E+00  0.31744439446E+01  0.51100000000E-03 0.  1.
        -12    1    3    3    0    0  0.80158370911E+01  0.33974733467E+02 -0.42484913616E+01  0.35165122455E+02  0.00000000000E+00 0.  1.
</event>
<event>
 7    1  0.2459936E-009  0.4778727E+02  0.7816164E-02  0.1312668E+00
        -11   -1    0    0    0    0  0.00000000000E+00  0.00000000000E+00  0.45593999997E+02  0.45594000000E+02  0.51100000000E-03 0. -1.
         11   -1    0    0    0    0 -0.00000000000E+00 -0.00000000000E+00 -0.45593999997E+02  0.45594000000E+02  0.51100000000E-03 0.  1.
    9900012    2    1    2    0    0  0.34090675989E+02  0.26398593346E+02  0.49561285863E+01  0.47787272695E+02  0.20000007528E+02 0.  0.
         12    1    1    2    0    0 -0.34090675989E+02 -0.26398593346E+02 -0.49561285863E+01  0.43400727305E+02  0.00000000000E+00 0. -1.
         11    1    3    3    0    0  0.26976420548E+02  0.17144835467E+02  0.11133451518E+02  0.33847103152E+02  0.51100000000E-03 0. -1.
        -11    1    3    3    0    0  0.21692982078E+01  0.20588846752E+00 -0.90631233853E+00  0.23600099770E+01  0.51100000000E-03 0.  1.
         12    1    3    3    0    0  0.49449572323E+01  0.90478694111E+01 -0.52710105934E+01  0.11580159567E+02  0.00000000000E+00 0. -1.
</event>
<event>
 7    1  0.2459936E-009  0.4778728E+02  0.7816164E-02  0.1312668E+00
        -11   -1    0    0    0    0  0.00000000000E+00  0.00000000000E+00  0.45593999997E+02  0.45594000000E+02  0.51100000000E-03 0.  1.
         11   -1    0    0    0    0 -0.00000000000E+00 -0.00000000000E+00 -0.45593999997E+02  0.45594000000E+02  0.51100000000E-03 0. -1.
    9900012    2    1    2    0    0  0.13635432591E+02 -0.12924173054E+01  0.41182853550E+02  0.47787276608E+02  0.20000025365E+02 0.  0.
         12    1    1    2    0    0 -0.13635432591E+02  0.12924173054E+01 -0.41182853550E+02  0.43400723392E+02  0.00000000000E+00 0. -1.
         11    1    3    3    0    0 -0.16873890262E+01 -0.11223038008E+01  0.63736600472E+01  0.66880782146E+01  0.51100000000E-03 0. -1.
        -11    1    3    3    0    0  0.52665526611E+01  0.12689040300E+00  0.29014884163E+02  0.29489255354E+02  0.51100000000E-03 0.  1.
        -12    1    3    3    0    0  0.10056268956E+02 -0.29700390765E+00  0.57943093402E+01  0.11609943039E+02  0.00000000000E+00 0.  1.
</event>
<event>
 7    1  0.2459936E-009  0.4778729E+02  0.7816164E-02  0.1312668E+00
        -11   -1    0    0    0    0  0.00000000000E+00  0.00000000000E+00  0.45593999997E+02  0.45594000000E+02  0.51100000000E-03 0.  1.
         11   -1    0    0    0    0 -0.00000000000E+00 -0.00000000000E+00 -0.45593999997E+02  0.45594000000E+02  0.51100000000E-03 0. -1.
    9900012    2    1    2    0    0 -0.10386034170E+02 -0.32311587140E+02  0.27050199303E+02  0.47787289734E+02  0.20000085212E+02 0.  0.
         12    1    1    2    0    0  0.10386034170E+02  0.32311587140E+02 -0.27050199303E+02  0.43400710266E+02  0.00000000000E+00 0. -1.
         11    1    3    3    0    0 -0.63955548304E+01 -0.45598527053E+01 -0.57021260129E+00  0.78753108482E+01  0.51100000000E-03 0. -1.
        -11    1    3    3    0    0  0.18017640289E+01 -0.44887766812E+01  0.45145208973E+01  0.66163712791E+01  0.51100000000E-03 0.  1.
         12    1    3    3    0    0 -0.57922433688E+01 -0.23262957753E+02  0.23105891007E+02  0.33295607607E+02  0.00000000000E+00 0. -1.
</event>
<event>
 7    1  0.2459936E-009  0.4778728E+02  0.7816164E-02  0.1312668E+00
        -11   -1    0    0    0    0  0.00000000000E+00  0.00000000000E+00  0.45593999997E+02  0.45594000000E+02  0.51100000000E-03 0.  1.
         11   -1    0    0    0    0 -0.00000000000E+00 -0.00000000000E+00 -0.45593999997E+02  0.45594000000E+02  0.51100000000E-03 0. -1.
    9900012    2    1    2    0    0 -0.35978193343E+02 -0.12827897775E+02  0.20606728643E+02  0.47787278544E+02  0.20000034192E+02 0.  0.
         12    1    1    2    0    0  0.35978193343E+02  0.12827897775E+02 -0.20606728643E+02  0.43400721456E+02  0.00000000000E+00 0. -1.
         11    1    3    3    0    0 -0.84472938112E+01 -0.19170945843E+01 -0.15086095217E+01  0.87924926686E+01  0.51100000000E-03 0. -1.
        -11    1    3    3    0    0 -0.26535877898E+01 -0.48847736990E+00 -0.15505121152E+01  0.31119489680E+01  0.51100000000E-03 0.  1.
        -12    1    3    3    0    0 -0.24877311742E+02 -0.10422325821E+02  0.23665850280E+02  0.35882836907E+02  0.00000000000E+00 0.  1.
</event>
<event>
 7    1  0.2459936E-009  0.4778727E+02  0.7816164E-02  0.1312668E+00
        -11   -1    0    0    0    0  0.00000000000E+00  0.00000000000E+00  0.45593999997E+02  0.45594000000E+02  0.51100000000E-03 0.  1.
         11   -1    0    0    0    0 -0.00000000000E+00 -0.00000000000E+00 -0.45593999997E+02  0.45594000000E+02  0.51100000000E-03 0. -1.
    9900012    2    1    2    0    0 -0.16393637713E+02  0.25429451566E+02  0.31116153107E+02  0.47787270184E+02  0.19999996075E+02 0.  0.
         12    1    1    2    0    0  0.16393637713E+02 -0.25429451566E+02 -0.31116153107E+02  0.43400729816E+02  0.00000000000E+00 0. -1.
         11    1    3    3    0    0  0.18587086679E+01  0.29761174071E+00  0.85954839154E+00  0.20693463603E+01  0.51100000000E-03 0. -1.
        -11    1    3    3    0    0 -0.35660664677E+01  0.11578350567E+02  0.19672191591E+02  0.23103466280E+02  0.51100000000E-03 0.  1.
         12    1    3    3    0    0 -0.14686279914E+02  0.13553489259E+02  0.10584413124E+02  0.22614457543E+02  0.00000000000E+00 0. -1.
</event>
<event>
 7    1  0.2459936E-009  0.4778727E+02  0.7816164E-02  0.1312668E+00
        -11   -1    0    0    0    0  0.00000000000E+00  0.00000000000E+00  0.45593999997E+02  0.45594000000E+02  0.51100000000E-03 0. -1.
         11   -1    0    0    0    0 -0.00000000000E+00 -0.00000000000E+00 -0.45593999997E+02  0.45594000000E+02  0.51100000000E-03 0.  1.
    9900012    2    1    2    0    0  0.11608595857E+02 -0.18739567955E+02 -0.37385720219E+02  0.47787274416E+02  0.20000015374E+02 0.  0.
         12    1    1    2    0    0 -0.11608595857E+02  0.18739567955E+02  0.37385720219E+02  0.43400725584E+02  0.00000000000E+00 0. -1.
         11    1    3    3    0    0  0.10311147426E+01 -0.71452819029E+01 -0.50463041482E+01  0.88081460536E+01  0.51100000000E-03 0. -1.
        -11    1    3    3    0    0  0.10516347363E+01 -0.11922583602E+02 -0.20946716766E+02  0.24125067438E+02  0.51100000000E-03 0.  1.
        -12    1    3    3    0    0  0.95258463784E+01  0.32829754991E+00 -0.11392699305E+02  0.14854060925E+02  0.00000000000E+00 0.  1.
</event>
<event>
 7    1  0.2459936E-009  0.4778728E+02  0.7816164E-02  0.1312668E+00
        -11   -1    0    0    0    0  0.00000000000E+00  0.00000000000E+00  0.45593999997E+02  0.45594000000E+02  0.51100000000E-03 0. -1.
         11   -1    0    0    0    0 -0.00000000000E+00 -0.00000000000E+00 -0.45593999997E+02  0.45594000000E+02  0.51100000000E-03 0.  1.
    9900012    2    1    2    0    0  0.10632293083E+02 -0.14093436643E+02 -0.39647851832E+02  0.47787276878E+02  0.20000026599E+02 0.  0.
         12    1    1    2    0    0 -0.10632293083E+02  0.14093436643E+02  0.39647851832E+02  0.43400723122E+02  0.00000000000E+00 0. -1.
         11    1    3    3    0    0 -0.23729045390E+01 -0.16285273901E+01 -0.78437841096E+01  0.83551018444E+01  0.51100000000E-03 0. -1.
        -11    1    3    3    0    0 -0.23451706781E+01 -0.13246704053E+01 -0.10804535828E+02  0.11135195189E+02  0.51100000000E-03 0.  1.
        -12    1    3    3    0    0  0.15350368300E+02 -0.11140238848E+02 -0.20999531894E+02  0.28296979845E+02  0.00000000000E+00 0.  1.
</event>
<event>
 7    1  0.2459936E-009  0.4778727E+02  0.7816164E-02  0.1312668E+00
        -11   -1    0    0    0    0  0.00000000000E+00  0.00000000000E+00  0.45593999997E+02  0.45594000000E+02  0.51100000000E-03 0.  1.
         11   -1    0    0    0    0 -0.00000000000E+00 -0.00000000000E+00 -0.45593999997E+02  0.45594000000E+02  0.51100000000E-03 0. -1.
    9900012    2    1    2    0    0 -0.98228627242E+01  0.31375641785E+02  0.28332029149E+02  0.47787269531E+02  0.19999993099E+02 0.  0.
         12    1    1    2    0    0  0.98228627242E+01 -0.31375641785E+02 -0.28332029149E+02  0.43400730469E+02  0.00000000000E+00 0. -1.
         11    1    3    3    0    0 -0.98843075563E+01  0.97356025562E+01  0.10926942683E+02  0.17660112391E+02  0.51100000000E-03 0. -1.
        -11    1    3    3    0    0 -0.44047730213E+01  0.81167480389E+01  0.11399962708E+02  0.14671154491E+02  0.51100000000E-03 0.  1.
         12    1    3    3    0    0  0.44662178533E+01  0.13523291190E+02  0.60051237579E+01  0.15456002649E+02  0.00000000000E+00 0. -1.
</event>
<event>
 7    1  0.2459936E-009  0.4778726E+02  0.7816164E-02  0.1312668E+00
        -11   -1    0    0    0    0  0.00000000000E+00  0.00000000000E+00  0.45593999997E+02  0.45594000000E+02  0.51100000000E-03 0.  1.
         11   -1    0    0    0    0 -0.00000000000E+00 -0.00000000000E+00 -0.45593999997E+02  0.45594000000E+02  0.51100000000E-03 0. -1.
    9900012    2    1    2    0    0 -0.32265901065E+02 -0.25481418672E+02  0.13900841766E+02  0.47787257255E+02  0.19999937127E+02 0.  0.
         12    1    1    2    0    0  0.32265901065E+02  0.25481418672E+02 -0.13900841766E+02  0.43400742745E+02  0.00000000000E+00 0. -1.
         11    1    3    3    0    0 -0.21076608109E+01  0.70982911437E+00 -0.22533656956E+01  0.31660304302E+01  0.51100000000E-03 0. -1.
        -11    1    3    3    0    0 -0.94629906715E+01 -0.12866100004E+02  0.11217152090E+02  0.19516895835E+02  0.51100000000E-03 0.  1.
         12    1    3    3    0    0 -0.20695249582E+02 -0.13325147782E+02  0.49370553717E+01  0.25104330990E+02  0.00000000000E+00 0. -1.
</event>
<event>
 7    1  0.2459936E-009  0.4778727E+02  0.7816164E-02  0.1312668E+00
        -11   -1    0    0    0    0  0.00000000000E+00  0.00000000000E+00  0.45593999997E+02  0.45594000000E+02  0.51100000000E-03 0.  1.
         11   -1    0    0    0    0 -0.00000000000E+00 -0.00000000000E+00 -0.45593999997E+02  0.45594000000E+02  0.51100000000E-03 0. -1.
    9900012    2    1    2    0    0 -0.42804926214E+02  0.71454177460E+01  0.55197261155E+00  0.47787269859E+02  0.19999994596E+02 0.  0.
         12    1    1    2    0    0  0.42804926214E+02 -0.71454177460E+01 -0.55197261155E+00  0.43400730141E+02  0.00000000000E+00 0. -1.
         11    1    3    3    0    0 -0.25551447923E-01  0.17447118282E+01  0.15411320514E+01  0.23280379080E+01  0.51100000000E-03 0. -1.
        -11    1    3    3    0    0 -0.26884092471E+02  0.58568679833E+01  0.58820318888E+01  0.28136375566E+02  0.51100000000E-03 0.  1.
         12    1    3    3    0    0 -0.15895282295E+02 -0.45616206556E+00 -0.68711913286E+01  0.17322856385E+02  0.00000000000E+00 0. -1.
</event>
<event>
 7    1  0.2459936E-009  0.4778726E+02  0.7816164E-02  0.1312668E+00
        -11   -1    0    0    0    0  0.00000000000E+00  0.00000000000E+00  0.45593999997E+02  0.45594000000E+02  0.51100000000E-03 0. -1.
         11   -1    0    0    0    0 -0.00000000000E+00 -0.00000000000E+00 -0.45593999997E+02  0.45594000000E+02  0.51100000000E-03 0.  1.
    9900012    2    1    2    0    0  0.32300387276E+02 -0.22986292678E+02 -0.17661820233E+02  0.47787256191E+02  0.19999932275E+02 0.  0.
         12    1    1    2    0    0 -0.32300387276E+02  0.22986292678E+02  0.17661820233E+02  0.43400743809E+02  0.00000000000E+00 0. -1.
         11    1    3    3    0    0  0.31541378144E+01 -0.29785911234E+01 -0.63472807156E+01  0.76882093609E+01  0.51100000000E-03 0. -1.
        -11    1    3    3    0    0  0.41440446180E+01 -0.93873374603E+01 -0.74063061385E+01  0.12654982468E+02  0.51100000000E-03 0.  1.
         12    1    3    3    0    0  0.25002204843E+02 -0.10620364095E+02 -0.39082333791E+01  0.27444064361E+02  0.00000000000E+00 0. -1.
</event>
<event>
 7    1  0.2459936E-009  0.4778727E+02  0.7816164E-02  0.1312668E+00
        -11   -1    0    0    0    0  0.00000000000E+00  0.00000000000E+00  0.45593999997E+02  0.45594000000E+02  0.51100000000E-03 0.  1.
         11   -1    0    0    0    0 -0.00000000000E+00 -0.00000000000E+00 -0.45593999997E+02  0.45594000000E+02  0.51100000000E-03 0. -1.
    9900012    2    1    2    0    0  0.33216500532E+02  0.16778807995E+02  0.22332906871E+02  0.47787273800E+02  0.20000012565E+02 0.  0.
         12    1    1    2    0    0 -0.33216500532E+02 -0.16778807995E+02 -0.22332906871E+02  0.43400726200E+02  0.00000000000E+00 0. -1.
         11    1    3    3    0    0  0.68969247613E+00 -0.87311682082E+00  0.17814733644E+01  0.21003943210E+01  0.51100000000E-03 0. -1.
        -11    1    3    3    0    0  0.34655773665E+02  0.16662351324E+02  0.19486319402E+02  0.43108853430E+02  0.51100000000E-03 0.  1.
        -12    1    3    3    0    0 -0.21289656082E+01  0.98957349116E+00  0.10651141043E+01  0.25780260492E+01  0.00000000000E+00 0.  1.
</event>
<event>
 7    1  0.2459936E-009  0.4778727E+02  0.7816164E-02  0.1312668E+00
        -11   -1    0    0    0    0  0.00000000000E+00  0.00000000000E+00  0.45593999997E+02  0.45594000000E+02  0.51100000000E-03 0.  1.
         11   -1    0    0    0    0 -0.00000000000E+00 -0.00000000000E+00 -0.45593999997E+02  0.45594000000E+02  0.51100000000E-03 0. -1.
    9900012    2    1    2    0    0  0.34537974140E+02  0.26196005954E+02 -0.21262847906E+01  0.47787268755E+02  0.19999989560E+02 0.  0.
         12    1    1    2    0    0 -0.34537974140E+02 -0.26196005954E+02  0.21262847906E+01  0.43400731245E+02  0.00000000000E+00 0. -1.
         11    1    3    3    0    0  0.13945605905E+02  0.14275961615E+02  0.24998143203E+01  0.20112982772E+02  0.51100000000E-03 0.  1.
        -11    1    3    3    0    0 -0.11964056319E+01  0.17491127507E-01  0.16758196873E+01  0.20591416321E+01  0.51100000000E-03 0. -1.
        -12    1    3    3    0    0  0.21788773867E+02  0.11902553211E+02 -0.63019187982E+01  0.25615144350E+02  0.00000000000E+00 0.  1.
</event>
<event>
 7    1  0.2459936E-009  0.4778729E+02  0.7816164E-02  0.1312668E+00
        -11   -1    0    0    0    0  0.00000000000E+00  0.00000000000E+00  0.45593999997E+02  0.45594000000E+02  0.51100000000E-03 0.  1.
         11   -1    0    0    0    0 -0.00000000000E+00 -0.00000000000E+00 -0.45593999997E+02  0.45594000000E+02  0.51100000000E-03 0. -1.
    9900012    2    1    2    0    0 -0.66765941356E-01 -0.10286261020E+02  0.42164082324E+02  0.47787291922E+02  0.20000095189E+02 0.  0.
         12    1    1    2    0    0  0.66765941356E-01  0.10286261020E+02 -0.42164082324E+02  0.43400708078E+02  0.00000000000E+00 0. -1.
         11    1    3    3    0    0 -0.18179621285E+01 -0.64456427326E-01  0.11588526877E+01  0.21568682725E+01  0.51100000000E-03 0. -1.
        -11    1    3    3    0    0  0.44269841208E+01 -0.14389343406E+02  0.30218347516E+02  0.33760922957E+02  0.51100000000E-03 0.  1.
        -12    1    3    3    0    0 -0.26757879336E+01  0.41675388126E+01  0.10786882120E+02  0.11869500692E+02  0.00000000000E+00 0.  1.
</event>
<event>
 7    1  0.2459936E-009  0.4778725E+02  0.7816164E-02  0.1312668E+00
        -11   -1    0    0    0    0  0.00000000000E+00  0.00000000000E+00  0.45593999997E+02  0.45594000000E+02  0.51100000000E-03 0.  1.
         11   -1    0    0    0    0 -0.00000000000E+00 -0.00000000000E+00 -0.45593999997E+02  0.45594000000E+02  0.51100000000E-03 0. -1.
    9900012    2    1    2    0    0 -0.15284016278E+02  0.57168361233E+01  0.40216183063E+02  0.47787254050E+02  0.19999922517E+02 0.  0.
         12    1    1    2    0    0  0.15284016278E+02 -0.57168361233E+01 -0.40216183063E+02  0.43400745950E+02  0.00000000000E+00 0. -1.
         11    1    3    3    0    0 -0.89564426553E+01 -0.25968473179E+01  0.13219480030E+02  0.16177643016E+02  0.51100000000E-03 0. -1.
        -11    1    3    3    0    0 -0.98769084356E+01  0.42672284879E+01  0.14990013332E+02  0.18451641097E+02  0.51100000000E-03 0.  1.
         12    1    3    3    0    0  0.35493348131E+01  0.40464549533E+01  0.12006689700E+02  0.13157969937E+02  0.00000000000E+00 0. -1.
</event>
<event>
 7    1  0.2459936E-009  0.4778727E+02  0.7816164E-02  0.1312668E+00
        -11   -1    0    0    0    0  0.00000000000E+00  0.00000000000E+00  0.45593999997E+02  0.45594000000E+02  0.51100000000E-03 0.  1.
         11   -1    0    0    0    0 -0.00000000000E+00 -0.00000000000E+00 -0.45593999997E+02  0.45594000000E+02  0.51100000000E-03 0. -1.
    9900012    2    1    2    0    0  0.22134340896E+02 -0.20851014387E+02  0.30966587610E+02  0.47787269637E+02  0.19999993581E+02 0.  0.
         12    1    1    2    0    0 -0.22134340896E+02  0.20851014387E+02 -0.30966587610E+02  0.43400730363E+02  0.00000000000E+00 0. -1.
         11    1    3    3    0    0  0.21203066533E+01 -0.49968196563E+00 -0.12668658057E+01  0.25199864289E+01  0.51100000000E-03 0. -1.
        -11    1    3    3    0    0  0.54901939003E+01  0.98992094403E+00  0.32576577398E+01  0.64602249766E+01  0.51100000000E-03 0.  1.
        -12    1    3    3    0    0  0.14523840342E+02 -0.21341253365E+02  0.28975795676E+02  0.38807058231E+02  0.00000000000E+00 0.  1.
</event>
<event>
 7    1  0.2459936E-009  0.4778725E+02  0.7816164E-02  0.1312668E+00
        -11   -1    0    0    0    0  0.00000000000E+00  0.00000000000E+00  0.45593999997E+02  0.45594000000E+02  0.51100000000E-03 0.  1.
         11   -1    0    0    0    0 -0.00000000000E+00 -0.00000000000E+00 -0.45593999997E+02  0.45594000000E+02  0.51100000000E-03 0. -1.
    9900012    2    1    2    0    0 -0.13724472617E+01 -0.42663479964E+02  0.78465867455E+01  0.47787250494E+02  0.19999906304E+02 0.  0.
         12    1    1    2    0    0  0.13724472617E+01  0.42663479964E+02 -0.78465867455E+01  0.43400749506E+02  0.00000000000E+00 0. -1.
         11    1    3    3    0    0  0.14116845637E+01 -0.48014376123E+01  0.32100996151E+01  0.59457040165E+01  0.51100000000E-03 0. -1.
        -11    1    3    3    0    0 -0.93153320236E+01 -0.23577741341E+02  0.60757022961E+01  0.26069128411E+02  0.51100000000E-03 0.  1.
         12    1    3    3    0    0  0.65312001982E+01 -0.14284301010E+02 -0.14392151656E+01  0.15772418067E+02  0.00000000000E+00 0. -1.
</event>
<event>
 7    1  0.2459936E-009  0.4778724E+02  0.7816164E-02  0.1312668E+00
        -11   -1    0    0    0    0  0.00000000000E+00  0.00000000000E+00  0.45593999997E+02  0.45594000000E+02  0.51100000000E-03 0.  1.
         11   -1    0    0    0    0 -0.00000000000E+00 -0.00000000000E+00 -0.45593999997E+02  0.45594000000E+02  0.51100000000E-03 0. -1.
    9900012    2    1    2    0    0 -0.11339288736E+02  0.36991252969E+02 -0.19664519392E+02  0.47787244383E+02  0.19999878438E+02 0.  0.
         12    1    1    2    0    0  0.11339288736E+02 -0.36991252969E+02  0.19664519392E+02  0.43400755617E+02  0.00000000000E+00 0. -1.
         11    1    3    3    0    0  0.94651362562E-01  0.12747240091E+02 -0.94693433778E+01  0.15879847388E+02  0.51100000000E-03 0.  1.
        -11    1    3    3    0    0  0.21662619335E+01  0.10800896272E+01  0.12323973723E+01  0.27162635939E+01  0.51100000000E-03 0. -1.
        -12    1    3    3    0    0 -0.13600202032E+02  0.23163923251E+02 -0.11427573387E+02  0.29191133400E+02  0.00000000000E+00 0.  1.
</event>
<event>
 7    1  0.2459936E-009  0.4778727E+02  0.7816164E-02  0.1312668E+00
        -11   -1    0    0    0    0  0.00000000000E+00  0.00000000000E+00  0.45593999997E+02  0.45594000000E+02  0.51100000000E-03 0. -1.
         11   -1    0    0    0    0 -0.00000000000E+00 -0.00000000000E+00 -0.45593999997E+02  0.45594000000E+02  0.51100000000E-03 0.  1.
    9900012    2    1    2    0    0  0.16657702846E+02 -0.40019755923E+02  0.21362160042E+01  0.47787270201E+02  0.19999996156E+02 0.  0.
         12    1    1    2    0    0 -0.16657702846E+02  0.40019755923E+02 -0.21362160042E+01  0.43400729799E+02  0.00000000000E+00 0. -1.
         11    1    3    3    0    0  0.16338862662E+00  0.11158938089E+01  0.13194530691E+01  0.17357625122E+01  0.51100000000E-03 0. -1.
        -11    1    3    3    0    0  0.11148494376E+02 -0.12678850059E+02  0.24038861413E+01  0.17053469867E+02  0.51100000000E-03 0.  1.
        -12    1    3    3    0    0  0.53458198427E+01 -0.28456799674E+02 -0.15871232062E+01  0.28998037822E+02  0.00000000000E+00 0.  1.
</event>
<event>
 7    1  0.2459936E-009  0.4778727E+02  0.7816164E-02  0.1312668E+00
        -11   -1    0    0    0    0  0.00000000000E+00  0.00000000000E+00  0.45593999997E+02  0.45594000000E+02  0.51100000000E-03 0. -1.
         11   -1    0    0    0    0 -0.00000000000E+00 -0.00000000000E+00 -0.45593999997E+02  0.45594000000E+02  0.51100000000E-03 0.  1.
    9900012    2    1    2    0    0 -0.41936499449E+02  0.11158678425E+02  0.66122972030E+00  0.47787270571E+02  0.19999997841E+02 0.  0.
         12    1    1    2    0    0  0.41936499449E+02 -0.11158678425E+02 -0.66122972030E+00  0.43400729429E+02  0.00000000000E+00 0. -1.
         11    1    3    3    0    0 -0.11076724873E+02  0.29278875882E+01  0.66771964657E+00  0.11476593983E+02  0.51100000000E-03 0. -1.
        -11    1    3    3    0    0 -0.22833179663E+02  0.13558104061E+02 -0.13199331582E+01  0.26587939052E+02  0.51100000000E-03 0.  1.
         12    1    3    3    0    0 -0.80265949122E+01 -0.53273132238E+01  0.13134432320E+01  0.97227375360E+01  0.00000000000E+00 0. -1.
</event>
<event>
 7    1  0.2459936E-009  0.4778727E+02  0.7816164E-02  0.1312668E+00
        -11   -1    0    0    0    0  0.00000000000E+00  0.00000000000E+00  0.45593999997E+02  0.45594000000E+02  0.51100000000E-03 0.  1.
         11   -1    0    0    0    0 -0.00000000000E+00 -0.00000000000E+00 -0.45593999997E+02  0.45594000000E+02  0.51100000000E-03 0. -1.
    9900012    2    1    2    0    0  0.38569309400E+02  0.18737815287E+02  0.67026631788E+01  0.47787273704E+02  0.20000012126E+02 0.  0.
         12    1    1    2    0    0 -0.38569309400E+02 -0.18737815287E+02 -0.67026631788E+01  0.43400726296E+02  0.00000000000E+00 0. -1.
         11    1    3    3    0    0  0.38074730367E+01  0.82179278502E+01 -0.15459570197E+01  0.91880995012E+01  0.51100000000E-03 0. -1.
        -11    1    3    3    0    0  0.88089377623E+01  0.40810191417E+00 -0.17787202017E+01  0.89959867435E+01  0.51100000000E-03 0.  1.
        -12    1    3    3    0    0  0.25952898601E+02  0.10111785522E+02  0.10027340400E+02  0.29603187459E+02  0.00000000000E+00 0.  1.
</event>
<event>
 7    1  0.2459936E-009  0.4778727E+02  0.7816164E-02  0.1312668E+00
        -11   -1    0    0    0    0  0.00000000000E+00  0.00000000000E+00  0.45593999997E+02  0.45594000000E+02  0.51100000000E-03 0. -1.
         11   -1    0    0    0    0 -0.00000000000E+00 -0.00000000000E+00 -0.45593999997E+02  0.45594000000E+02  0.51100000000E-03 0.  1.
    9900012    2    1    2    0    0 -0.23299066763E+02 -0.36215152709E+02  0.54073621899E+01  0.47787270011E+02  0.19999995287E+02 0.  0.
         12    1    1    2    0    0  0.23299066763E+02  0.36215152709E+02 -0.54073621899E+01  0.43400729989E+02  0.00000000000E+00 0. -1.
         11    1    3    3    0    0 -0.25093033514E+02 -0.33093975632E+02  0.52586404400E+01  0.41863168222E+02  0.51100000000E-03 0. -1.
        -11    1    3    3    0    0 -0.98470172633E-01 -0.31535045293E+01 -0.14256493367E+01  0.34621905614E+01  0.51100000000E-03 0.  1.
         12    1    3    3    0    0  0.18924369231E+01  0.32327453042E-01  0.15743710866E+01  0.24619112272E+01  0.00000000000E+00 0. -1.
</event>
<event>
 7    1  0.2459936E-009  0.4778727E+02  0.7816164E-02  0.1312668E+00
        -11   -1    0    0    0    0  0.00000000000E+00  0.00000000000E+00  0.45593999997E+02  0.45594000000E+02  0.51100000000E-03 0. -1.
         11   -1    0    0    0    0 -0.00000000000E+00 -0.00000000000E+00 -0.45593999997E+02  0.45594000000E+02  0.51100000000E-03 0.  1.
    9900012    2    1    2    0    0  0.22519191446E+02  0.10485617001E+02 -0.35588774891E+02  0.47787273676E+02  0.20000011997E+02 0.  0.
         12    1    1    2    0    0 -0.22519191446E+02 -0.10485617001E+02  0.35588774891E+02  0.43400726324E+02  0.00000000000E+00 0. -1.
         11    1    3    3    0    0  0.17176026450E+02  0.44646136027E+01 -0.22253882279E+02  0.28463730184E+02  0.51100000000E-03 0.  1.
        -11    1    3    3    0    0  0.16397551771E+01  0.13113127845E+01 -0.13163328647E+02  0.13329724663E+02  0.51100000000E-03 0. -1.
         12    1    3    3    0    0  0.37034098180E+01  0.47096906135E+01 -0.17156396472E+00  0.59938188285E+01  0.00000000000E+00 0. -1.
</event>
<event>
 7    1  0.2459936E-009  0.4778727E+02  0.7816164E-02  0.1312668E+00
        -11   -1    0    0    0    0  0.00000000000E+00  0.00000000000E+00  0.45593999997E+02  0.45594000000E+02  0.51100000000E-03 0.  1.
         11   -1    0    0    0    0 -0.00000000000E+00 -0.00000000000E+00 -0.45593999997E+02  0.45594000000E+02  0.51100000000E-03 0. -1.
    9900012    2    1    2    0    0  0.27936211183E+02 -0.13237143635E+02  0.30462589892E+02  0.47787271322E+02  0.20000001265E+02 0.  0.
         12    1    1    2    0    0 -0.27936211183E+02  0.13237143635E+02 -0.30462589892E+02  0.43400728678E+02  0.00000000000E+00 0. -1.
         11    1    3    3    0    0 -0.89105128478E+00  0.13702755880E+00 -0.11026874127E+01  0.14243134259E+01  0.51100000000E-03 0. -1.
        -11    1    3    3    0    0  0.16908446065E+02 -0.22989888327E+01  0.20567147093E+02  0.26724304253E+02  0.51100000000E-03 0.  1.
         12    1    3    3    0    0  0.11918816402E+02 -0.11075182361E+02  0.10998130212E+02  0.19638653643E+02  0.00000000000E+00 0. -1.
</event>
<event>
 7    1  0.2459936E-009  0.4778727E+02  0.7816164E-02  0.1312668E+00
        -11   -1    0    0    0    0  0.00000000000E+00  0.00000000000E+00  0.45593999997E+02  0.45594000000E+02  0.51100000000E-03 0. -1.
         11   -1    0    0    0    0 -0.00000000000E+00 -0.00000000000E+00 -0.45593999997E+02  0.45594000000E+02  0.51100000000E-03 0.  1.
    9900012    2    1    2    0    0  0.28569402215E+02 -0.29557006763E+02  0.13921070971E+02  0.47787267187E+02  0.19999982412E+02 0.  0.
         12    1    1    2    0    0 -0.28569402215E+02  0.29557006763E+02 -0.13921070971E+02  0.43400732813E+02  0.00000000000E+00 0. -1.
         11    1    3    3    0    0  0.63986426085E+00 -0.30516985038E+00 -0.31500898930E+01  0.32288731014E+01  0.51100000000E-03 0. -1.
        -11    1    3    3    0    0  0.10165394265E+02 -0.57004715540E+01  0.51226466962E+01  0.12730755120E+02  0.51100000000E-03 0.  1.
         12    1    3    3    0    0  0.17764143690E+02 -0.23551365359E+02  0.11948514167E+02  0.31827638965E+02  0.00000000000E+00 0. -1.
</event>
<event>
 7    1  0.2459936E-009  0.4778727E+02  0.7816164E-02  0.1312668E+00
        -11   -1    0    0    0    0  0.00000000000E+00  0.00000000000E+00  0.45593999997E+02  0.45594000000E+02  0.51100000000E-03 0.  1.
         11   -1    0    0    0    0 -0.00000000000E+00 -0.00000000000E+00 -0.45593999997E+02  0.45594000000E+02  0.51100000000E-03 0. -1.
    9900012    2    1    2    0    0  0.30223471961E+02 -0.27833575523E+02  0.13980592450E+02  0.47787272483E+02  0.20000006557E+02 0.  0.
         12    1    1    2    0    0 -0.30223471961E+02  0.27833575523E+02 -0.13980592450E+02  0.43400727517E+02  0.00000000000E+00 0. -1.
         11    1    3    3    0    0  0.35445715260E+01 -0.49992221200E+01 -0.35532072822E+01  0.70838895643E+01  0.51100000000E-03 0. -1.
        -11    1    3    3    0    0  0.40989387735E+01 -0.97423311324E+01  0.39878876684E+01  0.11296794381E+02  0.51100000000E-03 0.  1.
        -12    1    3    3    0    0  0.22579961662E+02 -0.13092022271E+02  0.13545912064E+02  0.29406588538E+02  0.00000000000E+00 0.  1.
</event>
<event>
 7    1  0.2459936E-009  0.4778727E+02  0.7816164E-02  0.1312668E+00
        -11   -1    0    0    0    0  0.00000000000E+00  0.00000000000E+00  0.45593999997E+02  0.45594000000E+02  0.51100000000E-03 0. -1.
         11   -1    0    0    0    0 -0.00000000000E+00 -0.00000000000E+00 -0.45593999997E+02  0.45594000000E+02  0.51100000000E-03 0.  1.
    9900012    2    1    2    0    0  0.41372298060E+02 -0.54125878994E+01 -0.11944052226E+02  0.47787268001E+02  0.19999986122E+02 0.  0.
         12    1    1    2    0    0 -0.41372298060E+02  0.54125878994E+01  0.11944052226E+02  0.43400731999E+02  0.00000000000E+00 0. -1.
         11    1    3    3    0    0  0.75368603842E+01  0.83180933802E-02  0.34654927765E+01  0.82954188614E+01  0.51100000000E-03 0. -1.
        -11    1    3    3    0    0  0.29554752306E+02 -0.84070060888E+01 -0.15167837725E+02  0.34266958382E+02  0.51100000000E-03 0.  1.
        -12    1    3    3    0    0  0.42806853690E+01  0.29861000960E+01 -0.24170727777E+00  0.52248907567E+01  0.00000000000E+00 0.  1.
</event>
<event>
 7    1  0.2459936E-009  0.4778727E+02  0.7816164E-02  0.1312668E+00
        -11   -1    0    0    0    0  0.00000000000E+00  0.00000000000E+00  0.45593999997E+02  0.45594000000E+02  0.51100000000E-03 0.  1.
         11   -1    0    0    0    0 -0.00000000000E+00 -0.00000000000E+00 -0.45593999997E+02  0.45594000000E+02  0.51100000000E-03 0. -1.
    9900012    2    1    2    0    0 -0.21213003978E+02 -0.44505434482E+01  0.37600858738E+02  0.47787268986E+02  0.19999990615E+02 0.  0.
         12    1    1    2    0    0  0.21213003978E+02  0.44505434482E+01 -0.37600858738E+02  0.43400731014E+02  0.00000000000E+00 0. -1.
         11    1    3    3    0    0 -0.11729356181E+01 -0.19247581131E+01  0.51672769762E+00  0.23124617906E+01  0.51100000000E-03 0. -1.
        -11    1    3    3    0    0 -0.59970201376E+01 -0.72636099452E+01  0.63677172202E+01  0.11369789040E+02  0.51100000000E-03 0.  1.
        -12    1    3    3    0    0 -0.14043048222E+02  0.47378246101E+01  0.30716413820E+02  0.34105018155E+02  0.00000000000E+00 0.  1.
</event>
<event>
 7    1  0.2459936E-009  0.4778727E+02  0.7816164E-02  0.1312668E+00
        -11   -1    0    0    0    0  0.00000000000E+00  0.00000000000E+00  0.45593999997E+02  0.45594000000E+02  0.51100000000E-03 0.  1.
         11   -1    0    0    0    0 -0.00000000000E+00 -0.00000000000E+00 -0.45593999997E+02  0.45594000000E+02  0.51100000000E-03 0. -1.
    9900012    2    1    2    0    0  0.23186535548E+02  0.10595456416E+02  0.35124698718E+02  0.47787267432E+02  0.19999983531E+02 0.  0.
         12    1    1    2    0    0 -0.23186535548E+02 -0.10595456416E+02 -0.35124698718E+02  0.43400732568E+02  0.00000000000E+00 0. -1.
         11    1    3    3    0    0  0.12128985209E+02 -0.18902183263E+01  0.10012516156E+02  0.15840949705E+02  0.51100000000E-03 0. -1.
        -11    1    3    3    0    0  0.92829262699E+01  0.40201848104E+01  0.18401667478E+02  0.20998951695E+02  0.51100000000E-03 0.  1.
         12    1    3    3    0    0  0.17746240696E+01  0.84654899314E+01  0.67105150838E+01  0.10947366033E+02  0.00000000000E+00 0. -1.
</event>
<event>
 7    1  0.2459936E-009  0.4778727E+02  0.7816164E-02  0.1312668E+00
        -11   -1    0    0    0    0  0.00000000000E+00  0.00000000000E+00  0.45593999997E+02  0.45594000000E+02  0.51100000000E-03 0.  1.
         11   -1    0    0    0    0 -0.00000000000E+00 -0.00000000000E+00 -0.45593999997E+02  0.45594000000E+02  0.51100000000E-03 0. -1.
    9900012    2    1    2    0    0 -0.35445743583E+02 -0.85160031937E+00  0.25029931349E+02  0.47787269308E+02  0.19999992083E+02 0.  0.
         12    1    1    2    0    0  0.35445743583E+02  0.85160031937E+00 -0.25029931349E+02  0.43400730692E+02  0.00000000000E+00 0. -1.
         11    1    3    3    0    0 -0.23028710277E+02  0.11557792503E+01  0.16718452122E+02  0.28480940369E+02  0.51100000000E-03 0. -1.
        -11    1    3    3    0    0 -0.13788378624E+02 -0.10354156750E+01  0.98902806395E+01  0.17000268294E+02  0.51100000000E-03 0.  1.
         12    1    3    3    0    0  0.13713453175E+01 -0.97196389466E+00 -0.15788014130E+01  0.23060606441E+01  0.00000000000E+00 0. -1.
</event>
<event>
 7    1  0.2459936E-009  0.4778730E+02  0.7816164E-02  0.1312668E+00
        -11   -1    0    0    0    0  0.00000000000E+00  0.00000000000E+00  0.45593999997E+02  0.45594000000E+02  0.51100000000E-03 0. -1.
         11   -1    0    0    0    0 -0.00000000000E+00 -0.00000000000E+00 -0.45593999997E+02  0.45594000000E+02  0.51100000000E-03 0.  1.
    9900012    2    1    2    0    0 -0.43343200760E+02 -0.29328011485E+00 -0.22139064620E+01  0.47787303609E+02  0.20000148475E+02 0.  0.
         12    1    1    2    0    0  0.43343200760E+02  0.29328011485E+00  0.22139064620E+01  0.43400696391E+02  0.00000000000E+00 0. -1.
         11    1    3    3    0    0 -0.16635224778E+02 -0.56593284788E+01 -0.96660657034E+00  0.17598097362E+02  0.51100000000E-03 0.  1.
        -11    1    3    3    0    0 -0.77566931208E+01  0.75912262674E+01  0.13301157658E+01  0.10934450724E+02  0.51100000000E-03 0. -1.
         12    1    3    3    0    0 -0.18951282862E+02 -0.22251779034E+01 -0.25774156574E+01  0.19254755524E+02  0.00000000000E+00 0. -1.
</event>
<event>
 7    1  0.2459936E-009  0.4778727E+02  0.7816164E-02  0.1312668E+00
        -11   -1    0    0    0    0  0.00000000000E+00  0.00000000000E+00  0.45593999997E+02  0.45594000000E+02  0.51100000000E-03 0. -1.
         11   -1    0    0    0    0 -0.00000000000E+00 -0.00000000000E+00 -0.45593999997E+02  0.45594000000E+02  0.51100000000E-03 0.  1.
    9900012    2    1    2    0    0 -0.87135272468E+01  0.79702792691E+01 -0.41763288327E+02  0.47787272349E+02  0.20000005949E+02 0.  0.
         12    1    1    2    0    0  0.87135272468E+01 -0.79702792691E+01  0.41763288327E+02  0.43400727651E+02  0.00000000000E+00 0. -1.
         11    1    3    3    0    0  0.49049893816E+01  0.28848303385E+01 -0.17629625205E+02  0.18525249042E+02  0.51100000000E-03 0. -1.
        -11    1    3    3    0    0 -0.14033801114E+01 -0.11337744207E+01 -0.74713369234E+01  0.76860780544E+01  0.51100000000E-03 0.  1.
         12    1    3    3    0    0 -0.12215136517E+02  0.62192233513E+01 -0.16662326198E+02  0.21575945253E+02  0.00000000000E+00 0. -1.
</event>
<event>
 7    1  0.2459936E-009  0.4778726E+02  0.7816164E-02  0.1312668E+00
        -11   -1    0    0    0    0  0.00000000000E+00  0.00000000000E+00  0.45593999997E+02  0.45594000000E+02  0.51100000000E-03 0.  1.
         11   -1    0    0    0    0 -0.00000000000E+00 -0.00000000000E+00 -0.45593999997E+02  0.45594000000E+02  0.51100000000E-03 0. -1.
    9900012    2    1    2    0    0  0.29897554713E+02  0.29052526677E+02  0.12071076732E+02  0.47787262938E+02  0.19999963038E+02 0.  0.
         12    1    1    2    0    0 -0.29897554713E+02 -0.29052526677E+02 -0.12071076732E+02  0.43400737062E+02  0.00000000000E+00 0. -1.
         11    1    3    3    0    0  0.12331434402E+02  0.13577754984E+02  0.91714893843E+01  0.20506972537E+02  0.51100000000E-03 0. -1.
        -11    1    3    3    0    0  0.62304507113E+01  0.14459116582E+02  0.16169374102E+01  0.15827161945E+02  0.51100000000E-03 0.  1.
         12    1    3    3    0    0  0.11335669599E+02  0.10156551107E+01  0.12826499374E+01  0.11453128456E+02  0.00000000000E+00 0. -1.
</event>
<event>
 7    1  0.2459936E-009  0.4778728E+02  0.7816164E-02  0.1312668E+00
        -11   -1    0    0    0    0  0.00000000000E+00  0.00000000000E+00  0.45593999997E+02  0.45594000000E+02  0.51100000000E-03 0.  1.
         11   -1    0    0    0    0 -0.00000000000E+00 -0.00000000000E+00 -0.45593999997E+02  0.45594000000E+02  0.51100000000E-03 0. -1.
    9900012    2    1    2    0    0  0.15896007556E+02  0.37465561512E+02 -0.15075528727E+02  0.47787275098E+02  0.20000018480E+02 0.  0.
         12    1    1    2    0    0 -0.15896007556E+02 -0.37465561512E+02  0.15075528727E+02  0.43400724902E+02  0.00000000000E+00 0. -1.
         11    1    3    3    0    0  0.95051302715E+00  0.96489684241E+01 -0.82260170570E+01  0.12715086455E+02  0.51100000000E-03 0. -1.
        -11    1    3    3    0    0 -0.25325622399E+01  0.23073945235E+01 -0.13296114100E+00  0.34286469506E+01  0.51100000000E-03 0.  1.
        -12    1    3    3    0    0  0.17478056769E+02  0.25509198565E+02 -0.67165505291E+01  0.31643541692E+02  0.00000000000E+00 0.  1.
</event>
<event>
 7    1  0.2459936E-009  0.4778727E+02  0.7816164E-02  0.1312668E+00
        -11   -1    0    0    0    0  0.00000000000E+00  0.00000000000E+00  0.45593999997E+02  0.45594000000E+02  0.51100000000E-03 0.  1.
         11   -1    0    0    0    0 -0.00000000000E+00 -0.00000000000E+00 -0.45593999997E+02  0.45594000000E+02  0.51100000000E-03 0. -1.
    9900012    2    1    2    0    0  0.22747790023E+02  0.35346809580E+02  0.10805750595E+02  0.47787272537E+02  0.20000006804E+02 0.  0.
         12    1    1    2    0    0 -0.22747790023E+02 -0.35346809580E+02 -0.10805750595E+02  0.43400727463E+02  0.00000000000E+00 0. -1.
         11    1    3    3    0    0  0.54144710489E+01  0.17434895930E+01 -0.13292103812E+01  0.58414940896E+01  0.51100000000E-03 0. -1.
        -11    1    3    3    0    0  0.41587592303E+00  0.32252146499E+01  0.57317860970E+01  0.65900177878E+01  0.51100000000E-03 0.  1.
        -12    1    3    3    0    0  0.16917443051E+02  0.30378105337E+02  0.64031748792E+01  0.35355760659E+02  0.00000000000E+00 0.  1.
</event>
<event>
 7    1  0.2459936E-009  0.4778727E+02  0.7816164E-02  0.1312668E+00
        -11   -1    0    0    0    0  0.00000000000E+00  0.00000000000E+00  0.45593999997E+02  0.45594000000E+02  0.51100000000E-03 0.  1.
         11   -1    0    0    0    0 -0.00000000000E+00 -0.00000000000E+00 -0.45593999997E+02  0.45594000000E+02  0.51100000000E-03 0. -1.
    9900012    2    1    2    0    0  0.36716011178E+02  0.31045061822E+01  0.22932942046E+02  0.47787271131E+02  0.20000000397E+02 0.  0.
         12    1    1    2    0    0 -0.36716011178E+02 -0.31045061822E+01 -0.22932942046E+02  0.43400728869E+02  0.00000000000E+00 0. -1.
         11    1    3    3    0    0  0.26020120406E+01 -0.38698300118E+01  0.31071935988E+01  0.56036330448E+01  0.51100000000E-03 0. -1.
        -11    1    3    3    0    0  0.45644227893E+01  0.42365520177E+01  0.82342529544E+01  0.10324013288E+02  0.51100000000E-03 0.  1.
         12    1    3    3    0    0  0.29549576348E+02  0.27377841763E+01  0.11591495493E+02  0.31859624798E+02  0.00000000000E+00 0. -1.
</event>
<event>
 7    1  0.2459936E-009  0.4778729E+02  0.7816164E-02  0.1312668E+00
        -11   -1    0    0    0    0  0.00000000000E+00  0.00000000000E+00  0.45593999997E+02  0.45594000000E+02  0.51100000000E-03 0.  1.
         11   -1    0    0    0    0 -0.00000000000E+00 -0.00000000000E+00 -0.45593999997E+02  0.45594000000E+02  0.51100000000E-03 0. -1.
    9900012    2    1    2    0    0 -0.27853184679E+02 -0.18960999832E+02  0.27355114587E+02  0.47787289114E+02  0.20000082385E+02 0.  0.
         12    1    1    2    0    0  0.27853184679E+02  0.18960999832E+02 -0.27355114587E+02  0.43400710886E+02  0.00000000000E+00 0. -1.
         11    1    3    3    0    0 -0.31407721248E+01 -0.11245280937E+01  0.51445403055E+01  0.61315012998E+01  0.51100000000E-03 0. -1.
        -11    1    3    3    0    0 -0.23668285074E+02 -0.15616653730E+02  0.11385868734E+02  0.30556596655E+02  0.51100000000E-03 0.  1.
         12    1    3    3    0    0 -0.10441274805E+01 -0.22198180079E+01  0.10824705548E+02  0.11099191159E+02  0.00000000000E+00 0. -1.
</event>
<event>
 7    1  0.2459936E-009  0.4778727E+02  0.7816164E-02  0.1312668E+00
        -11   -1    0    0    0    0  0.00000000000E+00  0.00000000000E+00  0.45593999997E+02  0.45594000000E+02  0.51100000000E-03 0.  1.
         11   -1    0    0    0    0 -0.00000000000E+00 -0.00000000000E+00 -0.45593999997E+02  0.45594000000E+02  0.51100000000E-03 0. -1.
    9900012    2    1    2    0    0 -0.10646357400E+02  0.28893838803E+02  0.30584708302E+02  0.47787271566E+02  0.20000002379E+02 0.  0.
         12    1    1    2    0    0  0.10646357400E+02 -0.28893838803E+02 -0.30584708302E+02  0.43400728434E+02  0.00000000000E+00 0. -1.
         11    1    3    3    0    0 -0.20572010241E+01 -0.11399770249E+01  0.37634978928E+01  0.44379657864E+01  0.51100000000E-03 0. -1.
        -11    1    3    3    0    0 -0.20674669655E+01 -0.90841496742E+00  0.30196722733E+01  0.37706840633E+01  0.51100000000E-03 0.  1.
        -12    1    3    3    0    0 -0.65216894100E+01  0.30942230795E+02  0.23801538136E+02  0.39578621717E+02  0.00000000000E+00 0.  1.
</event>
<event>
 7    1  0.2459936E-009  0.4778727E+02  0.7816164E-02  0.1312668E+00
        -11   -1    0    0    0    0  0.00000000000E+00  0.00000000000E+00  0.45593999997E+02  0.45594000000E+02  0.51100000000E-03 0.  1.
         11   -1    0    0    0    0 -0.00000000000E+00 -0.00000000000E+00 -0.45593999997E+02  0.45594000000E+02  0.51100000000E-03 0. -1.
    9900012    2    1    2    0    0  0.30377223282E+02  0.11323324200E+02  0.28855328653E+02  0.47787270088E+02  0.19999995638E+02 0.  0.
         12    1    1    2    0    0 -0.30377223282E+02 -0.11323324200E+02 -0.28855328653E+02  0.43400729912E+02  0.00000000000E+00 0. -1.
         11    1    3    3    0    0  0.54837341308E+01  0.79949983696E+00  0.19393404821E-01  0.55417430807E+01  0.51100000000E-03 0. -1.
        -11    1    3    3    0    0  0.77996829077E+01 -0.28578985432E+01  0.12788089931E+02  0.15249192827E+02  0.51100000000E-03 0.  1.
        -12    1    3    3    0    0  0.17093806244E+02  0.13381722906E+02  0.16047845317E+02  0.26996334180E+02  0.00000000000E+00 0.  1.
</event>
<event>
 7    1  0.2459936E-009  0.4778727E+02  0.7816164E-02  0.1312668E+00
        -11   -1    0    0    0    0  0.00000000000E+00  0.00000000000E+00  0.45593999997E+02  0.45594000000E+02  0.51100000000E-03 0. -1.
         11   -1    0    0    0    0 -0.00000000000E+00 -0.00000000000E+00 -0.45593999997E+02  0.45594000000E+02  0.51100000000E-03 0.  1.
    9900012    2    1    2    0    0  0.24046144478E+02  0.36117519168E+02  0.96510947646E+00  0.47787266234E+02  0.19999978068E+02 0.  0.
         12    1    1    2    0    0 -0.24046144478E+02 -0.36117519168E+02 -0.96510947646E+00  0.43400733766E+02  0.00000000000E+00 0. -1.
         11    1    3    3    0    0  0.71133392774E+01  0.22293040022E+02 -0.37601867056E+00  0.23403431787E+02  0.51100000000E-03 0. -1.
        -11    1    3    3    0    0  0.89956107375E+01  0.13718994307E+02  0.11054778058E+01  0.16442441995E+02  0.51100000000E-03 0.  1.
        -12    1    3    3    0    0  0.79371944629E+01  0.10548483934E+00  0.23565034126E+00  0.79413924520E+01  0.00000000000E+00 0.  1.
</event>
<event>
 7    1  0.2459936E-009  0.4778727E+02  0.7816164E-02  0.1312668E+00
        -11   -1    0    0    0    0  0.00000000000E+00  0.00000000000E+00  0.45593999997E+02  0.45594000000E+02  0.51100000000E-03 0. -1.
         11   -1    0    0    0    0 -0.00000000000E+00 -0.00000000000E+00 -0.45593999997E+02  0.45594000000E+02  0.51100000000E-03 0.  1.
    9900012    2    1    2    0    0 -0.15816101614E+02  0.37946715490E+02 -0.13911192596E+02  0.47787267677E+02  0.19999984645E+02 0.  0.
         12    1    1    2    0    0  0.15816101614E+02 -0.37946715490E+02  0.13911192596E+02  0.43400732323E+02  0.00000000000E+00 0. -1.
         11    1    3    3    0    0 -0.54260545778E+00  0.74041379925E+01 -0.41855985101E+01  0.85226119965E+01  0.51100000000E-03 0. -1.
        -11    1    3    3    0    0 -0.89734034896E+00  0.19228858281E+02 -0.18205370171E+01  0.19335681156E+02  0.51100000000E-03 0.  1.
         12    1    3    3    0    0 -0.14376155807E+02  0.11313719217E+02 -0.79050570686E+01  0.19928974524E+02  0.00000000000E+00 0. -1.
</event>
<event>
 7    1  0.2459936E-009  0.4778727E+02  0.7816164E-02  0.1312668E+00
        -11   -1    0    0    0    0  0.00000000000E+00  0.00000000000E+00  0.45593999997E+02  0.45594000000E+02  0.51100000000E-03 0. -1.
         11   -1    0    0    0    0 -0.00000000000E+00 -0.00000000000E+00 -0.45593999997E+02  0.45594000000E+02  0.51100000000E-03 0.  1.
    9900012    2    1    2    0    0 -0.12002054782E+02  0.20239387775E+02 -0.36468359284E+02  0.47787269990E+02  0.19999995193E+02 0.  0.
         12    1    1    2    0    0  0.12002054782E+02 -0.20239387775E+02  0.36468359284E+02  0.43400730010E+02  0.00000000000E+00 0. -1.
         11    1    3    3    0    0  0.10795863440E+01  0.19271643658E+01  0.93257211101E+00  0.23977406386E+01  0.51100000000E-03 0. -1.
        -11    1    3    3    0    0 -0.98683879880E+01  0.76454964920E+01 -0.10640927268E+02  0.16403293312E+02  0.51100000000E-03 0.  1.
         12    1    3    3    0    0 -0.32132531375E+01  0.10666726918E+02 -0.26760004127E+02  0.28986236039E+02  0.00000000000E+00 0. -1.
</event>
<event>
 7    1  0.2459936E-009  0.4778728E+02  0.7816164E-02  0.1312668E+00
        -11   -1    0    0    0    0  0.00000000000E+00  0.00000000000E+00  0.45593999997E+02  0.45594000000E+02  0.51100000000E-03 0.  1.
         11   -1    0    0    0    0 -0.00000000000E+00 -0.00000000000E+00 -0.45593999997E+02  0.45594000000E+02  0.51100000000E-03 0. -1.
    9900012    2    1    2    0    0  0.24511324144E+02  0.63358376731E+01  0.35251592390E+02  0.47787278619E+02  0.20000034536E+02 0.  0.
         12    1    1    2    0    0 -0.24511324144E+02 -0.63358376731E+01 -0.35251592390E+02  0.43400721381E+02  0.00000000000E+00 0. -1.
         11    1    3    3    0    0  0.91808706490E+01 -0.16710383572E+01  0.76139600306E+01  0.12043801006E+02  0.51100000000E-03 0. -1.
        -11    1    3    3    0    0 -0.65385936478E+00 -0.16135319314E+00 -0.14296084731E+01  0.15802998353E+01  0.51100000000E-03 0.  1.
        -12    1    3    3    0    0  0.15984312860E+02  0.81682292234E+01  0.29067240833E+02  0.34163177778E+02  0.00000000000E+00 0.  1.
</event>
<event>
 7    1  0.2459936E-009  0.4778727E+02  0.7816164E-02  0.1312668E+00
        -11   -1    0    0    0    0  0.00000000000E+00  0.00000000000E+00  0.45593999997E+02  0.45594000000E+02  0.51100000000E-03 0.  1.
         11   -1    0    0    0    0 -0.00000000000E+00 -0.00000000000E+00 -0.45593999997E+02  0.45594000000E+02  0.51100000000E-03 0. -1.
    9900012    2    1    2    0    0  0.89674215038E+01  0.15774827310E+01  0.42434890749E+02  0.47787273588E+02  0.20000011597E+02 0.  0.
         12    1    1    2    0    0 -0.89674215038E+01 -0.15774827310E+01 -0.42434890749E+02  0.43400726412E+02  0.00000000000E+00 0. -1.
         11    1    3    3    0    0  0.18085115081E+01 -0.20656243238E+01  0.71671436329E+00  0.28374632088E+01  0.51100000000E-03 0. -1.
        -11    1    3    3    0    0  0.11518817461E+02  0.17639542314E+01  0.33368531549E+02  0.35344781626E+02  0.51100000000E-03 0.  1.
        -12    1    3    3    0    0 -0.43599074649E+01  0.18791528233E+01  0.83496448369E+01  0.96050287526E+01  0.00000000000E+00 0.  1.
</event>
<event>
 7    1  0.2459936E-009  0.4778727E+02  0.7816164E-02  0.1312668E+00
        -11   -1    0    0    0    0  0.00000000000E+00  0.00000000000E+00  0.45593999997E+02  0.45594000000E+02  0.51100000000E-03 0.  1.
         11   -1    0    0    0    0 -0.00000000000E+00 -0.00000000000E+00 -0.45593999997E+02  0.45594000000E+02  0.51100000000E-03 0. -1.
    9900012    2    1    2    0    0  0.36719386209E+02 -0.11491618346E+02  0.20081152248E+02  0.47787270842E+02  0.19999999077E+02 0.  0.
         12    1    1    2    0    0 -0.36719386209E+02  0.11491618346E+02 -0.20081152248E+02  0.43400729158E+02  0.00000000000E+00 0. -1.
         11    1    3    3    0    0  0.67164137984E+01  0.41630635000E+01  0.21441373676E+01  0.81877125822E+01  0.51100000000E-03 0. -1.
        -11    1    3    3    0    0 -0.90714367939E-01  0.92082807382E+00  0.25491517825E+00  0.95975801497E+00  0.51100000000E-03 0.  1.
        -12    1    3    3    0    0  0.30093686779E+02 -0.16575509920E+02  0.17682099703E+02  0.38639800245E+02  0.00000000000E+00 0.  1.
</event>
<event>
 7    1  0.2459936E-009  0.4778727E+02  0.7816164E-02  0.1312668E+00
        -11   -1    0    0    0    0  0.00000000000E+00  0.00000000000E+00  0.45593999997E+02  0.45594000000E+02  0.51100000000E-03 0.  1.
         11   -1    0    0    0    0 -0.00000000000E+00 -0.00000000000E+00 -0.45593999997E+02  0.45594000000E+02  0.51100000000E-03 0. -1.
    9900012    2    1    2    0    0 -0.18869032254E+02 -0.38471582035E+02  0.68934781160E+01  0.47787273704E+02  0.20000012125E+02 0.  0.
         12    1    1    2    0    0  0.18869032254E+02  0.38471582035E+02 -0.68934781160E+01  0.43400726296E+02  0.00000000000E+00 0. -1.
         11    1    3    3    0    0 -0.55587288216E+00 -0.38666429671E+01  0.70108373499E+01  0.80256939328E+01  0.51100000000E-03 0. -1.
        -11    1    3    3    0    0  0.60609237224E+00 -0.13900991818E+01 -0.24529780509E+00  0.15361949659E+01  0.51100000000E-03 0.  1.
        -12    1    3    3    0    0 -0.18919251744E+02 -0.33214839886E+02  0.12793857125E+00  0.38225384805E+02  0.00000000000E+00 0.  1.
</event>
<event>
 7    1  0.2459936E-009  0.4778727E+02  0.7816164E-02  0.1312668E+00
        -11   -1    0    0    0    0  0.00000000000E+00  0.00000000000E+00  0.45593999997E+02  0.45594000000E+02  0.51100000000E-03 0.  1.
         11   -1    0    0    0    0 -0.00000000000E+00 -0.00000000000E+00 -0.45593999997E+02  0.45594000000E+02  0.51100000000E-03 0. -1.
    9900012    2    1    2    0    0 -0.24916808824E+01 -0.35098728080E+02  0.25406574014E+02  0.47787272016E+02  0.20000004428E+02 0.  0.
         12    1    1    2    0    0  0.24916808824E+01  0.35098728080E+02 -0.25406574014E+02  0.43400727984E+02  0.00000000000E+00 0. -1.
         11    1    3    3    0    0  0.34115002665E+01 -0.38525963114E+01 -0.13528778555E+01  0.53208186551E+01  0.51100000000E-03 0. -1.
        -11    1    3    3    0    0 -0.71703239251E+01 -0.14830165776E+02  0.12373444090E+02  0.20602171756E+02  0.51100000000E-03 0.  1.
        -12    1    3    3    0    0  0.12671427762E+01 -0.16415965992E+02  0.14386007779E+02  0.21864281605E+02  0.00000000000E+00 0.  1.
</event>
<event>
 7    1  0.2459936E-009  0.4778727E+02  0.7816164E-02  0.1312668E+00
        -11   -1    0    0    0    0  0.00000000000E+00  0.00000000000E+00  0.45593999997E+02  0.45594000000E+02  0.51100000000E-03 0. -1.
         11   -1    0    0    0    0 -0.00000000000E+00 -0.00000000000E+00 -0.45593999997E+02  0.45594000000E+02  0.51100000000E-03 0.  1.
    9900012    2    1    2    0    0  0.42563884092E+02 -0.12107120468E+01  0.83948473924E+01  0.47787268262E+02  0.19999987316E+02 0.  0.
         12    1    1    2    0    0 -0.42563884092E+02  0.12107120468E+01 -0.83948473924E+01  0.43400731738E+02  0.00000000000E+00 0. -1.
         11    1    3    3    0    0  0.38500693590E+02 -0.58713561509E+01  0.90218311219E+01  0.39977114290E+02  0.51100000000E-03 0. -1.
        -11    1    3    3    0    0  0.39155462978E+01  0.12593114818E+01  0.66932559213E+00  0.41671771293E+01  0.51100000000E-03 0.  1.
         12    1    3    3    0    0  0.14764420412E+00  0.34013326223E+01 -0.12963093216E+01  0.36429768427E+01  0.00000000000E+00 0. -1.
</event>
<event>
 7    1  0.2459936E-009  0.4778727E+02  0.7816164E-02  0.1312668E+00
        -11   -1    0    0    0    0  0.00000000000E+00  0.00000000000E+00  0.45593999997E+02  0.45594000000E+02  0.51100000000E-03 0.  1.
         11   -1    0    0    0    0 -0.00000000000E+00 -0.00000000000E+00 -0.45593999997E+02  0.45594000000E+02  0.51100000000E-03 0. -1.
    9900012    2    1    2    0    0 -0.11226935169E+02 -0.33523441335E+02  0.25174554239E+02  0.47787269899E+02  0.19999994776E+02 0.  0.
         12    1    1    2    0    0  0.11226935169E+02  0.33523441335E+02 -0.25174554239E+02  0.43400730101E+02  0.00000000000E+00 0. -1.
         11    1    3    3    0    0 -0.11461670624E+01 -0.85529000271E+00 -0.13579031298E+01  0.19720854684E+01  0.51100000000E-03 0. -1.
        -11    1    3    3    0    0  0.14545655142E+01 -0.65897575108E+01 -0.16783177239E+00  0.67504690689E+01  0.51100000000E-03 0.  1.
        -12    1    3    3    0    0 -0.11535333621E+02 -0.26078393821E+02  0.26700289141E+02  0.39064715361E+02  0.00000000000E+00 0.  1.
</event>
<event>
 7    1  0.2459936E-009  0.4778728E+02  0.7816164E-02  0.1312668E+00
        -11   -1    0    0    0    0  0.00000000000E+00  0.00000000000E+00  0.45593999997E+02  0.45594000000E+02  0.51100000000E-03 0.  1.
         11   -1    0    0    0    0 -0.00000000000E+00 -0.00000000000E+00 -0.45593999997E+02  0.45594000000E+02  0.51100000000E-03 0. -1.
    9900012    2    1    2    0    0  0.23435103300E+02 -0.36038699687E+02  0.59691686970E+01  0.47787275159E+02  0.20000018759E+02 0.  0.
         12    1    1    2    0    0 -0.23435103300E+02  0.36038699687E+02 -0.59691686970E+01  0.43400724841E+02  0.00000000000E+00 0. -1.
         11    1    3    3    0    0  0.42749222130E+00 -0.36945491236E+01  0.38282619221E+01  0.53374181428E+01  0.51100000000E-03 0. -1.
        -11    1    3    3    0    0 -0.19958626244E+01 -0.46952648302E+01  0.64006196985E+00  0.51418536568E+01  0.51100000000E-03 0.  1.
        -12    1    3    3    0    0  0.25003473703E+02 -0.27648885733E+02  0.15008448050E+01  0.37308003359E+02  0.00000000000E+00 0.  1.
</event>
<event>
 7    1  0.2459936E-009  0.4778727E+02  0.7816164E-02  0.1312668E+00
        -11   -1    0    0    0    0  0.00000000000E+00  0.00000000000E+00  0.45593999997E+02  0.45594000000E+02  0.51100000000E-03 0.  1.
         11   -1    0    0    0    0 -0.00000000000E+00 -0.00000000000E+00 -0.45593999997E+02  0.45594000000E+02  0.51100000000E-03 0. -1.
    9900012    2    1    2    0    0  0.12987449902E+02  0.12180898789E+02  0.39579982818E+02  0.47787272009E+02  0.20000004398E+02 0.  0.
         12    1    1    2    0    0 -0.12987449902E+02 -0.12180898789E+02 -0.39579982818E+02  0.43400727991E+02  0.00000000000E+00 0. -1.
         11    1    3    3    0    0  0.91912527327E+00  0.50034163273E+01  0.74149412735E+00  0.51408929199E+01  0.51100000000E-03 0. -1.
        -11    1    3    3    0    0  0.30994567699E+01  0.52732529920E+01  0.60623789646E+01  0.86119839966E+01  0.51100000000E-03 0.  1.
        -12    1    3    3    0    0  0.89688678589E+01  0.19042294700E+01  0.32776109726E+02  0.34034395093E+02  0.00000000000E+00 0.  1.
</event>
<event>
 7    1  0.2459936E-009  0.4778727E+02  0.7816164E-02  0.1312668E+00
        -11   -1    0    0    0    0  0.00000000000E+00  0.00000000000E+00  0.45593999997E+02  0.45594000000E+02  0.51100000000E-03 0. -1.
         11   -1    0    0    0    0 -0.00000000000E+00 -0.00000000000E+00 -0.45593999997E+02  0.45594000000E+02  0.51100000000E-03 0.  1.
    9900012    2    1    2    0    0 -0.34299373990E+02  0.21517015867E+02  0.15626715764E+02  0.47787271049E+02  0.20000000020E+02 0.  0.
         12    1    1    2    0    0  0.34299373990E+02 -0.21517015867E+02 -0.15626715764E+02  0.43400728951E+02  0.00000000000E+00 0. -1.
         11    1    3    3    0    0 -0.11676167926E+02 -0.20694738044E+01  0.71454530980E+01  0.13844606152E+02  0.51100000000E-03 0. -1.
        -11    1    3    3    0    0 -0.53492024236E+01  0.44472150727E+01  0.59577339154E+00  0.69818790212E+01  0.51100000000E-03 0.  1.
         12    1    3    3    0    0 -0.17274003641E+02  0.19139274599E+02  0.78854892741E+01  0.26960785876E+02  0.00000000000E+00 0. -1.
</event>
<event>
 7    1  0.2459936E-009  0.4778727E+02  0.7816164E-02  0.1312668E+00
        -11   -1    0    0    0    0  0.00000000000E+00  0.00000000000E+00  0.45593999997E+02  0.45594000000E+02  0.51100000000E-03 0. -1.
         11   -1    0    0    0    0 -0.00000000000E+00 -0.00000000000E+00 -0.45593999997E+02  0.45594000000E+02  0.51100000000E-03 0.  1.
    9900012    2    1    2    0    0 -0.28574646096E+02 -0.29781811410E+01 -0.32530650448E+02  0.47787272115E+02  0.20000004879E+02 0.  0.
         12    1    1    2    0    0  0.28574646096E+02  0.29781811410E+01  0.32530650448E+02  0.43400727885E+02  0.00000000000E+00 0. -1.
         11    1    3    3    0    0 -0.24578223109E+01 -0.68587261103E+00 -0.55749153260E+01  0.61311493950E+01  0.51100000000E-03 0. -1.
        -11    1    3    3    0    0 -0.16244001909E+02  0.71930175967E+01 -0.12346594049E+02  0.21634358901E+02  0.51100000000E-03 0.  1.
        -12    1    3    3    0    0 -0.98728218758E+01 -0.94853261267E+01 -0.14609141073E+02  0.20021763819E+02  0.00000000000E+00 0.  1.
</event>
<event>
 7    1  0.2459936E-009  0.4778727E+02  0.7816164E-02  0.1312668E+00
        -11   -1    0    0    0    0  0.00000000000E+00  0.00000000000E+00  0.45593999997E+02  0.45594000000E+02  0.51100000000E-03 0.  1.
         11   -1    0    0    0    0 -0.00000000000E+00 -0.00000000000E+00 -0.45593999997E+02  0.45594000000E+02  0.51100000000E-03 0. -1.
    9900012    2    1    2    0    0 -0.64837224194E+01  0.36591897543E+02  0.22419136688E+02  0.47787270605E+02  0.19999997995E+02 0.  0.
         12    1    1    2    0    0  0.64837224194E+01 -0.36591897543E+02 -0.22419136688E+02  0.43400729395E+02  0.00000000000E+00 0. -1.
         11    1    3    3    0    0 -0.78545935238E+00 -0.13904295027E+00  0.32268996629E+01  0.33240278326E+01  0.51100000000E-03 0. -1.
        -11    1    3    3    0    0 -0.26984131041E+01  0.22117755156E+02  0.19400105726E+02  0.29543876335E+02  0.51100000000E-03 0.  1.
        -12    1    3    3    0    0 -0.29998499629E+01  0.14613185337E+02 -0.20786870115E+00  0.14919366437E+02  0.00000000000E+00 0.  1.
</event>
<event>
 7    1  0.2459936E-009  0.4778728E+02  0.7816164E-02  0.1312668E+00
        -11   -1    0    0    0    0  0.00000000000E+00  0.00000000000E+00  0.45593999997E+02  0.45594000000E+02  0.51100000000E-03 0.  1.
         11   -1    0    0    0    0 -0.00000000000E+00 -0.00000000000E+00 -0.45593999997E+02  0.45594000000E+02  0.51100000000E-03 0. -1.
    9900012    2    1    2    0    0 -0.31952588895E+02 -0.29305680306E+02  0.19575684472E+01  0.47787275242E+02  0.20000019138E+02 0.  0.
         12    1    1    2    0    0  0.31952588895E+02  0.29305680306E+02 -0.19575684472E+01  0.43400724758E+02  0.00000000000E+00 0. -1.
         11    1    3    3    0    0 -0.10284474065E+02 -0.18575906682E+02 -0.39541151734E+01  0.21597910614E+02  0.51100000000E-03 0. -1.
        -11    1    3    3    0    0 -0.71375391074E+01 -0.77509894185E+01  0.38301582176E+01  0.11211262806E+02  0.51100000000E-03 0.  1.
        -12    1    3    3    0    0 -0.14530575723E+02 -0.29787842064E+01  0.20815254030E+01  0.14978101822E+02  0.00000000000E+00 0.  1.
</event>
<event>
 7    1  0.2459936E-009  0.4778727E+02  0.7816164E-02  0.1312668E+00
        -11   -1    0    0    0    0  0.00000000000E+00  0.00000000000E+00  0.45593999997E+02  0.45594000000E+02  0.51100000000E-03 0. -1.
         11   -1    0    0    0    0 -0.00000000000E+00 -0.00000000000E+00 -0.45593999997E+02  0.45594000000E+02  0.51100000000E-03 0.  1.
    9900012    2    1    2    0    0  0.67467874343E+01 -0.42752359712E+02 -0.32155640423E+01  0.47787271277E+02  0.20000001059E+02 0.  0.
         12    1    1    2    0    0 -0.67467874343E+01  0.42752359712E+02  0.32155640423E+01  0.43400728723E+02  0.00000000000E+00 0. -1.
         11    1    3    3    0    0  0.12229807835E+01 -0.15273508607E+02  0.17523681836E+01  0.15422274206E+02  0.51100000000E-03 0. -1.
        -11    1    3    3    0    0  0.59991404541E+01 -0.29317556987E+02 -0.54220845525E+01  0.30412297431E+02  0.51100000000E-03 0.  1.
         12    1    3    3    0    0 -0.47533380334E+00  0.18387058825E+01  0.45415232666E+00  0.19526996397E+01  0.00000000000E+00 0. -1.
</event>
<event>
 7    1  0.2459936E-009  0.4778727E+02  0.7816164E-02  0.1312668E+00
        -11   -1    0    0    0    0  0.00000000000E+00  0.00000000000E+00  0.45593999997E+02  0.45594000000E+02  0.51100000000E-03 0. -1.
         11   -1    0    0    0    0 -0.00000000000E+00 -0.00000000000E+00 -0.45593999997E+02  0.45594000000E+02  0.51100000000E-03 0.  1.
    9900012    2    1    2    0    0  0.23980083579E+02 -0.11697111770E+02 -0.34230926784E+02  0.47787272118E+02  0.20000004894E+02 0.  0.
         12    1    1    2    0    0 -0.23980083579E+02  0.11697111770E+02  0.34230926784E+02  0.43400727882E+02  0.00000000000E+00 0. -1.
         11    1    3    3    0    0  0.34324352572E+01 -0.48266115169E+01 -0.68415689400E+01  0.90490251603E+01  0.51100000000E-03 0. -1.
        -11    1    3    3    0    0  0.86724313335E+01 -0.93131841800E+01 -0.22118685884E+02  0.25518282275E+02  0.51100000000E-03 0.  1.
         12    1    3    3    0    0  0.11875216988E+02  0.24426839268E+01 -0.52706719603E+01  0.13219964682E+02  0.00000000000E+00 0. -1.
</event>
<event>
 7    1  0.2459936E-009  0.4778725E+02  0.7816164E-02  0.1312668E+00
        -11   -1    0    0    0    0  0.00000000000E+00  0.00000000000E+00  0.45593999997E+02  0.45594000000E+02  0.51100000000E-03 0.  1.
         11   -1    0    0    0    0 -0.00000000000E+00 -0.00000000000E+00 -0.45593999997E+02  0.45594000000E+02  0.51100000000E-03 0. -1.
    9900012    2    1    2    0    0 -0.62973758570E+01 -0.38510719604E+02  0.18997180570E+02  0.47787247280E+02  0.19999891647E+02 0.  0.
         12    1    1    2    0    0  0.62973758570E+01  0.38510719604E+02 -0.18997180570E+02  0.43400752720E+02  0.00000000000E+00 0. -1.
         11    1    3    3    0    0 -0.14776629690E+01 -0.17036880403E+02  0.31180315893E+01  0.17382776043E+02  0.51100000000E-03 0. -1.
        -11    1    3    3    0    0 -0.50878529757E+01 -0.76692333389E+01 -0.20644512324E+00  0.92057594885E+01  0.51100000000E-03 0.  1.
        -12    1    3    3    0    0  0.26814008766E+00 -0.13804605862E+02  0.16085594104E+02  0.21198711748E+02  0.00000000000E+00 0.  1.
</event>
<event>
 7    1  0.2459936E-009  0.4778728E+02  0.7816164E-02  0.1312668E+00
        -11   -1    0    0    0    0  0.00000000000E+00  0.00000000000E+00  0.45593999997E+02  0.45594000000E+02  0.51100000000E-03 0. -1.
         11   -1    0    0    0    0 -0.00000000000E+00 -0.00000000000E+00 -0.45593999997E+02  0.45594000000E+02  0.51100000000E-03 0.  1.
    9900012    2    1    2    0    0  0.41307760308E+02  0.99479735575E+01 -0.88503851864E+01  0.47787279297E+02  0.20000037628E+02 0.  0.
         12    1    1    2    0    0 -0.41307760308E+02 -0.99479735575E+01  0.88503851864E+01  0.43400720703E+02  0.00000000000E+00 0. -1.
         11    1    3    3    0    0  0.78328285296E+01  0.25770317371E+01  0.30935931623E+01  0.88070775098E+01  0.51100000000E-03 0. -1.
        -11    1    3    3    0    0  0.12195916969E+02  0.41707727195E+01  0.24113489385E+01  0.13112983633E+02  0.51100000000E-03 0.  1.
        -12    1    3    3    0    0  0.21279014810E+02  0.32001691010E+01 -0.14355327287E+02  0.25867218155E+02  0.00000000000E+00 0.  1.
</event>
<event>
 7    1  0.2459936E-009  0.4778732E+02  0.7816164E-02  0.1312668E+00
        -11   -1    0    0    0    0  0.00000000000E+00  0.00000000000E+00  0.45593999997E+02  0.45594000000E+02  0.51100000000E-03 0. -1.
         11   -1    0    0    0    0 -0.00000000000E+00 -0.00000000000E+00 -0.45593999997E+02  0.45594000000E+02  0.51100000000E-03 0.  1.
    9900012    2    1    2    0    0  0.14490199087E+02  0.40853593073E+02 -0.21532929811E+01  0.47787324807E+02  0.20000245123E+02 0.  0.
         12    1    1    2    0    0 -0.14490199087E+02 -0.40853593073E+02  0.21532929811E+01  0.43400675193E+02  0.00000000000E+00 0. -1.
         11    1    3    3    0    0  0.28918054088E+01  0.18771765038E+02  0.53080296498E+01  0.19720975640E+02  0.51100000000E-03 0. -1.
        -11    1    3    3    0    0 -0.59349131970E+00  0.12820581890E+01  0.17569913316E+01  0.22545340864E+01  0.51100000000E-03 0.  1.
        -12    1    3    3    0    0  0.12191884997E+02  0.20799769846E+02 -0.92183139624E+01  0.25811815081E+02  0.00000000000E+00 0.  1.
</event>
<event>
 7    1  0.2459936E-009  0.4778727E+02  0.7816164E-02  0.1312668E+00
        -11   -1    0    0    0    0  0.00000000000E+00  0.00000000000E+00  0.45593999997E+02  0.45594000000E+02  0.51100000000E-03 0.  1.
         11   -1    0    0    0    0 -0.00000000000E+00 -0.00000000000E+00 -0.45593999997E+02  0.45594000000E+02  0.51100000000E-03 0. -1.
    9900012    2    1    2    0    0  0.28108640296E+02 -0.25931126504E+02  0.20520825315E+02  0.47787271289E+02  0.20000001116E+02 0.  0.
         12    1    1    2    0    0 -0.28108640296E+02  0.25931126504E+02 -0.20520825315E+02  0.43400728711E+02  0.00000000000E+00 0. -1.
         11    1    3    3    0    0  0.26666151686E+01  0.71447404030E+00 -0.10335554666E+01  0.29478037206E+01  0.51100000000E-03 0. -1.
        -11    1    3    3    0    0  0.59144242399E+01 -0.67633046384E+01 -0.92909290821E+00  0.90324923257E+01  0.51100000000E-03 0.  1.
        -12    1    3    3    0    0  0.19527600887E+02 -0.19882295906E+02  0.22483473690E+02  0.35806975243E+02  0.00000000000E+00 0.  1.
</event>
<event>
 7    1  0.2459936E-009  0.4778727E+02  0.7816164E-02  0.1312668E+00
        -11   -1    0    0    0    0  0.00000000000E+00  0.00000000000E+00  0.45593999997E+02  0.45594000000E+02  0.51100000000E-03 0. -1.
         11   -1    0    0    0    0 -0.00000000000E+00 -0.00000000000E+00 -0.45593999997E+02  0.45594000000E+02  0.51100000000E-03 0.  1.
    9900012    2    1    2    0    0  0.12579204329E+02 -0.39186486132E+02 -0.13777023689E+02  0.47787268916E+02  0.19999990295E+02 0.  0.
         12    1    1    2    0    0 -0.12579204329E+02  0.39186486132E+02  0.13777023689E+02  0.43400731084E+02  0.00000000000E+00 0. -1.
         11    1    3    3    0    0  0.61818448309E-01 -0.21302790457E+00 -0.34983548126E+01  0.35053800171E+01  0.51100000000E-03 0. -1.
        -11    1    3    3    0    0  0.80648971611E+01 -0.12957830811E+02 -0.92938558224E+01  0.17869630714E+02  0.51100000000E-03 0.  1.
         12    1    3    3    0    0  0.44524887196E+01 -0.26015627417E+02 -0.98481305400E+00  0.26412258185E+02  0.00000000000E+00 0. -1.
</event>
<event>
 7    1  0.2459936E-009  0.4778727E+02  0.7816164E-02  0.1312668E+00
        -11   -1    0    0    0    0  0.00000000000E+00  0.00000000000E+00  0.45593999997E+02  0.45594000000E+02  0.51100000000E-03 0.  1.
         11   -1    0    0    0    0 -0.00000000000E+00 -0.00000000000E+00 -0.45593999997E+02  0.45594000000E+02  0.51100000000E-03 0. -1.
    9900012    2    1    2    0    0  0.25804324229E+02 -0.19087059451E+02  0.29213775394E+02  0.47787266594E+02  0.19999979710E+02 0.  0.
         12    1    1    2    0    0 -0.25804324229E+02  0.19087059451E+02 -0.29213775394E+02  0.43400733406E+02  0.00000000000E+00 0. -1.
         11    1    3    3    0    0 -0.16718101316E+01 -0.27716663967E+01  0.37602755864E+01  0.49615276355E+01  0.51100000000E-03 0. -1.
        -11    1    3    3    0    0  0.81207686138E+01 -0.85356752030E+01  0.16135271264E+02  0.19978779069E+02  0.51100000000E-03 0.  1.
         12    1    3    3    0    0  0.19355365746E+02 -0.77797178516E+01  0.93182285428E+01  0.22846959890E+02  0.00000000000E+00 0. -1.
</event>
<event>
 7    1  0.2459936E-009  0.4778727E+02  0.7816164E-02  0.1312668E+00
        -11   -1    0    0    0    0  0.00000000000E+00  0.00000000000E+00  0.45593999997E+02  0.45594000000E+02  0.51100000000E-03 0. -1.
         11   -1    0    0    0    0 -0.00000000000E+00 -0.00000000000E+00 -0.45593999997E+02  0.45594000000E+02  0.51100000000E-03 0.  1.
    9900012    2    1    2    0    0 -0.12555226059E+02  0.34110992514E+02 -0.23715598562E+02  0.47787272738E+02  0.20000007721E+02 0.  0.
         12    1    1    2    0    0  0.12555226059E+02 -0.34110992514E+02  0.23715598562E+02  0.43400727262E+02  0.00000000000E+00 0. -1.
         11    1    3    3    0    0 -0.11540762541E+02  0.95655416273E+01 -0.72649671443E+01  0.16657386785E+02  0.51100000000E-03 0. -1.
        -11    1    3    3    0    0 -0.10073162719E+00  0.16952344885E+01 -0.55353237754E+01  0.57899720544E+01  0.51100000000E-03 0.  1.
        -12    1    3    3    0    0 -0.91373189156E+00  0.22850216399E+02 -0.10915307643E+02  0.25339913898E+02  0.00000000000E+00 0.  1.
</event>
<event>
 7    1  0.2459936E-009  0.4778727E+02  0.7816164E-02  0.1312668E+00
        -11   -1    0    0    0    0  0.00000000000E+00  0.00000000000E+00  0.45593999997E+02  0.45594000000E+02  0.51100000000E-03 0.  1.
         11   -1    0    0    0    0 -0.00000000000E+00 -0.00000000000E+00 -0.45593999997E+02  0.45594000000E+02  0.51100000000E-03 0. -1.
    9900012    2    1    2    0    0  0.14997077015E+02 -0.40175753233E+02 -0.66798033191E+01  0.47787271444E+02  0.20000001820E+02 0.  0.
         12    1    1    2    0    0 -0.14997077015E+02  0.40175753233E+02  0.66798033191E+01  0.43400728556E+02  0.00000000000E+00 0. -1.
         11    1    3    3    0    0  0.16263814615E+01 -0.19912694855E+01 -0.25467286017E+01  0.36188530854E+01  0.51100000000E-03 0. -1.
        -11    1    3    3    0    0  0.37506336635E+00 -0.48402363628E+01  0.52712014019E+01  0.71661792510E+01  0.51100000000E-03 0.  1.
        -12    1    3    3    0    0  0.12995632188E+02 -0.33344247385E+02 -0.94042761193E+01  0.37002239107E+02  0.00000000000E+00 0.  1.
</event>
<event>
 7    1  0.2459936E-009  0.4778727E+02  0.7816164E-02  0.1312668E+00
        -11   -1    0    0    0    0  0.00000000000E+00  0.00000000000E+00  0.45593999997E+02  0.45594000000E+02  0.51100000000E-03 0.  1.
         11   -1    0    0    0    0 -0.00000000000E+00 -0.00000000000E+00 -0.45593999997E+02  0.45594000000E+02  0.51100000000E-03 0. -1.
    9900012    2    1    2    0    0 -0.22092294675E+02 -0.23666941090E+02  0.28903806013E+02  0.47787267441E+02  0.19999983573E+02 0.  0.
         12    1    1    2    0    0  0.22092294675E+02  0.23666941090E+02 -0.28903806013E+02  0.43400732559E+02  0.00000000000E+00 0. -1.
         11    1    3    3    0    0 -0.10470417848E+02 -0.15732461409E+02  0.20792251769E+02  0.28097290364E+02  0.51100000000E-03 0. -1.
        -11    1    3    3    0    0 -0.23701180284E+01 -0.44329532680E+01  0.84049148593E+01  0.97934227009E+01  0.51100000000E-03 0.  1.
         12    1    3    3    0    0 -0.92517587984E+01 -0.35015264132E+01 -0.29336061490E+00  0.98965543769E+01  0.00000000000E+00 0. -1.
</event>
<event>
 7    1  0.2459936E-009  0.4778728E+02  0.7816164E-02  0.1312668E+00
        -11   -1    0    0    0    0  0.00000000000E+00  0.00000000000E+00  0.45593999997E+02  0.45594000000E+02  0.51100000000E-03 0. -1.
         11   -1    0    0    0    0 -0.00000000000E+00 -0.00000000000E+00 -0.45593999997E+02  0.45594000000E+02  0.51100000000E-03 0.  1.
    9900012    2    1    2    0    0 -0.46896745614E+01  0.19391157076E+02 -0.38543648472E+02  0.47787275839E+02  0.20000021858E+02 0.  0.
         12    1    1    2    0    0  0.46896745614E+01 -0.19391157076E+02  0.38543648472E+02  0.43400724161E+02  0.00000000000E+00 0. -1.
         11    1    3    3    0    0  0.17501471389E+01  0.87474844867E+01 -0.18010590738E+02  0.20098827797E+02  0.51100000000E-03 0.  1.
        -11    1    3    3    0    0 -0.42200043653E+01  0.14162618821E+01 -0.16981192042E+02  0.17554917203E+02  0.51100000000E-03 0. -1.
         12    1    3    3    0    0 -0.22198173350E+01  0.92274107069E+01 -0.35518656916E+01  0.10133530838E+02  0.00000000000E+00 0. -1.
</event>
<event>
 7    1  0.2459936E-009  0.4778727E+02  0.7816164E-02  0.1312668E+00
        -11   -1    0    0    0    0  0.00000000000E+00  0.00000000000E+00  0.45593999997E+02  0.45594000000E+02  0.51100000000E-03 0. -1.
         11   -1    0    0    0    0 -0.00000000000E+00 -0.00000000000E+00 -0.45593999997E+02  0.45594000000E+02  0.51100000000E-03 0.  1.
    9900012    2    1    2    0    0  0.41197039478E+02  0.13132483833E+02  0.37369641452E+01  0.47787273112E+02  0.20000009427E+02 0.  0.
         12    1    1    2    0    0 -0.41197039478E+02 -0.13132483833E+02 -0.37369641452E+01  0.43400726888E+02  0.00000000000E+00 0. -1.
         11    1    3    3    0    0  0.21047038885E+01  0.26558851412E+01  0.19433758895E+00  0.33942998838E+01  0.51100000000E-03 0. -1.
        -11    1    3    3    0    0  0.37495076437E+02  0.42052871602E+01  0.37656358280E+01  0.37917610824E+02  0.51100000000E-03 0.  1.
        -12    1    3    3    0    0  0.15972591520E+01  0.62713115321E+01 -0.22300927171E+00  0.64753624042E+01  0.00000000000E+00 0.  1.
</event>
<event>
 7    1  0.2459936E-009  0.4778727E+02  0.7816164E-02  0.1312668E+00
        -11   -1    0    0    0    0  0.00000000000E+00  0.00000000000E+00  0.45593999997E+02  0.45594000000E+02  0.51100000000E-03 0.  1.
         11   -1    0    0    0    0 -0.00000000000E+00 -0.00000000000E+00 -0.45593999997E+02  0.45594000000E+02  0.51100000000E-03 0. -1.
    9900012    2    1    2    0    0 -0.21158474422E+02  0.31048747341E+02 -0.21723660342E+02  0.47787272241E+02  0.20000005457E+02 0.  0.
         12    1    1    2    0    0  0.21158474422E+02 -0.31048747341E+02  0.21723660342E+02  0.43400727759E+02  0.00000000000E+00 0. -1.
         11    1    3    3    0    0 -0.89247696968E+01  0.23184953563E+02 -0.13981084652E+02  0.28507267743E+02  0.51100000000E-03 0. -1.
        -11    1    3    3    0    0  0.80228621835E+00  0.27222660686E+01  0.69593145652E+00  0.29221082420E+01  0.51100000000E-03 0.  1.
        -12    1    3    3    0    0 -0.13035990944E+02  0.51415277093E+01 -0.84385071468E+01  0.16357896257E+02  0.00000000000E+00 0.  1.
</event>
<event>
 7    1  0.2459936E-009  0.4778727E+02  0.7816164E-02  0.1312668E+00
        -11   -1    0    0    0    0  0.00000000000E+00  0.00000000000E+00  0.45593999997E+02  0.45594000000E+02  0.51100000000E-03 0. -1.
         11   -1    0    0    0    0 -0.00000000000E+00 -0.00000000000E+00 -0.45593999997E+02  0.45594000000E+02  0.51100000000E-03 0.  1.
    9900012    2    1    2    0    0  0.35802863767E+02 -0.36701541010E+01 -0.24255075009E+02  0.47787265574E+02  0.19999975056E+02 0.  0.
         12    1    1    2    0    0 -0.35802863767E+02  0.36701541010E+01  0.24255075009E+02  0.43400734426E+02  0.00000000000E+00 0. -1.
         11    1    3    3    0    0  0.59305586032E+01  0.17218488237E+01 -0.31696605746E+01  0.69414002288E+01  0.51100000000E-03 0.  1.
        -11    1    3    3    0    0 -0.48201381988E+00 -0.15095759939E+01  0.19721679448E+01  0.25299414356E+01  0.51100000000E-03 0. -1.
         12    1    3    3    0    0  0.30354318984E+02 -0.38824269308E+01 -0.23057582379E+02  0.38315923909E+02  0.00000000000E+00 0. -1.
</event>
<event>
 7    1  0.2459936E-009  0.4778727E+02  0.7816164E-02  0.1312668E+00
        -11   -1    0    0    0    0  0.00000000000E+00  0.00000000000E+00  0.45593999997E+02  0.45594000000E+02  0.51100000000E-03 0. -1.
         11   -1    0    0    0    0 -0.00000000000E+00 -0.00000000000E+00 -0.45593999997E+02  0.45594000000E+02  0.51100000000E-03 0.  1.
    9900012    2    1    2    0    0  0.28315895354E+02 -0.29891419111E+02 -0.13723565468E+02  0.47787272871E+02  0.20000008326E+02 0.  0.
         12    1    1    2    0    0 -0.28315895354E+02  0.29891419111E+02  0.13723565468E+02  0.43400727129E+02  0.00000000000E+00 0. -1.
         11    1    3    3    0    0  0.88335591871E+01 -0.15460744089E+02 -0.91955124396E+01  0.20040554508E+02  0.51100000000E-03 0. -1.
        -11    1    3    3    0    0  0.14719718774E+02 -0.93449378968E+01 -0.88444107000E+01  0.19550488126E+02  0.51100000000E-03 0.  1.
        -12    1    3    3    0    0  0.47626173932E+01 -0.50857371252E+01  0.43163576713E+01  0.81962302363E+01  0.00000000000E+00 0.  1.
</event>
<event>
 7    1  0.2459936E-009  0.4778727E+02  0.7816164E-02  0.1312668E+00
        -11   -1    0    0    0    0  0.00000000000E+00  0.00000000000E+00  0.45593999997E+02  0.45594000000E+02  0.51100000000E-03 0.  1.
         11   -1    0    0    0    0 -0.00000000000E+00 -0.00000000000E+00 -0.45593999997E+02  0.45594000000E+02  0.51100000000E-03 0. -1.
    9900012    2    1    2    0    0  0.57415857836E+01  0.18087699501E+02  0.39031943592E+02  0.47787270730E+02  0.19999998568E+02 0.  0.
         12    1    1    2    0    0 -0.57415857836E+01 -0.18087699501E+02 -0.39031943592E+02  0.43400729270E+02  0.00000000000E+00 0. -1.
         11    1    3    3    0    0  0.55478424528E+00  0.50669917537E+00  0.16059608852E+02  0.16077175323E+02  0.51100000000E-03 0. -1.
        -11    1    3    3    0    0 -0.32879019867E+01  0.19713525440E+01  0.23645975014E+01  0.45042038067E+01  0.51100000000E-03 0.  1.
        -12    1    3    3    0    0  0.84747035251E+01  0.15609647782E+02  0.20607737239E+02  0.27205891601E+02  0.00000000000E+00 0.  1.
</event>
<event>
 7    1  0.2459936E-009  0.4778727E+02  0.7816164E-02  0.1312668E+00
        -11   -1    0    0    0    0  0.00000000000E+00  0.00000000000E+00  0.45593999997E+02  0.45594000000E+02  0.51100000000E-03 0. -1.
         11   -1    0    0    0    0 -0.00000000000E+00 -0.00000000000E+00 -0.45593999997E+02  0.45594000000E+02  0.51100000000E-03 0.  1.
    9900012    2    1    2    0    0 -0.41654908426E+02 -0.12041976953E+02  0.18662195005E+01  0.47787269820E+02  0.19999994417E+02 0.  0.
         12    1    1    2    0    0  0.41654908426E+02  0.12041976953E+02 -0.18662195005E+01  0.43400730180E+02  0.00000000000E+00 0. -1.
         11    1    3    3    0    0 -0.16611870082E+02 -0.67872070188E+01  0.82177058380E+01  0.19737048823E+02  0.51100000000E-03 0. -1.
        -11    1    3    3    0    0  0.14787124161E+00 -0.19016431236E+01 -0.51036576012E+00  0.19744837158E+01  0.51100000000E-03 0.  1.
         12    1    3    3    0    0 -0.25190909586E+02 -0.33531268108E+01 -0.58411205774E+01  0.26075737281E+02  0.00000000000E+00 0. -1.
</event>
<event>
 7    1  0.2459936E-009  0.4778727E+02  0.7816164E-02  0.1312668E+00
        -11   -1    0    0    0    0  0.00000000000E+00  0.00000000000E+00  0.45593999997E+02  0.45594000000E+02  0.51100000000E-03 0.  1.
         11   -1    0    0    0    0 -0.00000000000E+00 -0.00000000000E+00 -0.45593999997E+02  0.45594000000E+02  0.51100000000E-03 0. -1.
    9900012    2    1    2    0    0  0.12710872993E+02 -0.10051148554E+02  0.40262033030E+02  0.47787272089E+02  0.20000004762E+02 0.  0.
         12    1    1    2    0    0 -0.12710872993E+02  0.10051148554E+02 -0.40262033030E+02  0.43400727911E+02  0.00000000000E+00 0. -1.
         11    1    3    3    0    0  0.76805880127E-01  0.25816774469E+01  0.23503991246E+01  0.34921818236E+01  0.51100000000E-03 0. -1.
        -11    1    3    3    0    0  0.75893842467E+01 -0.72378222295E+01  0.72327524297E+01  0.12739604854E+02  0.51100000000E-03 0.  1.
        -12    1    3    3    0    0  0.50446828657E+01 -0.53950037717E+01  0.30678881476E+02  0.31555485411E+02  0.00000000000E+00 0.  1.
</event>
<event>
 7    1  0.2459936E-009  0.4778727E+02  0.7816164E-02  0.1312668E+00
        -11   -1    0    0    0    0  0.00000000000E+00  0.00000000000E+00  0.45593999997E+02  0.45594000000E+02  0.51100000000E-03 0.  1.
         11   -1    0    0    0    0 -0.00000000000E+00 -0.00000000000E+00 -0.45593999997E+02  0.45594000000E+02  0.51100000000E-03 0. -1.
    9900012    2    1    2    0    0 -0.12681895471E+02  0.39262687343E+02  0.13462330384E+02  0.47787269252E+02  0.19999991826E+02 0.  0.
         12    1    1    2    0    0  0.12681895471E+02 -0.39262687343E+02 -0.13462330384E+02  0.43400730748E+02  0.00000000000E+00 0. -1.
         11    1    3    3    0    0 -0.98686775781E+01  0.22154880544E+02  0.80423191155E+00  0.24266773958E+02  0.51100000000E-03 0. -1.
        -11    1    3    3    0    0 -0.34274717334E+01  0.15377151523E+02  0.64108463417E+01  0.17008918323E+02  0.51100000000E-03 0.  1.
        -12    1    3    3    0    0  0.61425384021E+00  0.17306552751E+01  0.62472521307E+01  0.65115769707E+01  0.00000000000E+00 0.  1.
</event>
<event>
 7    1  0.2459936E-009  0.4778727E+02  0.7816164E-02  0.1312668E+00
        -11   -1    0    0    0    0  0.00000000000E+00  0.00000000000E+00  0.45593999997E+02  0.45594000000E+02  0.51100000000E-03 0.  1.
         11   -1    0    0    0    0 -0.00000000000E+00 -0.00000000000E+00 -0.45593999997E+02  0.45594000000E+02  0.51100000000E-03 0. -1.
    9900012    2    1    2    0    0  0.67780880087E+01  0.33724570784E+02  0.26463830697E+02  0.47787268592E+02  0.19999988817E+02 0.  0.
         12    1    1    2    0    0 -0.67780880087E+01 -0.33724570784E+02 -0.26463830697E+02  0.43400731408E+02  0.00000000000E+00 0. -1.
         11    1    3    3    0    0  0.23601544676E+01  0.52161105448E+01 -0.93152458566E+00  0.58005065849E+01  0.51100000000E-03 0. -1.
        -11    1    3    3    0    0  0.24252470157E+01  0.12496987363E+02  0.35865544817E+01  0.13225728318E+02  0.51100000000E-03 0.  1.
        -12    1    3    3    0    0  0.19926865254E+01  0.16011472876E+02  0.23808800801E+02  0.28761033689E+02  0.00000000000E+00 0.  1.
</event>
<event>
 7    1  0.2459936E-009  0.4778727E+02  0.7816164E-02  0.1312668E+00
        -11   -1    0    0    0    0  0.00000000000E+00  0.00000000000E+00  0.45593999997E+02  0.45594000000E+02  0.51100000000E-03 0.  1.
         11   -1    0    0    0    0 -0.00000000000E+00 -0.00000000000E+00 -0.45593999997E+02  0.45594000000E+02  0.51100000000E-03 0. -1.
    9900012    2    1    2    0    0 -0.36517189658E+02 -0.95010455890E+01  0.21444070903E+02  0.47787272071E+02  0.20000004682E+02 0.  0.
         12    1    1    2    0    0  0.36517189658E+02  0.95010455890E+01 -0.21444070903E+02  0.43400727929E+02  0.00000000000E+00 0. -1.
         11    1    3    3    0    0 -0.22988386631E+02 -0.57110310345E+01  0.12379556088E+02  0.26727050054E+02  0.51100000000E-03 0.  1.
        -11    1    3    3    0    0 -0.11776767774E+02  0.23146459169E+01  0.84524270650E+01  0.14679692383E+02  0.51100000000E-03 0. -1.
         12    1    3    3    0    0 -0.17520352539E+01 -0.61046604714E+01  0.61208774992E+00  0.63805296344E+01  0.00000000000E+00 0. -1.
</event>
<event>
 7    1  0.2459936E-009  0.4778727E+02  0.7816164E-02  0.1312668E+00
        -11   -1    0    0    0    0  0.00000000000E+00  0.00000000000E+00  0.45593999997E+02  0.45594000000E+02  0.51100000000E-03 0. -1.
         11   -1    0    0    0    0 -0.00000000000E+00 -0.00000000000E+00 -0.45593999997E+02  0.45594000000E+02  0.51100000000E-03 0.  1.
    9900012    2    1    2    0    0  0.39127002357E+02 -0.54416268681E+01 -0.17974708690E+02  0.47787265341E+02  0.19999973997E+02 0.  0.
         12    1    1    2    0    0 -0.39127002357E+02  0.54416268681E+01  0.17974708690E+02  0.43400734659E+02  0.00000000000E+00 0. -1.
         11    1    3    3    0    0 -0.83781365206E-01  0.22626759481E+01  0.17236450099E+01  0.28456412537E+01  0.51100000000E-03 0. -1.
        -11    1    3    3    0    0  0.91388989176E+01 -0.38178782432E+01 -0.31235286668E+01  0.10385186532E+02  0.51100000000E-03 0.  1.
        -12    1    3    3    0    0  0.30071884805E+02 -0.38864245730E+01 -0.16574825033E+02  0.34556437556E+02  0.00000000000E+00 0.  1.
</event>
<event>
 7    1  0.2459936E-009  0.4778727E+02  0.7816164E-02  0.1312668E+00
        -11   -1    0    0    0    0  0.00000000000E+00  0.00000000000E+00  0.45593999997E+02  0.45594000000E+02  0.51100000000E-03 0.  1.
         11   -1    0    0    0    0 -0.00000000000E+00 -0.00000000000E+00 -0.45593999997E+02  0.45594000000E+02  0.51100000000E-03 0. -1.
    9900012    2    1    2    0    0 -0.67197937443E+01  0.15637098099E+02  0.39924291178E+02  0.47787268543E+02  0.19999988594E+02 0.  0.
         12    1    1    2    0    0  0.67197937443E+01 -0.15637098099E+02 -0.39924291178E+02  0.43400731457E+02  0.00000000000E+00 0. -1.
         11    1    3    3    0    0 -0.54053302632E+01  0.27718076772E+01  0.69498313045E+01  0.92304208179E+01  0.51100000000E-03 0. -1.
        -11    1    3    3    0    0 -0.54986859168E+01  0.72052736902E+01  0.64762340354E+01  0.11139709301E+02  0.51100000000E-03 0.  1.
        -12    1    3    3    0    0  0.41842224357E+01  0.56600167320E+01  0.26498225838E+02  0.27417138424E+02  0.00000000000E+00 0.  1.
</event>
<event>
 7    1  0.2459936E-009  0.4778727E+02  0.7816164E-02  0.1312668E+00
        -11   -1    0    0    0    0  0.00000000000E+00  0.00000000000E+00  0.45593999997E+02  0.45594000000E+02  0.51100000000E-03 0.  1.
         11   -1    0    0    0    0 -0.00000000000E+00 -0.00000000000E+00 -0.45593999997E+02  0.45594000000E+02  0.51100000000E-03 0. -1.
    9900012    2    1    2    0    0 -0.81486033544E+01 -0.12128618498E+02  0.40867100495E+02  0.47787273898E+02  0.20000013010E+02 0.  0.
         12    1    1    2    0    0  0.81486033544E+01  0.12128618498E+02 -0.40867100495E+02  0.43400726102E+02  0.00000000000E+00 0. -1.
         11    1    3    3    0    0 -0.58995914352E+01 -0.34009377175E+01  0.20327439358E+02  0.21437731866E+02  0.51100000000E-03 0.  1.
        -11    1    3    3    0    0 -0.12907030543E+01 -0.95713683033E+01  0.22226399225E+02  0.24234063389E+02  0.51100000000E-03 0. -1.
         12    1    3    3    0    0 -0.95830886489E+00  0.84368752325E+00 -0.16867380868E+01  0.21154786434E+01  0.00000000000E+00 0. -1.
</event>
<event>
 7    1  0.2459936E-009  0.4778727E+02  0.7816164E-02  0.1312668E+00
        -11   -1    0    0    0    0  0.00000000000E+00  0.00000000000E+00  0.45593999997E+02  0.45594000000E+02  0.51100000000E-03 0.  1.
         11   -1    0    0    0    0 -0.00000000000E+00 -0.00000000000E+00 -0.45593999997E+02  0.45594000000E+02  0.51100000000E-03 0. -1.
    9900012    2    1    2    0    0 -0.27838321358E+02  0.33264247391E+02  0.14631157453E+01  0.47787274220E+02  0.20000014479E+02 0.  0.
         12    1    1    2    0    0  0.27838321358E+02 -0.33264247391E+02 -0.14631157453E+01  0.43400725780E+02  0.00000000000E+00 0. -1.
         11    1    3    3    0    0 -0.92662246407E-01  0.56910858433E+01 -0.26234438624E+01  0.62673361429E+01  0.51100000000E-03 0. -1.
        -11    1    3    3    0    0 -0.10037234971E+02  0.16331805961E+02 -0.29515108433E+01  0.19395499177E+02  0.51100000000E-03 0.  1.
        -12    1    3    3    0    0 -0.17708424140E+02  0.11241355587E+02  0.70380704510E+01  0.22124438900E+02  0.00000000000E+00 0.  1.
</event>
<event>
 7    1  0.2459936E-009  0.4778727E+02  0.7816164E-02  0.1312668E+00
        -11   -1    0    0    0    0  0.00000000000E+00  0.00000000000E+00  0.45593999997E+02  0.45594000000E+02  0.51100000000E-03 0.  1.
         11   -1    0    0    0    0 -0.00000000000E+00 -0.00000000000E+00 -0.45593999997E+02  0.45594000000E+02  0.51100000000E-03 0. -1.
    9900012    2    1    2    0    0  0.26698568087E+02 -0.24382828855E+02  0.24005988596E+02  0.47787269944E+02  0.19999994984E+02 0.  0.
         12    1    1    2    0    0 -0.26698568087E+02  0.24382828855E+02 -0.24005988596E+02  0.43400730056E+02  0.00000000000E+00 0. -1.
         11    1    3    3    0    0 -0.19142383247E+00 -0.32877686586E+01 -0.24181149272E+01  0.40857491233E+01  0.51100000000E-03 0. -1.
        -11    1    3    3    0    0  0.39652916551E+01 -0.26216616865E+01  0.68835449343E+01  0.83653953303E+01  0.51100000000E-03 0.  1.
        -12    1    3    3    0    0  0.22924700264E+02 -0.18473398510E+02  0.19540558589E+02  0.35336125491E+02  0.00000000000E+00 0.  1.
</event>
<event>
 7    1  0.2459936E-009  0.4778727E+02  0.7816164E-02  0.1312668E+00
        -11   -1    0    0    0    0  0.00000000000E+00  0.00000000000E+00  0.45593999997E+02  0.45594000000E+02  0.51100000000E-03 0.  1.
         11   -1    0    0    0    0 -0.00000000000E+00 -0.00000000000E+00 -0.45593999997E+02  0.45594000000E+02  0.51100000000E-03 0. -1.
    9900012    2    1    2    0    0 -0.20449746446E+02 -0.25827577381E+02  0.28255395078E+02  0.47787271503E+02  0.20000002091E+02 0.  0.
         12    1    1    2    0    0  0.20449746446E+02  0.25827577381E+02 -0.28255395078E+02  0.43400728497E+02  0.00000000000E+00 0. -1.
         11    1    3    3    0    0 -0.35820975063E+01 -0.28023680710E+01  0.87804628164E+01  0.98884385462E+01  0.51100000000E-03 0. -1.
        -11    1    3    3    0    0 -0.16807153169E+02 -0.10236933291E+02  0.10829283372E+02  0.22462158833E+02  0.51100000000E-03 0.  1.
         12    1    3    3    0    0 -0.60495770557E-01 -0.12788276019E+02  0.86456488894E+01  0.15436674123E+02  0.00000000000E+00 0. -1.
</event>
<event>
 7    1  0.2459936E-009  0.4778727E+02  0.7816164E-02  0.1312668E+00
        -11   -1    0    0    0    0  0.00000000000E+00  0.00000000000E+00  0.45593999997E+02  0.45594000000E+02  0.51100000000E-03 0.  1.
         11   -1    0    0    0    0 -0.00000000000E+00 -0.00000000000E+00 -0.45593999997E+02  0.45594000000E+02  0.51100000000E-03 0. -1.
    9900012    2    1    2    0    0 -0.18080015218E+02 -0.38797343610E+02 -0.71765157579E+01  0.47787271897E+02  0.20000003886E+02 0.  0.
         12    1    1    2    0    0  0.18080015218E+02  0.38797343610E+02  0.71765157579E+01  0.43400728103E+02  0.00000000000E+00 0. -1.
         11    1    3    3    0    0  0.11938801520E+01  0.76105908363E+00 -0.93925853399E+00  0.16990490284E+01  0.51100000000E-03 0. -1.
        -11    1    3    3    0    0 -0.10585502742E+02 -0.12146582576E+02  0.18476694020E+01  0.16217466481E+02  0.51100000000E-03 0.  1.
         12    1    3    3    0    0 -0.86883926282E+01 -0.27411820117E+02 -0.80849266259E+01  0.29870756387E+02  0.00000000000E+00 0. -1.
</event>
<event>
 7    1  0.2459936E-009  0.4778729E+02  0.7816164E-02  0.1312668E+00
        -11   -1    0    0    0    0  0.00000000000E+00  0.00000000000E+00  0.45593999997E+02  0.45594000000E+02  0.51100000000E-03 0.  1.
         11   -1    0    0    0    0 -0.00000000000E+00 -0.00000000000E+00 -0.45593999997E+02  0.45594000000E+02  0.51100000000E-03 0. -1.
    9900012    2    1    2    0    0 -0.35268366411E+01 -0.24614803269E+01  0.43187080206E+02  0.47787293107E+02  0.20000100591E+02 0.  0.
         12    1    1    2    0    0  0.35268366411E+01  0.24614803269E+01 -0.43187080206E+02  0.43400706893E+02  0.00000000000E+00 0. -1.
         11    1    3    3    0    0  0.89502796565E+00 -0.93978760583E+01  0.12827006903E+02  0.15926495403E+02  0.51100000000E-03 0. -1.
        -11    1    3    3    0    0  0.96349678336E+00  0.22408385453E+01  0.96235462039E+01  0.99278560242E+01  0.51100000000E-03 0.  1.
        -12    1    3    3    0    0 -0.53853613901E+01  0.46955571861E+01  0.20736527099E+02  0.21932941680E+02  0.00000000000E+00 0.  1.
</event>
<event>
 7    1  0.2459936E-009  0.4778732E+02  0.7816164E-02  0.1312668E+00
        -11   -1    0    0    0    0  0.00000000000E+00  0.00000000000E+00  0.45593999997E+02  0.45594000000E+02  0.51100000000E-03 0. -1.
         11   -1    0    0    0    0 -0.00000000000E+00 -0.00000000000E+00 -0.45593999997E+02  0.45594000000E+02  0.51100000000E-03 0.  1.
    9900012    2    1    2    0    0 -0.38501622959E+02 -0.89929937713E+01  0.17898884041E+02  0.47787320773E+02  0.20000226732E+02 0.  0.
         12    1    1    2    0    0  0.38501622959E+02  0.89929937713E+01 -0.17898884041E+02  0.43400679227E+02  0.00000000000E+00 0. -1.
         11    1    3    3    0    0 -0.13330058162E+02 -0.26566763598E+01  0.22083679312E+01  0.13770449124E+02  0.51100000000E-03 0. -1.
        -11    1    3    3    0    0 -0.19642076809E+02 -0.84113189129E+01  0.52202289916E+01  0.21995732728E+02  0.51100000000E-03 0.  1.
         12    1    3    3    0    0 -0.55294879871E+01  0.20750015014E+01  0.10470287118E+02  0.12021138922E+02  0.00000000000E+00 0. -1.
</event>
<event>
 7    1  0.2459936E-009  0.4778727E+02  0.7816164E-02  0.1312668E+00
        -11   -1    0    0    0    0  0.00000000000E+00  0.00000000000E+00  0.45593999997E+02  0.45594000000E+02  0.51100000000E-03 0.  1.
         11   -1    0    0    0    0 -0.00000000000E+00 -0.00000000000E+00 -0.45593999997E+02  0.45594000000E+02  0.51100000000E-03 0. -1.
    9900012    2    1    2    0    0 -0.30485240841E+02  0.30346596568E+02 -0.57755643858E+01  0.47787274472E+02  0.20000015628E+02 0.  0.
         12    1    1    2    0    0  0.30485240841E+02 -0.30346596568E+02  0.57755643858E+01  0.43400725528E+02  0.00000000000E+00 0. -1.
         11    1    3    3    0    0 -0.27236529343E+01  0.60890087829E+00 -0.53678549630E+01  0.60500341115E+01  0.51100000000E-03 0.  1.
        -11    1    3    3    0    0 -0.62613490474E+01  0.66461623086E+01  0.38318241438E+01  0.99024664531E+01  0.51100000000E-03 0. -1.
        -12    1    3    3    0    0 -0.21500238859E+02  0.23091533381E+02 -0.42395335667E+01  0.31834773907E+02  0.00000000000E+00 0.  1.
</event>
<event>
 7    1  0.2459936E-009  0.4778727E+02  0.7816164E-02  0.1312668E+00
        -11   -1    0    0    0    0  0.00000000000E+00  0.00000000000E+00  0.45593999997E+02  0.45594000000E+02  0.51100000000E-03 0.  1.
         11   -1    0    0    0    0 -0.00000000000E+00 -0.00000000000E+00 -0.45593999997E+02  0.45594000000E+02  0.51100000000E-03 0. -1.
    9900012    2    1    2    0    0 -0.10071458329E+02  0.71450969047E+01  0.41606928057E+02  0.47787272530E+02  0.20000006771E+02 0.  0.
         12    1    1    2    0    0  0.10071458329E+02 -0.71450969047E+01 -0.41606928057E+02  0.43400727470E+02  0.00000000000E+00 0. -1.
         11    1    3    3    0    0 -0.93047993761E+01  0.30542602472E+01  0.32537108023E+02  0.33978981678E+02  0.51100000000E-03 0. -1.
        -11    1    3    3    0    0 -0.24002514032E+01  0.55195887750E+01  0.98151283340E+01  0.11513635895E+02  0.51100000000E-03 0.  1.
         12    1    3    3    0    0  0.16335924508E+01 -0.14287521175E+01 -0.74530830050E+00  0.22946549569E+01  0.00000000000E+00 0. -1.
</event>
<event>
 7    1  0.2459936E-009  0.4778727E+02  0.7816164E-02  0.1312668E+00
        -11   -1    0    0    0    0  0.00000000000E+00  0.00000000000E+00  0.45593999997E+02  0.45594000000E+02  0.51100000000E-03 0. -1.
         11   -1    0    0    0    0 -0.00000000000E+00 -0.00000000000E+00 -0.45593999997E+02  0.45594000000E+02  0.51100000000E-03 0.  1.
    9900012    2    1    2    0    0  0.88195618114E+01  0.21817453670E+02 -0.36466935194E+02  0.47787270541E+02  0.19999997704E+02 0.  0.
         12    1    1    2    0    0 -0.88195618114E+01 -0.21817453670E+02  0.36466935194E+02  0.43400729459E+02  0.00000000000E+00 0. -1.
         11    1    3    3    0    0  0.29427539185E+00  0.31105468820E+01 -0.28628358089E+01  0.42376796766E+01  0.51100000000E-03 0. -1.
        -11    1    3    3    0    0 -0.53785627547E+01  0.97884700601E+01 -0.14227361373E+02  0.18087589539E+02  0.51100000000E-03 0.  1.
         12    1    3    3    0    0  0.13903849174E+02  0.89184367276E+01 -0.19376738011E+02  0.25462001325E+02  0.00000000000E+00 0. -1.
</event>
<event>
 7    1  0.2459936E-009  0.4778727E+02  0.7816164E-02  0.1312668E+00
        -11   -1    0    0    0    0  0.00000000000E+00  0.00000000000E+00  0.45593999997E+02  0.45594000000E+02  0.51100000000E-03 0. -1.
         11   -1    0    0    0    0 -0.00000000000E+00 -0.00000000000E+00 -0.45593999997E+02  0.45594000000E+02  0.51100000000E-03 0.  1.
    9900012    2    1    2    0    0 -0.79797113244E+01 -0.33348247250E+02  0.26605302270E+02  0.47787268481E+02  0.19999988314E+02 0.  0.
         12    1    1    2    0    0  0.79797113244E+01  0.33348247250E+02 -0.26605302270E+02  0.43400731519E+02  0.00000000000E+00 0. -1.
         11    1    3    3    0    0 -0.41144753874E+01 -0.22223960841E+02  0.17096427217E+02  0.28339392496E+02  0.51100000000E-03 0. -1.
        -11    1    3    3    0    0  0.79511806747E-01 -0.12686489763E+02  0.65733832877E+01  0.14288551807E+02  0.51100000000E-03 0.  1.
        -12    1    3    3    0    0 -0.39447477438E+01  0.15622033534E+01  0.29354917653E+01  0.51593241790E+01  0.00000000000E+00 0.  1.
</event>
<event>
 7    1  0.2459936E-009  0.4778727E+02  0.7816164E-02  0.1312668E+00
        -11   -1    0    0    0    0  0.00000000000E+00  0.00000000000E+00  0.45593999997E+02  0.45594000000E+02  0.51100000000E-03 0.  1.
         11   -1    0    0    0    0 -0.00000000000E+00 -0.00000000000E+00 -0.45593999997E+02  0.45594000000E+02  0.51100000000E-03 0. -1.
    9900012    2    1    2    0    0  0.12191426216E+02 -0.88237132805E+01  0.40707918797E+02  0.47787269108E+02  0.19999991169E+02 0.  0.
         12    1    1    2    0    0 -0.12191426216E+02  0.88237132805E+01 -0.40707918797E+02  0.43400730892E+02  0.00000000000E+00 0. -1.
         11    1    3    3    0    0  0.39401276216E+01  0.10585822339E+00  0.16702234268E+01  0.42808244760E+01  0.51100000000E-03 0. -1.
        -11    1    3    3    0    0  0.79312769327E+01 -0.11212022362E+02  0.38836030739E+02  0.41192862040E+02  0.51100000000E-03 0.  1.
         12    1    3    3    0    0  0.32002166204E+00  0.22824508582E+01  0.20166463087E+00  0.23135825914E+01  0.00000000000E+00 0. -1.
</event>
<event>
 7    1  0.2459936E-009  0.4778726E+02  0.7816164E-02  0.1312668E+00
        -11   -1    0    0    0    0  0.00000000000E+00  0.00000000000E+00  0.45593999997E+02  0.45594000000E+02  0.51100000000E-03 0.  1.
         11   -1    0    0    0    0 -0.00000000000E+00 -0.00000000000E+00 -0.45593999997E+02  0.45594000000E+02  0.51100000000E-03 0. -1.
    9900012    2    1    2    0    0  0.15542118503E+02  0.45651034992E+01  0.40264455598E+02  0.47787262654E+02  0.19999961746E+02 0.  0.
         12    1    1    2    0    0 -0.15542118503E+02 -0.45651034992E+01 -0.40264455598E+02  0.43400737346E+02  0.00000000000E+00 0. -1.
         11    1    3    3    0    0  0.40797713638E+01 -0.17469329284E+01  0.38973073695E+01  0.59063790965E+01  0.51100000000E-03 0. -1.
        -11    1    3    3    0    0  0.10780483764E+02  0.21420349411E+01  0.35998944747E+02  0.37639489464E+02  0.51100000000E-03 0.  1.
        -12    1    3    3    0    0  0.68186337530E+00  0.41700014865E+01  0.36820348116E+00  0.42413940943E+01  0.00000000000E+00 0.  1.
</event>
<event>
 7    1  0.2636320E-009  0.4778727E+02  0.7816164E-02  0.1312668E+00
        -11   -1    0    0    0    0  0.00000000000E+00  0.00000000000E+00  0.45593999997E+02  0.45594000000E+02  0.51100000000E-03 0. -1.
         11   -1    0    0    0    0 -0.00000000000E+00 -0.00000000000E+00 -0.45593999997E+02  0.45594000000E+02  0.51100000000E-03 0.  1.
    9900012    2    1    2    0    0  0.26863302635E+02 -0.30766963524E+01 -0.33948789019E+02  0.47787269997E+02  0.19999995224E+02 0.  0.
         12    1    1    2    0    0 -0.26863302635E+02  0.30766963524E+01  0.33948789019E+02  0.43400730003E+02  0.00000000000E+00 0. -1.
         11    1    3    3    0    0  0.14646261010E+01 -0.10552167677E+01  0.12554385413E+01  0.21988038191E+01  0.51100000000E-03 0. -1.
        -11    1    3    3    0    0  0.62477390748E+00  0.32751225491E+01 -0.22520135785E+01  0.40234730726E+01  0.51100000000E-03 0.  1.
        -12    1    3    3    0    0  0.24773902626E+02 -0.52966021338E+01 -0.32952213982E+02  0.41564993105E+02  0.00000000000E+00 0.  1.
</event>
<event>
 7    1  0.2459936E-009  0.4778722E+02  0.7816164E-02  0.1312668E+00
        -11   -1    0    0    0    0  0.00000000000E+00  0.00000000000E+00  0.45593999997E+02  0.45594000000E+02  0.51100000000E-03 0. -1.
         11   -1    0    0    0    0 -0.00000000000E+00 -0.00000000000E+00 -0.45593999997E+02  0.45594000000E+02  0.51100000000E-03 0.  1.
    9900012    2    1    2    0    0  0.40528451353E+02  0.14567092861E+02  0.53733112651E+01  0.47787216166E+02  0.19999749784E+02 0.  0.
         12    1    1    2    0    0 -0.40528451353E+02 -0.14567092861E+02 -0.53733112651E+01  0.43400783834E+02  0.00000000000E+00 0. -1.
         11    1    3    3    0    0  0.13457021290E+02  0.12840266901E+02  0.28332988847E+01  0.18814660744E+02  0.51100000000E-03 0. -1.
        -11    1    3    3    0    0  0.82606419403E+00  0.21431098794E+01 -0.96426482780E+00  0.24910056056E+01  0.51100000000E-03 0.  1.
         12    1    3    3    0    0  0.26245365869E+02 -0.41628391986E+00  0.35042772081E+01  0.26481549816E+02  0.00000000000E+00 0. -1.
</event>
<event>
 7    1  0.2459936E-009  0.4778727E+02  0.7816164E-02  0.1312668E+00
        -11   -1    0    0    0    0  0.00000000000E+00  0.00000000000E+00  0.45593999997E+02  0.45594000000E+02  0.51100000000E-03 0.  1.
         11   -1    0    0    0    0 -0.00000000000E+00 -0.00000000000E+00 -0.45593999997E+02  0.45594000000E+02  0.51100000000E-03 0. -1.
    9900012    2    1    2    0    0  0.29100137644E+01 -0.26453515525E+02  0.34283616743E+02  0.47787273730E+02  0.20000012245E+02 0.  0.
         12    1    1    2    0    0 -0.29100137644E+01  0.26453515525E+02 -0.34283616743E+02  0.43400726270E+02  0.00000000000E+00 0. -1.
         11    1    3    3    0    0  0.94056472548E+01 -0.78255412234E+01  0.14288654717E+02  0.18811457934E+02  0.51100000000E-03 0. -1.
        -11    1    3    3    0    0 -0.80653307275E+00 -0.83405728928E+01  0.12449669709E+02  0.15006995966E+02  0.51100000000E-03 0.  1.
        -12    1    3    3    0    0 -0.56891004177E+01 -0.10287401409E+02  0.75452923172E+01  0.13968819831E+02  0.00000000000E+00 0.  1.
</event>
<event>
 7    1  0.2459936E-009  0.4778727E+02  0.7816164E-02  0.1312668E+00
        -11   -1    0    0    0    0  0.00000000000E+00  0.00000000000E+00  0.45593999997E+02  0.45594000000E+02  0.51100000000E-03 0.  1.
         11   -1    0    0    0    0 -0.00000000000E+00 -0.00000000000E+00 -0.45593999997E+02  0.45594000000E+02  0.51100000000E-03 0. -1.
    9900012    2    1    2    0    0 -0.25245706054E+01 -0.35740554582E+02  0.24492096396E+02  0.47787268619E+02  0.19999988940E+02 0.  0.
         12    1    1    2    0    0  0.25245706054E+01  0.35740554582E+02 -0.24492096396E+02  0.43400731381E+02  0.00000000000E+00 0. -1.
         11    1    3    3    0    0 -0.27878268073E+01 -0.11086244751E+02  0.14167702736E+02  0.18204411609E+02  0.51100000000E-03 0. -1.
        -11    1    3    3    0    0  0.70259706501E+00 -0.20469975940E+01  0.62409077302E+01  0.66055106800E+01  0.51100000000E-03 0.  1.
         12    1    3    3    0    0 -0.43934086310E+00 -0.22607312237E+02  0.40834859301E+01  0.22977346329E+02  0.00000000000E+00 0. -1.
</event>
<event>
 7    1  0.2459936E-009  0.4778727E+02  0.7816164E-02  0.1312668E+00
        -11   -1    0    0    0    0  0.00000000000E+00  0.00000000000E+00  0.45593999997E+02  0.45594000000E+02  0.51100000000E-03 0.  1.
         11   -1    0    0    0    0 -0.00000000000E+00 -0.00000000000E+00 -0.45593999997E+02  0.45594000000E+02  0.51100000000E-03 0. -1.
    9900012    2    1    2    0    0 -0.57136230669E+01 -0.43021610085E+02  0.34439900767E+00  0.47787273813E+02  0.20000012623E+02 0.  0.
         12    1    1    2    0    0  0.57136230669E+01  0.43021610085E+02 -0.34439900767E+00  0.43400726187E+02  0.00000000000E+00 0. -1.
         11    1    3    3    0    0 -0.84692173541E+01 -0.16489844667E+02  0.16074091681E+01  0.18607159488E+02  0.51100000000E-03 0. -1.
        -11    1    3    3    0    0 -0.59011404202E+00 -0.23418636835E+02  0.20794630896E+01  0.23518183450E+02  0.51100000000E-03 0.  1.
         12    1    3    3    0    0  0.33457083292E+01 -0.31131285838E+01 -0.33424732500E+01  0.56619308747E+01  0.00000000000E+00 0. -1.
</event>
<event>
 7    1  0.2459936E-009  0.4778728E+02  0.7816164E-02  0.1312668E+00
        -11   -1    0    0    0    0  0.00000000000E+00  0.00000000000E+00  0.45593999997E+02  0.45594000000E+02  0.51100000000E-03 0.  1.
         11   -1    0    0    0    0 -0.00000000000E+00 -0.00000000000E+00 -0.45593999997E+02  0.45594000000E+02  0.51100000000E-03 0. -1.
    9900012    2    1    2    0    0 -0.18328903616E+02  0.15862566090E+02  0.36000738785E+02  0.47787275308E+02  0.20000019440E+02 0.  0.
         12    1    1    2    0    0  0.18328903616E+02 -0.15862566090E+02 -0.36000738785E+02  0.43400724692E+02  0.00000000000E+00 0. -1.
         11    1    3    3    0    0  0.16889992388E+01  0.17951862305E+01 -0.25915822986E+00  0.24784219334E+01  0.51100000000E-03 0. -1.
        -11    1    3    3    0    0 -0.38528667990E+01  0.12710885567E+01  0.15610946579E+02  0.16129535084E+02  0.51100000000E-03 0.  1.
        -12    1    3    3    0    0 -0.16165036056E+02  0.12796291303E+02  0.20648950436E+02  0.29179318290E+02  0.00000000000E+00 0.  1.
</event>
<event>
 7    1  0.2459936E-009  0.4778727E+02  0.7816164E-02  0.1312668E+00
        -11   -1    0    0    0    0  0.00000000000E+00  0.00000000000E+00  0.45593999997E+02  0.45594000000E+02  0.51100000000E-03 0. -1.
         11   -1    0    0    0    0 -0.00000000000E+00 -0.00000000000E+00 -0.45593999997E+02  0.45594000000E+02  0.51100000000E-03 0.  1.
    9900012    2    1    2    0    0 -0.14887705800E+02 -0.28808276965E+02 -0.28845498146E+02  0.47787269949E+02  0.19999995005E+02 0.  0.
         12    1    1    2    0    0  0.14887705800E+02  0.28808276965E+02  0.28845498146E+02  0.43400730051E+02  0.00000000000E+00 0. -1.
         11    1    3    3    0    0 -0.53078981617E+01 -0.87182060734E+01 -0.63575126749E+01  0.12024926931E+02  0.51100000000E-03 0. -1.
        -11    1    3    3    0    0 -0.64250973324E+01 -0.11544443669E+02 -0.23122516373E+02  0.26630937255E+02  0.51100000000E-03 0.  1.
         12    1    3    3    0    0 -0.31547103062E+01 -0.85456272224E+01  0.63453090254E+00  0.91314057629E+01  0.00000000000E+00 0. -1.
</event>
<event>
 7    1  0.2459936E-009  0.4778727E+02  0.7816164E-02  0.1312668E+00
        -11   -1    0    0    0    0  0.00000000000E+00  0.00000000000E+00  0.45593999997E+02  0.45594000000E+02  0.51100000000E-03 0.  1.
         11   -1    0    0    0    0 -0.00000000000E+00 -0.00000000000E+00 -0.45593999997E+02  0.45594000000E+02  0.51100000000E-03 0. -1.
    9900012    2    1    2    0    0 -0.12597068501E+02 -0.13714846284E+02  0.39202555981E+02  0.47787267991E+02  0.19999986080E+02 0.  0.
         12    1    1    2    0    0  0.12597068501E+02  0.13714846284E+02 -0.39202555981E+02  0.43400732009E+02  0.00000000000E+00 0. -1.
         11    1    3    3    0    0  0.10317433307E+01  0.16409732421E+01 -0.86473362841E-01  0.19403003338E+01  0.51100000000E-03 0. -1.
        -11    1    3    3    0    0 -0.23032439670E+01 -0.28160931387E+00  0.14592202493E+02  0.14775540952E+02  0.51100000000E-03 0.  1.
        -12    1    3    3    0    0 -0.11325567865E+02 -0.15074210212E+02  0.24696826851E+02  0.31071426705E+02  0.00000000000E+00 0.  1.
</event>
<event>
 7    1  0.2459936E-009  0.4778727E+02  0.7816164E-02  0.1312668E+00
        -11   -1    0    0    0    0  0.00000000000E+00  0.00000000000E+00  0.45593999997E+02  0.45594000000E+02  0.51100000000E-03 0.  1.
         11   -1    0    0    0    0 -0.00000000000E+00 -0.00000000000E+00 -0.45593999997E+02  0.45594000000E+02  0.51100000000E-03 0. -1.
    9900012    2    1    2    0    0  0.38493988399E+02 -0.11829310442E+02  0.16183445321E+02  0.47787266932E+02  0.19999981252E+02 0.  0.
         12    1    1    2    0    0 -0.38493988399E+02  0.11829310442E+02 -0.16183445321E+02  0.43400733068E+02  0.00000000000E+00 0. -1.
         11    1    3    3    0    0  0.21731409452E+02 -0.12424323252E+02  0.16811456982E+02  0.30153657343E+02  0.51100000000E-03 0. -1.
        -11    1    3    3    0    0  0.54223357199E+01  0.23958500164E+00  0.23329832506E+01  0.59077861116E+01  0.51100000000E-03 0.  1.
        -12    1    3    3    0    0  0.11340243227E+02  0.35542780906E+00 -0.29609949116E+01  0.11725823478E+02  0.00000000000E+00 0.  1.
</event>
<event>
 7    1  0.2459936E-009  0.4778727E+02  0.7816164E-02  0.1312668E+00
        -11   -1    0    0    0    0  0.00000000000E+00  0.00000000000E+00  0.45593999997E+02  0.45594000000E+02  0.51100000000E-03 0.  1.
         11   -1    0    0    0    0 -0.00000000000E+00 -0.00000000000E+00 -0.45593999997E+02  0.45594000000E+02  0.51100000000E-03 0. -1.
    9900012    2    1    2    0    0  0.17400850080E+02 -0.75804521694E+01  0.39030374999E+02  0.47787274071E+02  0.20000013800E+02 0.  0.
         12    1    1    2    0    0 -0.17400850080E+02  0.75804521694E+01 -0.39030374999E+02  0.43400725929E+02  0.00000000000E+00 0. -1.
         11    1    3    3    0    0  0.13970109567E+02 -0.43279754330E+01  0.10616861576E+02  0.18072439865E+02  0.51100000000E-03 0. -1.
        -11    1    3    3    0    0 -0.20747170554E+01  0.36926008891E+00  0.69436573423E+01  0.72563890070E+01  0.51100000000E-03 0.  1.
        -12    1    3    3    0    0  0.55054575674E+01 -0.36217368253E+01  0.21469856081E+02  0.22458445200E+02  0.00000000000E+00 0.  1.
</event>
<event>
 7    1  0.2459936E-009  0.4778727E+02  0.7816164E-02  0.1312668E+00
        -11   -1    0    0    0    0  0.00000000000E+00  0.00000000000E+00  0.45593999997E+02  0.45594000000E+02  0.51100000000E-03 0.  1.
         11   -1    0    0    0    0 -0.00000000000E+00 -0.00000000000E+00 -0.45593999997E+02  0.45594000000E+02  0.51100000000E-03 0. -1.
    9900012    2    1    2    0    0  0.20769288036E+02  0.31945750982E+02  0.20778093519E+02  0.47787268421E+02  0.19999988038E+02 0.  0.
         12    1    1    2    0    0 -0.20769288036E+02 -0.31945750982E+02 -0.20778093519E+02  0.43400731579E+02  0.00000000000E+00 0. -1.
         11    1    3    3    0    0  0.16018497139E+02  0.24848654733E+02  0.18191046218E+02  0.34712563365E+02  0.51100000000E-03 0.  1.
        -11    1    3    3    0    0  0.72319609305E+01  0.56025719418E+01  0.38365931125E+01  0.99201571679E+01  0.51100000000E-03 0. -1.
        -12    1    3    3    0    0 -0.24811700332E+01  0.14945243071E+01 -0.12495458120E+01  0.31545478875E+01  0.00000000000E+00 0.  1.
</event>
<event>
 7    1  0.2459936E-009  0.4778727E+02  0.7816164E-02  0.1312668E+00
        -11   -1    0    0    0    0  0.00000000000E+00  0.00000000000E+00  0.45593999997E+02  0.45594000000E+02  0.51100000000E-03 0.  1.
         11   -1    0    0    0    0 -0.00000000000E+00 -0.00000000000E+00 -0.45593999997E+02  0.45594000000E+02  0.51100000000E-03 0. -1.
    9900012    2    1    2    0    0  0.33651159309E+02  0.95919752896E+01  0.25675218009E+02  0.47787270368E+02  0.19999996915E+02 0.  0.
         12    1    1    2    0    0 -0.33651159309E+02 -0.95919752896E+01 -0.25675218009E+02  0.43400729632E+02  0.00000000000E+00 0. -1.
         11    1    3    3    0    0  0.22787458052E+02  0.76325996665E+01  0.19405222824E+02  0.30888306772E+02  0.51100000000E-03 0.  1.
        -11    1    3    3    0    0  0.12636710044E+02  0.11082104841E+00  0.34717057097E+01  0.13105398233E+02  0.51100000000E-03 0. -1.
        -12    1    3    3    0    0 -0.17730087872E+01  0.18485545748E+01  0.27982894752E+01  0.37935653629E+01  0.00000000000E+00 0.  1.
</event>
<event>
 7    1  0.2459936E-009  0.4778727E+02  0.7816164E-02  0.1312668E+00
        -11   -1    0    0    0    0  0.00000000000E+00  0.00000000000E+00  0.45593999997E+02  0.45594000000E+02  0.51100000000E-03 0.  1.
         11   -1    0    0    0    0 -0.00000000000E+00 -0.00000000000E+00 -0.45593999997E+02  0.45594000000E+02  0.51100000000E-03 0. -1.
    9900012    2    1    2    0    0 -0.26235944277E+02 -0.32564141671E+02 -0.11613580427E+02  0.47787270223E+02  0.19999996253E+02 0.  0.
         12    1    1    2    0    0  0.26235944277E+02  0.32564141671E+02  0.11613580427E+02  0.43400729777E+02  0.00000000000E+00 0. -1.
         11    1    3    3    0    0 -0.20651903128E+01 -0.14843312798E+02 -0.84498472713E+00  0.15010094780E+02  0.51100000000E-03 0. -1.
        -11    1    3    3    0    0 -0.98616642339E+01 -0.11906517670E+02 -0.44350095617E+01  0.16083746285E+02  0.51100000000E-03 0.  1.
         12    1    3    3    0    0 -0.14309089730E+02 -0.58143112027E+01 -0.63335861383E+01  0.16693429157E+02  0.00000000000E+00 0. -1.
</event>
<event>
 7    1  0.2459936E-009  0.4778727E+02  0.7816164E-02  0.1312668E+00
        -11   -1    0    0    0    0  0.00000000000E+00  0.00000000000E+00  0.45593999997E+02  0.45594000000E+02  0.51100000000E-03 0.  1.
         11   -1    0    0    0    0 -0.00000000000E+00 -0.00000000000E+00 -0.45593999997E+02  0.45594000000E+02  0.51100000000E-03 0. -1.
    9900012    2    1    2    0    0  0.36077293808E+00  0.23035929903E+02  0.36780963343E+02  0.47787268577E+02  0.19999988749E+02 0.  0.
         12    1    1    2    0    0 -0.36077293808E+00 -0.23035929903E+02 -0.36780963343E+02  0.43400731423E+02  0.00000000000E+00 0. -1.
         11    1    3    3    0    0  0.34564170274E+00  0.51165762547E+01  0.58206927648E+00  0.51611651456E+01  0.51100000000E-03 0. -1.
        -11    1    3    3    0    0  0.54781134978E+01  0.14850660361E+02  0.21966091960E+02  0.27075099943E+02  0.51100000000E-03 0.  1.
         12    1    3    3    0    0 -0.54629822625E+01  0.30686932873E+01  0.14232802107E+02  0.15551003489E+02  0.00000000000E+00 0. -1.
</event>
<event>
 7    1  0.2459936E-009  0.4778727E+02  0.7816164E-02  0.1312668E+00
        -11   -1    0    0    0    0  0.00000000000E+00  0.00000000000E+00  0.45593999997E+02  0.45594000000E+02  0.51100000000E-03 0.  1.
         11   -1    0    0    0    0 -0.00000000000E+00 -0.00000000000E+00 -0.45593999997E+02  0.45594000000E+02  0.51100000000E-03 0. -1.
    9900012    2    1    2    0    0  0.71107523597E+01  0.32661960580E+00  0.42813010136E+02  0.47787270554E+02  0.19999997765E+02 0.  0.
         12    1    1    2    0    0 -0.71107523597E+01 -0.32661960580E+00 -0.42813010136E+02  0.43400729446E+02  0.00000000000E+00 0. -1.
         11    1    3    3    0    0 -0.33998832801E+01 -0.19918665478E+01  0.43630363278E+00  0.39644797621E+01  0.51100000000E-03 0. -1.
        -11    1    3    3    0    0  0.35290537213E+01  0.47957889804E+00  0.91046874621E+01  0.97764794344E+01  0.51100000000E-03 0.  1.
         12    1    3    3    0    0  0.69815819185E+01  0.18389072556E+01  0.33272019041E+02  0.34046311358E+02  0.00000000000E+00 0. -1.
</event>
<event>
 7    1  0.2459936E-009  0.4778727E+02  0.7816164E-02  0.1312668E+00
        -11   -1    0    0    0    0  0.00000000000E+00  0.00000000000E+00  0.45593999997E+02  0.45594000000E+02  0.51100000000E-03 0. -1.
         11   -1    0    0    0    0 -0.00000000000E+00 -0.00000000000E+00 -0.45593999997E+02  0.45594000000E+02  0.51100000000E-03 0.  1.
    9900012    2    1    2    0    0  0.35208207088E+02  0.21925933583E+02 -0.12777281075E+02  0.47787270495E+02  0.19999997496E+02 0.  0.
         12    1    1    2    0    0 -0.35208207088E+02 -0.21925933583E+02  0.12777281075E+02  0.43400729505E+02  0.00000000000E+00 0. -1.
         11    1    3    3    0    0  0.88390266832E+01  0.74260195878E+01  0.86550259259E+00  0.11576841306E+02  0.51100000000E-03 0. -1.
        -11    1    3    3    0    0  0.73771443235E+01  0.71170593851E+01  0.20967769364E+01  0.10462851736E+02  0.51100000000E-03 0.  1.
        -12    1    3    3    0    0  0.18992036082E+02  0.73828546106E+01 -0.15739560604E+02  0.25747577454E+02  0.00000000000E+00 0.  1.
</event>
<event>
 7    1  0.2459936E-009  0.4778727E+02  0.7816164E-02  0.1312668E+00
        -11   -1    0    0    0    0  0.00000000000E+00  0.00000000000E+00  0.45593999997E+02  0.45594000000E+02  0.51100000000E-03 0. -1.
         11   -1    0    0    0    0 -0.00000000000E+00 -0.00000000000E+00 -0.45593999997E+02  0.45594000000E+02  0.51100000000E-03 0.  1.
    9900012    2    1    2    0    0 -0.30292840632E+01  0.47487969326E+01 -0.43033659817E+02  0.47787268307E+02  0.19999987517E+02 0.  0.
         12    1    1    2    0    0  0.30292840632E+01 -0.47487969326E+01  0.43033659817E+02  0.43400731693E+02  0.00000000000E+00 0. -1.
         11    1    3    3    0    0  0.34301072436E+01  0.51346826835E+01 -0.66108063964E+01  0.90461794938E+01  0.51100000000E-03 0. -1.
        -11    1    3    3    0    0  0.98690547595E+00 -0.39830188129E+01 -0.64195535964E+01  0.76189953354E+01  0.51100000000E-03 0.  1.
        -12    1    3    3    0    0 -0.74462967828E+01  0.35971330620E+01 -0.30003299825E+02  0.31122093477E+02  0.00000000000E+00 0.  1.
</event>
<event>
 7    1  0.2459936E-009  0.4778728E+02  0.7816164E-02  0.1312668E+00
        -11   -1    0    0    0    0  0.00000000000E+00  0.00000000000E+00  0.45593999997E+02  0.45594000000E+02  0.51100000000E-03 0. -1.
         11   -1    0    0    0    0 -0.00000000000E+00 -0.00000000000E+00 -0.45593999997E+02  0.45594000000E+02  0.51100000000E-03 0.  1.
    9900012    2    1    2    0    0 -0.40877709070E+02 -0.30531911975E+01 -0.14258815148E+02  0.47787275528E+02  0.20000020442E+02 0.  0.
         12    1    1    2    0    0  0.40877709070E+02  0.30531911975E+01  0.14258815148E+02  0.43400724472E+02  0.00000000000E+00 0. -1.
         11    1    3    3    0    0 -0.19011230919E+02 -0.35883998648E+01  0.48642766065E+00  0.19353039213E+02  0.51100000000E-03 0. -1.
        -11    1    3    3    0    0 -0.55025990036E+01 -0.36330947144E+01 -0.10174889647E+01  0.66718256162E+01  0.51100000000E-03 0.  1.
        -12    1    3    3    0    0 -0.16363879147E+02  0.41683033816E+01 -0.13727753844E+02  0.21762410699E+02  0.00000000000E+00 0.  1.
</event>
<event>
 7    1  0.2459936E-009  0.4778727E+02  0.7816164E-02  0.1312668E+00
        -11   -1    0    0    0    0  0.00000000000E+00  0.00000000000E+00  0.45593999997E+02  0.45594000000E+02  0.51100000000E-03 0.  1.
         11   -1    0    0    0    0 -0.00000000000E+00 -0.00000000000E+00 -0.45593999997E+02  0.45594000000E+02  0.51100000000E-03 0. -1.
    9900012    2    1    2    0    0 -0.11503929394E+02  0.41423437322E+02  0.59482681962E+01  0.47787269066E+02  0.19999990978E+02 0.  0.
         12    1    1    2    0    0  0.11503929394E+02 -0.41423437322E+02 -0.59482681962E+01  0.43400730934E+02  0.00000000000E+00 0. -1.
         11    1    3    3    0    0  0.14839178446E+01  0.50325381412E+01 -0.32944723935E+01  0.61953208896E+01  0.51100000000E-03 0. -1.
        -11    1    3    3    0    0  0.20399320337E+01  0.56002911970E+01 -0.47266215846E+00  0.59789626166E+01  0.51100000000E-03 0.  1.
        -12    1    3    3    0    0 -0.15027779272E+02  0.30790607984E+02  0.97154027482E+01  0.35612985559E+02  0.00000000000E+00 0.  1.
</event>
<event>
 7    1  0.2459936E-009  0.4778727E+02  0.7816164E-02  0.1312668E+00
        -11   -1    0    0    0    0  0.00000000000E+00  0.00000000000E+00  0.45593999997E+02  0.45594000000E+02  0.51100000000E-03 0.  1.
         11   -1    0    0    0    0 -0.00000000000E+00 -0.00000000000E+00 -0.45593999997E+02  0.45594000000E+02  0.51100000000E-03 0. -1.
    9900012    2    1    2    0    0 -0.26148964487E+02 -0.21439741063E+01  0.34572506647E+02  0.47787272074E+02  0.20000004692E+02 0.  0.
         12    1    1    2    0    0  0.26148964487E+02  0.21439741063E+01 -0.34572506647E+02  0.43400727926E+02  0.00000000000E+00 0. -1.
         11    1    3    3    0    0 -0.16337285246E+02 -0.12695723585E+01  0.18976198385E+02  0.25072191939E+02  0.51100000000E-03 0. -1.
        -11    1    3    3    0    0 -0.67931219182E+01  0.25766078824E+01  0.16511935484E+02  0.18039662615E+02  0.51100000000E-03 0.  1.
         12    1    3    3    0    0 -0.30185573222E+01 -0.34510096301E+01 -0.91562722239E+00  0.46754175199E+01  0.00000000000E+00 0. -1.
</event>
<event>
 7    1  0.2459936E-009  0.4778727E+02  0.7816164E-02  0.1312668E+00
        -11   -1    0    0    0    0  0.00000000000E+00  0.00000000000E+00  0.45593999997E+02  0.45594000000E+02  0.51100000000E-03 0.  1.
         11   -1    0    0    0    0 -0.00000000000E+00 -0.00000000000E+00 -0.45593999997E+02  0.45594000000E+02  0.51100000000E-03 0. -1.
    9900012    2    1    2    0    0 -0.35625233982E+01 -0.12076569208E+02  0.41534178919E+02  0.47787272872E+02  0.20000008332E+02 0.  0.
         12    1    1    2    0    0  0.35625233982E+01  0.12076569208E+02 -0.41534178919E+02  0.43400727128E+02  0.00000000000E+00 0. -1.
         11    1    3    3    0    0  0.13020989363E+01 -0.27460247955E+01  0.26829750124E+01  0.40539448683E+01  0.51100000000E-03 0. -1.
        -11    1    3    3    0    0 -0.84991256897E+01  0.89291894239E+00  0.11653433431E+02  0.14451122887E+02  0.51100000000E-03 0.  1.
        -12    1    3    3    0    0  0.36345033551E+01 -0.10223463355E+02  0.27197770476E+02  0.29282205116E+02  0.00000000000E+00 0.  1.
</event>
<event>
 7    1  0.2459936E-009  0.4778727E+02  0.7816164E-02  0.1312668E+00
        -11   -1    0    0    0    0  0.00000000000E+00  0.00000000000E+00  0.45593999997E+02  0.45594000000E+02  0.51100000000E-03 0. -1.
         11   -1    0    0    0    0 -0.00000000000E+00 -0.00000000000E+00 -0.45593999997E+02  0.45594000000E+02  0.51100000000E-03 0.  1.
    9900012    2    1    2    0    0 -0.18808471239E+02 -0.13653078766E+02 -0.36653215496E+02  0.47787270095E+02  0.19999995670E+02 0.  0.
         12    1    1    2    0    0  0.18808471239E+02  0.13653078766E+02  0.36653215496E+02  0.43400729905E+02  0.00000000000E+00 0. -1.
         11    1    3    3    0    0 -0.42567300565E+01  0.10688044254E+01 -0.18388733375E+00  0.43927108357E+01  0.51100000000E-03 0. -1.
        -11    1    3    3    0    0 -0.14770872916E+02 -0.10596821567E+02 -0.23062732784E+02  0.29365983004E+02  0.51100000000E-03 0.  1.
        -12    1    3    3    0    0  0.21913173432E+00 -0.41250616239E+01 -0.13406595378E+02  0.14028576255E+02  0.00000000000E+00 0.  1.
</event>
<event>
 7    1  0.2459936E-009  0.4778729E+02  0.7816164E-02  0.1312668E+00
        -11   -1    0    0    0    0  0.00000000000E+00  0.00000000000E+00  0.45593999997E+02  0.45594000000E+02  0.51100000000E-03 0.  1.
         11   -1    0    0    0    0 -0.00000000000E+00 -0.00000000000E+00 -0.45593999997E+02  0.45594000000E+02  0.51100000000E-03 0. -1.
    9900012    2    1    2    0    0 -0.21125972689E+02  0.16499199587E+02  0.34133437021E+02  0.47787287656E+02  0.20000075740E+02 0.  0.
         12    1    1    2    0    0  0.21125972689E+02 -0.16499199587E+02 -0.34133437021E+02  0.43400712344E+02  0.00000000000E+00 0. -1.
         11    1    3    3    0    0 -0.75419302694E+01  0.12198039753E+02  0.13638093265E+02  0.19790666340E+02  0.51100000000E-03 0. -1.
        -11    1    3    3    0    0 -0.94854815032E+01  0.34537070452E+01  0.38024848364E+01  0.10787091494E+02  0.51100000000E-03 0.  1.
        -12    1    3    3    0    0 -0.40985609164E+01  0.84745278872E+00  0.16692858919E+02  0.17209529823E+02  0.00000000000E+00 0.  1.
</event>
<event>
 7    1  0.2459936E-009  0.4778727E+02  0.7816164E-02  0.1312668E+00
        -11   -1    0    0    0    0  0.00000000000E+00  0.00000000000E+00  0.45593999997E+02  0.45594000000E+02  0.51100000000E-03 0. -1.
         11   -1    0    0    0    0 -0.00000000000E+00 -0.00000000000E+00 -0.45593999997E+02  0.45594000000E+02  0.51100000000E-03 0.  1.
    9900012    2    1    2    0    0  0.14274297820E+02 -0.21746127610E+01 -0.40928459703E+02  0.47787270368E+02  0.19999996917E+02 0.  0.
         12    1    1    2    0    0 -0.14274297820E+02  0.21746127610E+01  0.40928459703E+02  0.43400729632E+02  0.00000000000E+00 0. -1.
         11    1    3    3    0    0  0.11561770590E+01  0.61257475911E+01 -0.57274119760E+01  0.84655051323E+01  0.51100000000E-03 0. -1.
        -11    1    3    3    0    0  0.11474869609E+02 -0.44498418306E+01 -0.19392776487E+02  0.22968532931E+02  0.51100000000E-03 0.  1.
        -12    1    3    3    0    0  0.16432511525E+01 -0.38505185215E+01 -0.15808271240E+02  0.16353232305E+02  0.00000000000E+00 0.  1.
</event>
<event>
 7    1  0.2459936E-009  0.4778727E+02  0.7816164E-02  0.1312668E+00
        -11   -1    0    0    0    0  0.00000000000E+00  0.00000000000E+00  0.45593999997E+02  0.45594000000E+02  0.51100000000E-03 0. -1.
         11   -1    0    0    0    0 -0.00000000000E+00 -0.00000000000E+00 -0.45593999997E+02  0.45594000000E+02  0.51100000000E-03 0.  1.
    9900012    2    1    2    0    0  0.23772666339E+02 -0.44532224807E+01 -0.36036816310E+02  0.47787274372E+02  0.20000015170E+02 0.  0.
         12    1    1    2    0    0 -0.23772666339E+02  0.44532224807E+01  0.36036816310E+02  0.43400725628E+02  0.00000000000E+00 0. -1.
         11    1    3    3    0    0 -0.61480756597E+00 -0.15138258699E+01  0.10410672839E+00  0.16372219091E+01  0.51100000000E-03 0. -1.
        -11    1    3    3    0    0  0.94481613788E+01 -0.26018499124E+01 -0.37763489219E+01  0.10502294409E+02  0.51100000000E-03 0.  1.
        -12    1    3    3    0    0  0.14939312526E+02 -0.33754669844E+00 -0.32364574116E+02  0.35647758054E+02  0.00000000000E+00 0.  1.
</event>
<event>
 7    1  0.2459936E-009  0.4778727E+02  0.7816164E-02  0.1312668E+00
        -11   -1    0    0    0    0  0.00000000000E+00  0.00000000000E+00  0.45593999997E+02  0.45594000000E+02  0.51100000000E-03 0. -1.
         11   -1    0    0    0    0 -0.00000000000E+00 -0.00000000000E+00 -0.45593999997E+02  0.45594000000E+02  0.51100000000E-03 0.  1.
    9900012    2    1    2    0    0  0.32483223860E+01  0.28007017593E+02 -0.32995131752E+02  0.47787270143E+02  0.19999995891E+02 0.  0.
         12    1    1    2    0    0 -0.32483223860E+01 -0.28007017593E+02  0.32995131752E+02  0.43400729857E+02  0.00000000000E+00 0. -1.
         11    1    3    3    0    0  0.31313063768E+01  0.12351950647E+02 -0.10826641014E+02  0.16721002372E+02  0.51100000000E-03 0. -1.
        -11    1    3    3    0    0  0.68646761177E+01  0.65626844003E+01 -0.14704794414E+02  0.17504958834E+02  0.51100000000E-03 0.  1.
        -12    1    3    3    0    0 -0.67476601085E+01  0.90923825450E+01 -0.74636963240E+01  0.13561308938E+02  0.00000000000E+00 0.  1.
</event>
<event>
 7    1  0.2459936E-009  0.4778727E+02  0.7816164E-02  0.1312668E+00
        -11   -1    0    0    0    0  0.00000000000E+00  0.00000000000E+00  0.45593999997E+02  0.45594000000E+02  0.51100000000E-03 0.  1.
         11   -1    0    0    0    0 -0.00000000000E+00 -0.00000000000E+00 -0.45593999997E+02  0.45594000000E+02  0.51100000000E-03 0. -1.
    9900012    2    1    2    0    0 -0.23913121339E+02  0.99816792183E+01  0.34815975537E+02  0.47787269076E+02  0.19999991023E+02 0.  0.
         12    1    1    2    0    0  0.23913121339E+02 -0.99816792183E+01 -0.34815975537E+02  0.43400730924E+02  0.00000000000E+00 0. -1.
         11    1    3    3    0    0 -0.11490317589E+02  0.36454388775E+01  0.52719752160E+01  0.13157140489E+02  0.51100000000E-03 0. -1.
        -11    1    3    3    0    0 -0.91656227673E+01  0.78742193223E+01  0.13207006288E+02  0.17900753783E+02  0.51100000000E-03 0.  1.
         12    1    3    3    0    0 -0.32571809830E+01 -0.15379789815E+01  0.16336994033E+02  0.16729374804E+02  0.00000000000E+00 0. -1.
</event>
<event>
 7    1  0.2459936E-009  0.4778727E+02  0.7816164E-02  0.1312668E+00
        -11   -1    0    0    0    0  0.00000000000E+00  0.00000000000E+00  0.45593999997E+02  0.45594000000E+02  0.51100000000E-03 0. -1.
         11   -1    0    0    0    0 -0.00000000000E+00 -0.00000000000E+00 -0.45593999997E+02  0.45594000000E+02  0.51100000000E-03 0.  1.
    9900012    2    1    2    0    0 -0.55097182192E+01 -0.34001325701E+02 -0.26404098501E+02  0.47787267726E+02  0.19999984872E+02 0.  0.
         12    1    1    2    0    0  0.55097182192E+01  0.34001325701E+02  0.26404098501E+02  0.43400732274E+02  0.00000000000E+00 0. -1.
         11    1    3    3    0    0 -0.14526500477E+01 -0.17765791153E+01  0.12303804872E+00  0.22981653849E+01  0.51100000000E-03 0. -1.
        -11    1    3    3    0    0 -0.14893582493E+01 -0.23084597158E+02 -0.27511320485E+02  0.35944256412E+02  0.51100000000E-03 0.  1.
        -12    1    3    3    0    0 -0.25677099223E+01 -0.91401494271E+01  0.98418393543E+00  0.95448459293E+01  0.00000000000E+00 0.  1.
</event>
<event>
 7    1  0.2459936E-009  0.4778727E+02  0.7816164E-02  0.1312668E+00
        -11   -1    0    0    0    0  0.00000000000E+00  0.00000000000E+00  0.45593999997E+02  0.45594000000E+02  0.51100000000E-03 0. -1.
         11   -1    0    0    0    0 -0.00000000000E+00 -0.00000000000E+00 -0.45593999997E+02  0.45594000000E+02  0.51100000000E-03 0.  1.
    9900012    2    1    2    0    0 -0.84264244840E+01  0.13913076778E+02 -0.40237359111E+02  0.47787269554E+02  0.19999993204E+02 0.  0.
         12    1    1    2    0    0  0.84264244840E+01 -0.13913076778E+02  0.40237359111E+02  0.43400730446E+02  0.00000000000E+00 0. -1.
         11    1    3    3    0    0 -0.16905779108E+01 -0.10983876177E+01 -0.49555482043E+01  0.53499502145E+01  0.51100000000E-03 0. -1.
        -11    1    3    3    0    0  0.13234665636E+01  0.11844299878E+02 -0.30033335932E+02  0.32311612012E+02  0.51100000000E-03 0.  1.
        -12    1    3    3    0    0 -0.80593131368E+01  0.31671645176E+01 -0.52484749750E+01  0.10125707327E+02  0.00000000000E+00 0.  1.
</event>
<event>
 7    1  0.2459936E-009  0.4778727E+02  0.7816164E-02  0.1312668E+00
        -11   -1    0    0    0    0  0.00000000000E+00  0.00000000000E+00  0.45593999997E+02  0.45594000000E+02  0.51100000000E-03 0.  1.
         11   -1    0    0    0    0 -0.00000000000E+00 -0.00000000000E+00 -0.45593999997E+02  0.45594000000E+02  0.51100000000E-03 0. -1.
    9900012    2    1    2    0    0 -0.78803458105E+01 -0.12654676886E+02  0.40760061850E+02  0.47787270292E+02  0.19999996568E+02 0.  0.
         12    1    1    2    0    0  0.78803458105E+01  0.12654676886E+02 -0.40760061850E+02  0.43400729708E+02  0.00000000000E+00 0. -1.
         11    1    3    3    0    0 -0.17919237431E+01  0.20836196589E+00  0.91213505879E+00  0.20214836226E+01  0.51100000000E-03 0. -1.
        -11    1    3    3    0    0  0.48432851103E+00 -0.21778146868E+01  0.29274277081E+02  0.29359168071E+02  0.51100000000E-03 0.  1.
         12    1    3    3    0    0 -0.65727505785E+01 -0.10685224166E+02  0.10573649710E+02  0.16406618598E+02  0.00000000000E+00 0. -1.
</event>
<event>
 7    1  0.2459936E-009  0.4778727E+02  0.7816164E-02  0.1312668E+00
        -11   -1    0    0    0    0  0.00000000000E+00  0.00000000000E+00  0.45593999997E+02  0.45594000000E+02  0.51100000000E-03 0.  1.
         11   -1    0    0    0    0 -0.00000000000E+00 -0.00000000000E+00 -0.45593999997E+02  0.45594000000E+02  0.51100000000E-03 0. -1.
    9900012    2    1    2    0    0  0.19905990236E+02  0.19196854262E+02  0.33449296730E+02  0.47787272903E+02  0.20000008472E+02 0.  0.
         12    1    1    2    0    0 -0.19905990236E+02 -0.19196854262E+02 -0.33449296730E+02  0.43400727097E+02  0.00000000000E+00 0. -1.
         11    1    3    3    0    0  0.19674786695E+01  0.22350034296E+01  0.96628331012E+01  0.10111209445E+02  0.51100000000E-03 0. -1.
        -11    1    3    3    0    0  0.16909006237E+02  0.19190523233E+02  0.24170831854E+02  0.35191189049E+02  0.51100000000E-03 0.  1.
         12    1    3    3    0    0  0.10295053295E+01 -0.22286724006E+01 -0.38436822496E+00  0.24848744083E+01  0.00000000000E+00 0. -1.
</event>
<event>
 7    1  0.2459936E-009  0.4778728E+02  0.7816164E-02  0.1312668E+00
        -11   -1    0    0    0    0  0.00000000000E+00  0.00000000000E+00  0.45593999997E+02  0.45594000000E+02  0.51100000000E-03 0.  1.
         11   -1    0    0    0    0 -0.00000000000E+00 -0.00000000000E+00 -0.45593999997E+02  0.45594000000E+02  0.51100000000E-03 0. -1.
    9900012    2    1    2    0    0  0.21971391794E+02  0.37115948210E+02  0.48256647199E+01  0.47787277553E+02  0.20000029677E+02 0.  0.
         12    1    1    2    0    0 -0.21971391794E+02 -0.37115948210E+02 -0.48256647199E+01  0.43400722447E+02  0.00000000000E+00 0. -1.
         11    1    3    3    0    0  0.67762324688E+01  0.85037891866E+01 -0.24323697050E+01  0.11142180202E+02  0.51100000000E-03 0. -1.
        -11    1    3    3    0    0  0.45263917313E+01  0.23780111139E+02  0.48614128918E+01  0.24690387673E+02  0.51100000000E-03 0.  1.
        -12    1    3    3    0    0  0.10668767594E+02  0.48320478846E+01  0.23966215331E+01  0.11954709679E+02  0.00000000000E+00 0.  1.
</event>
<event>
 7    1  0.2459936E-009  0.4778726E+02  0.7816164E-02  0.1312668E+00
        -11   -1    0    0    0    0  0.00000000000E+00  0.00000000000E+00  0.45593999997E+02  0.45594000000E+02  0.51100000000E-03 0. -1.
         11   -1    0    0    0    0 -0.00000000000E+00 -0.00000000000E+00 -0.45593999997E+02  0.45594000000E+02  0.51100000000E-03 0.  1.
    9900012    2    1    2    0    0  0.38196053868E+02 -0.17277238750E+02 -0.11233099656E+02  0.47787262244E+02  0.19999959876E+02 0.  0.
         12    1    1    2    0    0 -0.38196053868E+02  0.17277238750E+02  0.11233099656E+02  0.43400737756E+02  0.00000000000E+00 0. -1.
         11    1    3    3    0    0 -0.57501521747E+00 -0.50957927642E+00  0.15486893766E+00  0.78377177051E+00  0.51100000000E-03 0.  1.
        -11    1    3    3    0    0  0.31693244139E+01 -0.76794222608E+01 -0.50364079766E+01  0.97151196116E+01  0.51100000000E-03 0. -1.
        -12    1    3    3    0    0  0.35601744671E+02 -0.90882372125E+01 -0.63515606171E+01  0.37288370862E+02  0.00000000000E+00 0.  1.
</event>
<event>
 7    1  0.2459936E-009  0.4778728E+02  0.7816164E-02  0.1312668E+00
        -11   -1    0    0    0    0  0.00000000000E+00  0.00000000000E+00  0.45593999997E+02  0.45594000000E+02  0.51100000000E-03 0.  1.
         11   -1    0    0    0    0 -0.00000000000E+00 -0.00000000000E+00 -0.45593999997E+02  0.45594000000E+02  0.51100000000E-03 0. -1.
    9900012    2    1    2    0    0 -0.12075114604E+01 -0.19990326439E+02  0.38503910907E+02  0.47787281225E+02  0.20000046417E+02 0.  0.
         12    1    1    2    0    0  0.12075114604E+01  0.19990326439E+02 -0.38503910907E+02  0.43400718775E+02  0.00000000000E+00 0. -1.
         11    1    3    3    0    0  0.37477092161E+01  0.20928402075E+00  0.29417737916E+01  0.47689786613E+01  0.51100000000E-03 0. -1.
        -11    1    3    3    0    0 -0.14065111782E+00 -0.99345118751E+01  0.66317127570E+01  0.11945456177E+02  0.51100000000E-03 0.  1.
         12    1    3    3    0    0 -0.48145695586E+01 -0.10265098584E+02  0.28930424358E+02  0.31072846386E+02  0.00000000000E+00 0. -1.
</event>
<event>
 7    1  0.2459936E-009  0.4778728E+02  0.7816164E-02  0.1312668E+00
        -11   -1    0    0    0    0  0.00000000000E+00  0.00000000000E+00  0.45593999997E+02  0.45594000000E+02  0.51100000000E-03 0. -1.
         11   -1    0    0    0    0 -0.00000000000E+00 -0.00000000000E+00 -0.45593999997E+02  0.45594000000E+02  0.51100000000E-03 0.  1.
    9900012    2    1    2    0    0  0.38580000699E+02 -0.18697921461E+02  0.67522888111E+01  0.47787284279E+02  0.20000060343E+02 0.  0.
         12    1    1    2    0    0 -0.38580000699E+02  0.18697921461E+02 -0.67522888111E+01  0.43400715721E+02  0.00000000000E+00 0. -1.
         11    1    3    3    0    0  0.26388287349E+01 -0.39045625470E+01  0.22204443927E+01  0.52095488613E+01  0.51100000000E-03 0. -1.
        -11    1    3    3    0    0  0.29063203688E+02 -0.15267806582E+02 -0.22505165763E+01  0.32906542686E+02  0.51100000000E-03 0.  1.
        -12    1    3    3    0    0  0.68779682759E+01  0.47444766810E+00  0.67823609947E+01  0.96711927319E+01  0.00000000000E+00 0.  1.
</event>
<event>
 7    1  0.2459936E-009  0.4778727E+02  0.7816164E-02  0.1312668E+00
        -11   -1    0    0    0    0  0.00000000000E+00  0.00000000000E+00  0.45593999997E+02  0.45594000000E+02  0.51100000000E-03 0. -1.
         11   -1    0    0    0    0 -0.00000000000E+00 -0.00000000000E+00 -0.45593999997E+02  0.45594000000E+02  0.51100000000E-03 0.  1.
    9900012    2    1    2    0    0  0.42374886121E+02  0.32073610203E+01 -0.88150574141E+01  0.47787269871E+02  0.19999994652E+02 0.  0.
         12    1    1    2    0    0 -0.42374886121E+02 -0.32073610203E+01  0.88150574141E+01  0.43400730129E+02  0.00000000000E+00 0. -1.
         11    1    3    3    0    0 -0.95749374489E+00 -0.14162734505E+01 -0.99220619978E+00  0.19766380959E+01  0.51100000000E-03 0. -1.
        -11    1    3    3    0    0  0.18468208406E+02 -0.69246580576E+00  0.19224165301E+01  0.18580901921E+02  0.51100000000E-03 0.  1.
        -12    1    3    3    0    0  0.24864171460E+02  0.53161002766E+01 -0.97452677444E+01  0.27229729854E+02  0.00000000000E+00 0.  1.
</event>
<event>
 7    1  0.2459936E-009  0.4778727E+02  0.7816164E-02  0.1312668E+00
        -11   -1    0    0    0    0  0.00000000000E+00  0.00000000000E+00  0.45593999997E+02  0.45594000000E+02  0.51100000000E-03 0.  1.
         11   -1    0    0    0    0 -0.00000000000E+00 -0.00000000000E+00 -0.45593999997E+02  0.45594000000E+02  0.51100000000E-03 0. -1.
    9900012    2    1    2    0    0  0.36519922716E+02 -0.11328484014E+02  0.20532507461E+02  0.47787272265E+02  0.20000005567E+02 0.  0.
         12    1    1    2    0    0 -0.36519922716E+02  0.11328484014E+02 -0.20532507461E+02  0.43400727735E+02  0.00000000000E+00 0. -1.
         11    1    3    3    0    0  0.48898833443E+01 -0.22590870619E+01  0.11889176594E+02  0.13052469261E+02  0.51100000000E-03 0. -1.
        -11    1    3    3    0    0  0.77071812480E+01 -0.45014681117E+01  0.46178862351E+01  0.10049314976E+02  0.51100000000E-03 0.  1.
        -12    1    3    3    0    0  0.23922858124E+02 -0.45679288408E+01  0.40254446320E+01  0.24685488028E+02  0.00000000000E+00 0.  1.
</event>
<event>
 7    1  0.2459936E-009  0.4778727E+02  0.7816164E-02  0.1312668E+00
        -11   -1    0    0    0    0  0.00000000000E+00  0.00000000000E+00  0.45593999997E+02  0.45594000000E+02  0.51100000000E-03 0.  1.
         11   -1    0    0    0    0 -0.00000000000E+00 -0.00000000000E+00 -0.45593999997E+02  0.45594000000E+02  0.51100000000E-03 0. -1.
    9900012    2    1    2    0    0  0.26354982441E+02  0.30116988850E+01  0.34350667497E+02  0.47787265132E+02  0.19999973041E+02 0.  0.
         12    1    1    2    0    0 -0.26354982441E+02 -0.30116988850E+01 -0.34350667497E+02  0.43400734868E+02  0.00000000000E+00 0. -1.
         11    1    3    3    0    0  0.11287201489E+02  0.40741900135E+01  0.46876077991E+01  0.12883074511E+02  0.51100000000E-03 0. -1.
        -11    1    3    3    0    0  0.31412108151E+00  0.72978057114E+00  0.11082374596E+02  0.11110818093E+02  0.51100000000E-03 0.  1.
         12    1    3    3    0    0  0.14753659871E+02 -0.17922716997E+01  0.18580685101E+02  0.23793372528E+02  0.00000000000E+00 0. -1.
</event>
<event>
 7    1  0.2459936E-009  0.4778727E+02  0.7816164E-02  0.1312668E+00
        -11   -1    0    0    0    0  0.00000000000E+00  0.00000000000E+00  0.45593999997E+02  0.45594000000E+02  0.51100000000E-03 0. -1.
         11   -1    0    0    0    0 -0.00000000000E+00 -0.00000000000E+00 -0.45593999997E+02  0.45594000000E+02  0.51100000000E-03 0.  1.
    9900012    2    1    2    0    0 -0.41485674535E+02  0.79322152781E+01  0.99820876147E+01  0.47787270698E+02  0.19999998419E+02 0.  0.
         12    1    1    2    0    0  0.41485674535E+02 -0.79322152781E+01 -0.99820876147E+01  0.43400729302E+02  0.00000000000E+00 0. -1.
         11    1    3    3    0    0 -0.13528559653E+02 -0.32366208872E+01  0.25881967757E+01  0.14149077845E+02  0.51100000000E-03 0. -1.
        -11    1    3    3    0    0 -0.26602196014E+02  0.57624927379E+01  0.56625479923E+01  0.27801935281E+02  0.51100000000E-03 0.  1.
        -12    1    3    3    0    0 -0.13549188677E+01  0.54063434275E+01  0.17313428467E+01  0.58362575720E+01  0.00000000000E+00 0.  1.
</event>
<event>
 7    1  0.2459936E-009  0.4778727E+02  0.7816164E-02  0.1312668E+00
        -11   -1    0    0    0    0  0.00000000000E+00  0.00000000000E+00  0.45593999997E+02  0.45594000000E+02  0.51100000000E-03 0.  1.
         11   -1    0    0    0    0 -0.00000000000E+00 -0.00000000000E+00 -0.45593999997E+02  0.45594000000E+02  0.51100000000E-03 0. -1.
    9900012    2    1    2    0    0  0.11232107117E+02  0.35655834694E+02  0.22048229734E+02  0.47787271753E+02  0.20000003230E+02 0.  0.
         12    1    1    2    0    0 -0.11232107117E+02 -0.35655834694E+02 -0.22048229734E+02  0.43400728247E+02  0.00000000000E+00 0. -1.
         11    1    3    3    0    0  0.72937940608E+01  0.86008208436E+01  0.88608636498E+01  0.14341842834E+02  0.51100000000E-03 0. -1.
        -11    1    3    3    0    0  0.92420008560E+01  0.18178559297E+02  0.89543850334E+01  0.22272305887E+02  0.51100000000E-03 0.  1.
         12    1    3    3    0    0 -0.53036878001E+01  0.88764545533E+01  0.42329810506E+01  0.11173123032E+02  0.00000000000E+00 0. -1.
</event>
<event>
 7    1  0.2459936E-009  0.4778727E+02  0.7816164E-02  0.1312668E+00
        -11   -1    0    0    0    0  0.00000000000E+00  0.00000000000E+00  0.45593999997E+02  0.45594000000E+02  0.51100000000E-03 0.  1.
         11   -1    0    0    0    0 -0.00000000000E+00 -0.00000000000E+00 -0.45593999997E+02  0.45594000000E+02  0.51100000000E-03 0. -1.
    9900012    2    1    2    0    0 -0.37138020819E+02 -0.14338723054E+02 -0.17285595697E+02  0.47787269732E+02  0.19999994017E+02 0.  0.
         12    1    1    2    0    0  0.37138020819E+02  0.14338723054E+02  0.17285595697E+02  0.43400730268E+02  0.00000000000E+00 0. -1.
         11    1    3    3    0    0 -0.11495110091E+02 -0.10339156741E+02 -0.10125902326E+02  0.18481602103E+02  0.51100000000E-03 0. -1.
        -11    1    3    3    0    0 -0.43013858588E+01 -0.22963596021E+01 -0.61826146492E+01  0.78740022791E+01  0.51100000000E-03 0.  1.
        -12    1    3    3    0    0 -0.21341524870E+02 -0.17032067113E+01 -0.97707872155E+00  0.21431665350E+02  0.00000000000E+00 0.  1.
</event>
<event>
 7    1  0.2459936E-009  0.4778727E+02  0.7816164E-02  0.1312668E+00
        -11   -1    0    0    0    0  0.00000000000E+00  0.00000000000E+00  0.45593999997E+02  0.45594000000E+02  0.51100000000E-03 0.  1.
         11   -1    0    0    0    0 -0.00000000000E+00 -0.00000000000E+00 -0.45593999997E+02  0.45594000000E+02  0.51100000000E-03 0. -1.
    9900012    2    1    2    0    0 -0.22673065549E+02 -0.23191710519E+02  0.28839206197E+02  0.47787272446E+02  0.20000006390E+02 0.  0.
         12    1    1    2    0    0  0.22673065549E+02  0.23191710519E+02 -0.28839206197E+02  0.43400727554E+02  0.00000000000E+00 0. -1.
         11    1    3    3    0    0 -0.18017143537E+02 -0.91966185884E+01  0.11025546923E+02  0.23038184388E+02  0.51100000000E-03 0. -1.
        -11    1    3    3    0    0 -0.56287230209E+01 -0.38702796488E+01  0.89395039087E+01  0.11250614108E+02  0.51100000000E-03 0.  1.
        -12    1    3    3    0    0  0.97280100887E+00 -0.10124812282E+02  0.88741553651E+01  0.13498473950E+02  0.00000000000E+00 0.  1.
</event>
<event>
 7    1  0.2459936E-009  0.4778727E+02  0.7816164E-02  0.1312668E+00
        -11   -1    0    0    0    0  0.00000000000E+00  0.00000000000E+00  0.45593999997E+02  0.45594000000E+02  0.51100000000E-03 0.  1.
         11   -1    0    0    0    0 -0.00000000000E+00 -0.00000000000E+00 -0.45593999997E+02  0.45594000000E+02  0.51100000000E-03 0. -1.
    9900012    2    1    2    0    0 -0.14596678258E+02  0.22418006412E+02  0.34175922694E+02  0.47787265909E+02  0.19999976583E+02 0.  0.
         12    1    1    2    0    0  0.14596678258E+02 -0.22418006412E+02 -0.34175922694E+02  0.43400734091E+02  0.00000000000E+00 0. -1.
         11    1    3    3    0    0 -0.90281989010E+01  0.20760486878E+01  0.10090065489E+02  0.13697728841E+02  0.51100000000E-03 0. -1.
        -11    1    3    3    0    0 -0.27331434568E+01  0.10613906915E+02  0.41373525584E+01  0.11715066351E+02  0.51100000000E-03 0.  1.
        -12    1    3    3    0    0 -0.28353359002E+01  0.97280508093E+01  0.19948504647E+02  0.22374470717E+02  0.00000000000E+00 0.  1.
</event>
<event>
 7    1  0.2459936E-009  0.4778728E+02  0.7816164E-02  0.1312668E+00
        -11   -1    0    0    0    0  0.00000000000E+00  0.00000000000E+00  0.45593999997E+02  0.45594000000E+02  0.51100000000E-03 0.  1.
         11   -1    0    0    0    0 -0.00000000000E+00 -0.00000000000E+00 -0.45593999997E+02  0.45594000000E+02  0.51100000000E-03 0. -1.
    9900012    2    1    2    0    0  0.68224660936E+01 -0.35658886719E+01  0.42712541185E+02  0.47787276733E+02  0.20000025938E+02 0.  0.
         12    1    1    2    0    0 -0.68224660936E+01  0.35658886719E+01 -0.42712541185E+02  0.43400723267E+02  0.00000000000E+00 0. -1.
         11    1    3    3    0    0 -0.22475900072E+01 -0.25109753047E+01  0.17855881439E+02  0.18171107838E+02  0.51100000000E-03 0.  1.
        -11    1    3    3    0    0  0.41463949018E+00 -0.66828983117E+00  0.19315938210E+02  0.19331942644E+02  0.51100000000E-03 0. -1.
         12    1    3    3    0    0  0.86554166106E+01 -0.38662353602E+00  0.55407215357E+01  0.10284226252E+02  0.00000000000E+00 0. -1.
</event>
<event>
 7    1 -0.2459936E-009  0.4778725E+02  0.7816164E-02  0.1312668E+00
        -11   -1    0    0    0    0  0.00000000000E+00  0.00000000000E+00  0.45593999997E+02  0.45594000000E+02  0.51100000000E-03 0.  1.
         11   -1    0    0    0    0 -0.00000000000E+00 -0.00000000000E+00 -0.45593999997E+02  0.45594000000E+02  0.51100000000E-03 0. -1.
    9900012    2    1    2    0    0  0.40163358477E+02 -0.16436618543E+02 -0.60573031520E+00  0.47787254586E+02  0.19999924960E+02 0.  0.
         12    1    1    2    0    0 -0.40163358477E+02  0.16436618543E+02  0.60573031520E+00  0.43400745414E+02  0.00000000000E+00 0. -1.
         11    1    3    3    0    0  0.81967606774E+01 -0.36043987948E+01 -0.27869432106E+01  0.93779330875E+01  0.51100000000E-03 0. -1.
        -11    1    3    3    0    0  0.24940649953E+02 -0.21631368788E+01 -0.16040096570E+01  0.25085613975E+02  0.51100000000E-03 0.  1.
        -12    1    3    3    0    0  0.70259478460E+01 -0.10669082870E+02  0.37852225524E+01  0.13323707524E+02  0.00000000000E+00 0.  1.
</event>
<event>
 7    1  0.2459936E-009  0.4778727E+02  0.7816164E-02  0.1312668E+00
        -11   -1    0    0    0    0  0.00000000000E+00  0.00000000000E+00  0.45593999997E+02  0.45594000000E+02  0.51100000000E-03 0. -1.
         11   -1    0    0    0    0 -0.00000000000E+00 -0.00000000000E+00 -0.45593999997E+02  0.45594000000E+02  0.51100000000E-03 0.  1.
    9900012    2    1    2    0    0 -0.10103544944E+02 -0.24303004796E+02 -0.34509502962E+02  0.47787268932E+02  0.19999990368E+02 0.  0.
         12    1    1    2    0    0  0.10103544944E+02  0.24303004796E+02  0.34509502962E+02  0.43400731068E+02  0.00000000000E+00 0. -1.
         11    1    3    3    0    0 -0.10241508580E+02 -0.89728289840E+01 -0.18945032801E+02  0.23330547058E+02  0.51100000000E-03 0. -1.
        -11    1    3    3    0    0 -0.10755514108E+01  0.10051760252E+01 -0.43836721737E+01  0.46242590397E+01  0.51100000000E-03 0.  1.
         12    1    3    3    0    0  0.12135150461E+01 -0.16335351837E+02 -0.11180797988E+02  0.19832462834E+02  0.00000000000E+00 0. -1.
</event>
<event>
 7    1  0.2459936E-009  0.4778728E+02  0.7816164E-02  0.1312668E+00
        -11   -1    0    0    0    0  0.00000000000E+00  0.00000000000E+00  0.45593999997E+02  0.45594000000E+02  0.51100000000E-03 0. -1.
         11   -1    0    0    0    0 -0.00000000000E+00 -0.00000000000E+00 -0.45593999997E+02  0.45594000000E+02  0.51100000000E-03 0.  1.
    9900012    2    1    2    0    0  0.35665230859E+02  0.24139742486E+02  0.53746634994E+01  0.47787275729E+02  0.20000021361E+02 0.  0.
         12    1    1    2    0    0 -0.35665230859E+02 -0.24139742486E+02 -0.53746634994E+01  0.43400724271E+02  0.00000000000E+00 0. -1.
         11    1    3    3    0    0  0.29824488726E+01  0.89091922121E-01 -0.35101975315E+01  0.46069974625E+01  0.51100000000E-03 0. -1.
        -11    1    3    3    0    0  0.46224246978E+01  0.94126940197E+01  0.81106805032E+00  0.10517768320E+02  0.51100000000E-03 0.  1.
        -12    1    3    3    0    0  0.28060357288E+02  0.14637956544E+02  0.80737929806E+01  0.32662509947E+02  0.00000000000E+00 0.  1.
</event>
<event>
 7    1  0.2459936E-009  0.4778726E+02  0.7816164E-02  0.1312668E+00
        -11   -1    0    0    0    0  0.00000000000E+00  0.00000000000E+00  0.45593999997E+02  0.45594000000E+02  0.51100000000E-03 0.  1.
         11   -1    0    0    0    0 -0.00000000000E+00 -0.00000000000E+00 -0.45593999997E+02  0.45594000000E+02  0.51100000000E-03 0. -1.
    9900012    2    1    2    0    0 -0.14869619821E+02 -0.34659402052E+02  0.21476604164E+02  0.47787259561E+02  0.19999947641E+02 0.  0.
         12    1    1    2    0    0  0.14869619821E+02  0.34659402052E+02 -0.21476604164E+02  0.43400740439E+02  0.00000000000E+00 0. -1.
         11    1    3    3    0    0 -0.40840916949E+01 -0.44674948889E+01  0.58487352748E+01  0.84170077897E+01  0.51100000000E-03 0.  1.
        -11    1    3    3    0    0  0.19822712252E+01 -0.30471205108E+01  0.74316570041E+01  0.82730809681E+01  0.51100000000E-03 0. -1.
         12    1    3    3    0    0 -0.12767799352E+02 -0.27144786652E+02  0.81962118855E+01  0.31097170803E+02  0.00000000000E+00 0. -1.
</event>
<event>
 7    1  0.2459936E-009  0.4778727E+02  0.7816164E-02  0.1312668E+00
        -11   -1    0    0    0    0  0.00000000000E+00  0.00000000000E+00  0.45593999997E+02  0.45594000000E+02  0.51100000000E-03 0.  1.
         11   -1    0    0    0    0 -0.00000000000E+00 -0.00000000000E+00 -0.45593999997E+02  0.45594000000E+02  0.51100000000E-03 0. -1.
    9900012    2    1    2    0    0  0.28352946511E+02  0.29323441615E+02 -0.14828001065E+02  0.47787269366E+02  0.19999992346E+02 0.  0.
         12    1    1    2    0    0 -0.28352946511E+02 -0.29323441615E+02  0.14828001065E+02  0.43400730634E+02  0.00000000000E+00 0. -1.
         11    1    3    3    0    0  0.46418731502E+01  0.92929687683E+01 -0.86141388893E+01  0.13494800626E+02  0.51100000000E-03 0. -1.
        -11    1    3    3    0    0  0.13868824945E+02  0.14518665521E+02 -0.99511868414E+01  0.22408973062E+02  0.51100000000E-03 0.  1.
        -12    1    3    3    0    0  0.98422484156E+01  0.55118073260E+01  0.37373246658E+01  0.11883495678E+02  0.00000000000E+00 0.  1.
</event>
<event>
 7    1  0.2459936E-009  0.4778728E+02  0.7816164E-02  0.1312668E+00
        -11   -1    0    0    0    0  0.00000000000E+00  0.00000000000E+00  0.45593999997E+02  0.45594000000E+02  0.51100000000E-03 0.  1.
         11   -1    0    0    0    0 -0.00000000000E+00 -0.00000000000E+00 -0.45593999997E+02  0.45594000000E+02  0.51100000000E-03 0. -1.
    9900012    2    1    2    0    0 -0.66306947425E+00 -0.42314202145E+02 -0.96276437932E+01  0.47787275475E+02  0.20000020202E+02 0.  0.
         12    1    1    2    0    0  0.66306947425E+00  0.42314202145E+02  0.96276437932E+01  0.43400724525E+02  0.00000000000E+00 0. -1.
         11    1    3    3    0    0  0.57670459187E+01 -0.28305705759E+02 -0.38805394973E+01  0.29146704517E+02  0.51100000000E-03 0. -1.
        -11    1    3    3    0    0  0.48588796361E+00 -0.93201391562E+01 -0.23736932142E+01  0.96299273486E+01  0.51100000000E-03 0.  1.
        -12    1    3    3    0    0 -0.69160033565E+01 -0.46883572295E+01 -0.33734110817E+01  0.90106436099E+01  0.00000000000E+00 0.  1.
</event>
<event>
 7    1  0.2459936E-009  0.4778727E+02  0.7816164E-02  0.1312668E+00
        -11   -1    0    0    0    0  0.00000000000E+00  0.00000000000E+00  0.45593999997E+02  0.45594000000E+02  0.51100000000E-03 0. -1.
         11   -1    0    0    0    0 -0.00000000000E+00 -0.00000000000E+00 -0.45593999997E+02  0.45594000000E+02  0.51100000000E-03 0.  1.
    9900012    2    1    2    0    0  0.40088108486E+02 -0.13515807054E+02  0.96896708996E+01  0.47787271844E+02  0.20000003646E+02 0.  0.
         12    1    1    2    0    0 -0.40088108486E+02  0.13515807054E+02 -0.96896708996E+01  0.43400728156E+02  0.00000000000E+00 0. -1.
         11    1    3    3    0    0  0.19191357188E+02 -0.10284178872E+02  0.36708499561E+00  0.21776300821E+02  0.51100000000E-03 0. -1.
        -11    1    3    3    0    0  0.16649698119E+02 -0.74944566998E+01  0.72768652712E+01  0.19655332536E+02  0.51100000000E-03 0.  1.
         12    1    3    3    0    0  0.42470531791E+01  0.42628285169E+01  0.20457206329E+01  0.63556384871E+01  0.00000000000E+00 0. -1.
</event>
<event>
 7    1  0.2459936E-009  0.4778727E+02  0.7816164E-02  0.1312668E+00
        -11   -1    0    0    0    0  0.00000000000E+00  0.00000000000E+00  0.45593999997E+02  0.45594000000E+02  0.51100000000E-03 0.  1.
         11   -1    0    0    0    0 -0.00000000000E+00 -0.00000000000E+00 -0.45593999997E+02  0.45594000000E+02  0.51100000000E-03 0. -1.
    9900012    2    1    2    0    0 -0.15292946953E+02 -0.20363072147E+02  0.35143911355E+02  0.47787269141E+02  0.19999991320E+02 0.  0.
         12    1    1    2    0    0  0.15292946953E+02  0.20363072147E+02 -0.35143911355E+02  0.43400730859E+02  0.00000000000E+00 0. -1.
         11    1    3    3    0    0  0.11880612490E+01 -0.18575645470E+01  0.71282599637E+01  0.74615096294E+01  0.51100000000E-03 0. -1.
        -11    1    3    3    0    0 -0.18582009219E+02 -0.17532429912E+02  0.21431858742E+02  0.33346690010E+02  0.51100000000E-03 0.  1.
        -12    1    3    3    0    0  0.21010010165E+01 -0.97307768852E+00  0.65837926496E+01  0.69790695019E+01  0.00000000000E+00 0.  1.
</event>
<event>
 7    1  0.2459936E-009  0.4778727E+02  0.7816164E-02  0.1312668E+00
        -11   -1    0    0    0    0  0.00000000000E+00  0.00000000000E+00  0.45593999997E+02  0.45594000000E+02  0.51100000000E-03 0. -1.
         11   -1    0    0    0    0 -0.00000000000E+00 -0.00000000000E+00 -0.45593999997E+02  0.45594000000E+02  0.51100000000E-03 0.  1.
    9900012    2    1    2    0    0 -0.21868111616E+02  0.11451867552E+02 -0.35696832330E+02  0.47787269424E+02  0.19999992614E+02 0.  0.
         12    1    1    2    0    0  0.21868111616E+02 -0.11451867552E+02  0.35696832330E+02  0.43400730576E+02  0.00000000000E+00 0. -1.
         11    1    3    3    0    0 -0.35045315782E+01  0.42226914678E+01 -0.41566654705E+01  0.68840927441E+01  0.51100000000E-03 0. -1.
        -11    1    3    3    0    0 -0.69646655232E+01  0.53264629021E+01 -0.17377882424E+01  0.89385502814E+01  0.51100000000E-03 0.  1.
         12    1    3    3    0    0 -0.11398914514E+02  0.19027131819E+01 -0.29802378618E+02  0.31964626399E+02  0.00000000000E+00 0. -1.
</event>
<event>
 7    1  0.2459936E-009  0.4778725E+02  0.7816164E-02  0.1312668E+00
        -11   -1    0    0    0    0  0.00000000000E+00  0.00000000000E+00  0.45593999997E+02  0.45594000000E+02  0.51100000000E-03 0.  1.
         11   -1    0    0    0    0 -0.00000000000E+00 -0.00000000000E+00 -0.45593999997E+02  0.45594000000E+02  0.51100000000E-03 0. -1.
    9900012    2    1    2    0    0  0.10200805775E+02  0.74856620493E+01  0.41515459092E+02  0.47787252099E+02  0.19999913618E+02 0.  0.
         12    1    1    2    0    0 -0.10200805775E+02 -0.74856620493E+01 -0.41515459092E+02  0.43400747901E+02  0.00000000000E+00 0. -1.
         11    1    3    3    0    0  0.12051340538E+00  0.55123797285E+01  0.39167225075E+01  0.67632513789E+01  0.51100000000E-03 0. -1.
        -11    1    3    3    0    0 -0.22228131790E+01 -0.15077325925E+01  0.25018419771E+01  0.36706088785E+01  0.51100000000E-03 0.  1.
         12    1    3    3    0    0  0.12303105549E+02  0.34810149133E+01  0.35096894607E+02  0.37353391841E+02  0.00000000000E+00 0. -1.
</event>
<event>
 7    1  0.2459936E-009  0.4778727E+02  0.7816164E-02  0.1312668E+00
        -11   -1    0    0    0    0  0.00000000000E+00  0.00000000000E+00  0.45593999997E+02  0.45594000000E+02  0.51100000000E-03 0. -1.
         11   -1    0    0    0    0 -0.00000000000E+00 -0.00000000000E+00 -0.45593999997E+02  0.45594000000E+02  0.51100000000E-03 0.  1.
    9900012    2    1    2    0    0 -0.11240243847E+02 -0.60524498681E+01 -0.41480692500E+02  0.47787273261E+02  0.20000010107E+02 0.  0.
         12    1    1    2    0    0  0.11240243847E+02  0.60524498681E+01  0.41480692500E+02  0.43400726739E+02  0.00000000000E+00 0. -1.
         11    1    3    3    0    0  0.11828017748E+01 -0.95707150043E+01 -0.12365154858E+02  0.15681028686E+02  0.51100000000E-03 0. -1.
        -11    1    3    3    0    0 -0.80995951689E+00  0.12506716665E+01 -0.17908337144E+01  0.23296565605E+01  0.51100000000E-03 0.  1.
         12    1    3    3    0    0 -0.11613086105E+02  0.22675934698E+01 -0.27324703928E+02  0.29776588014E+02  0.00000000000E+00 0. -1.
</event>
<event>
 7    1  0.2459936E-009  0.4778727E+02  0.7816164E-02  0.1312668E+00
        -11   -1    0    0    0    0  0.00000000000E+00  0.00000000000E+00  0.45593999997E+02  0.45594000000E+02  0.51100000000E-03 0.  1.
         11   -1    0    0    0    0 -0.00000000000E+00 -0.00000000000E+00 -0.45593999997E+02  0.45594000000E+02  0.51100000000E-03 0. -1.
    9900012    2    1    2    0    0  0.16718763312E+02 -0.11465145752E+02  0.38375208936E+02  0.47787271035E+02  0.19999999958E+02 0.  0.
         12    1    1    2    0    0 -0.16718763312E+02  0.11465145752E+02 -0.38375208936E+02  0.43400728965E+02  0.00000000000E+00 0. -1.
         11    1    3    3    0    0  0.13541150072E+02  0.11943692501E+01  0.16969463587E+02  0.21742859928E+02  0.51100000000E-03 0. -1.
        -11    1    3    3    0    0  0.15524505626E+01 -0.23302002340E+01  0.10775753204E+02  0.11133588517E+02  0.51100000000E-03 0.  1.
        -12    1    3    3    0    0  0.16251626771E+01 -0.10329314768E+02  0.10629992145E+02  0.14910822590E+02  0.00000000000E+00 0.  1.
</event>
<event>
 7    1  0.2459936E-009  0.4778727E+02  0.7816164E-02  0.1312668E+00
        -11   -1    0    0    0    0  0.00000000000E+00  0.00000000000E+00  0.45593999997E+02  0.45594000000E+02  0.51100000000E-03 0. -1.
         11   -1    0    0    0    0 -0.00000000000E+00 -0.00000000000E+00 -0.45593999997E+02  0.45594000000E+02  0.51100000000E-03 0.  1.
    9900012    2    1    2    0    0 -0.24107012810E+02  0.33352842603E+02 -0.13786340769E+02  0.47787269958E+02  0.19999995048E+02 0.  0.
         12    1    1    2    0    0  0.24107012810E+02 -0.33352842603E+02  0.13786340769E+02  0.43400730042E+02  0.00000000000E+00 0. -1.
         11    1    3    3    0    0 -0.90740984213E+01  0.18037845339E+02 -0.55484828362E+01  0.20940123893E+02  0.51100000000E-03 0. -1.
        -11    1    3    3    0    0 -0.16149703964E+02  0.16885160413E+02 -0.85793572378E+01  0.24890298334E+02  0.51100000000E-03 0.  1.
         12    1    3    3    0    0  0.11167895748E+01 -0.15701631484E+01  0.34149930450E+00  0.19568477309E+01  0.00000000000E+00 0. -1.
</event>
<event>
 7    1  0.2459936E-009  0.4778729E+02  0.7816164E-02  0.1312668E+00
        -11   -1    0    0    0    0  0.00000000000E+00  0.00000000000E+00  0.45593999997E+02  0.45594000000E+02  0.51100000000E-03 0.  1.
         11   -1    0    0    0    0 -0.00000000000E+00 -0.00000000000E+00 -0.45593999997E+02  0.45594000000E+02  0.51100000000E-03 0. -1.
    9900012    2    1    2    0    0 -0.11917191706E+02  0.41227287400E+02 -0.64740514335E+01  0.47787285416E+02  0.20000065524E+02 0.  0.
         12    1    1    2    0    0  0.11917191706E+02 -0.41227287400E+02  0.64740514335E+01  0.43400714584E+02  0.00000000000E+00 0. -1.
         11    1    3    3    0    0 -0.94574365588E+01  0.19330990367E+02  0.25048431973E+01  0.21665745649E+02  0.51100000000E-03 0. -1.
        -11    1    3    3    0    0  0.18263625799E+01  0.46129179907E+01  0.18332159392E+01  0.52891675719E+01  0.51100000000E-03 0.  1.
        -12    1    3    3    0    0 -0.42861177268E+01  0.17283379042E+02 -0.10812110570E+02  0.20832372195E+02  0.00000000000E+00 0.  1.
</event>
<event>
 7    1  0.2459936E-009  0.4778730E+02  0.7816164E-02  0.1312668E+00
        -11   -1    0    0    0    0  0.00000000000E+00  0.00000000000E+00  0.45593999997E+02  0.45594000000E+02  0.51100000000E-03 0.  1.
         11   -1    0    0    0    0 -0.00000000000E+00 -0.00000000000E+00 -0.45593999997E+02  0.45594000000E+02  0.51100000000E-03 0. -1.
    9900012    2    1    2    0    0 -0.21914565707E+01  0.30831706318E+02  0.30466766191E+02  0.47787303709E+02  0.20000148932E+02 0.  0.
         12    1    1    2    0    0  0.21914565707E+01 -0.30831706318E+02 -0.30466766191E+02  0.43400696291E+02  0.00000000000E+00 0. -1.
         11    1    3    3    0    0  0.35711674392E+01  0.18649400544E+02  0.14595048575E+02  0.23949296873E+02  0.51100000000E-03 0. -1.
        -11    1    3    3    0    0 -0.62571294236E+00  0.89505706604E+01  0.15307015755E+02  0.17742856687E+02  0.51100000000E-03 0.  1.
         12    1    3    3    0    0 -0.51369110675E+01  0.32317351131E+01  0.56470186184E+00  0.60951501498E+01  0.00000000000E+00 0. -1.
</event>
<event>
 7    1  0.2459936E-009  0.4778726E+02  0.7816164E-02  0.1312668E+00
        -11   -1    0    0    0    0  0.00000000000E+00  0.00000000000E+00  0.45593999997E+02  0.45594000000E+02  0.51100000000E-03 0.  1.
         11   -1    0    0    0    0 -0.00000000000E+00 -0.00000000000E+00 -0.45593999997E+02  0.45594000000E+02  0.51100000000E-03 0. -1.
    9900012    2    1    2    0    0  0.33015118735E+02 -0.28072885971E+02  0.23535244824E+01  0.47787261880E+02  0.19999958216E+02 0.  0.
         12    1    1    2    0    0 -0.33015118735E+02  0.28072885971E+02 -0.23535244824E+01  0.43400738120E+02  0.00000000000E+00 0. -1.
         11    1    3    3    0    0  0.90686232357E+01 -0.14979890235E+02  0.46242647575E+01  0.18111346268E+02  0.51100000000E-03 0. -1.
        -11    1    3    3    0    0  0.16208528887E+02 -0.10513958220E+02  0.35659093568E+01  0.19646257555E+02  0.51100000000E-03 0.  1.
         12    1    3    3    0    0  0.77379666126E+01 -0.25790375172E+01 -0.58366496320E+01  0.10029658057E+02  0.00000000000E+00 0. -1.
</event>
<event>
 7    1  0.2459936E-009  0.4778727E+02  0.7816164E-02  0.1312668E+00
        -11   -1    0    0    0    0  0.00000000000E+00  0.00000000000E+00  0.45593999997E+02  0.45594000000E+02  0.51100000000E-03 0. -1.
         11   -1    0    0    0    0 -0.00000000000E+00 -0.00000000000E+00 -0.45593999997E+02  0.45594000000E+02  0.51100000000E-03 0.  1.
    9900012    2    1    2    0    0 -0.27353619141E+02  0.32990830497E+02  0.68562129200E+01  0.47787273824E+02  0.20000012674E+02 0.  0.
         12    1    1    2    0    0  0.27353619141E+02 -0.32990830497E+02 -0.68562129200E+01  0.43400726176E+02  0.00000000000E+00 0. -1.
         11    1    3    3    0    0 -0.19983985108E+00  0.76847302398E+01  0.79528456204E+00  0.77283563984E+01  0.51100000000E-03 0. -1.
        -11    1    3    3    0    0  0.20881072151E+00  0.31138588525E+01 -0.22668902997E+01  0.38572672661E+01  0.51100000000E-03 0.  1.
        -12    1    3    3    0    0 -0.27362590012E+02  0.22192241404E+02  0.83278186577E+01  0.36201650160E+02  0.00000000000E+00 0.  1.
</event>
<event>
 7    1  0.2459936E-009  0.4778730E+02  0.7816164E-02  0.1312668E+00
        -11   -1    0    0    0    0  0.00000000000E+00  0.00000000000E+00  0.45593999997E+02  0.45594000000E+02  0.51100000000E-03 0.  1.
         11   -1    0    0    0    0 -0.00000000000E+00 -0.00000000000E+00 -0.45593999997E+02  0.45594000000E+02  0.51100000000E-03 0. -1.
    9900012    2    1    2    0    0 -0.30163298217E+02 -0.18261013571E+02  0.25304782003E+02  0.47787295303E+02  0.20000110605E+02 0.  0.
         12    1    1    2    0    0  0.30163298217E+02  0.18261013571E+02 -0.25304782003E+02  0.43400704697E+02  0.00000000000E+00 0. -1.
         11    1    3    3    0    0 -0.54203573613E+01 -0.44624014809E+01 -0.25278333086E+01  0.74621205028E+01  0.51100000000E-03 0. -1.
        -11    1    3    3    0    0 -0.96435056344E+01 -0.38015351094E+01  0.60648614058E+01  0.12009638389E+02  0.51100000000E-03 0.  1.
         12    1    3    3    0    0 -0.15099435221E+02 -0.99970769807E+01  0.21767753905E+02  0.28315536411E+02  0.00000000000E+00 0. -1.
</event>
<event>
 7    1  0.2459936E-009  0.4778727E+02  0.7816164E-02  0.1312668E+00
        -11   -1    0    0    0    0  0.00000000000E+00  0.00000000000E+00  0.45593999997E+02  0.45594000000E+02  0.51100000000E-03 0. -1.
         11   -1    0    0    0    0 -0.00000000000E+00 -0.00000000000E+00 -0.45593999997E+02  0.45594000000E+02  0.51100000000E-03 0.  1.
    9900012    2    1    2    0    0  0.39982894335E+02  0.82579802733E+01 -0.14724035341E+02  0.47787270809E+02  0.19999998926E+02 0.  0.
         12    1    1    2    0    0 -0.39982894335E+02 -0.82579802733E+01  0.14724035341E+02  0.43400729191E+02  0.00000000000E+00 0. -1.
         11    1    3    3    0    0  0.11688242973E+02  0.42747523509E+01 -0.70742771362E+01  0.14315513568E+02  0.51100000000E-03 0.  1.
        -11    1    3    3    0    0  0.28831070020E+02  0.50183408258E+01 -0.38737042480E+01  0.29519822628E+02  0.51100000000E-03 0. -1.
         12    1    3    3    0    0 -0.53641865796E+00 -0.10351129035E+01 -0.37760539566E+01  0.39519346127E+01  0.00000000000E+00 0. -1.
</event>
<event>
 7    1  0.2459936E-009  0.4778727E+02  0.7816164E-02  0.1312668E+00
        -11   -1    0    0    0    0  0.00000000000E+00  0.00000000000E+00  0.45593999997E+02  0.45594000000E+02  0.51100000000E-03 0.  1.
         11   -1    0    0    0    0 -0.00000000000E+00 -0.00000000000E+00 -0.45593999997E+02  0.45594000000E+02  0.51100000000E-03 0. -1.
    9900012    2    1    2    0    0  0.15255013286E+02  0.33769545869E+02  0.22594812716E+02  0.47787271662E+02  0.20000002815E+02 0.  0.
         12    1    1    2    0    0 -0.15255013286E+02 -0.33769545869E+02 -0.22594812716E+02  0.43400728338E+02  0.00000000000E+00 0. -1.
         11    1    3    3    0    0  0.41274639403E+01  0.11941917693E+02  0.14628549547E+02  0.19329765101E+02  0.51100000000E-03 0. -1.
        -11    1    3    3    0    0  0.34684663600E+01  0.14788435486E+02  0.95393336515E+01  0.17936749142E+02  0.51100000000E-03 0.  1.
         12    1    3    3    0    0  0.76590829861E+01  0.70391926906E+01 -0.15730704818E+01  0.10520757419E+02  0.00000000000E+00 0. -1.
</event>
<event>
 7    1  0.2459936E-009  0.4778727E+02  0.7816164E-02  0.1312668E+00
        -11   -1    0    0    0    0  0.00000000000E+00  0.00000000000E+00  0.45593999997E+02  0.45594000000E+02  0.51100000000E-03 0.  1.
         11   -1    0    0    0    0 -0.00000000000E+00 -0.00000000000E+00 -0.45593999997E+02  0.45594000000E+02  0.51100000000E-03 0. -1.
    9900012    2    1    2    0    0  0.37194730557E+02 -0.19189982246E+01  0.22282116200E+02  0.47787271461E+02  0.20000001899E+02 0.  0.
         12    1    1    2    0    0 -0.37194730557E+02  0.19189982246E+01 -0.22282116200E+02  0.43400728539E+02  0.00000000000E+00 0. -1.
         11    1    3    3    0    0  0.55846786956E+01  0.30181647292E+01  0.25751996953E+01  0.68505188269E+01  0.51100000000E-03 0. -1.
        -11    1    3    3    0    0  0.57993371401E+00 -0.37210445700E+01  0.57898830891E+01  0.69068981642E+01  0.51100000000E-03 0.  1.
        -12    1    3    3    0    0  0.31030118147E+02 -0.12161183838E+01  0.13917033416E+02  0.34029854470E+02  0.00000000000E+00 0.  1.
</event>
<event>
 7    1  0.2459936E-009  0.4778726E+02  0.7816164E-02  0.1312668E+00
        -11   -1    0    0    0    0  0.00000000000E+00  0.00000000000E+00  0.45593999997E+02  0.45594000000E+02  0.51100000000E-03 0.  1.
         11   -1    0    0    0    0 -0.00000000000E+00 -0.00000000000E+00 -0.45593999997E+02  0.45594000000E+02  0.51100000000E-03 0. -1.
    9900012    2    1    2    0    0  0.58830447956E+01  0.29838870289E+02  0.30962170258E+02  0.47787258264E+02  0.19999941728E+02 0.  0.
         12    1    1    2    0    0 -0.58830447956E+01 -0.29838870289E+02 -0.30962170258E+02  0.43400741736E+02  0.00000000000E+00 0. -1.
         11    1    3    3    0    0  0.63656082488E+01  0.90529086205E+01  0.19186786533E+02  0.22149693013E+02  0.51100000000E-03 0. -1.
        -11    1    3    3    0    0  0.33248024806E+01  0.14292229842E+02  0.10399370199E+02  0.17985245235E+02  0.51100000000E-03 0.  1.
        -12    1    3    3    0    0 -0.38073659337E+01  0.64937318267E+01  0.13760135261E+01  0.76523200151E+01  0.00000000000E+00 0.  1.
</event>
<event>
 7    1  0.2459936E-009  0.4778727E+02  0.7816164E-02  0.1312668E+00
        -11   -1    0    0    0    0  0.00000000000E+00  0.00000000000E+00  0.45593999997E+02  0.45594000000E+02  0.51100000000E-03 0. -1.
         11   -1    0    0    0    0 -0.00000000000E+00 -0.00000000000E+00 -0.45593999997E+02  0.45594000000E+02  0.51100000000E-03 0.  1.
    9900012    2    1    2    0    0 -0.37338695535E+02 -0.21744084166E+02 -0.40792587875E+01  0.47787265758E+02  0.19999975899E+02 0.  0.
         12    1    1    2    0    0  0.37338695535E+02  0.21744084166E+02  0.40792587875E+01  0.43400734242E+02  0.00000000000E+00 0. -1.
         11    1    3    3    0    0 -0.11566653657E+02 -0.63538805243E+01  0.36154712568E+01  0.13683234530E+02  0.51100000000E-03 0. -1.
        -11    1    3    3    0    0 -0.22388019284E+02 -0.66315382887E+01 -0.28048360209E+01  0.23517393838E+02  0.51100000000E-03 0.  1.
         12    1    3    3    0    0 -0.33840225937E+01 -0.87586653533E+01 -0.48898940234E+01  0.10586637391E+02  0.00000000000E+00 0. -1.
</event>
<event>
 7    1  0.2459936E-009  0.4778731E+02  0.7816164E-02  0.1312668E+00
        -11   -1    0    0    0    0  0.00000000000E+00  0.00000000000E+00  0.45593999997E+02  0.45594000000E+02  0.51100000000E-03 0.  1.
         11   -1    0    0    0    0 -0.00000000000E+00 -0.00000000000E+00 -0.45593999997E+02  0.45594000000E+02  0.51100000000E-03 0. -1.
    9900012    2    1    2    0    0  0.45826536186E+01 -0.42561426488E+02 -0.71515346945E+01  0.47787306603E+02  0.20000162123E+02 0.  0.
         12    1    1    2    0    0 -0.45826536186E+01  0.42561426488E+02  0.71515346945E+01  0.43400693397E+02  0.00000000000E+00 0. -1.
         11    1    3    3    0    0  0.54494961963E+00 -0.25729994174E+01  0.29687537270E+01  0.39662066313E+01  0.51100000000E-03 0. -1.
        -11    1    3    3    0    0  0.53954578105E+01 -0.29566610409E+02 -0.12708517780E+01  0.30081730013E+02  0.51100000000E-03 0.  1.
        -12    1    3    3    0    0 -0.13577538115E+01 -0.10421816662E+02 -0.88494366435E+01  0.13739369958E+02  0.00000000000E+00 0.  1.
</event>
<event>
 7    1  0.2459936E-009  0.4778727E+02  0.7816164E-02  0.1312668E+00
        -11   -1    0    0    0    0  0.00000000000E+00  0.00000000000E+00  0.45593999997E+02  0.45594000000E+02  0.51100000000E-03 0.  1.
         11   -1    0    0    0    0 -0.00000000000E+00 -0.00000000000E+00 -0.45593999997E+02  0.45594000000E+02  0.51100000000E-03 0. -1.
    9900012    2    1    2    0    0 -0.29404559724E+01  0.24146320692E+02  0.35943461989E+02  0.47787267932E+02  0.19999985807E+02 0.  0.
         12    1    1    2    0    0  0.29404559724E+01 -0.24146320692E+02 -0.35943461989E+02  0.43400732068E+02  0.00000000000E+00 0. -1.
         11    1    3    3    0    0  0.19395478051E+01  0.77372661057E+00  0.26811541398E+00  0.21053229425E+01  0.51100000000E-03 0. -1.
        -11    1    3    3    0    0 -0.81831724739E+01  0.19913725974E+02  0.20340336541E+02  0.29618407870E+02  0.51100000000E-03 0.  1.
        -12    1    3    3    0    0  0.33031686965E+01  0.34588681081E+01  0.15335010034E+02  0.16063537119E+02  0.00000000000E+00 0.  1.
</event>
<event>
 7    1  0.2459936E-009  0.4778727E+02  0.7816164E-02  0.1312668E+00
        -11   -1    0    0    0    0  0.00000000000E+00  0.00000000000E+00  0.45593999997E+02  0.45594000000E+02  0.51100000000E-03 0.  1.
         11   -1    0    0    0    0 -0.00000000000E+00 -0.00000000000E+00 -0.45593999997E+02  0.45594000000E+02  0.51100000000E-03 0. -1.
    9900012    2    1    2    0    0  0.25171640146E+02  0.13475158146E+02  0.32686879622E+02  0.47787268968E+02  0.19999990532E+02 0.  0.
         12    1    1    2    0    0 -0.25171640146E+02 -0.13475158146E+02 -0.32686879622E+02  0.43400731032E+02  0.00000000000E+00 0. -1.
         11    1    3    3    0    0 -0.26266527948E+01  0.35445602347E+01  0.63311191331E+01  0.77166237372E+01  0.51100000000E-03 0. -1.
        -11    1    3    3    0    0  0.38678599804E+00  0.93888599316E+00  0.30248590142E-01  0.10158865856E+01  0.51100000000E-03 0.  1.
        -12    1    3    3    0    0  0.27411506943E+02  0.89917119184E+01  0.26325511899E+02  0.39054758645E+02  0.00000000000E+00 0.  1.
</event>
<event>
 7    1  0.2459936E-009  0.4778727E+02  0.7816164E-02  0.1312668E+00
        -11   -1    0    0    0    0  0.00000000000E+00  0.00000000000E+00  0.45593999997E+02  0.45594000000E+02  0.51100000000E-03 0. -1.
         11   -1    0    0    0    0 -0.00000000000E+00 -0.00000000000E+00 -0.45593999997E+02  0.45594000000E+02  0.51100000000E-03 0.  1.
    9900012    2    1    2    0    0 -0.10748800923E+02  0.41905554653E+02 -0.34656765217E+01  0.47787272519E+02  0.20000006725E+02 0.  0.
         12    1    1    2    0    0  0.10748800923E+02 -0.41905554653E+02  0.34656765217E+01  0.43400727481E+02  0.00000000000E+00 0. -1.
         11    1    3    3    0    0  0.14177797673E+01  0.12921196154E+01 -0.27161978217E+01  0.33252674234E+01  0.51100000000E-03 0. -1.
        -11    1    3    3    0    0 -0.10568237564E+02  0.12863937794E+02 -0.77698804798E+00  0.16666500876E+02  0.51100000000E-03 0.  1.
         12    1    3    3    0    0 -0.15983431263E+01  0.27749497244E+02  0.27509348020E-01  0.27795504219E+02  0.00000000000E+00 0. -1.
</event>
<event>
 7    1  0.2459936E-009  0.4778727E+02  0.7816164E-02  0.1312668E+00
        -11   -1    0    0    0    0  0.00000000000E+00  0.00000000000E+00  0.45593999997E+02  0.45594000000E+02  0.51100000000E-03 0.  1.
         11   -1    0    0    0    0 -0.00000000000E+00 -0.00000000000E+00 -0.45593999997E+02  0.45594000000E+02  0.51100000000E-03 0. -1.
    9900012    2    1    2    0    0 -0.43911892998E+01 -0.14450387472E+02  0.40688168018E+02  0.47787271225E+02  0.20000000822E+02 0.  0.
         12    1    1    2    0    0  0.43911892998E+01  0.14450387472E+02 -0.40688168018E+02  0.43400728775E+02  0.00000000000E+00 0. -1.
         11    1    3    3    0    0 -0.39804849354E+01  0.18056887167E+01  0.26606088670E+01  0.51169924631E+01  0.51100000000E-03 0. -1.
        -11    1    3    3    0    0  0.50597009492E+00  0.12928956709E+01  0.10882386675E+01  0.17640432566E+01  0.51100000000E-03 0.  1.
         12    1    3    3    0    0 -0.91667445931E+00 -0.17548971859E+02  0.36939320484E+02  0.40906235505E+02  0.00000000000E+00 0. -1.
</event>
<event>
 7    1  0.2459936E-009  0.4778729E+02  0.7816164E-02  0.1312668E+00
        -11   -1    0    0    0    0  0.00000000000E+00  0.00000000000E+00  0.45593999997E+02  0.45594000000E+02  0.51100000000E-03 0.  1.
         11   -1    0    0    0    0 -0.00000000000E+00 -0.00000000000E+00 -0.45593999997E+02  0.45594000000E+02  0.51100000000E-03 0. -1.
    9900012    2    1    2    0    0  0.21247859545E+02 -0.37443869934E+02  0.54869598763E+01  0.47787289642E+02  0.20000084794E+02 0.  0.
         12    1    1    2    0    0 -0.21247859545E+02  0.37443869934E+02 -0.54869598763E+01  0.43400710358E+02  0.00000000000E+00 0. -1.
         11    1    3    3    0    0  0.14486820588E+01 -0.15154528918E+02  0.28540072249E+01  0.15488827713E+02  0.51100000000E-03 0. -1.
        -11    1    3    3    0    0  0.94507670860E+01 -0.18995335168E+02  0.30267190985E+01  0.21431303866E+02  0.51100000000E-03 0.  1.
        -12    1    3    3    0    0  0.10348410400E+02 -0.32940058486E+01 -0.39376644714E+00  0.10867158062E+02  0.00000000000E+00 0.  1.
</event>
<event>
 7    1  0.2459936E-009  0.4778729E+02  0.7816164E-02  0.1312668E+00
        -11   -1    0    0    0    0  0.00000000000E+00  0.00000000000E+00  0.45593999997E+02  0.45594000000E+02  0.51100000000E-03 0.  1.
         11   -1    0    0    0    0 -0.00000000000E+00 -0.00000000000E+00 -0.45593999997E+02  0.45594000000E+02  0.51100000000E-03 0. -1.
    9900012    2    1    2    0    0 -0.31024086570E+02  0.29785068703E+02  0.58290414158E+01  0.47787285847E+02  0.20000067492E+02 0.  0.
         12    1    1    2    0    0  0.31024086570E+02 -0.29785068703E+02 -0.58290414158E+01  0.43400714153E+02  0.00000000000E+00 0. -1.
         11    1    3    3    0    0 -0.91919558780E+01  0.35165602240E+00  0.48891275625E+01  0.10417258920E+02  0.51100000000E-03 0. -1.
        -11    1    3    3    0    0 -0.81215975741E+01  0.61731343964E+01  0.17854406567E+01  0.10356434427E+02  0.51100000000E-03 0.  1.
        -12    1    3    3    0    0 -0.13710533117E+02  0.23260278284E+02 -0.84552680335E+00  0.27013592501E+02  0.00000000000E+00 0.  1.
</event>
<event>
 7    1  0.2459936E-009  0.4778727E+02  0.7816164E-02  0.1312668E+00
        -11   -1    0    0    0    0  0.00000000000E+00  0.00000000000E+00  0.45593999997E+02  0.45594000000E+02  0.51100000000E-03 0.  1.
         11   -1    0    0    0    0 -0.00000000000E+00 -0.00000000000E+00 -0.45593999997E+02  0.45594000000E+02  0.51100000000E-03 0. -1.
    9900012    2    1    2    0    0  0.31887156602E+02  0.61763836675E+01  0.28786887171E+02  0.47787270232E+02  0.19999996297E+02 0.  0.
         12    1    1    2    0    0 -0.31887156602E+02 -0.61763836675E+01 -0.28786887171E+02  0.43400729768E+02  0.00000000000E+00 0. -1.
         11    1    3    3    0    0  0.13180909250E+02  0.36115752711E+00  0.87219623645E+01  0.15809472830E+02  0.51100000000E-03 0. -1.
        -11    1    3    3    0    0  0.19403300277E+02  0.91776471166E+01  0.17192112696E+02  0.27500654673E+02  0.51100000000E-03 0.  1.
         12    1    3    3    0    0 -0.69705292414E+00 -0.33624209762E+01  0.28728121098E+01  0.44771427293E+01  0.00000000000E+00 0. -1.
</event>
<event>
 7    1  0.2459936E-009  0.4778727E+02  0.7816164E-02  0.1312668E+00
        -11   -1    0    0    0    0  0.00000000000E+00  0.00000000000E+00  0.45593999997E+02  0.45594000000E+02  0.51100000000E-03 0.  1.
         11   -1    0    0    0    0 -0.00000000000E+00 -0.00000000000E+00 -0.45593999997E+02  0.45594000000E+02  0.51100000000E-03 0. -1.
    9900012    2    1    2    0    0  0.82751094801E+01  0.14916719515E+01  0.42578405599E+02  0.47787272524E+02  0.20000006744E+02 0.  0.
         12    1    1    2    0    0 -0.82751094801E+01 -0.14916719515E+01 -0.42578405599E+02  0.43400727476E+02  0.00000000000E+00 0. -1.
         11    1    3    3    0    0  0.30349877387E+01  0.99790236016E+01  0.27181664244E+02  0.29114170672E+02  0.51100000000E-03 0. -1.
        -11    1    3    3    0    0  0.90093812247E+00 -0.28101990835E-01  0.24499978016E+01  0.26105495037E+01  0.51100000000E-03 0.  1.
         12    1    3    3    0    0  0.43391836189E+01 -0.84592496592E+01  0.12946743554E+02  0.16062552348E+02  0.00000000000E+00 0. -1.
</event>
<event>
 7    1  0.2459936E-009  0.4778727E+02  0.7816164E-02  0.1312668E+00
        -11   -1    0    0    0    0  0.00000000000E+00  0.00000000000E+00  0.45593999997E+02  0.45594000000E+02  0.51100000000E-03 0. -1.
         11   -1    0    0    0    0 -0.00000000000E+00 -0.00000000000E+00 -0.45593999997E+02  0.45594000000E+02  0.51100000000E-03 0.  1.
    9900012    2    1    2    0    0 -0.32763678605E+02  0.19585870855E+02 -0.20653293862E+02  0.47787268206E+02  0.19999987059E+02 0.  0.
         12    1    1    2    0    0  0.32763678605E+02 -0.19585870855E+02  0.20653293862E+02  0.43400731794E+02  0.00000000000E+00 0. -1.
         11    1    3    3    0    0 -0.97739493017E+01  0.93794816774E+00 -0.90297333690E+01  0.13339637053E+02  0.51100000000E-03 0. -1.
        -11    1    3    3    0    0  0.14278876364E+01  0.17673318150E+00 -0.17764168935E+01  0.22859910237E+01  0.51100000000E-03 0.  1.
        -12    1    3    3    0    0 -0.24417616940E+02  0.18471189506E+02 -0.98471435995E+01  0.32161640130E+02  0.00000000000E+00 0.  1.
</event>
<event>
 7    1  0.2459936E-009  0.4778727E+02  0.7816164E-02  0.1312668E+00
        -11   -1    0    0    0    0  0.00000000000E+00  0.00000000000E+00  0.45593999997E+02  0.45594000000E+02  0.51100000000E-03 0.  1.
         11   -1    0    0    0    0 -0.00000000000E+00 -0.00000000000E+00 -0.45593999997E+02  0.45594000000E+02  0.51100000000E-03 0. -1.
    9900012    2    1    2    0    0 -0.82959475202E+01 -0.13879501113E+02  0.40276047542E+02  0.47787270721E+02  0.19999998523E+02 0.  0.
         12    1    1    2    0    0  0.82959475202E+01  0.13879501113E+02 -0.40276047542E+02  0.43400729279E+02  0.00000000000E+00 0. -1.
         11    1    3    3    0    0  0.22716318470E+01 -0.62175591507E+01  0.81154141388E+01  0.10472740804E+02  0.51100000000E-03 0. -1.
        -11    1    3    3    0    0 -0.15187811604E+01 -0.93783459698E+01  0.19108977416E+02  0.21340409731E+02  0.51100000000E-03 0.  1.
        -12    1    3    3    0    0 -0.90487982067E+01  0.17164040075E+01  0.13051655987E+02  0.15974120185E+02  0.00000000000E+00 0.  1.
</event>
<event>
 7    1  0.2459936E-009  0.4778727E+02  0.7816164E-02  0.1312668E+00
        -11   -1    0    0    0    0  0.00000000000E+00  0.00000000000E+00  0.45593999997E+02  0.45594000000E+02  0.51100000000E-03 0.  1.
         11   -1    0    0    0    0 -0.00000000000E+00 -0.00000000000E+00 -0.45593999997E+02  0.45594000000E+02  0.51100000000E-03 0. -1.
    9900012    2    1    2    0    0  0.18586732385E+02  0.22849360198E+02  0.31875755844E+02  0.47787266217E+02  0.19999977990E+02 0.  0.
         12    1    1    2    0    0 -0.18586732385E+02 -0.22849360198E+02 -0.31875755844E+02  0.43400733783E+02  0.00000000000E+00 0. -1.
         11    1    3    3    0    0  0.77099951708E+00  0.50223482990E+01 -0.17325854233E+01  0.53684518441E+01  0.51100000000E-03 0.  1.
        -11    1    3    3    0    0  0.26127767855E+01  0.10812975477E+01  0.16730517082E+01  0.32855607127E+01  0.51100000000E-03 0. -1.
        -12    1    3    3    0    0  0.15202956083E+02  0.16745714352E+02  0.31935289559E+02  0.39133253660E+02  0.00000000000E+00 0.  1.
</event>
<event>
 7    1  0.2459936E-009  0.4778727E+02  0.7816164E-02  0.1312668E+00
        -11   -1    0    0    0    0  0.00000000000E+00  0.00000000000E+00  0.45593999997E+02  0.45594000000E+02  0.51100000000E-03 0. -1.
         11   -1    0    0    0    0 -0.00000000000E+00 -0.00000000000E+00 -0.45593999997E+02  0.45594000000E+02  0.51100000000E-03 0.  1.
    9900012    2    1    2    0    0 -0.30535280050E+02  0.27609187610E+02 -0.13746013729E+02  0.47787268881E+02  0.19999990136E+02 0.  0.
         12    1    1    2    0    0  0.30535280050E+02 -0.27609187610E+02  0.13746013729E+02  0.43400731119E+02  0.00000000000E+00 0. -1.
         11    1    3    3    0    0 -0.21685319389E+02  0.21149469214E+02 -0.10457205006E+02  0.32045378167E+02  0.51100000000E-03 0. -1.
        -11    1    3    3    0    0 -0.85184552698E+01  0.38229207636E+01 -0.66455792197E+01  0.11460476725E+02  0.51100000000E-03 0.  1.
         12    1    3    3    0    0 -0.33150539130E+00  0.26367976325E+01  0.33567704965E+01  0.42814139890E+01  0.00000000000E+00 0. -1.
</event>
<event>
 7    1  0.2459936E-009  0.4778727E+02  0.7816164E-02  0.1312668E+00
        -11   -1    0    0    0    0  0.00000000000E+00  0.00000000000E+00  0.45593999997E+02  0.45594000000E+02  0.51100000000E-03 0. -1.
         11   -1    0    0    0    0 -0.00000000000E+00 -0.00000000000E+00 -0.45593999997E+02  0.45594000000E+02  0.51100000000E-03 0.  1.
    9900012    2    1    2    0    0 -0.15183726249E+02  0.22075005513E+02 -0.34143402649E+02  0.47787270103E+02  0.19999995706E+02 0.  0.
         12    1    1    2    0    0  0.15183726249E+02 -0.22075005513E+02  0.34143402649E+02  0.43400729897E+02  0.00000000000E+00 0. -1.
         11    1    3    3    0    0 -0.13563775408E+00  0.48517260886E+01 -0.21025333299E+01  0.52894508509E+01  0.51100000000E-03 0. -1.
        -11    1    3    3    0    0 -0.17151013465E+02  0.10690504594E+02 -0.18888600358E+02  0.27662671149E+02  0.51100000000E-03 0.  1.
        -12    1    3    3    0    0  0.21029249704E+01  0.65327748303E+01 -0.13152268961E+02  0.14835148103E+02  0.00000000000E+00 0.  1.
</event>
<event>
 7    1  0.2459936E-009  0.4778726E+02  0.7816164E-02  0.1312668E+00
        -11   -1    0    0    0    0  0.00000000000E+00  0.00000000000E+00  0.45593999997E+02  0.45594000000E+02  0.51100000000E-03 0.  1.
         11   -1    0    0    0    0 -0.00000000000E+00 -0.00000000000E+00 -0.45593999997E+02  0.45594000000E+02  0.51100000000E-03 0. -1.
    9900012    2    1    2    0    0  0.17923924814E+01  0.28775153704E+02  0.32440749648E+02  0.47787258310E+02  0.19999941937E+02 0.  0.
         12    1    1    2    0    0 -0.17923924814E+01 -0.28775153704E+02 -0.32440749648E+02  0.43400741690E+02  0.00000000000E+00 0. -1.
         11    1    3    3    0    0 -0.32762340138E+01  0.54922403297E+01  0.70017672258E+01  0.94827821707E+01  0.51100000000E-03 0. -1.
        -11    1    3    3    0    0 -0.39630205110E+01  0.48919276055E+01  0.12708893073E+02  0.14182822380E+02  0.51100000000E-03 0.  1.
        -12    1    3    3    0    0  0.90316470062E+01  0.18390985769E+02  0.12730089349E+02  0.24121653759E+02  0.00000000000E+00 0.  1.
</event>
<event>
 7    1  0.2459936E-009  0.4778727E+02  0.7816164E-02  0.1312668E+00
        -11   -1    0    0    0    0  0.00000000000E+00  0.00000000000E+00  0.45593999997E+02  0.45594000000E+02  0.51100000000E-03 0.  1.
         11   -1    0    0    0    0 -0.00000000000E+00 -0.00000000000E+00 -0.45593999997E+02  0.45594000000E+02  0.51100000000E-03 0. -1.
    9900012    2    1    2    0    0 -0.12969911566E+02  0.31700750214E+02  0.26654588829E+02  0.47787271022E+02  0.19999999896E+02 0.  0.
         12    1    1    2    0    0  0.12969911566E+02 -0.31700750214E+02 -0.26654588829E+02  0.43400728978E+02  0.00000000000E+00 0. -1.
         11    1    3    3    0    0  0.96944383957E+00 -0.13357206785E+01  0.24401994471E+01  0.29459369802E+01  0.51100000000E-03 0. -1.
        -11    1    3    3    0    0 -0.14269924662E+02  0.20218741584E+02  0.17944203179E+02  0.30568328202E+02  0.51100000000E-03 0.  1.
        -12    1    3    3    0    0  0.33056925583E+00  0.12817729308E+02  0.62701862036E+01  0.14273005839E+02  0.00000000000E+00 0.  1.
</event>
<event>
 7    1  0.2459936E-009  0.4778727E+02  0.7816164E-02  0.1312668E+00
        -11   -1    0    0    0    0  0.00000000000E+00  0.00000000000E+00  0.45593999997E+02  0.45594000000E+02  0.51100000000E-03 0.  1.
         11   -1    0    0    0    0 -0.00000000000E+00 -0.00000000000E+00 -0.45593999997E+02  0.45594000000E+02  0.51100000000E-03 0. -1.
    9900012    2    1    2    0    0 -0.21815457519E+02 -0.33955025694E+02  0.15961372890E+02  0.47787269808E+02  0.19999994361E+02 0.  0.
         12    1    1    2    0    0  0.21815457519E+02  0.33955025694E+02 -0.15961372890E+02  0.43400730192E+02  0.00000000000E+00 0. -1.
         11    1    3    3    0    0  0.14205743272E+00 -0.32011035518E+00  0.17496723442E+01  0.17843779103E+01  0.51100000000E-03 0. -1.
        -11    1    3    3    0    0 -0.88019969676E+01 -0.59255008755E+01  0.10799585978E+02  0.15139939524E+02  0.51100000000E-03 0.  1.
         12    1    3    3    0    0 -0.13155517984E+02 -0.27709414464E+02  0.34121145681E+01  0.30862952373E+02  0.00000000000E+00 0. -1.
</event>
<event>
 7    1  0.2459936E-009  0.4778732E+02  0.7816164E-02  0.1312668E+00
        -11   -1    0    0    0    0  0.00000000000E+00  0.00000000000E+00  0.45593999997E+02  0.45594000000E+02  0.51100000000E-03 0.  1.
         11   -1    0    0    0    0 -0.00000000000E+00 -0.00000000000E+00 -0.45593999997E+02  0.45594000000E+02  0.51100000000E-03 0. -1.
    9900012    2    1    2    0    0 -0.30271240786E+02  0.12361759772E+02  0.28538702146E+02  0.47787324388E+02  0.20000243215E+02 0.  0.
         12    1    1    2    0    0  0.30271240786E+02 -0.12361759772E+02 -0.28538702146E+02  0.43400675612E+02  0.00000000000E+00 0. -1.
         11    1    3    3    0    0 -0.33359033816E+01 -0.28311071978E+01 -0.10837779352E+01  0.45075485811E+01  0.51100000000E-03 0. -1.
        -11    1    3    3    0    0 -0.11814429984E+02  0.37379459234E+01  0.94090085898E+01  0.15558998633E+02  0.51100000000E-03 0.  1.
         12    1    3    3    0    0 -0.15120907420E+02  0.11454921047E+02  0.20213471491E+02  0.27720777174E+02  0.00000000000E+00 0. -1.
</event>
<event>
 7    1  0.2459936E-009  0.4778727E+02  0.7816164E-02  0.1312668E+00
        -11   -1    0    0    0    0  0.00000000000E+00  0.00000000000E+00  0.45593999997E+02  0.45594000000E+02  0.51100000000E-03 0.  1.
         11   -1    0    0    0    0 -0.00000000000E+00 -0.00000000000E+00 -0.45593999997E+02  0.45594000000E+02  0.51100000000E-03 0. -1.
    9900012    2    1    2    0    0  0.25806815015E+01 -0.38762046978E+02  0.19351154880E+02  0.47787269613E+02  0.19999993474E+02 0.  0.
         12    1    1    2    0    0 -0.25806815015E+01  0.38762046978E+02 -0.19351154880E+02  0.43400730387E+02  0.00000000000E+00 0. -1.
         11    1    3    3    0    0  0.14813937618E+01 -0.11211497159E+01  0.75961241098E+01  0.78200131660E+01  0.51100000000E-03 0. -1.
        -11    1    3    3    0    0  0.22232054232E+00  0.22871453487E+00  0.12134581287E+00  0.34126504278E+00  0.51100000000E-03 0.  1.
        -12    1    3    3    0    0  0.87696719737E+00 -0.37869611797E+02  0.11633684958E+02  0.39625991404E+02  0.00000000000E+00 0.  1.
</event>
<event>
 7    1  0.2459936E-009  0.4778728E+02  0.7816164E-02  0.1312668E+00
        -11   -1    0    0    0    0  0.00000000000E+00  0.00000000000E+00  0.45593999997E+02  0.45594000000E+02  0.51100000000E-03 0.  1.
         11   -1    0    0    0    0 -0.00000000000E+00 -0.00000000000E+00 -0.45593999997E+02  0.45594000000E+02  0.51100000000E-03 0. -1.
    9900012    2    1    2    0    0 -0.27434745621E+02  0.26704966973E+02  0.20440213342E+02  0.47787275930E+02  0.20000022277E+02 0.  0.
         12    1    1    2    0    0  0.27434745621E+02 -0.26704966973E+02 -0.20440213342E+02  0.43400724070E+02  0.00000000000E+00 0. -1.
         11    1    3    3    0    0 -0.41050160709E+01  0.11469632831E+02  0.21029563087E+01  0.12362283758E+02  0.51100000000E-03 0. -1.
        -11    1    3    3    0    0 -0.14129851225E+02  0.15316232101E+02  0.10475558698E+02  0.23323314338E+02  0.51100000000E-03 0.  1.
         12    1    3    3    0    0 -0.91998783249E+01 -0.80897960048E-01  0.78616983353E+01  0.12101677834E+02  0.00000000000E+00 0. -1.
</event>
<event>
 7    1  0.2459936E-009  0.4778727E+02  0.7816164E-02  0.1312668E+00
        -11   -1    0    0    0    0  0.00000000000E+00  0.00000000000E+00  0.45593999997E+02  0.45594000000E+02  0.51100000000E-03 0.  1.
         11   -1    0    0    0    0 -0.00000000000E+00 -0.00000000000E+00 -0.45593999997E+02  0.45594000000E+02  0.51100000000E-03 0. -1.
    9900012    2    1    2    0    0  0.34951603932E+02 -0.25637926378E+02 -0.21691832700E+01  0.47787271406E+02  0.20000001651E+02 0.  0.
         12    1    1    2    0    0 -0.34951603932E+02  0.25637926378E+02  0.21691832700E+01  0.43400728594E+02  0.00000000000E+00 0. -1.
         11    1    3    3    0    0  0.31272332584E+01 -0.71174648645E+01 -0.16987997355E+01  0.79576262008E+01  0.51100000000E-03 0. -1.
        -11    1    3    3    0    0 -0.42466783823E+00 -0.24761720851E+01 -0.27662583416E+01  0.37368377595E+01  0.51100000000E-03 0.  1.
        -12    1    3    3    0    0  0.32249038512E+02 -0.16044289428E+02  0.22958748071E+01  0.36092807446E+02  0.00000000000E+00 0.  1.
</event>
<event>
 7    1  0.2459936E-009  0.4778727E+02  0.7816164E-02  0.1312668E+00
        -11   -1    0    0    0    0  0.00000000000E+00  0.00000000000E+00  0.45593999997E+02  0.45594000000E+02  0.51100000000E-03 0. -1.
         11   -1    0    0    0    0 -0.00000000000E+00 -0.00000000000E+00 -0.45593999997E+02  0.45594000000E+02  0.51100000000E-03 0.  1.
    9900012    2    1    2    0    0 -0.34111767713E+02 -0.19757206673E+02 -0.18156632869E+02  0.47787271560E+02  0.20000002348E+02 0.  0.
         12    1    1    2    0    0  0.34111767713E+02  0.19757206673E+02  0.18156632869E+02  0.43400728440E+02  0.00000000000E+00 0. -1.
         11    1    3    3    0    0 -0.10018834670E+02 -0.15310542877E+02 -0.45073513915E+01  0.18844256105E+02  0.51100000000E-03 0. -1.
        -11    1    3    3    0    0 -0.10412714975E+02 -0.33835623220E+01 -0.24212804540E+01  0.11213194301E+02  0.51100000000E-03 0.  1.
         12    1    3    3    0    0 -0.13680218068E+02 -0.10631014739E+01 -0.11228001024E+02  0.17729821153E+02  0.00000000000E+00 0. -1.
</event>
<event>
 7    1  0.2459936E-009  0.4778727E+02  0.7816164E-02  0.1312668E+00
        -11   -1    0    0    0    0  0.00000000000E+00  0.00000000000E+00  0.45593999997E+02  0.45594000000E+02  0.51100000000E-03 0.  1.
         11   -1    0    0    0    0 -0.00000000000E+00 -0.00000000000E+00 -0.45593999997E+02  0.45594000000E+02  0.51100000000E-03 0. -1.
    9900012    2    1    2    0    0 -0.23534267317E+02 -0.12563246712E+02  0.34233406949E+02  0.47787273538E+02  0.20000011369E+02 0.  0.
         12    1    1    2    0    0  0.23534267317E+02  0.12563246712E+02 -0.34233406949E+02  0.43400726462E+02  0.00000000000E+00 0. -1.
         11    1    3    3    0    0 -0.56475154550E+01  0.26612817770E+01  0.44628205832E+01  0.76742178318E+01  0.51100000000E-03 0. -1.
        -11    1    3    3    0    0 -0.58131384102E+01  0.99195400773E+00  0.31507492867E+01  0.66860879637E+01  0.51100000000E-03 0.  1.
        -12    1    3    3    0    0 -0.12073613452E+02 -0.16216482496E+02  0.26619837079E+02  0.33426967743E+02  0.00000000000E+00 0.  1.
</event>
<event>
 7    1  0.2459936E-009  0.4778727E+02  0.7816164E-02  0.1312668E+00
        -11   -1    0    0    0    0  0.00000000000E+00  0.00000000000E+00  0.45593999997E+02  0.45594000000E+02  0.51100000000E-03 0.  1.
         11   -1    0    0    0    0 -0.00000000000E+00 -0.00000000000E+00 -0.45593999997E+02  0.45594000000E+02  0.51100000000E-03 0. -1.
    9900012    2    1    2    0    0 -0.40574714039E+02  0.10873435052E+02  0.10912564801E+02  0.47787273281E+02  0.20000010198E+02 0.  0.
         12    1    1    2    0    0  0.40574714039E+02 -0.10873435052E+02 -0.10912564801E+02  0.43400726719E+02  0.00000000000E+00 0. -1.
         11    1    3    3    0    0 -0.11667981640E+02  0.14058104943E+01 -0.23485646525E+01  0.11984734243E+02  0.51100000000E-03 0. -1.
        -11    1    3    3    0    0 -0.18865175767E+02 -0.45366562086E+00  0.53207036223E+01  0.19606390706E+02  0.51100000000E-03 0.  1.
        -12    1    3    3    0    0 -0.10041556632E+02  0.99212901790E+01  0.79404258307E+01  0.16196148332E+02  0.00000000000E+00 0.  1.
</event>
<event>
 7    1  0.2459936E-009  0.4778727E+02  0.7816164E-02  0.1312668E+00
        -11   -1    0    0    0    0  0.00000000000E+00  0.00000000000E+00  0.45593999997E+02  0.45594000000E+02  0.51100000000E-03 0.  1.
         11   -1    0    0    0    0 -0.00000000000E+00 -0.00000000000E+00 -0.45593999997E+02  0.45594000000E+02  0.51100000000E-03 0. -1.
    9900012    2    1    2    0    0 -0.32766523735E+02  0.27816635197E+02 -0.60176957114E+01  0.47787274971E+02  0.20000017902E+02 0.  0.
         12    1    1    2    0    0  0.32766523735E+02 -0.27816635197E+02  0.60176957114E+01  0.43400725029E+02  0.00000000000E+00 0. -1.
         11    1    3    3    0    0 -0.16468874662E+02  0.22059352732E+02 -0.10079563378E+02  0.29316146980E+02  0.51100000000E-03 0. -1.
        -11    1    3    3    0    0 -0.77187492039E+01  0.41203429384E+01 -0.20246945537E+00  0.87519888794E+01  0.51100000000E-03 0.  1.
         12    1    3    3    0    0 -0.85788998694E+01  0.16369395270E+01  0.42643371222E+01  0.97191391119E+01  0.00000000000E+00 0. -1.
</event>
<event>
 7    1  0.2459936E-009  0.4778727E+02  0.7816164E-02  0.1312668E+00
        -11   -1    0    0    0    0  0.00000000000E+00  0.00000000000E+00  0.45593999997E+02  0.45594000000E+02  0.51100000000E-03 0.  1.
         11   -1    0    0    0    0 -0.00000000000E+00 -0.00000000000E+00 -0.45593999997E+02  0.45594000000E+02  0.51100000000E-03 0. -1.
    9900012    2    1    2    0    0  0.43015712971E+02 -0.46430701003E+01  0.34225780281E+01  0.47787266104E+02  0.19999977474E+02 0.  0.
         12    1    1    2    0    0 -0.43015712971E+02  0.46430701003E+01 -0.34225780281E+01  0.43400733896E+02  0.00000000000E+00 0. -1.
         11    1    3    3    0    0  0.17529600545E+02 -0.36622725101E+01  0.54267286692E+01  0.18712255864E+02  0.51100000000E-03 0. -1.
        -11    1    3    3    0    0  0.36004065657E+01 -0.86641488027E+00  0.48853210714E+01  0.61302499472E+01  0.51100000000E-03 0.  1.
        -12    1    3    3    0    0  0.21885705860E+02 -0.11438270991E+00 -0.68894717125E+01  0.22944760293E+02  0.00000000000E+00 0.  1.
</event>
<event>
 7    1  0.2459936E-009  0.4778727E+02  0.7816164E-02  0.1312668E+00
        -11   -1    0    0    0    0  0.00000000000E+00  0.00000000000E+00  0.45593999997E+02  0.45594000000E+02  0.51100000000E-03 0.  1.
         11   -1    0    0    0    0 -0.00000000000E+00 -0.00000000000E+00 -0.45593999997E+02  0.45594000000E+02  0.51100000000E-03 0. -1.
    9900012    2    1    2    0    0  0.12664161396E+02 -0.16207085303E+02  0.38217445866E+02  0.47787265370E+02  0.19999974128E+02 0.  0.
         12    1    1    2    0    0 -0.12664161396E+02  0.16207085303E+02 -0.38217445866E+02  0.43400734630E+02  0.00000000000E+00 0. -1.
         11    1    3    3    0    0 -0.28728877131E+01 -0.13391072006E+01  0.31867110486E+01  0.44946434202E+01  0.51100000000E-03 0. -1.
        -11    1    3    3    0    0 -0.23184992312E+01 -0.45918466665E+00  0.21304884392E+01  0.31820230190E+01  0.51100000000E-03 0.  1.
         12    1    3    3    0    0  0.17855548340E+02 -0.14408793436E+02  0.32900246379E+02  0.40110598931E+02  0.00000000000E+00 0. -1.
</event>
<event>
 7    1  0.2459936E-009  0.4778727E+02  0.7816164E-02  0.1312668E+00
        -11   -1    0    0    0    0  0.00000000000E+00  0.00000000000E+00  0.45593999997E+02  0.45594000000E+02  0.51100000000E-03 0. -1.
         11   -1    0    0    0    0 -0.00000000000E+00 -0.00000000000E+00 -0.45593999997E+02  0.45594000000E+02  0.51100000000E-03 0.  1.
    9900012    2    1    2    0    0  0.17153604393E+02  0.28764211292E+02 -0.27604296215E+02  0.47787272305E+02  0.20000005748E+02 0.  0.
         12    1    1    2    0    0 -0.17153604393E+02 -0.28764211292E+02  0.27604296215E+02  0.43400727695E+02  0.00000000000E+00 0. -1.
         11    1    3    3    0    0  0.45597898679E+01  0.45021784772E+01  0.16526124205E+01  0.66175843594E+01  0.51100000000E-03 0. -1.
        -11    1    3    3    0    0  0.49802073447E+01  0.12021936498E+02 -0.73479707163E+01  0.14943965213E+02  0.51100000000E-03 0.  1.
        -12    1    3    3    0    0  0.76136071799E+01  0.12240096316E+02 -0.21908937919E+02  0.26225722733E+02  0.00000000000E+00 0.  1.
</event>
<event>
 7    1  0.2459936E-009  0.4778727E+02  0.7816164E-02  0.1312668E+00
        -11   -1    0    0    0    0  0.00000000000E+00  0.00000000000E+00  0.45593999997E+02  0.45594000000E+02  0.51100000000E-03 0.  1.
         11   -1    0    0    0    0 -0.00000000000E+00 -0.00000000000E+00 -0.45593999997E+02  0.45594000000E+02  0.51100000000E-03 0. -1.
    9900012    2    1    2    0    0  0.30949164575E+01 -0.28803538378E+02  0.32317192075E+02  0.47787271497E+02  0.20000002065E+02 0.  0.
         12    1    1    2    0    0 -0.30949164575E+01  0.28803538378E+02 -0.32317192075E+02  0.43400728503E+02  0.00000000000E+00 0. -1.
         11    1    3    3    0    0  0.10929677975E+02 -0.21047305026E+02  0.24064234208E+02  0.33786599086E+02  0.51100000000E-03 0. -1.
        -11    1    3    3    0    0 -0.19698056468E+01 -0.36417141356E+01  0.32245827963E+01  0.52478710543E+01  0.51100000000E-03 0.  1.
         12    1    3    3    0    0 -0.58649558712E+01 -0.41145192160E+01  0.50283750708E+01  0.87528013574E+01  0.00000000000E+00 0. -1.
</event>
<event>
 7    1  0.2459936E-009  0.4778727E+02  0.7816164E-02  0.1312668E+00
        -11   -1    0    0    0    0  0.00000000000E+00  0.00000000000E+00  0.45593999997E+02  0.45594000000E+02  0.51100000000E-03 0.  1.
         11   -1    0    0    0    0 -0.00000000000E+00 -0.00000000000E+00 -0.45593999997E+02  0.45594000000E+02  0.51100000000E-03 0. -1.
    9900012    2    1    2    0    0 -0.20592276353E+01  0.27107152646E+02  0.33831720549E+02  0.47787268919E+02  0.19999990310E+02 0.  0.
         12    1    1    2    0    0  0.20592276353E+01 -0.27107152646E+02 -0.33831720549E+02  0.43400731081E+02  0.00000000000E+00 0. -1.
         11    1    3    3    0    0 -0.26543172293E+01  0.30684140640E+00  0.10710364545E+01  0.28786578383E+01  0.51100000000E-03 0. -1.
        -11    1    3    3    0    0  0.26091097893E+00  0.18719284859E+02  0.11046756318E+02  0.21737307229E+02  0.51100000000E-03 0.  1.
         12    1    3    3    0    0  0.33417861502E+00  0.80810263813E+01  0.21713927776E+02  0.23171303852E+02  0.00000000000E+00 0. -1.
</event>
<event>
 7    1  0.2459936E-009  0.4778727E+02  0.7816164E-02  0.1312668E+00
        -11   -1    0    0    0    0  0.00000000000E+00  0.00000000000E+00  0.45593999997E+02  0.45594000000E+02  0.51100000000E-03 0. -1.
         11   -1    0    0    0    0 -0.00000000000E+00 -0.00000000000E+00 -0.45593999997E+02  0.45594000000E+02  0.51100000000E-03 0.  1.
    9900012    2    1    2    0    0 -0.37529157089E+02  0.10781956280E+02 -0.18945587874E+02  0.47787268291E+02  0.19999987445E+02 0.  0.
         12    1    1    2    0    0  0.37529157089E+02 -0.10781956280E+02  0.18945587874E+02  0.43400731709E+02  0.00000000000E+00 0. -1.
         11    1    3    3    0    0 -0.13793796739E+02  0.21963495038E+01 -0.86025316949E+01  0.16404155920E+02  0.51100000000E-03 0. -1.
        -11    1    3    3    0    0 -0.16638021530E+02  0.10192068434E+02 -0.13208951158E+02  0.23562224223E+02  0.51100000000E-03 0.  1.
         12    1    3    3    0    0 -0.70973388201E+01 -0.16064616579E+01  0.28658949795E+01  0.78208881478E+01  0.00000000000E+00 0. -1.
</event>
<event>
 7    1  0.2459936E-009  0.4778727E+02  0.7816164E-02  0.1312668E+00
        -11   -1    0    0    0    0  0.00000000000E+00  0.00000000000E+00  0.45593999997E+02  0.45594000000E+02  0.51100000000E-03 0. -1.
         11   -1    0    0    0    0 -0.00000000000E+00 -0.00000000000E+00 -0.45593999997E+02  0.45594000000E+02  0.51100000000E-03 0.  1.
    9900012    2    1    2    0    0 -0.17976519445E+02  0.99579126008E+01 -0.38227064862E+02  0.47787265413E+02  0.19999974323E+02 0.  0.
         12    1    1    2    0    0  0.17976519445E+02 -0.99579126008E+01  0.38227064862E+02  0.43400734587E+02  0.00000000000E+00 0. -1.
         11    1    3    3    0    0 -0.59371915394E+00  0.54119969912E+01 -0.12511391833E+02  0.13644674409E+02  0.51100000000E-03 0. -1.
        -11    1    3    3    0    0 -0.13698713907E+02  0.84195878865E+01 -0.23217756834E+02  0.28241962672E+02  0.51100000000E-03 0.  1.
        -12    1    3    3    0    0 -0.36840863844E+01 -0.38736722769E+01 -0.24979161949E+01  0.59006283321E+01  0.00000000000E+00 0.  1.
</event>
<event>
 7    1  0.2459936E-009  0.4778727E+02  0.7816164E-02  0.1312668E+00
        -11   -1    0    0    0    0  0.00000000000E+00  0.00000000000E+00  0.45593999997E+02  0.45594000000E+02  0.51100000000E-03 0.  1.
         11   -1    0    0    0    0 -0.00000000000E+00 -0.00000000000E+00 -0.45593999997E+02  0.45594000000E+02  0.51100000000E-03 0. -1.
    9900012    2    1    2    0    0  0.33780425990E+02  0.21108758453E+02 -0.17231544071E+02  0.47787274492E+02  0.20000015720E+02 0.  0.
         12    1    1    2    0    0 -0.33780425990E+02 -0.21108758453E+02  0.17231544071E+02  0.43400725508E+02  0.00000000000E+00 0. -1.
         11    1    3    3    0    0  0.35382432094E+01  0.11674545363E+01 -0.16645646159E+01  0.40807953544E+01  0.51100000000E-03 0. -1.
        -11    1    3    3    0    0 -0.20586673593E+01  0.31653488279E-01 -0.31866613544E+01  0.37939325360E+01  0.51100000000E-03 0.  1.
        -12    1    3    3    0    0  0.32300850140E+02  0.19909650428E+02 -0.12380318101E+02  0.39912546602E+02  0.00000000000E+00 0.  1.
</event>
<event>
 7    1  0.2459936E-009  0.4778727E+02  0.7816164E-02  0.1312668E+00
        -11   -1    0    0    0    0  0.00000000000E+00  0.00000000000E+00  0.45593999997E+02  0.45594000000E+02  0.51100000000E-03 0. -1.
         11   -1    0    0    0    0 -0.00000000000E+00 -0.00000000000E+00 -0.45593999997E+02  0.45594000000E+02  0.51100000000E-03 0.  1.
    9900012    2    1    2    0    0  0.32879573379E+02 -0.13608004527E+02  0.24847114640E+02  0.47787271449E+02  0.20000001847E+02 0.  0.
         12    1    1    2    0    0 -0.32879573379E+02  0.13608004527E+02 -0.24847114640E+02  0.43400728551E+02  0.00000000000E+00 0. -1.
         11    1    3    3    0    0  0.38398982292E+01 -0.31521242531E+01  0.22224553883E+01  0.54424272096E+01  0.51100000000E-03 0. -1.
        -11    1    3    3    0    0  0.27750041357E+02 -0.32263635405E+01  0.14804793505E+02  0.31617339040E+02  0.51100000000E-03 0.  1.
        -12    1    3    3    0    0  0.12896337931E+01 -0.72295167332E+01  0.78198657469E+01  0.10727505200E+02  0.00000000000E+00 0.  1.
</event>
<event>
 7    1  0.2459936E-009  0.4778727E+02  0.7816164E-02  0.1312668E+00
        -11   -1    0    0    0    0  0.00000000000E+00  0.00000000000E+00  0.45593999997E+02  0.45594000000E+02  0.51100000000E-03 0. -1.
         11   -1    0    0    0    0 -0.00000000000E+00 -0.00000000000E+00 -0.45593999997E+02  0.45594000000E+02  0.51100000000E-03 0.  1.
    9900012    2    1    2    0    0  0.41272783338E+02 -0.16444496559E+01  0.13322026971E+02  0.47787271184E+02  0.20000000635E+02 0.  0.
         12    1    1    2    0    0 -0.41272783338E+02  0.16444496559E+01 -0.13322026971E+02  0.43400728816E+02  0.00000000000E+00 0. -1.
         11    1    3    3    0    0  0.13141876347E+02  0.61830840922E+00 -0.84994714862E+00  0.13183839715E+02  0.51100000000E-03 0. -1.
        -11    1    3    3    0    0  0.19446069272E+02 -0.80516492124E+01  0.82743374582E+01  0.22615112775E+02  0.51100000000E-03 0.  1.
         12    1    3    3    0    0  0.86848377187E+01  0.57888911473E+01  0.58976366617E+01  0.11988318694E+02  0.00000000000E+00 0. -1.
</event>
<event>
 7    1  0.2459936E-009  0.4778727E+02  0.7816164E-02  0.1312668E+00
        -11   -1    0    0    0    0  0.00000000000E+00  0.00000000000E+00  0.45593999997E+02  0.45594000000E+02  0.51100000000E-03 0. -1.
         11   -1    0    0    0    0 -0.00000000000E+00 -0.00000000000E+00 -0.45593999997E+02  0.45594000000E+02  0.51100000000E-03 0.  1.
    9900012    2    1    2    0    0 -0.40658999687E+02  0.15114935581E+02 -0.14169440730E+01  0.47787271162E+02  0.20000000535E+02 0.  0.
         12    1    1    2    0    0  0.40658999687E+02 -0.15114935581E+02  0.14169440730E+01  0.43400728838E+02  0.00000000000E+00 0. -1.
         11    1    3    3    0    0 -0.13445593644E+02  0.36559972137E+01  0.49437658493E+00  0.13942550431E+02  0.51100000000E-03 0. -1.
        -11    1    3    3    0    0 -0.29330104006E+02  0.96297554927E+01 -0.25485393357E+01  0.30975510405E+02  0.51100000000E-03 0.  1.
         12    1    3    3    0    0  0.21166979621E+01  0.18291828745E+01  0.63721867783E+00  0.28692103259E+01  0.00000000000E+00 0. -1.
</event>
<event>
 7    1  0.2459936E-009  0.4778727E+02  0.7816164E-02  0.1312668E+00
        -11   -1    0    0    0    0  0.00000000000E+00  0.00000000000E+00  0.45593999997E+02  0.45594000000E+02  0.51100000000E-03 0.  1.
         11   -1    0    0    0    0 -0.00000000000E+00 -0.00000000000E+00 -0.45593999997E+02  0.45594000000E+02  0.51100000000E-03 0. -1.
    9900012    2    1    2    0    0  0.27349015391E+02  0.94888772155E+01  0.32335985298E+02  0.47787269835E+02  0.19999994487E+02 0.  0.
         12    1    1    2    0    0 -0.27349015391E+02 -0.94888772155E+01 -0.32335985298E+02  0.43400730165E+02  0.00000000000E+00 0. -1.
         11    1    3    3    0    0  0.11020310336E+02  0.68004199750E+01  0.33136376409E+01  0.13366867487E+02  0.51100000000E-03 0. -1.
        -11    1    3    3    0    0  0.29893219648E+01 -0.21701159984E+01  0.29260109534E+01  0.47124292691E+01  0.51100000000E-03 0.  1.
        -12    1    3    3    0    0  0.13339383090E+02  0.48585732389E+01  0.26096336704E+02  0.29707973079E+02  0.00000000000E+00 0.  1.
</event>
<event>
 7    1  0.2459936E-009  0.4778727E+02  0.7816164E-02  0.1312668E+00
        -11   -1    0    0    0    0  0.00000000000E+00  0.00000000000E+00  0.45593999997E+02  0.45594000000E+02  0.51100000000E-03 0. -1.
         11   -1    0    0    0    0 -0.00000000000E+00 -0.00000000000E+00 -0.45593999997E+02  0.45594000000E+02  0.51100000000E-03 0.  1.
    9900012    2    1    2    0    0  0.31858654698E+02  0.28039978345E+02  0.90779321940E+01  0.47787272844E+02  0.20000008206E+02 0.  0.
         12    1    1    2    0    0 -0.31858654698E+02 -0.28039978345E+02 -0.90779321940E+01  0.43400727156E+02  0.00000000000E+00 0. -1.
         11    1    3    3    0    0  0.23797580799E+02  0.16172701849E+02  0.54361219479E+01  0.29281949373E+02  0.51100000000E-03 0. -1.
        -11    1    3    3    0    0  0.42885928962E+01  0.16149962187E+01  0.57774301086E+01  0.73742078040E+01  0.51100000000E-03 0.  1.
        -12    1    3    3    0    0  0.37724810020E+01  0.10252280277E+02 -0.21356198624E+01  0.11131115667E+02  0.00000000000E+00 0.  1.
</event>
<event>
 7    1  0.2459936E-009  0.4778727E+02  0.7816164E-02  0.1312668E+00
        -11   -1    0    0    0    0  0.00000000000E+00  0.00000000000E+00  0.45593999997E+02  0.45594000000E+02  0.51100000000E-03 0.  1.
         11   -1    0    0    0    0 -0.00000000000E+00 -0.00000000000E+00 -0.45593999997E+02  0.45594000000E+02  0.51100000000E-03 0. -1.
    9900012    2    1    2    0    0  0.37200638785E+02 -0.11584924370E+02 -0.19118717646E+02  0.47787270017E+02  0.19999995314E+02 0.  0.
         12    1    1    2    0    0 -0.37200638785E+02  0.11584924370E+02  0.19118717646E+02  0.43400729983E+02  0.00000000000E+00 0. -1.
         11    1    3    3    0    0  0.92797466372E+01 -0.36734419408E+01  0.23090133967E+01  0.10243994166E+02  0.51100000000E-03 0.  1.
        -11    1    3    3    0    0  0.28976187631E+01  0.23627878011E+01 -0.20086842489E+01  0.42442635830E+01  0.51100000000E-03 0. -1.
        -12    1    3    3    0    0  0.25023273385E+02 -0.10274270230E+02 -0.19419046794E+02  0.33299012268E+02  0.00000000000E+00 0.  1.
</event>
<event>
 7    1  0.2459936E-009  0.4778726E+02  0.7816164E-02  0.1312668E+00
        -11   -1    0    0    0    0  0.00000000000E+00  0.00000000000E+00  0.45593999997E+02  0.45594000000E+02  0.51100000000E-03 0. -1.
         11   -1    0    0    0    0 -0.00000000000E+00 -0.00000000000E+00 -0.45593999997E+02  0.45594000000E+02  0.51100000000E-03 0.  1.
    9900012    2    1    2    0    0  0.39248871147E+02  0.11425564260E+02  0.14581040669E+02  0.47787260928E+02  0.19999953876E+02 0.  0.
         12    1    1    2    0    0 -0.39248871147E+02 -0.11425564260E+02 -0.14581040669E+02  0.43400739072E+02  0.00000000000E+00 0. -1.
         11    1    3    3    0    0  0.20487525200E+02 -0.42524049275E+00  0.10050750436E+02  0.22824046593E+02  0.51100000000E-03 0. -1.
        -11    1    3    3    0    0  0.16260275626E+02  0.46654367936E+01  0.26111299275E+01  0.17116683781E+02  0.51100000000E-03 0.  1.
         12    1    3    3    0    0  0.25010703217E+01  0.71853679594E+01  0.19191603053E+01  0.78465305545E+01  0.00000000000E+00 0. -1.
</event>
<event>
 7    1  0.2459936E-009  0.4778726E+02  0.7816164E-02  0.1312668E+00
        -11   -1    0    0    0    0  0.00000000000E+00  0.00000000000E+00  0.45593999997E+02  0.45594000000E+02  0.51100000000E-03 0.  1.
         11   -1    0    0    0    0 -0.00000000000E+00 -0.00000000000E+00 -0.45593999997E+02  0.45594000000E+02  0.51100000000E-03 0. -1.
    9900012    2    1    2    0    0 -0.63815254026E+01 -0.36818296563E+02  0.22075183902E+02  0.47787256083E+02  0.19999931783E+02 0.  0.
         12    1    1    2    0    0  0.63815254026E+01  0.36818296563E+02 -0.22075183902E+02  0.43400743917E+02  0.00000000000E+00 0. -1.
         11    1    3    3    0    0 -0.40374577891E+01 -0.10265134639E+01  0.17955997938E+01  0.45364054240E+01  0.51100000000E-03 0. -1.
        -11    1    3    3    0    0 -0.82368857481E-01 -0.48667576865E+00 -0.15863507013E+01  0.16613689359E+01  0.51100000000E-03 0.  1.
        -12    1    3    3    0    0 -0.22616987560E+01 -0.35305107331E+02  0.21865934809E+02  0.41589481723E+02  0.00000000000E+00 0.  1.
</event>
<event>
 7    1  0.2459936E-009  0.4778727E+02  0.7816164E-02  0.1312668E+00
        -11   -1    0    0    0    0  0.00000000000E+00  0.00000000000E+00  0.45593999997E+02  0.45594000000E+02  0.51100000000E-03 0. -1.
         11   -1    0    0    0    0 -0.00000000000E+00 -0.00000000000E+00 -0.45593999997E+02  0.45594000000E+02  0.51100000000E-03 0.  1.
    9900012    2    1    2    0    0  0.25710129920E+02 -0.34565128669E+02 -0.52786668238E+01  0.47787271620E+02  0.20000002626E+02 0.  0.
         12    1    1    2    0    0 -0.25710129920E+02  0.34565128669E+02  0.52786668238E+01  0.43400728380E+02  0.00000000000E+00 0. -1.
         11    1    3    3    0    0  0.49198579316E+01 -0.24895531098E+01  0.24964471670E+01  0.60526957195E+01  0.51100000000E-03 0. -1.
        -11    1    3    3    0    0  0.21667600641E+02 -0.21961587462E+02 -0.59602781235E+01  0.31421666999E+02  0.51100000000E-03 0.  1.
        -12    1    3    3    0    0 -0.87732865283E+00 -0.10113988097E+02 -0.18148358673E+01  0.10312908902E+02  0.00000000000E+00 0.  1.
</event>
<event>
 7    1  0.2459936E-009  0.4778727E+02  0.7816164E-02  0.1312668E+00
        -11   -1    0    0    0    0  0.00000000000E+00  0.00000000000E+00  0.45593999997E+02  0.45594000000E+02  0.51100000000E-03 0.  1.
         11   -1    0    0    0    0 -0.00000000000E+00 -0.00000000000E+00 -0.45593999997E+02  0.45594000000E+02  0.51100000000E-03 0. -1.
    9900012    2    1    2    0    0 -0.41810821526E+01  0.91799732518E+01  0.42212203488E+02  0.47787268668E+02  0.19999989163E+02 0.  0.
         12    1    1    2    0    0  0.41810821526E+01 -0.91799732518E+01 -0.42212203488E+02  0.43400731332E+02  0.00000000000E+00 0. -1.
         11    1    3    3    0    0 -0.36849115339E+00 -0.40592646512E+01  0.29624541745E+01  0.50388044451E+01  0.51100000000E-03 0. -1.
        -11    1    3    3    0    0 -0.12757683995E+01  0.60646151462E+01  0.30627855514E+02  0.31248562775E+02  0.51100000000E-03 0.  1.
        -12    1    3    3    0    0 -0.25368225997E+01  0.71746227568E+01  0.86218937994E+01  0.11499901447E+02  0.00000000000E+00 0.  1.
</event>
<event>
 7    1  0.2459936E-009  0.4778727E+02  0.7816164E-02  0.1312668E+00
        -11   -1    0    0    0    0  0.00000000000E+00  0.00000000000E+00  0.45593999997E+02  0.45594000000E+02  0.51100000000E-03 0.  1.
         11   -1    0    0    0    0 -0.00000000000E+00 -0.00000000000E+00 -0.45593999997E+02  0.45594000000E+02  0.51100000000E-03 0. -1.
    9900012    2    1    2    0    0  0.37240093951E+02  0.22277473648E+02  0.71606602661E+00  0.47787272124E+02  0.20000004923E+02 0.  0.
         12    1    1    2    0    0 -0.37240093951E+02 -0.22277473648E+02 -0.71606602661E+00  0.43400727876E+02  0.00000000000E+00 0. -1.
         11    1    3    3    0    0  0.13753135830E+02  0.38523409532E+01 -0.54626301806E+01  0.15291487983E+02  0.51100000000E-03 0. -1.
        -11    1    3    3    0    0  0.75362276293E+01  0.82757677895E+00  0.41889272348E+01  0.86617966869E+01  0.51100000000E-03 0.  1.
        -12    1    3    3    0    0  0.15950730492E+02  0.17597555915E+02  0.19897689724E+01  0.23833987454E+02  0.00000000000E+00 0.  1.
</event>
<event>
 7    1  0.2459936E-009  0.4778733E+02  0.7816164E-02  0.1312667E+00
        -11   -1    0    0    0    0  0.00000000000E+00  0.00000000000E+00  0.45593999997E+02  0.45594000000E+02  0.51100000000E-03 0.  1.
         11   -1    0    0    0    0 -0.00000000000E+00 -0.00000000000E+00 -0.45593999997E+02  0.45594000000E+02  0.51100000000E-03 0. -1.
    9900012    2    1    2    0    0  0.91846045594E+01  0.11254466304E+02  0.40897410692E+02  0.47787329798E+02  0.20000267879E+02 0.  0.
         12    1    1    2    0    0 -0.91846045594E+01 -0.11254466304E+02 -0.40897410692E+02  0.43400670202E+02  0.00000000000E+00 0. -1.
         11    1    3    3    0    0  0.46699804267E+01 -0.19182084813E+01  0.55914186671E+01  0.75334058656E+01  0.51100000000E-03 0. -1.
        -11    1    3    3    0    0  0.29455830622E+01 -0.22550163304E+01  0.87120949324E+01  0.94690103284E+01  0.51100000000E-03 0.  1.
        -12    1    3    3    0    0  0.15690410705E+01  0.15427691116E+02  0.26593897092E+02  0.30784913604E+02  0.00000000000E+00 0.  1.
</event>
<event>
 7    1  0.2459936E-009  0.4778726E+02  0.7816164E-02  0.1312668E+00
        -11   -1    0    0    0    0  0.00000000000E+00  0.00000000000E+00  0.45593999997E+02  0.45594000000E+02  0.51100000000E-03 0.  1.
         11   -1    0    0    0    0 -0.00000000000E+00 -0.00000000000E+00 -0.45593999997E+02  0.45594000000E+02  0.51100000000E-03 0. -1.
    9900012    2    1    2    0    0 -0.38856738640E+02 -0.37275561691E+01  0.18970592774E+02  0.47787260341E+02  0.19999951198E+02 0.  0.
         12    1    1    2    0    0  0.38856738640E+02  0.37275561691E+01 -0.18970592774E+02  0.43400739659E+02  0.00000000000E+00 0. -1.
         11    1    3    3    0    0 -0.69989174799E+00  0.13991086533E+01  0.47640163849E+01  0.50143001365E+01  0.51100000000E-03 0. -1.
        -11    1    3    3    0    0 -0.14464159670E+02  0.10546320753E+01  0.10732655677E+02  0.18042008256E+02  0.51100000000E-03 0.  1.
        -12    1    3    3    0    0 -0.23692687222E+02 -0.61812968977E+01  0.34739207120E+01  0.24730951948E+02  0.00000000000E+00 0.  1.
</event>
<event>
 7    1  0.2459936E-009  0.4778726E+02  0.7816164E-02  0.1312668E+00
        -11   -1    0    0    0    0  0.00000000000E+00  0.00000000000E+00  0.45593999997E+02  0.45594000000E+02  0.51100000000E-03 0.  1.
         11   -1    0    0    0    0 -0.00000000000E+00 -0.00000000000E+00 -0.45593999997E+02  0.45594000000E+02  0.51100000000E-03 0. -1.
    9900012    2    1    2    0    0 -0.16746831141E+02  0.18198309321E+02  0.35664960228E+02  0.47787260335E+02  0.19999951173E+02 0.  0.
         12    1    1    2    0    0  0.16746831141E+02 -0.18198309321E+02 -0.35664960228E+02  0.43400739665E+02  0.00000000000E+00 0. -1.
         11    1    3    3    0    0 -0.13760866779E+01 -0.10311281040E+01  0.71013133584E+01  0.73065375786E+01  0.51100000000E-03 0. -1.
        -11    1    3    3    0    0 -0.78588413705E+01  0.64743502191E+00  0.12569980900E+02  0.14838631335E+02  0.51100000000E-03 0.  1.
        -12    1    3    3    0    0 -0.75119030923E+01  0.18582002403E+02  0.15993665969E+02  0.25642091422E+02  0.00000000000E+00 0.  1.
</event>
<event>
 7    1  0.2459936E-009  0.4778727E+02  0.7816164E-02  0.1312668E+00
        -11   -1    0    0    0    0  0.00000000000E+00  0.00000000000E+00  0.45593999997E+02  0.45594000000E+02  0.51100000000E-03 0. -1.
         11   -1    0    0    0    0 -0.00000000000E+00 -0.00000000000E+00 -0.45593999997E+02  0.45594000000E+02  0.51100000000E-03 0.  1.
    9900012    2    1    2    0    0 -0.10996393773E+02 -0.15373207813E+02 -0.39068751110E+02  0.47787268350E+02  0.19999987713E+02 0.  0.
         12    1    1    2    0    0  0.10996393773E+02  0.15373207813E+02  0.39068751110E+02  0.43400731650E+02  0.00000000000E+00 0. -1.
         11    1    3    3    0    0 -0.59274968178E+01 -0.22569697256E+01 -0.44918680925E+01  0.77721303443E+01  0.51100000000E-03 0. -1.
        -11    1    3    3    0    0 -0.94330733000E+01 -0.97382117415E+01 -0.17940514625E+02  0.22487278738E+02  0.51100000000E-03 0.  1.
        -12    1    3    3    0    0  0.43641763447E+01 -0.33780263458E+01 -0.16636368393E+02  0.17527859267E+02  0.00000000000E+00 0.  1.
</event>
<event>
 7    1  0.2459936E-009  0.4778728E+02  0.7816164E-02  0.1312668E+00
        -11   -1    0    0    0    0  0.00000000000E+00  0.00000000000E+00  0.45593999997E+02  0.45594000000E+02  0.51100000000E-03 0. -1.
         11   -1    0    0    0    0 -0.00000000000E+00 -0.00000000000E+00 -0.45593999997E+02  0.45594000000E+02  0.51100000000E-03 0.  1.
    9900012    2    1    2    0    0 -0.27168567787E+02  0.37567588476E+01 -0.33635967089E+02  0.47787278869E+02  0.20000035676E+02 0.  0.
         12    1    1    2    0    0  0.27168567787E+02 -0.37567588476E+01  0.33635967089E+02  0.43400721131E+02  0.00000000000E+00 0. -1.
         11    1    3    3    0    0 -0.55982346158E+01  0.46169136338E+01 -0.18928901987E+01  0.74992770239E+01  0.51100000000E-03 0. -1.
        -11    1    3    3    0    0 -0.10406034782E+01  0.10686948434E+01 -0.10781859648E+02  0.10884551530E+02  0.51100000000E-03 0.  1.
         12    1    3    3    0    0 -0.20529729693E+02 -0.19288496295E+01 -0.20961217242E+02  0.29403450316E+02  0.00000000000E+00 0. -1.
</event>
<event>
 7    1  0.2459936E-009  0.4778727E+02  0.7816164E-02  0.1312668E+00
        -11   -1    0    0    0    0  0.00000000000E+00  0.00000000000E+00  0.45593999997E+02  0.45594000000E+02  0.51100000000E-03 0.  1.
         11   -1    0    0    0    0 -0.00000000000E+00 -0.00000000000E+00 -0.45593999997E+02  0.45594000000E+02  0.51100000000E-03 0. -1.
    9900012    2    1    2    0    0  0.32761878608E+01  0.43020230013E+02  0.47063198362E+01  0.47787273696E+02  0.20000012091E+02 0.  0.
         12    1    1    2    0    0 -0.32761878608E+01 -0.43020230013E+02 -0.47063198362E+01  0.43400726304E+02  0.00000000000E+00 0. -1.
         11    1    3    3    0    0 -0.57742150873E+00  0.59654654058E+01 -0.68932700391E+00  0.60328571246E+01  0.51100000000E-03 0. -1.
        -11    1    3    3    0    0 -0.23970092174E+00  0.22259047908E+02  0.11713030745E+02  0.25153881604E+02  0.51100000000E-03 0.  1.
        -12    1    3    3    0    0  0.40933102913E+01  0.14795716700E+02 -0.63173839045E+01  0.16600534967E+02  0.00000000000E+00 0.  1.
</event>
<event>
 7    1  0.2459936E-009  0.4778728E+02  0.7816164E-02  0.1312668E+00
        -11   -1    0    0    0    0  0.00000000000E+00  0.00000000000E+00  0.45593999997E+02  0.45594000000E+02  0.51100000000E-03 0.  1.
         11   -1    0    0    0    0 -0.00000000000E+00 -0.00000000000E+00 -0.45593999997E+02  0.45594000000E+02  0.51100000000E-03 0. -1.
    9900012    2    1    2    0    0  0.19733284248E+02 -0.17259399218E+02  0.34588052062E+02  0.47787277494E+02  0.20000029406E+02 0.  0.
         12    1    1    2    0    0 -0.19733284248E+02  0.17259399218E+02 -0.34588052062E+02  0.43400722506E+02  0.00000000000E+00 0. -1.
         11    1    3    3    0    0 -0.18831395195E+01  0.10361143672E+00  0.65719222335E+00  0.19972109701E+01  0.51100000000E-03 0. -1.
        -11    1    3    3    0    0  0.57203863692E+01 -0.31435227057E+01  0.18065044398E+02  0.19208081231E+02  0.51100000000E-03 0.  1.
        -12    1    3    3    0    0  0.15896037399E+02 -0.14219487949E+02  0.15865815441E+02  0.26581985293E+02  0.00000000000E+00 0.  1.
</event>
<event>
 7    1  0.2459936E-009  0.4778727E+02  0.7816164E-02  0.1312668E+00
        -11   -1    0    0    0    0  0.00000000000E+00  0.00000000000E+00  0.45593999997E+02  0.45594000000E+02  0.51100000000E-03 0.  1.
         11   -1    0    0    0    0 -0.00000000000E+00 -0.00000000000E+00 -0.45593999997E+02  0.45594000000E+02  0.51100000000E-03 0. -1.
    9900012    2    1    2    0    0  0.16222499838E+02  0.94525722872E+01  0.39129310781E+02  0.47787267448E+02  0.19999983604E+02 0.  0.
         12    1    1    2    0    0 -0.16222499838E+02 -0.94525722872E+01 -0.39129310781E+02  0.43400732552E+02  0.00000000000E+00 0. -1.
         11    1    3    3    0    0  0.79224811497E+01 -0.37630277137E+01  0.21736255398E+02  0.23439088808E+02  0.51100000000E-03 0. -1.
        -11    1    3    3    0    0  0.16419068647E+01  0.77110613829E+01  0.11292800833E+02  0.13772569721E+02  0.51100000000E-03 0.  1.
        -12    1    3    3    0    0  0.66581118235E+01  0.55045386180E+01  0.61002545496E+01  0.10575608920E+02  0.00000000000E+00 0.  1.
</event>
<event>
 7    1  0.2459936E-009  0.4778728E+02  0.7816164E-02  0.1312668E+00
        -11   -1    0    0    0    0  0.00000000000E+00  0.00000000000E+00  0.45593999997E+02  0.45594000000E+02  0.51100000000E-03 0. -1.
         11   -1    0    0    0    0 -0.00000000000E+00 -0.00000000000E+00 -0.45593999997E+02  0.45594000000E+02  0.51100000000E-03 0.  1.
    9900012    2    1    2    0    0  0.21355436200E+02  0.20211843921E+02 -0.31922556842E+02  0.47787275060E+02  0.20000018310E+02 0.  0.
         12    1    1    2    0    0 -0.21355436200E+02 -0.20211843921E+02  0.31922556842E+02  0.43400724940E+02  0.00000000000E+00 0. -1.
         11    1    3    3    0    0  0.17685282871E+02  0.73164185915E+01 -0.16645170345E+02  0.25364560065E+02  0.51100000000E-03 0. -1.
        -11    1    3    3    0    0  0.48769749267E+01  0.13753683508E+02 -0.14978786777E+02  0.20912024007E+02  0.51100000000E-03 0.  1.
        -12    1    3    3    0    0 -0.12068215977E+01 -0.85825817877E+00 -0.29859972009E+00  0.15106909885E+01  0.00000000000E+00 0.  1.
</event>
<event>
 7    1  0.2459936E-009  0.4778729E+02  0.7816164E-02  0.1312668E+00
        -11   -1    0    0    0    0  0.00000000000E+00  0.00000000000E+00  0.45593999997E+02  0.45594000000E+02  0.51100000000E-03 0.  1.
         11   -1    0    0    0    0 -0.00000000000E+00 -0.00000000000E+00 -0.45593999997E+02  0.45594000000E+02  0.51100000000E-03 0. -1.
    9900012    2    1    2    0    0 -0.26911082158E+02 -0.19700092274E+02  0.27772682000E+02  0.47787287518E+02  0.20000075107E+02 0.  0.
         12    1    1    2    0    0  0.26911082158E+02  0.19700092274E+02 -0.27772682000E+02  0.43400712482E+02  0.00000000000E+00 0. -1.
         11    1    3    3    0    0 -0.16873171715E+01  0.37269237719E+00 -0.26004988753E+01  0.31222641635E+01  0.51100000000E-03 0. -1.
        -11    1    3    3    0    0 -0.24567887798E+01 -0.37998769014E+01  0.25096856626E+01  0.51743016882E+01  0.51100000000E-03 0.  1.
        -12    1    3    3    0    0 -0.22766976207E+02 -0.16272907750E+02  0.27863495212E+02  0.39490721666E+02  0.00000000000E+00 0.  1.
</event>
<event>
 7    1  0.2459936E-009  0.4778727E+02  0.7816164E-02  0.1312668E+00
        -11   -1    0    0    0    0  0.00000000000E+00  0.00000000000E+00  0.45593999997E+02  0.45594000000E+02  0.51100000000E-03 0. -1.
         11   -1    0    0    0    0 -0.00000000000E+00 -0.00000000000E+00 -0.45593999997E+02  0.45594000000E+02  0.51100000000E-03 0.  1.
    9900012    2    1    2    0    0 -0.33328805412E+02 -0.27736775030E+02  0.18668547657E+01  0.47787272979E+02  0.20000008820E+02 0.  0.
         12    1    1    2    0    0  0.33328805412E+02  0.27736775030E+02 -0.18668547657E+01  0.43400727021E+02  0.00000000000E+00 0. -1.
         11    1    3    3    0    0 -0.34492913428E+01 -0.20719339602E+01 -0.95588939237E+00  0.41357279764E+01  0.51100000000E-03 0.  1.
        -11    1    3    3    0    0 -0.12645873955E+02 -0.12274629520E+00  0.21770949841E+01  0.12832495375E+02  0.51100000000E-03 0. -1.
         12    1    3    3    0    0 -0.17233640115E+02 -0.25542094774E+02  0.64564917396E+00  0.30819049627E+02  0.00000000000E+00 0. -1.
</event>
<event>
 7    1  0.2459936E-009  0.4778733E+02  0.7816164E-02  0.1312668E+00
        -11   -1    0    0    0    0  0.00000000000E+00  0.00000000000E+00  0.45593999997E+02  0.45594000000E+02  0.51100000000E-03 0.  1.
         11   -1    0    0    0    0 -0.00000000000E+00 -0.00000000000E+00 -0.45593999997E+02  0.45594000000E+02  0.51100000000E-03 0. -1.
    9900012    2    1    2    0    0  0.50873160436E+01  0.37260627818E+02  0.21665252929E+02  0.47787327720E+02  0.20000258404E+02 0.  0.
         12    1    1    2    0    0 -0.50873160436E+01 -0.37260627818E+02 -0.21665252929E+02  0.43400672280E+02  0.00000000000E+00 0. -1.
         11    1    3    3    0    0 -0.36089364579E+00  0.24751798181E+02  0.13112451238E+02  0.28012820907E+02  0.51100000000E-03 0.  1.
        -11    1    3    3    0    0  0.12932173883E+01  0.74906023434E+01 -0.15454867512E+01  0.77569365241E+01  0.51100000000E-03 0. -1.
        -12    1    3    3    0    0  0.41549923011E+01  0.50182272935E+01  0.10098288442E+02  0.12017570289E+02  0.00000000000E+00 0.  1.
</event>
<event>
 7    1  0.2459936E-009  0.4778728E+02  0.7816164E-02  0.1312668E+00
        -11   -1    0    0    0    0  0.00000000000E+00  0.00000000000E+00  0.45593999997E+02  0.45594000000E+02  0.51100000000E-03 0.  1.
         11   -1    0    0    0    0 -0.00000000000E+00 -0.00000000000E+00 -0.45593999997E+02  0.45594000000E+02  0.51100000000E-03 0. -1.
    9900012    2    1    2    0    0  0.62165322637E+01 -0.39887984302E+02  0.15935059544E+02  0.47787277797E+02  0.20000030789E+02 0.  0.
         12    1    1    2    0    0 -0.62165322637E+01  0.39887984302E+02 -0.15935059544E+02  0.43400722203E+02  0.00000000000E+00 0. -1.
         11    1    3    3    0    0 -0.40137376024E+01 -0.15241928919E+02  0.83448422413E+01  0.17834317453E+02  0.51100000000E-03 0. -1.
        -11    1    3    3    0    0  0.32141239060E+01 -0.17106462612E+02  0.43309033903E+00  0.17411180978E+02  0.51100000000E-03 0.  1.
         12    1    3    3    0    0  0.70161459601E+01 -0.75395927714E+01  0.71571269636E+01  0.12541779366E+02  0.00000000000E+00 0. -1.
</event>
<event>
 7    1  0.2459936E-009  0.4778727E+02  0.7816164E-02  0.1312668E+00
        -11   -1    0    0    0    0  0.00000000000E+00  0.00000000000E+00  0.45593999997E+02  0.45594000000E+02  0.51100000000E-03 0. -1.
         11   -1    0    0    0    0 -0.00000000000E+00 -0.00000000000E+00 -0.45593999997E+02  0.45594000000E+02  0.51100000000E-03 0.  1.
    9900012    2    1    2    0    0 -0.40466675583E+02 -0.15639078164E+02 -0.12208445177E+01  0.47787273510E+02  0.20000011241E+02 0.  0.
         12    1    1    2    0    0  0.40466675583E+02  0.15639078164E+02  0.12208445177E+01  0.43400726490E+02  0.00000000000E+00 0. -1.
         11    1    3    3    0    0 -0.10848216319E+00  0.11881899500E+01 -0.21918808855E+01  0.24955772507E+01  0.51100000000E-03 0. -1.
        -11    1    3    3    0    0 -0.10774168272E+02 -0.10169199562E+02 -0.13634334119E+01  0.14877979454E+02  0.51100000000E-03 0.  1.
         12    1    3    3    0    0 -0.29584025147E+02 -0.66580685513E+01  0.23344697797E+01  0.30413716805E+02  0.00000000000E+00 0. -1.
</event>
<event>
 7    1  0.2459936E-009  0.4778725E+02  0.7816164E-02  0.1312668E+00
        -11   -1    0    0    0    0  0.00000000000E+00  0.00000000000E+00  0.45593999997E+02  0.45594000000E+02  0.51100000000E-03 0. -1.
         11   -1    0    0    0    0 -0.00000000000E+00 -0.00000000000E+00 -0.45593999997E+02  0.45594000000E+02  0.51100000000E-03 0.  1.
    9900012    2    1    2    0    0  0.25817951420E+02 -0.34558895260E+02  0.47688020672E+01  0.47787247353E+02  0.19999891981E+02 0.  0.
         12    1    1    2    0    0 -0.25817951420E+02  0.34558895260E+02 -0.47688020672E+01  0.43400752647E+02  0.00000000000E+00 0. -1.
         11    1    3    3    0    0  0.89449819389E+01 -0.14216404285E+02 -0.34078562320E+01  0.17138621212E+02  0.51100000000E-03 0.  1.
        -11    1    3    3    0    0  0.24096094195E+01 -0.11295177096E+02 -0.39547973957E+00  0.11556108673E+02  0.51100000000E-03 0. -1.
         12    1    3    3    0    0  0.14463360062E+02 -0.90473138796E+01  0.85721380387E+01  0.19092517468E+02  0.00000000000E+00 0. -1.
</event>
<event>
 7    1  0.2459936E-009  0.4778727E+02  0.7816164E-02  0.1312668E+00
        -11   -1    0    0    0    0  0.00000000000E+00  0.00000000000E+00  0.45593999997E+02  0.45594000000E+02  0.51100000000E-03 0. -1.
         11   -1    0    0    0    0 -0.00000000000E+00 -0.00000000000E+00 -0.45593999997E+02  0.45594000000E+02  0.51100000000E-03 0.  1.
    9900012    2    1    2    0    0  0.19056661210E+02 -0.22603090572E+02 -0.31773684794E+02  0.47787273218E+02  0.20000009908E+02 0.  0.
         12    1    1    2    0    0 -0.19056661210E+02  0.22603090572E+02  0.31773684794E+02  0.43400726782E+02  0.00000000000E+00 0. -1.
         11    1    3    3    0    0  0.33485802667E+01 -0.68000418349E+01 -0.86730679428E+01  0.11518492374E+02  0.51100000000E-03 0. -1.
        -11    1    3    3    0    0  0.17464930400E+02 -0.13002444816E+02 -0.24412707318E+02  0.32711888419E+02  0.51100000000E-03 0.  1.
         12    1    3    3    0    0 -0.17568494562E+01 -0.28006039208E+01  0.13120904670E+01  0.35568924255E+01  0.00000000000E+00 0. -1.
</event>
<event>
 7    1  0.2459936E-009  0.4778727E+02  0.7816164E-02  0.1312668E+00
        -11   -1    0    0    0    0  0.00000000000E+00  0.00000000000E+00  0.45593999997E+02  0.45594000000E+02  0.51100000000E-03 0.  1.
         11   -1    0    0    0    0 -0.00000000000E+00 -0.00000000000E+00 -0.45593999997E+02  0.45594000000E+02  0.51100000000E-03 0. -1.
    9900012    2    1    2    0    0  0.41537630262E+02 -0.42111500553E+01  0.11853898308E+02  0.47787269387E+02  0.19999992445E+02 0.  0.
         12    1    1    2    0    0 -0.41537630262E+02  0.42111500553E+01 -0.11853898308E+02  0.43400730613E+02  0.00000000000E+00 0. -1.
         11    1    3    3    0    0  0.10541791116E+02 -0.80965373725E+01  0.26355273782E+01  0.13550988236E+02  0.51100000000E-03 0. -1.
        -11    1    3    3    0    0  0.13019457454E+02 -0.66395470890E+00  0.87248231614E+01  0.15686607272E+02  0.51100000000E-03 0.  1.
         12    1    3    3    0    0  0.17976381692E+02  0.45493420261E+01  0.49354776871E+00  0.18549673879E+02  0.00000000000E+00 0. -1.
</event>
<event>
 7    1  0.2459936E-009  0.4778727E+02  0.7816164E-02  0.1312668E+00
        -11   -1    0    0    0    0  0.00000000000E+00  0.00000000000E+00  0.45593999997E+02  0.45594000000E+02  0.51100000000E-03 0.  1.
         11   -1    0    0    0    0 -0.00000000000E+00 -0.00000000000E+00 -0.45593999997E+02  0.45594000000E+02  0.51100000000E-03 0. -1.
    9900012    2    1    2    0    0 -0.77455884312E+01  0.41934218162E+02 -0.80715863372E+01  0.47787270755E+02  0.19999998682E+02 0.  0.
         12    1    1    2    0    0  0.77455884312E+01 -0.41934218162E+02  0.80715863372E+01  0.43400729245E+02  0.00000000000E+00 0. -1.
         11    1    3    3    0    0 -0.32011307094E+01  0.13998160096E+02 -0.73960578728E+01  0.16152318602E+02  0.51100000000E-03 0. -1.
        -11    1    3    3    0    0 -0.31275072631E+01  0.12651964135E+02 -0.72760815212E+01  0.14926314372E+02  0.51100000000E-03 0.  1.
        -12    1    3    3    0    0 -0.14169504587E+01  0.15284093931E+02  0.66005530568E+01  0.16708637782E+02  0.00000000000E+00 0.  1.
</event>
<event>
 7    1  0.2459936E-009  0.4778727E+02  0.7816164E-02  0.1312668E+00
        -11   -1    0    0    0    0  0.00000000000E+00  0.00000000000E+00  0.45593999997E+02  0.45594000000E+02  0.51100000000E-03 0.  1.
         11   -1    0    0    0    0 -0.00000000000E+00 -0.00000000000E+00 -0.45593999997E+02  0.45594000000E+02  0.51100000000E-03 0. -1.
    9900012    2    1    2    0    0  0.25413390909E+02 -0.31001958975E+01  0.35045277401E+02  0.47787272815E+02  0.20000008071E+02 0.  0.
         12    1    1    2    0    0 -0.25413390909E+02  0.31001958975E+01 -0.35045277401E+02  0.43400727185E+02  0.00000000000E+00 0. -1.
         11    1    3    3    0    0  0.10608715512E+02 -0.37155826727E+01  0.16657900729E+02  0.20095672578E+02  0.51100000000E-03 0. -1.
        -11    1    3    3    0    0  0.16397000027E+02 -0.23787681633E+01  0.11993170216E+02  0.20453759556E+02  0.51100000000E-03 0.  1.
         12    1    3    3    0    0 -0.15923246296E+01  0.29941549386E+01  0.63942064562E+01  0.72378406812E+01  0.00000000000E+00 0. -1.
</event>
<event>
 7    1  0.2459936E-009  0.4778727E+02  0.7816164E-02  0.1312668E+00
        -11   -1    0    0    0    0  0.00000000000E+00  0.00000000000E+00  0.45593999997E+02  0.45594000000E+02  0.51100000000E-03 0.  1.
         11   -1    0    0    0    0 -0.00000000000E+00 -0.00000000000E+00 -0.45593999997E+02  0.45594000000E+02  0.51100000000E-03 0. -1.
    9900012    2    1    2    0    0 -0.25856557492E+02  0.23580586475E+02  0.25671338720E+02  0.47787271255E+02  0.20000000962E+02 0.  0.
         12    1    1    2    0    0  0.25856557492E+02 -0.23580586475E+02 -0.25671338720E+02  0.43400728745E+02  0.00000000000E+00 0. -1.
         11    1    3    3    0    0 -0.36712271340E+01  0.97937890105E+01  0.81345168852E+01  0.13250153851E+02  0.51100000000E-03 0. -1.
        -11    1    3    3    0    0 -0.91440553963E+01  0.10484564653E+02  0.15671470548E+02  0.20955544241E+02  0.51100000000E-03 0.  1.
         12    1    3    3    0    0 -0.13041274962E+02  0.33022328118E+01  0.18653512875E+01  0.13581573164E+02  0.00000000000E+00 0. -1.
</event>
<event>
 7    1  0.2459936E-009  0.4778727E+02  0.7816164E-02  0.1312668E+00
        -11   -1    0    0    0    0  0.00000000000E+00  0.00000000000E+00  0.45593999997E+02  0.45594000000E+02  0.51100000000E-03 0.  1.
         11   -1    0    0    0    0 -0.00000000000E+00 -0.00000000000E+00 -0.45593999997E+02  0.45594000000E+02  0.51100000000E-03 0. -1.
    9900012    2    1    2    0    0  0.13823895004E+02 -0.12721363360E+02  0.39124038840E+02  0.47787267587E+02  0.19999984236E+02 0.  0.
         12    1    1    2    0    0 -0.13823895004E+02  0.12721363360E+02 -0.39124038840E+02  0.43400732413E+02  0.00000000000E+00 0. -1.
         11    1    3    3    0    0  0.19645178112E+01 -0.52129082916E+01  0.50924657797E+01  0.75476453988E+01  0.51100000000E-03 0. -1.
        -11    1    3    3    0    0  0.12835091958E+02 -0.52272881024E+01  0.34947323598E+02  0.37594940530E+02  0.51100000000E-03 0.  1.
        -12    1    3    3    0    0 -0.97571476487E+00 -0.22811669656E+01 -0.91575053799E+00  0.26446816585E+01  0.00000000000E+00 0.  1.
</event>
<event>
 7    1  0.2459936E-009  0.4778725E+02  0.7816164E-02  0.1312668E+00
        -11   -1    0    0    0    0  0.00000000000E+00  0.00000000000E+00  0.45593999997E+02  0.45594000000E+02  0.51100000000E-03 0. -1.
         11   -1    0    0    0    0 -0.00000000000E+00 -0.00000000000E+00 -0.45593999997E+02  0.45594000000E+02  0.51100000000E-03 0.  1.
    9900012    2    1    2    0    0 -0.15125854540E+02  0.15680223288E+02 -0.37536168275E+02  0.47787253385E+02  0.19999919485E+02 0.  0.
         12    1    1    2    0    0  0.15125854540E+02 -0.15680223288E+02  0.37536168275E+02  0.43400746615E+02  0.00000000000E+00 0. -1.
         11    1    3    3    0    0 -0.21439259231E+00 -0.17602841766E+00  0.15999156068E+01  0.16237858225E+01  0.51100000000E-03 0. -1.
        -11    1    3    3    0    0 -0.43597508500E+01 -0.16720993090E+00 -0.31458418183E+01  0.53788202835E+01  0.51100000000E-03 0.  1.
        -12    1    3    3    0    0 -0.10551711098E+02  0.16023461637E+02 -0.35990242063E+02  0.40784647279E+02  0.00000000000E+00 0.  1.
</event>
<event>
 7    1  0.2459936E-009  0.4778727E+02  0.7816164E-02  0.1312668E+00
        -11   -1    0    0    0    0  0.00000000000E+00  0.00000000000E+00  0.45593999997E+02  0.45594000000E+02  0.51100000000E-03 0.  1.
         11   -1    0    0    0    0 -0.00000000000E+00 -0.00000000000E+00 -0.45593999997E+02  0.45594000000E+02  0.51100000000E-03 0. -1.
    9900012    2    1    2    0    0  0.64636445368E+01  0.73665420064E+01  0.42279771217E+02  0.47787266182E+02  0.19999977829E+02 0.  0.
         12    1    1    2    0    0 -0.64636445368E+01 -0.73665420064E+01 -0.42279771217E+02  0.43400733818E+02  0.00000000000E+00 0. -1.
         11    1    3    3    0    0 -0.32169887944E+01 -0.64716332594E+00  0.10875963385E+02  0.11360212018E+02  0.51100000000E-03 0. -1.
        -11    1    3    3    0    0  0.57440049086E+01  0.11021362908E+01  0.26377108964E+02  0.27017775156E+02  0.51100000000E-03 0.  1.
         12    1    3    3    0    0  0.39366284225E+01  0.69115690416E+01  0.50266988671E+01  0.94092790082E+01  0.00000000000E+00 0. -1.
</event>
<event>
 7    1  0.2459936E-009  0.4778727E+02  0.7816164E-02  0.1312668E+00
        -11   -1    0    0    0    0  0.00000000000E+00  0.00000000000E+00  0.45593999997E+02  0.45594000000E+02  0.51100000000E-03 0. -1.
         11   -1    0    0    0    0 -0.00000000000E+00 -0.00000000000E+00 -0.45593999997E+02  0.45594000000E+02  0.51100000000E-03 0.  1.
    9900012    2    1    2    0    0  0.11758803036E+02  0.20224081500E+02 -0.36555994362E+02  0.47787266767E+02  0.19999980497E+02 0.  0.
         12    1    1    2    0    0 -0.11758803036E+02 -0.20224081500E+02  0.36555994362E+02  0.43400733233E+02  0.00000000000E+00 0. -1.
         11    1    3    3    0    0  0.12358092359E+02  0.76201135456E+01 -0.17440379832E+02  0.22692629335E+02  0.51100000000E-03 0. -1.
        -11    1    3    3    0    0  0.37376023626E+01  0.10429032865E+02 -0.15461298044E+02  0.19020676523E+02  0.51100000000E-03 0.  1.
         12    1    3    3    0    0 -0.43368916861E+01  0.21749350897E+01 -0.36543164868E+01  0.60739609093E+01  0.00000000000E+00 0. -1.
</event>
<event>
 7    1  0.2459936E-009  0.4778727E+02  0.7816164E-02  0.1312668E+00
        -11   -1    0    0    0    0  0.00000000000E+00  0.00000000000E+00  0.45593999997E+02  0.45594000000E+02  0.51100000000E-03 0.  1.
         11   -1    0    0    0    0 -0.00000000000E+00 -0.00000000000E+00 -0.45593999997E+02  0.45594000000E+02  0.51100000000E-03 0. -1.
    9900012    2    1    2    0    0 -0.11046225832E+01 -0.40050825396E+02  0.16683352877E+02  0.47787273402E+02  0.20000010751E+02 0.  0.
         12    1    1    2    0    0  0.11046225832E+01  0.40050825396E+02 -0.16683352877E+02  0.43400726598E+02  0.00000000000E+00 0. -1.
         11    1    3    3    0    0 -0.88146601832E+00 -0.26352552957E+02  0.89722196916E+01  0.27852015298E+02  0.51100000000E-03 0. -1.
        -11    1    3    3    0    0 -0.42825397626E+01 -0.13576204938E+02  0.51743558443E+01  0.15146862580E+02  0.51100000000E-03 0.  1.
         12    1    3    3    0    0  0.40593831978E+01 -0.12206750064E+00  0.25367773414E+01  0.47883955247E+01  0.00000000000E+00 0. -1.
</event>
<event>
 7    1  0.2459936E-009  0.4778727E+02  0.7816164E-02  0.1312668E+00
        -11   -1    0    0    0    0  0.00000000000E+00  0.00000000000E+00  0.45593999997E+02  0.45594000000E+02  0.51100000000E-03 0.  1.
         11   -1    0    0    0    0 -0.00000000000E+00 -0.00000000000E+00 -0.45593999997E+02  0.45594000000E+02  0.51100000000E-03 0. -1.
    9900012    2    1    2    0    0 -0.16608814137E+02  0.33731187352E+02  0.21678973344E+02  0.47787267374E+02  0.19999983266E+02 0.  0.
         12    1    1    2    0    0  0.16608814137E+02 -0.33731187352E+02 -0.21678973344E+02  0.43400732626E+02  0.00000000000E+00 0. -1.
         11    1    3    3    0    0 -0.67521247887E+01  0.60454146911E+01  0.22750129814E+00  0.90658692385E+01  0.51100000000E-03 0. -1.
        -11    1    3    3    0    0 -0.18169773361E+01  0.44345177280E+00 -0.13425914468E+01  0.23023049687E+01  0.51100000000E-03 0.  1.
        -12    1    3    3    0    0 -0.80397120118E+01  0.27242320888E+02  0.22794063493E+02  0.36419093167E+02  0.00000000000E+00 0.  1.
</event>
<event>
 7    1  0.2459936E-009  0.4778727E+02  0.7816164E-02  0.1312668E+00
        -11   -1    0    0    0    0  0.00000000000E+00  0.00000000000E+00  0.45593999997E+02  0.45594000000E+02  0.51100000000E-03 0.  1.
         11   -1    0    0    0    0 -0.00000000000E+00 -0.00000000000E+00 -0.45593999997E+02  0.45594000000E+02  0.51100000000E-03 0. -1.
    9900012    2    1    2    0    0 -0.39675008707E+02 -0.13723472491E+02  0.11008339353E+02  0.47787267881E+02  0.19999985577E+02 0.  0.
         12    1    1    2    0    0  0.39675008707E+02  0.13723472491E+02 -0.11008339353E+02  0.43400732119E+02  0.00000000000E+00 0. -1.
         11    1    3    3    0    0 -0.92476998587E+01 -0.60771317806E+01  0.34850110657E+01  0.11601585484E+02  0.51100000000E-03 0.  1.
        -11    1    3    3    0    0  0.22032618979E+00 -0.11141683725E+01 -0.29377320860E+01  0.31496324964E+01  0.51100000000E-03 0. -1.
        -12    1    3    3    0    0 -0.30647635039E+02 -0.65321723380E+01  0.10461060373E+02  0.33036049901E+02  0.00000000000E+00 0.  1.
</event>
<event>
 7    1  0.2459936E-009  0.4778726E+02  0.7816164E-02  0.1312668E+00
        -11   -1    0    0    0    0  0.00000000000E+00  0.00000000000E+00  0.45593999997E+02  0.45594000000E+02  0.51100000000E-03 0.  1.
         11   -1    0    0    0    0 -0.00000000000E+00 -0.00000000000E+00 -0.45593999997E+02  0.45594000000E+02  0.51100000000E-03 0. -1.
    9900012    2    1    2    0    0 -0.22651589933E+02 -0.99658798265E+01  0.35654049010E+02  0.47787256942E+02  0.19999935699E+02 0.  0.
         12    1    1    2    0    0  0.22651589933E+02  0.99658798265E+01 -0.35654049010E+02  0.43400743058E+02  0.00000000000E+00 0. -1.
         11    1    3    3    0    0  0.70891507965E+00 -0.36170583411E+01  0.39625002033E+01  0.54117538521E+01  0.51100000000E-03 0. -1.
        -11    1    3    3    0    0 -0.15075198772E+02 -0.63890560487E+01  0.29605616439E+02  0.33831555983E+02  0.51100000000E-03 0.  1.
        -12    1    3    3    0    0 -0.82853062406E+01  0.40234563264E-01  0.20859323678E+01  0.85439471068E+01  0.00000000000E+00 0.  1.
</event>
<event>
 7    1  0.2459936E-009  0.4778727E+02  0.7816164E-02  0.1312668E+00
        -11   -1    0    0    0    0  0.00000000000E+00  0.00000000000E+00  0.45593999997E+02  0.45594000000E+02  0.51100000000E-03 0. -1.
         11   -1    0    0    0    0 -0.00000000000E+00 -0.00000000000E+00 -0.45593999997E+02  0.45594000000E+02  0.51100000000E-03 0.  1.
    9900012    2    1    2    0    0  0.37939539104E+01 -0.23741793832E+02 -0.36132486752E+02  0.47787268906E+02  0.19999990248E+02 0.  0.
         12    1    1    2    0    0 -0.37939539104E+01  0.23741793832E+02  0.36132486752E+02  0.43400731094E+02  0.00000000000E+00 0. -1.
         11    1    3    3    0    0 -0.58192927914E+00 -0.15604247299E+02 -0.20810862203E+02  0.26017747046E+02  0.51100000000E-03 0. -1.
        -11    1    3    3    0    0  0.20410656274E+00 -0.96535738200E+01 -0.57991685173E+01  0.11263369955E+02  0.51100000000E-03 0.  1.
        -12    1    3    3    0    0  0.41717766268E+01  0.15160272875E+01 -0.95224560324E+01  0.10506151905E+02  0.00000000000E+00 0.  1.
</event>
<event>
 7    1  0.2459936E-009  0.4778727E+02  0.7816164E-02  0.1312668E+00
        -11   -1    0    0    0    0  0.00000000000E+00  0.00000000000E+00  0.45593999997E+02  0.45594000000E+02  0.51100000000E-03 0.  1.
         11   -1    0    0    0    0 -0.00000000000E+00 -0.00000000000E+00 -0.45593999997E+02  0.45594000000E+02  0.51100000000E-03 0. -1.
    9900012    2    1    2    0    0 -0.26801589383E+02 -0.77255659246E+01  0.33250769356E+02  0.47787271607E+02  0.20000002564E+02 0.  0.
         12    1    1    2    0    0  0.26801589383E+02  0.77255659246E+01 -0.33250769356E+02  0.43400728393E+02  0.00000000000E+00 0. -1.
         11    1    3    3    0    0 -0.20411422811E-01 -0.15728888834E+01  0.80774027517E+01  0.82291452497E+01  0.51100000000E-03 0. -1.
        -11    1    3    3    0    0 -0.71171547105E+01 -0.66380276967E+01  0.36336965951E+01  0.10388505864E+02  0.51100000000E-03 0.  1.
        -12    1    3    3    0    0 -0.19664023250E+02  0.48535065558E+00  0.21539670009E+02  0.29169620493E+02  0.00000000000E+00 0.  1.
</event>
<event>
 7    1  0.2459936E-009  0.4778727E+02  0.7816164E-02  0.1312668E+00
        -11   -1    0    0    0    0  0.00000000000E+00  0.00000000000E+00  0.45593999997E+02  0.45594000000E+02  0.51100000000E-03 0. -1.
         11   -1    0    0    0    0 -0.00000000000E+00 -0.00000000000E+00 -0.45593999997E+02  0.45594000000E+02  0.51100000000E-03 0.  1.
    9900012    2    1    2    0    0  0.19841155634E+02 -0.80763285491E+01 -0.37745532603E+02  0.47787265315E+02  0.19999973877E+02 0.  0.
         12    1    1    2    0    0 -0.19841155634E+02  0.80763285491E+01  0.37745532603E+02  0.43400734685E+02  0.00000000000E+00 0. -1.
         11    1    3    3    0    0  0.42113763127E+01 -0.25435746415E+01 -0.83470152989E+01  0.96890725596E+01  0.51100000000E-03 0. -1.
        -11    1    3    3    0    0  0.97950280919E+01 -0.20188477349E+01 -0.29641023173E+02  0.31282720094E+02  0.51100000000E-03 0.  1.
         12    1    3    3    0    0  0.58347512294E+01 -0.35139061727E+01  0.24250586873E+00  0.68154726612E+01  0.00000000000E+00 0. -1.
</event>
<event>
 7    1  0.2459936E-009  0.4778726E+02  0.7816164E-02  0.1312668E+00
        -11   -1    0    0    0    0  0.00000000000E+00  0.00000000000E+00  0.45593999997E+02  0.45594000000E+02  0.51100000000E-03 0.  1.
         11   -1    0    0    0    0 -0.00000000000E+00 -0.00000000000E+00 -0.45593999997E+02  0.45594000000E+02  0.51100000000E-03 0. -1.
    9900012    2    1    2    0    0  0.31932696061E+02 -0.19978507484E+02  0.21558896654E+02  0.47787264247E+02  0.19999969006E+02 0.  0.
         12    1    1    2    0    0 -0.31932696061E+02  0.19978507484E+02 -0.21558896654E+02  0.43400735753E+02  0.00000000000E+00 0. -1.
         11    1    3    3    0    0  0.10704874558E+02 -0.60611876987E+01  0.42625864138E+01  0.13019292562E+02  0.51100000000E-03 0. -1.
        -11    1    3    3    0    0  0.17154387420E+02 -0.14582716575E+02  0.19764059671E+02  0.29959083521E+02  0.51100000000E-03 0.  1.
         12    1    3    3    0    0  0.40734340830E+01  0.66539679044E+00 -0.24677494306E+01  0.48088881635E+01  0.00000000000E+00 0. -1.
</event>
<event>
 7    1  0.2459936E-009  0.4778727E+02  0.7816164E-02  0.1312668E+00
        -11   -1    0    0    0    0  0.00000000000E+00  0.00000000000E+00  0.45593999997E+02  0.45594000000E+02  0.51100000000E-03 0.  1.
         11   -1    0    0    0    0 -0.00000000000E+00 -0.00000000000E+00 -0.45593999997E+02  0.45594000000E+02  0.51100000000E-03 0. -1.
    9900012    2    1    2    0    0  0.41174231749E+02  0.20015358326E+01  0.13575702899E+02  0.47787271722E+02  0.20000003091E+02 0.  0.
         12    1    1    2    0    0 -0.41174231749E+02 -0.20015358326E+01 -0.13575702899E+02  0.43400728278E+02  0.00000000000E+00 0. -1.
         11    1    3    3    0    0  0.74726755147E+01 -0.42953408214E+01  0.14653832591E+01  0.87428931411E+01  0.51100000000E-03 0. -1.
        -11    1    3    3    0    0  0.14194876603E+02  0.96660816351E+00  0.12321448079E+02  0.18821448832E+02  0.51100000000E-03 0.  1.
         12    1    3    3    0    0  0.19506679632E+02  0.53302684905E+01 -0.21112843874E+00  0.20222929749E+02  0.00000000000E+00 0. -1.
</event>
<event>
 7    1  0.2459936E-009  0.4778727E+02  0.7816164E-02  0.1312668E+00
        -11   -1    0    0    0    0  0.00000000000E+00  0.00000000000E+00  0.45593999997E+02  0.45594000000E+02  0.51100000000E-03 0.  1.
         11   -1    0    0    0    0 -0.00000000000E+00 -0.00000000000E+00 -0.45593999997E+02  0.45594000000E+02  0.51100000000E-03 0. -1.
    9900012    2    1    2    0    0 -0.65766947540E+01  0.35338849141E+02  0.24321512304E+02  0.47787272665E+02  0.20000007388E+02 0.  0.
         12    1    1    2    0    0  0.65766947540E+01 -0.35338849141E+02 -0.24321512304E+02  0.43400727335E+02  0.00000000000E+00 0. -1.
         11    1    3    3    0    0  0.28266848978E+01  0.12723387706E+02  0.39371373510E+01  0.13615277926E+02  0.51100000000E-03 0. -1.
        -11    1    3    3    0    0  0.12365051073E+01  0.51394658047E-01  0.43355768004E+01  0.45087484677E+01  0.51100000000E-03 0.  1.
        -12    1    3    3    0    0 -0.10639884759E+02  0.22564066776E+02  0.16048798152E+02  0.29663246271E+02  0.00000000000E+00 0.  1.
</event>
<event>
 7    1  0.2655862E-009  0.4778727E+02  0.7816164E-02  0.1312668E+00
        -11   -1    0    0    0    0  0.00000000000E+00  0.00000000000E+00  0.45593999997E+02  0.45594000000E+02  0.51100000000E-03 0. -1.
         11   -1    0    0    0    0 -0.00000000000E+00 -0.00000000000E+00 -0.45593999997E+02  0.45594000000E+02  0.51100000000E-03 0.  1.
    9900012    2    1    2    0    0  0.41570463038E+02 -0.23322080867E+01 -0.12250735809E+02  0.47787272821E+02  0.20000008101E+02 0.  0.
         12    1    1    2    0    0 -0.41570463038E+02  0.23322080867E+01  0.12250735809E+02  0.43400727179E+02  0.00000000000E+00 0. -1.
         11    1    3    3    0    0  0.45009994420E+00  0.20503201157E+01  0.82488816702E+00  0.22554031315E+01  0.51100000000E-03 0. -1.
        -11    1    3    3    0    0  0.23323800551E+02  0.35924714095E+01 -0.36773593329E+01  0.23883644925E+02  0.51100000000E-03 0.  1.
        -12    1    3    3    0    0  0.17796562543E+02 -0.79749996119E+01 -0.93982646435E+01  0.21648224765E+02  0.00000000000E+00 0.  1.
</event>
<event>
 7    1  0.2459936E-009  0.4778727E+02  0.7816164E-02  0.1312668E+00
        -11   -1    0    0    0    0  0.00000000000E+00  0.00000000000E+00  0.45593999997E+02  0.45594000000E+02  0.51100000000E-03 0. -1.
         11   -1    0    0    0    0 -0.00000000000E+00 -0.00000000000E+00 -0.45593999997E+02  0.45594000000E+02  0.51100000000E-03 0.  1.
    9900012    2    1    2    0    0 -0.39494217969E+02 -0.75380996172E+01  0.16340356838E+02  0.47787268895E+02  0.19999990201E+02 0.  0.
         12    1    1    2    0    0  0.39494217969E+02  0.75380996172E+01 -0.16340356838E+02  0.43400731105E+02  0.00000000000E+00 0. -1.
         11    1    3    3    0    0 -0.10599971361E+02 -0.66157904885E+01  0.40661015313E+01  0.13140063111E+02  0.51100000000E-03 0.  1.
        -11    1    3    3    0    0  0.15459215042E+01 -0.39407894543E+00 -0.43896490798E+00  0.16546485922E+01  0.51100000000E-03 0. -1.
         12    1    3    3    0    0 -0.30440168112E+02 -0.52823018330E+00  0.12713220215E+02  0.32992557192E+02  0.00000000000E+00 0. -1.
</event>
<event>
 7    1  0.2459936E-009  0.4778727E+02  0.7816164E-02  0.1312668E+00
        -11   -1    0    0    0    0  0.00000000000E+00  0.00000000000E+00  0.45593999997E+02  0.45594000000E+02  0.51100000000E-03 0. -1.
         11   -1    0    0    0    0 -0.00000000000E+00 -0.00000000000E+00 -0.45593999997E+02  0.45594000000E+02  0.51100000000E-03 0.  1.
    9900012    2    1    2    0    0  0.42605673225E+02  0.56192951566E+01  0.60665792902E+01  0.47787271281E+02  0.20000001080E+02 0.  0.
         12    1    1    2    0    0 -0.42605673225E+02 -0.56192951566E+01 -0.60665792902E+01  0.43400728719E+02  0.00000000000E+00 0. -1.
         11    1    3    3    0    0  0.83328128762E+01  0.71329764901E+01  0.93804010582E+00  0.11008862046E+02  0.51100000000E-03 0. -1.
        -11    1    3    3    0    0  0.22743287396E+02  0.42315297328E+01  0.58984053125E+01  0.23873712550E+02  0.51100000000E-03 0.  1.
         12    1    3    3    0    0  0.11529572953E+02 -0.57452110664E+01 -0.76986612815E+00  0.12904696685E+02  0.00000000000E+00 0. -1.
</event>
<event>
 7    1  0.2459936E-009  0.4778727E+02  0.7816164E-02  0.1312668E+00
        -11   -1    0    0    0    0  0.00000000000E+00  0.00000000000E+00  0.45593999997E+02  0.45594000000E+02  0.51100000000E-03 0. -1.
         11   -1    0    0    0    0 -0.00000000000E+00 -0.00000000000E+00 -0.45593999997E+02  0.45594000000E+02  0.51100000000E-03 0.  1.
    9900012    2    1    2    0    0 -0.31332499487E+02  0.40381383017E+01  0.29758882467E+02  0.47787272233E+02  0.20000005418E+02 0.  0.
         12    1    1    2    0    0  0.31332499487E+02 -0.40381383017E+01 -0.29758882467E+02  0.43400727767E+02  0.00000000000E+00 0. -1.
         11    1    3    3    0    0 -0.50923036849E+01  0.44130483211E+00  0.97017272770E+00  0.52026476103E+01  0.51100000000E-03 0. -1.
        -11    1    3    3    0    0 -0.27335777486E+02  0.52927694089E+01  0.21952811362E+02  0.35456791532E+02  0.51100000000E-03 0.  1.
         12    1    3    3    0    0  0.10955816843E+01 -0.16959359394E+01  0.68358983777E+01  0.71278330906E+01  0.00000000000E+00 0. -1.
</event>
<event>
 7    1  0.2459936E-009  0.4778728E+02  0.7816164E-02  0.1312668E+00
        -11   -1    0    0    0    0  0.00000000000E+00  0.00000000000E+00  0.45593999997E+02  0.45594000000E+02  0.51100000000E-03 0.  1.
         11   -1    0    0    0    0 -0.00000000000E+00 -0.00000000000E+00 -0.45593999997E+02  0.45594000000E+02  0.51100000000E-03 0. -1.
    9900012    2    1    2    0    0  0.13266048191E+02  0.87297171134E+01  0.40390924704E+02  0.47787276574E+02  0.20000025211E+02 0.  0.
         12    1    1    2    0    0 -0.13266048191E+02 -0.87297171134E+01 -0.40390924704E+02  0.43400723426E+02  0.00000000000E+00 0. -1.
         11    1    3    3    0    0  0.76845126420E+01  0.86933913596E+01  0.19347504711E+02  0.22559980644E+02  0.51100000000E-03 0. -1.
        -11    1    3    3    0    0  0.31668064692E+01  0.55064108051E+01  0.16611383532E+02  0.17784467557E+02  0.51100000000E-03 0.  1.
         12    1    3    3    0    0  0.24147290799E+01 -0.54700850513E+01  0.44320364608E+01  0.74428283729E+01  0.00000000000E+00 0. -1.
</event>
<event>
 7    1  0.2459936E-009  0.4778727E+02  0.7816164E-02  0.1312668E+00
        -11   -1    0    0    0    0  0.00000000000E+00  0.00000000000E+00  0.45593999997E+02  0.45594000000E+02  0.51100000000E-03 0. -1.
         11   -1    0    0    0    0 -0.00000000000E+00 -0.00000000000E+00 -0.45593999997E+02  0.45594000000E+02  0.51100000000E-03 0.  1.
    9900012    2    1    2    0    0  0.24728413913E+02  0.33397643240E+02  0.12519045079E+02  0.47787268228E+02  0.19999987157E+02 0.  0.
         12    1    1    2    0    0 -0.24728413913E+02 -0.33397643240E+02 -0.12519045079E+02  0.43400731772E+02  0.00000000000E+00 0. -1.
         11    1    3    3    0    0 -0.68388311831E+00  0.20691859998E+01 -0.28711345726E+00  0.21981040056E+01  0.51100000000E-03 0. -1.
        -11    1    3    3    0    0  0.83817852097E+01  0.15559011176E+02  0.13700713037E+02  0.22361723772E+02  0.51100000000E-03 0.  1.
         12    1    3    3    0    0  0.17030511822E+02  0.15769446065E+02 -0.89455450027E+00  0.23227440450E+02  0.00000000000E+00 0. -1.
</event>
<event>
 7    1  0.2459936E-009  0.4778727E+02  0.7816164E-02  0.1312668E+00
        -11   -1    0    0    0    0  0.00000000000E+00  0.00000000000E+00  0.45593999997E+02  0.45594000000E+02  0.51100000000E-03 0. -1.
         11   -1    0    0    0    0 -0.00000000000E+00 -0.00000000000E+00 -0.45593999997E+02  0.45594000000E+02  0.51100000000E-03 0.  1.
    9900012    2    1    2    0    0  0.15494141180E+02  0.58266347094E+01 -0.40119883749E+02  0.47787272415E+02  0.20000006247E+02 0.  0.
         12    1    1    2    0    0 -0.15494141180E+02 -0.58266347094E+01  0.40119883749E+02  0.43400727585E+02  0.00000000000E+00 0. -1.
         11    1    3    3    0    0  0.78521964289E+01  0.19966860527E+01 -0.29749251570E+02  0.30832802552E+02  0.51100000000E-03 0. -1.
        -11    1    3    3    0    0  0.25516505957E+01  0.56386093854E+01 -0.97064363456E+01  0.11511721998E+02  0.51100000000E-03 0.  1.
         12    1    3    3    0    0  0.50902941552E+01 -0.18086607287E+01 -0.66419583286E+00  0.54427478650E+01  0.00000000000E+00 0. -1.
</event>
<event>
 7    1  0.2459936E-009  0.4778727E+02  0.7816164E-02  0.1312668E+00
        -11   -1    0    0    0    0  0.00000000000E+00  0.00000000000E+00  0.45593999997E+02  0.45594000000E+02  0.51100000000E-03 0.  1.
         11   -1    0    0    0    0 -0.00000000000E+00 -0.00000000000E+00 -0.45593999997E+02  0.45594000000E+02  0.51100000000E-03 0. -1.
    9900012    2    1    2    0    0 -0.42384634047E+02  0.88324660606E+01 -0.30254843230E+01  0.47787271718E+02  0.20000003070E+02 0.  0.
         12    1    1    2    0    0  0.42384634047E+02 -0.88324660606E+01  0.30254843230E+01  0.43400728282E+02  0.00000000000E+00 0. -1.
         11    1    3    3    0    0 -0.40569320253E+01 -0.80895896266E+00 -0.25846977325E+01  0.48778862933E+01  0.51100000000E-03 0. -1.
        -11    1    3    3    0    0 -0.35189799450E+02  0.11733876491E+02 -0.45022739282E+01  0.37366780884E+02  0.51100000000E-03 0.  1.
         12    1    3    3    0    0 -0.31379025717E+01 -0.20924514676E+01  0.40614873377E+01  0.55426045401E+01  0.00000000000E+00 0. -1.
</event>
<event>
 7    1  0.2459936E-009  0.4778727E+02  0.7816164E-02  0.1312668E+00
        -11   -1    0    0    0    0  0.00000000000E+00  0.00000000000E+00  0.45593999997E+02  0.45594000000E+02  0.51100000000E-03 0.  1.
         11   -1    0    0    0    0 -0.00000000000E+00 -0.00000000000E+00 -0.45593999997E+02  0.45594000000E+02  0.51100000000E-03 0. -1.
    9900012    2    1    2    0    0 -0.27221640154E+02 -0.15513681771E+02  0.30032170688E+02  0.47787270847E+02  0.19999999101E+02 0.  0.
         12    1    1    2    0    0  0.27221640154E+02  0.15513681771E+02 -0.30032170688E+02  0.43400729153E+02  0.00000000000E+00 0. -1.
         11    1    3    3    0    0  0.27701098697E+00 -0.47507264262E+01  0.47646087851E+01  0.67340651764E+01  0.51100000000E-03 0. -1.
        -11    1    3    3    0    0 -0.66193384234E+01  0.20689431126E+01  0.18992018923E+01  0.71904891945E+01  0.51100000000E-03 0.  1.
        -12    1    3    3    0    0 -0.20879312717E+02 -0.12831898457E+02  0.23368360011E+02  0.33862716476E+02  0.00000000000E+00 0.  1.
</event>
<event>
 7    1  0.2459936E-009  0.4778727E+02  0.7816164E-02  0.1312668E+00
        -11   -1    0    0    0    0  0.00000000000E+00  0.00000000000E+00  0.45593999997E+02  0.45594000000E+02  0.51100000000E-03 0.  1.
         11   -1    0    0    0    0 -0.00000000000E+00 -0.00000000000E+00 -0.45593999997E+02  0.45594000000E+02  0.51100000000E-03 0. -1.
    9900012    2    1    2    0    0  0.11044133554E+02 -0.24734977563E+02  0.33909161368E+02  0.47787271599E+02  0.20000002530E+02 0.  0.
         12    1    1    2    0    0 -0.11044133554E+02  0.24734977563E+02 -0.33909161368E+02  0.43400728401E+02  0.00000000000E+00 0. -1.
         11    1    3    3    0    0  0.10819782832E+02 -0.11518555348E+02  0.13800614496E+02  0.20980986121E+02  0.51100000000E-03 0. -1.
        -11    1    3    3    0    0  0.21218791336E+01 -0.14592130607E+01  0.12296746510E+02  0.12563504638E+02  0.51100000000E-03 0.  1.
        -12    1    3    3    0    0 -0.18975284124E+01 -0.11757209154E+02  0.78118003623E+01  0.14242780840E+02  0.00000000000E+00 0.  1.
</event>
<event>
 7    1  0.2459936E-009  0.4778727E+02  0.7816164E-02  0.1312668E+00
        -11   -1    0    0    0    0  0.00000000000E+00  0.00000000000E+00  0.45593999997E+02  0.45594000000E+02  0.51100000000E-03 0.  1.
         11   -1    0    0    0    0 -0.00000000000E+00 -0.00000000000E+00 -0.45593999997E+02  0.45594000000E+02  0.51100000000E-03 0. -1.
    9900012    2    1    2    0    0  0.37545138047E+01 -0.43050837002E+02 -0.40189934787E+01  0.47787271330E+02  0.20000001301E+02 0.  0.
         12    1    1    2    0    0 -0.37545138047E+01  0.43050837002E+02  0.40189934787E+01  0.43400728670E+02  0.00000000000E+00 0. -1.
         11    1    3    3    0    0 -0.22123926045E+01 -0.24148448206E+01  0.19564155252E+01  0.38149336183E+01  0.51100000000E-03 0. -1.
        -11    1    3    3    0    0  0.16404926163E+01 -0.46635256096E+01  0.40371026913E+01  0.63826237189E+01  0.51100000000E-03 0.  1.
         12    1    3    3    0    0  0.43264137929E+01 -0.35972466572E+02 -0.10012511695E+02  0.37589713993E+02  0.00000000000E+00 0. -1.
</event>
<event>
 7    1  0.2459936E-009  0.4778726E+02  0.7816164E-02  0.1312668E+00
        -11   -1    0    0    0    0  0.00000000000E+00  0.00000000000E+00  0.45593999997E+02  0.45594000000E+02  0.51100000000E-03 0.  1.
         11   -1    0    0    0    0 -0.00000000000E+00 -0.00000000000E+00 -0.45593999997E+02  0.45594000000E+02  0.51100000000E-03 0. -1.
    9900012    2    1    2    0    0 -0.37307537754E+01 -0.37403511567E+02  0.21695229896E+02  0.47787260358E+02  0.19999951276E+02 0.  0.
         12    1    1    2    0    0  0.37307537754E+01  0.37403511567E+02 -0.21695229896E+02  0.43400739642E+02  0.00000000000E+00 0. -1.
         11    1    3    3    0    0  0.93504088217E+00 -0.45020824998E+01 -0.15471509185E+01  0.48514662230E+01  0.51100000000E-03 0. -1.
        -11    1    3    3    0    0 -0.60413391786E+01 -0.71619782265E+01  0.21101719420E+01  0.96044019634E+01  0.51100000000E-03 0.  1.
        -12    1    3    3    0    0  0.13755445211E+01 -0.25739450840E+02  0.21132208872E+02  0.33331392172E+02  0.00000000000E+00 0.  1.
</event>
<event>
 7    1  0.2459936E-009  0.4778727E+02  0.7816164E-02  0.1312668E+00
        -11   -1    0    0    0    0  0.00000000000E+00  0.00000000000E+00  0.45593999997E+02  0.45594000000E+02  0.51100000000E-03 0.  1.
         11   -1    0    0    0    0 -0.00000000000E+00 -0.00000000000E+00 -0.45593999997E+02  0.45594000000E+02  0.51100000000E-03 0. -1.
    9900012    2    1    2    0    0 -0.23203091645E+02  0.12947864605E+02  0.34316067363E+02  0.47787272598E+02  0.20000007085E+02 0.  0.
         12    1    1    2    0    0  0.23203091645E+02 -0.12947864605E+02 -0.34316067363E+02  0.43400727402E+02  0.00000000000E+00 0. -1.
         11    1    3    3    0    0  0.32058777097E+01  0.50017397311E+00  0.60773961100E+01  0.68893083566E+01  0.51100000000E-03 0. -1.
        -11    1    3    3    0    0 -0.73606227250E+01  0.37773820335E+01  0.51964373570E+01  0.97698691594E+01  0.51100000000E-03 0.  1.
        -12    1    3    3    0    0 -0.19048346630E+02  0.86703085988E+01  0.23042233896E+02  0.31128095082E+02  0.00000000000E+00 0.  1.
</event>
<event>
 7    1  0.2459936E-009  0.4778727E+02  0.7816164E-02  0.1312668E+00
        -11   -1    0    0    0    0  0.00000000000E+00  0.00000000000E+00  0.45593999997E+02  0.45594000000E+02  0.51100000000E-03 0.  1.
         11   -1    0    0    0    0 -0.00000000000E+00 -0.00000000000E+00 -0.45593999997E+02  0.45594000000E+02  0.51100000000E-03 0. -1.
    9900012    2    1    2    0    0 -0.10505442948E+02  0.28470653394E+02  0.31027098076E+02  0.47787271305E+02  0.20000001187E+02 0.  0.
         12    1    1    2    0    0  0.10505442948E+02 -0.28470653394E+02 -0.31027098076E+02  0.43400728695E+02  0.00000000000E+00 0. -1.
         11    1    3    3    0    0 -0.24520726413E+00  0.19075871076E+02  0.14972376177E+02  0.24251206828E+02  0.51100000000E-03 0.  1.
        -11    1    3    3    0    0  0.17236283992E+01  0.12902829736E-01  0.31117192438E+01  0.35572262023E+01  0.51100000000E-03 0. -1.
         12    1    3    3    0    0 -0.11983864083E+02  0.93818794881E+01  0.12943002655E+02  0.19978838275E+02  0.00000000000E+00 0. -1.
</event>
<event>
 7    1  0.2459936E-009  0.4778727E+02  0.7816164E-02  0.1312668E+00
        -11   -1    0    0    0    0  0.00000000000E+00  0.00000000000E+00  0.45593999997E+02  0.45594000000E+02  0.51100000000E-03 0.  1.
         11   -1    0    0    0    0 -0.00000000000E+00 -0.00000000000E+00 -0.45593999997E+02  0.45594000000E+02  0.51100000000E-03 0. -1.
    9900012    2    1    2    0    0  0.12748011359E+01  0.89434812901E+01  0.42450112285E+02  0.47787274101E+02  0.20000013937E+02 0.  0.
         12    1    1    2    0    0 -0.12748011359E+01 -0.89434812901E+01 -0.42450112285E+02  0.43400725899E+02  0.00000000000E+00 0. -1.
         11    1    3    3    0    0 -0.11062623504E+01  0.16032221733E+00  0.14800486881E+00  0.11275749659E+01  0.51100000000E-03 0. -1.
        -11    1    3    3    0    0 -0.45745431006E+01  0.37561461865E+01  0.34680184633E+02  0.35181675417E+02  0.51100000000E-03 0.  1.
        -12    1    3    3    0    0  0.69556065869E+01  0.50270128863E+01  0.76219227837E+01  0.11478023718E+02  0.00000000000E+00 0.  1.
</event>
<event>
 7    1  0.2459936E-009  0.4778727E+02  0.7816164E-02  0.1312668E+00
        -11   -1    0    0    0    0  0.00000000000E+00  0.00000000000E+00  0.45593999997E+02  0.45594000000E+02  0.51100000000E-03 0.  1.
         11   -1    0    0    0    0 -0.00000000000E+00 -0.00000000000E+00 -0.45593999997E+02  0.45594000000E+02  0.51100000000E-03 0. -1.
    9900012    2    1    2    0    0  0.41198126710E+02 -0.10438558518E+02  0.87962431603E+01  0.47787273715E+02  0.20000012176E+02 0.  0.
         12    1    1    2    0    0 -0.41198126710E+02  0.10438558518E+02 -0.87962431603E+01  0.43400726285E+02  0.00000000000E+00 0. -1.
         11    1    3    3    0    0  0.31648506022E+02 -0.53013292878E+01  0.50941033443E+00  0.32093481033E+02  0.51100000000E-03 0. -1.
        -11    1    3    3    0    0  0.10524115971E+02 -0.33912268425E+01  0.57471348220E+01  0.12461420280E+02  0.51100000000E-03 0.  1.
         12    1    3    3    0    0 -0.97449528350E+00 -0.17460023878E+01  0.25396980038E+01  0.32323724022E+01  0.00000000000E+00 0. -1.
</event>
<event>
 7    1  0.2459936E-009  0.4778727E+02  0.7816164E-02  0.1312668E+00
        -11   -1    0    0    0    0  0.00000000000E+00  0.00000000000E+00  0.45593999997E+02  0.45594000000E+02  0.51100000000E-03 0.  1.
         11   -1    0    0    0    0 -0.00000000000E+00 -0.00000000000E+00 -0.45593999997E+02  0.45594000000E+02  0.51100000000E-03 0. -1.
    9900012    2    1    2    0    0  0.33073853099E+02  0.20743955547E+02  0.18958693387E+02  0.47787268376E+02  0.19999987831E+02 0.  0.
         12    1    1    2    0    0 -0.33073853099E+02 -0.20743955547E+02 -0.18958693387E+02  0.43400731624E+02  0.00000000000E+00 0. -1.
         11    1    3    3    0    0  0.14558591377E+02  0.16749001340E+02  0.12475616608E+02  0.25458252862E+02  0.51100000000E-03 0. -1.
        -11    1    3    3    0    0  0.24977488211E-02 -0.24246214673E+00  0.30134017345E+01  0.30231414797E+01  0.51100000000E-03 0.  1.
         12    1    3    3    0    0  0.18512763973E+02  0.42374163537E+01  0.34696750449E+01  0.19305874034E+02  0.00000000000E+00 0. -1.
</event>
<event>
 7    1  0.2459936E-009  0.4778726E+02  0.7816164E-02  0.1312668E+00
        -11   -1    0    0    0    0  0.00000000000E+00  0.00000000000E+00  0.45593999997E+02  0.45594000000E+02  0.51100000000E-03 0. -1.
         11   -1    0    0    0    0 -0.00000000000E+00 -0.00000000000E+00 -0.45593999997E+02  0.45594000000E+02  0.51100000000E-03 0.  1.
    9900012    2    1    2    0    0 -0.18799682130E+01  0.11384549003E+02 -0.41838758374E+02  0.47787263385E+02  0.19999965077E+02 0.  0.
         12    1    1    2    0    0  0.18799682130E+01 -0.11384549003E+02  0.41838758374E+02  0.43400736615E+02  0.00000000000E+00 0. -1.
         11    1    3    3    0    0 -0.47637036810E+01  0.29634982166E+01 -0.17433015944E+01  0.58748868202E+01  0.51100000000E-03 0. -1.
        -11    1    3    3    0    0 -0.14802967049E+00 -0.16489242353E+01 -0.66206804546E+01  0.68245346992E+01  0.51100000000E-03 0.  1.
        -12    1    3    3    0    0  0.30317651385E+01  0.10069975022E+02 -0.33474776325E+02  0.35087841865E+02  0.00000000000E+00 0.  1.
</event>
<event>
 7    1  0.2459936E-009  0.4778727E+02  0.7816164E-02  0.1312668E+00
        -11   -1    0    0    0    0  0.00000000000E+00  0.00000000000E+00  0.45593999997E+02  0.45594000000E+02  0.51100000000E-03 0.  1.
         11   -1    0    0    0    0 -0.00000000000E+00 -0.00000000000E+00 -0.45593999997E+02  0.45594000000E+02  0.51100000000E-03 0. -1.
    9900012    2    1    2    0    0  0.99808989115E+01  0.42225413968E+02  0.10095582431E+01  0.47787272636E+02  0.20000007257E+02 0.  0.
         12    1    1    2    0    0 -0.99808989115E+01 -0.42225413968E+02 -0.10095582431E+01  0.43400727364E+02  0.00000000000E+00 0. -1.
         11    1    3    3    0    0  0.64997209780E+01  0.31508307542E+02  0.45924306885E+01  0.32497849727E+02  0.51100000000E-03 0. -1.
        -11    1    3    3    0    0  0.11606234928E+01  0.12101869451E+02 -0.30671662471E+01  0.12538333229E+02  0.51100000000E-03 0.  1.
         12    1    3    3    0    0  0.23205544407E+01 -0.13847630252E+01 -0.51570619824E+00  0.27510896807E+01  0.00000000000E+00 0. -1.
</event>
<event>
 7    1  0.2459936E-009  0.4778728E+02  0.7816164E-02  0.1312668E+00
        -11   -1    0    0    0    0  0.00000000000E+00  0.00000000000E+00  0.45593999997E+02  0.45594000000E+02  0.51100000000E-03 0.  1.
         11   -1    0    0    0    0 -0.00000000000E+00 -0.00000000000E+00 -0.45593999997E+02  0.45594000000E+02  0.51100000000E-03 0. -1.
    9900012    2    1    2    0    0 -0.27496005612E+02 -0.33543935949E+02 -0.15481731636E+01  0.47787276461E+02  0.20000024695E+02 0.  0.
         12    1    1    2    0    0  0.27496005612E+02  0.33543935949E+02  0.15481731636E+01  0.43400723539E+02  0.00000000000E+00 0. -1.
         11    1    3    3    0    0 -0.36274297142E+01 -0.45246378799E+01 -0.30456821719E+01  0.65503262842E+01  0.51100000000E-03 0. -1.
        -11    1    3    3    0    0 -0.52096422418E+01 -0.80038988818E+01 -0.70410376182E+01  0.11865031842E+02  0.51100000000E-03 0.  1.
        -12    1    3    3    0    0 -0.18658933656E+02 -0.21015399187E+02  0.85385466265E+01  0.29371918335E+02  0.00000000000E+00 0.  1.
</event>
<event>
 7    1  0.2459936E-009  0.4778727E+02  0.7816164E-02  0.1312668E+00
        -11   -1    0    0    0    0  0.00000000000E+00  0.00000000000E+00  0.45593999997E+02  0.45594000000E+02  0.51100000000E-03 0.  1.
         11   -1    0    0    0    0 -0.00000000000E+00 -0.00000000000E+00 -0.45593999997E+02  0.45594000000E+02  0.51100000000E-03 0. -1.
    9900012    2    1    2    0    0 -0.30298199946E+02 -0.67373971442E+01  0.30335621911E+02  0.47787269626E+02  0.19999993534E+02 0.  0.
         12    1    1    2    0    0  0.30298199946E+02  0.67373971442E+01 -0.30335621911E+02  0.43400730374E+02  0.00000000000E+00 0. -1.
         11    1    3    3    0    0 -0.34744255903E+01 -0.59630690533E+01  0.15098059681E+00  0.69030877959E+01  0.51100000000E-03 0. -1.
        -11    1    3    3    0    0 -0.10870990059E+02 -0.29106480041E+01  0.98912857130E+01  0.14982917939E+02  0.51100000000E-03 0.  1.
         12    1    3    3    0    0 -0.15952784297E+02  0.21363199132E+01  0.20293355601E+02  0.25901263891E+02  0.00000000000E+00 0. -1.
</event>
<event>
 7    1  0.2459936E-009  0.4778728E+02  0.7816164E-02  0.1312668E+00
        -11   -1    0    0    0    0  0.00000000000E+00  0.00000000000E+00  0.45593999997E+02  0.45594000000E+02  0.51100000000E-03 0.  1.
         11   -1    0    0    0    0 -0.00000000000E+00 -0.00000000000E+00 -0.45593999997E+02  0.45594000000E+02  0.51100000000E-03 0. -1.
    9900012    2    1    2    0    0  0.37424201743E+02  0.18464369356E+01  0.21900743798E+02  0.47787276684E+02  0.20000025715E+02 0.  0.
         12    1    1    2    0    0 -0.37424201743E+02 -0.18464369356E+01 -0.21900743798E+02  0.43400723316E+02  0.00000000000E+00 0. -1.
         11    1    3    3    0    0  0.15166776986E+02 -0.29998011631E+01  0.97498945467E+01  0.18278139268E+02  0.51100000000E-03 0. -1.
        -11    1    3    3    0    0  0.11751891618E+02 -0.46558480094E+01  0.69058235796E+01  0.14403967400E+02  0.51100000000E-03 0.  1.
         12    1    3    3    0    0  0.10505533138E+02  0.95020861080E+01  0.52450256716E+01  0.15105170016E+02  0.00000000000E+00 0. -1.
</event>
<event>
 7    1  0.2459936E-009  0.4778727E+02  0.7816164E-02  0.1312668E+00
        -11   -1    0    0    0    0  0.00000000000E+00  0.00000000000E+00  0.45593999997E+02  0.45594000000E+02  0.51100000000E-03 0.  1.
         11   -1    0    0    0    0 -0.00000000000E+00 -0.00000000000E+00 -0.45593999997E+02  0.45594000000E+02  0.51100000000E-03 0. -1.
    9900012    2    1    2    0    0  0.24648150097E+02  0.35658899834E+02  0.21295149831E+01  0.47787271036E+02  0.19999999962E+02 0.  0.
         12    1    1    2    0    0 -0.24648150097E+02 -0.35658899834E+02 -0.21295149831E+01  0.43400728964E+02  0.00000000000E+00 0. -1.
         11    1    3    3    0    0  0.65408195638E+01  0.92677158982E+01 -0.13327850429E+01  0.11421435758E+02  0.51100000000E-03 0. -1.
        -11    1    3    3    0    0  0.16835559978E+02  0.27825181318E+02  0.13067300045E+00  0.32522205812E+02  0.51100000000E-03 0.  1.
         12    1    3    3    0    0  0.12717705551E+01 -0.14339973830E+01  0.33316270255E+01  0.38436294666E+01  0.00000000000E+00 0. -1.
</event>
<event>
 7    1  0.2459936E-009  0.4778727E+02  0.7816164E-02  0.1312668E+00
        -11   -1    0    0    0    0  0.00000000000E+00  0.00000000000E+00  0.45593999997E+02  0.45594000000E+02  0.51100000000E-03 0.  1.
         11   -1    0    0    0    0 -0.00000000000E+00 -0.00000000000E+00 -0.45593999997E+02  0.45594000000E+02  0.51100000000E-03 0. -1.
    9900012    2    1    2    0    0  0.81596628342E+01  0.42551445790E+02  0.25333269343E+01  0.47787269802E+02  0.19999994334E+02 0.  0.
         12    1    1    2    0    0 -0.81596628342E+01 -0.42551445790E+02 -0.25333269343E+01  0.43400730198E+02  0.00000000000E+00 0. -1.
         11    1    3    3    0    0  0.45606975538E+00  0.16915554885E+02  0.93909944473E+00  0.16947740402E+02  0.51100000000E-03 0. -1.
        -11    1    3    3    0    0 -0.21961150633E+01  0.18398165764E+02  0.65612743541E+00  0.18540386413E+02  0.51100000000E-03 0.  1.
         12    1    3    3    0    0  0.98997081421E+01  0.72377251407E+01  0.93810005421E+00  0.12299142987E+02  0.00000000000E+00 0. -1.
</event>
<event>
 7    1  0.2459936E-009  0.4778727E+02  0.7816164E-02  0.1312668E+00
        -11   -1    0    0    0    0  0.00000000000E+00  0.00000000000E+00  0.45593999997E+02  0.45594000000E+02  0.51100000000E-03 0. -1.
         11   -1    0    0    0    0 -0.00000000000E+00 -0.00000000000E+00 -0.45593999997E+02  0.45594000000E+02  0.51100000000E-03 0.  1.
    9900012    2    1    2    0    0  0.16704501189E+02  0.87921226508E+01 -0.39080451506E+02  0.47787268778E+02  0.19999989667E+02 0.  0.
         12    1    1    2    0    0 -0.16704501189E+02 -0.87921226508E+01  0.39080451506E+02  0.43400731222E+02  0.00000000000E+00 0. -1.
         11    1    3    3    0    0  0.23765649809E+01 -0.96869654355E+00 -0.37157666071E+01  0.45159003356E+01  0.51100000000E-03 0. -1.
        -11    1    3    3    0    0  0.56753042845E+01  0.13358018150E+02 -0.27256541908E+02  0.30879844634E+02  0.51100000000E-03 0.  1.
        -12    1    3    3    0    0  0.86526319232E+01 -0.35971989554E+01 -0.81081429912E+01  0.12391523808E+02  0.00000000000E+00 0.  1.
</event>
<event>
 7    1  0.2459936E-009  0.4778728E+02  0.7816164E-02  0.1312668E+00
        -11   -1    0    0    0    0  0.00000000000E+00  0.00000000000E+00  0.45593999997E+02  0.45594000000E+02  0.51100000000E-03 0.  1.
         11   -1    0    0    0    0 -0.00000000000E+00 -0.00000000000E+00 -0.45593999997E+02  0.45594000000E+02  0.51100000000E-03 0. -1.
    9900012    2    1    2    0    0  0.31126885481E+02 -0.28307223359E+02  0.10650867849E+02  0.47787275583E+02  0.20000020691E+02 0.  0.
         12    1    1    2    0    0 -0.31126885481E+02  0.28307223359E+02 -0.10650867849E+02  0.43400724417E+02  0.00000000000E+00 0. -1.
         11    1    3    3    0    0  0.12659652743E+02 -0.62872515755E+01  0.67612602233E+01  0.15668789998E+02  0.51100000000E-03 0. -1.
        -11    1    3    3    0    0  0.43685358741E+01 -0.88646589466E+01  0.76184036166E+01  0.12478235366E+02  0.51100000000E-03 0.  1.
         12    1    3    3    0    0  0.14098696864E+02 -0.13155312837E+02 -0.37287959908E+01  0.19640250218E+02  0.00000000000E+00 0. -1.
</event>
<event>
 7    1  0.2459936E-009  0.4778727E+02  0.7816164E-02  0.1312668E+00
        -11   -1    0    0    0    0  0.00000000000E+00  0.00000000000E+00  0.45593999997E+02  0.45594000000E+02  0.51100000000E-03 0. -1.
         11   -1    0    0    0    0 -0.00000000000E+00 -0.00000000000E+00 -0.45593999997E+02  0.45594000000E+02  0.51100000000E-03 0.  1.
    9900012    2    1    2    0    0 -0.51170541968E+01  0.43001033841E+02  0.28896672159E+01  0.47787270378E+02  0.19999996963E+02 0.  0.
         12    1    1    2    0    0  0.51170541968E+01 -0.43001033841E+02 -0.28896672159E+01  0.43400729622E+02  0.00000000000E+00 0. -1.
         11    1    3    3    0    0 -0.26363891229E+01  0.71234342973E+01 -0.17255488600E+01  0.77891837136E+01  0.51100000000E-03 0. -1.
        -11    1    3    3    0    0  0.45135997989E+01  0.29171514207E+02  0.64268379641E+00  0.29525630679E+02  0.51100000000E-03 0.  1.
         12    1    3    3    0    0 -0.69942648728E+01  0.67060853369E+01  0.39725322796E+01  0.10472455985E+02  0.00000000000E+00 0. -1.
</event>
<event>
 7    1  0.2459936E-009  0.4778727E+02  0.7816164E-02  0.1312668E+00
        -11   -1    0    0    0    0  0.00000000000E+00  0.00000000000E+00  0.45593999997E+02  0.45594000000E+02  0.51100000000E-03 0.  1.
         11   -1    0    0    0    0 -0.00000000000E+00 -0.00000000000E+00 -0.45593999997E+02  0.45594000000E+02  0.51100000000E-03 0. -1.
    9900012    2    1    2    0    0  0.29703077268E+01  0.10636096718E+02  0.41972299324E+02  0.47787271989E+02  0.20000004305E+02 0.  0.
         12    1    1    2    0    0 -0.29703077268E+01 -0.10636096718E+02 -0.41972299324E+02  0.43400728011E+02  0.00000000000E+00 0. -1.
         11    1    3    3    0    0 -0.21305311477E-01  0.27039779229E+01  0.16372567253E+02  0.16594363779E+02  0.51100000000E-03 0. -1.
        -11    1    3    3    0    0  0.76110499795E+01  0.99151824505E+01  0.20647590083E+02  0.24136319133E+02  0.51100000000E-03 0.  1.
         12    1    3    3    0    0 -0.46194369412E+01 -0.19830636554E+01  0.49521419879E+01  0.70565890758E+01  0.00000000000E+00 0. -1.
</event>
<event>
 7    1  0.2459936E-009  0.4778727E+02  0.7816164E-02  0.1312668E+00
        -11   -1    0    0    0    0  0.00000000000E+00  0.00000000000E+00  0.45593999997E+02  0.45594000000E+02  0.51100000000E-03 0. -1.
         11   -1    0    0    0    0 -0.00000000000E+00 -0.00000000000E+00 -0.45593999997E+02  0.45594000000E+02  0.51100000000E-03 0.  1.
    9900012    2    1    2    0    0 -0.40082229877E+02 -0.16058714797E+02 -0.43767338900E+01  0.47787271061E+02  0.20000000077E+02 0.  0.
         12    1    1    2    0    0  0.40082229877E+02  0.16058714797E+02  0.43767338900E+01  0.43400728939E+02  0.00000000000E+00 0. -1.
         11    1    3    3    0    0 -0.17277261361E+02 -0.33461414589E+01 -0.31318120981E+01  0.17874805455E+02  0.51100000000E-03 0. -1.
        -11    1    3    3    0    0 -0.13012334619E+00  0.25499224825E+01 -0.67852129836E-01  0.25541419155E+01  0.51100000000E-03 0.  1.
        -12    1    3    3    0    0 -0.22674845171E+02 -0.15262495820E+02 -0.11770696621E+01  0.27358323691E+02  0.00000000000E+00 0.  1.
</event>
<event>
 7    1  0.1063679E-008  0.4778727E+02  0.7816164E-02  0.1312668E+00
        -11   -1    0    0    0    0  0.00000000000E+00  0.00000000000E+00  0.45593999997E+02  0.45594000000E+02  0.51100000000E-03 0. -1.
         11   -1    0    0    0    0 -0.00000000000E+00 -0.00000000000E+00 -0.45593999997E+02  0.45594000000E+02  0.51100000000E-03 0.  1.
    9900012    2    1    2    0    0  0.57728368902E+01 -0.40685846390E+02 -0.13962800324E+02  0.47787268035E+02  0.19999986280E+02 0.  0.
         12    1    1    2    0    0 -0.57728368902E+01  0.40685846390E+02  0.13962800324E+02  0.43400731965E+02  0.00000000000E+00 0. -1.
         11    1    3    3    0    0 -0.54081009379E+01 -0.62125062986E+01  0.51465063538E+00  0.82527362616E+01  0.51100000000E-03 0. -1.
        -11    1    3    3    0    0  0.10136294466E+01 -0.12037465440E+02 -0.59688166040E+01  0.13474226909E+02  0.51100000000E-03 0.  1.
         12    1    3    3    0    0  0.10167308382E+02 -0.22435874650E+02 -0.85086343549E+01  0.26060304865E+02  0.00000000000E+00 0. -1.
</event>
<event>
 7    1  0.2459936E-009  0.4778723E+02  0.7816164E-02  0.1312668E+00
        -11   -1    0    0    0    0  0.00000000000E+00  0.00000000000E+00  0.45593999997E+02  0.45594000000E+02  0.51100000000E-03 0.  1.
         11   -1    0    0    0    0 -0.00000000000E+00 -0.00000000000E+00 -0.45593999997E+02  0.45594000000E+02  0.51100000000E-03 0. -1.
    9900012    2    1    2    0    0  0.40473204189E+02  0.10392760582E+02  0.11727609652E+02  0.47787233210E+02  0.19999827495E+02 0.  0.
         12    1    1    2    0    0 -0.40473204189E+02 -0.10392760582E+02 -0.11727609652E+02  0.43400766790E+02  0.00000000000E+00 0. -1.
         11    1    3    3    0    0  0.13541012565E+02 -0.46087438769E+01  0.21339060452E+01  0.14462126285E+02  0.51100000000E-03 0. -1.
        -11    1    3    3    0    0  0.14547793918E+02  0.34338317298E+01  0.39043724651E+01  0.15449065759E+02  0.51100000000E-03 0.  1.
         12    1    3    3    0    0  0.12384397707E+02  0.11567672729E+02  0.56893311419E+01  0.17876041166E+02  0.00000000000E+00 0. -1.
</event>
<event>
 7    1  0.2459936E-009  0.4778727E+02  0.7816164E-02  0.1312668E+00
        -11   -1    0    0    0    0  0.00000000000E+00  0.00000000000E+00  0.45593999997E+02  0.45594000000E+02  0.51100000000E-03 0. -1.
         11   -1    0    0    0    0 -0.00000000000E+00 -0.00000000000E+00 -0.45593999997E+02  0.45594000000E+02  0.51100000000E-03 0.  1.
    9900012    2    1    2    0    0 -0.39103933615E+02  0.85516730963E+01 -0.16774214754E+02  0.47787273998E+02  0.20000013467E+02 0.  0.
         12    1    1    2    0    0  0.39103933615E+02 -0.85516730963E+01  0.16774214754E+02  0.43400726002E+02  0.00000000000E+00 0. -1.
         11    1    3    3    0    0 -0.30772900070E+01  0.15731854797E+00  0.22416027653E+01  0.38104128557E+01  0.51100000000E-03 0. -1.
        -11    1    3    3    0    0 -0.24389311971E+02  0.59943825664E+01 -0.50103883624E+01  0.25610059597E+02  0.51100000000E-03 0.  1.
         12    1    3    3    0    0 -0.11637331637E+02  0.23999719819E+01 -0.14005429157E+02  0.18366801545E+02  0.00000000000E+00 0. -1.
</event>
<event>
 7    1  0.2459936E-009  0.4778727E+02  0.7816164E-02  0.1312668E+00
        -11   -1    0    0    0    0  0.00000000000E+00  0.00000000000E+00  0.45593999997E+02  0.45594000000E+02  0.51100000000E-03 0.  1.
         11   -1    0    0    0    0 -0.00000000000E+00 -0.00000000000E+00 -0.45593999997E+02  0.45594000000E+02  0.51100000000E-03 0. -1.
    9900012    2    1    2    0    0  0.29075529497E+02 -0.15120044060E+01  0.32186188967E+02  0.47787270363E+02  0.19999996892E+02 0.  0.
         12    1    1    2    0    0 -0.29075529497E+02  0.15120044060E+01 -0.32186188967E+02  0.43400729637E+02  0.00000000000E+00 0. -1.
         11    1    3    3    0    0  0.62426469204E+00  0.21154241676E+01 -0.10671064658E+01  0.24501922955E+01  0.51100000000E-03 0. -1.
        -11    1    3    3    0    0  0.13381532291E+01  0.24353619627E+01  0.15461379336E+01  0.31799661515E+01  0.51100000000E-03 0.  1.
        -12    1    3    3    0    0  0.27113111576E+02 -0.60627905362E+01  0.31707157499E+02  0.42157111916E+02  0.00000000000E+00 0.  1.
</event>
<event>
 7    1  0.2459936E-009  0.4778727E+02  0.7816164E-02  0.1312668E+00
        -11   -1    0    0    0    0  0.00000000000E+00  0.00000000000E+00  0.45593999997E+02  0.45594000000E+02  0.51100000000E-03 0. -1.
         11   -1    0    0    0    0 -0.00000000000E+00 -0.00000000000E+00 -0.45593999997E+02  0.45594000000E+02  0.51100000000E-03 0.  1.
    9900012    2    1    2    0    0 -0.41416935914E+02  0.69198093526E+01 -0.10971629771E+02  0.47787274179E+02  0.20000014292E+02 0.  0.
         12    1    1    2    0    0  0.41416935914E+02 -0.69198093526E+01  0.10971629771E+02  0.43400725821E+02  0.00000000000E+00 0. -1.
         11    1    3    3    0    0 -0.62756441129E+01 -0.71169804179E+00 -0.68691858779E+01  0.93314488704E+01  0.51100000000E-03 0. -1.
        -11    1    3    3    0    0 -0.19139720258E+02 -0.24846380429E+01 -0.17615582119E+01  0.19380541926E+02  0.51100000000E-03 0.  1.
         12    1    3    3    0    0 -0.16001571543E+02  0.10116145437E+02 -0.23408856814E+01  0.19075283383E+02  0.00000000000E+00 0. -1.
</event>
<event>
 7    1  0.2459936E-009  0.4778725E+02  0.7816164E-02  0.1312668E+00
        -11   -1    0    0    0    0  0.00000000000E+00  0.00000000000E+00  0.45593999997E+02  0.45594000000E+02  0.51100000000E-03 0. -1.
         11   -1    0    0    0    0 -0.00000000000E+00 -0.00000000000E+00 -0.45593999997E+02  0.45594000000E+02  0.51100000000E-03 0.  1.
    9900012    2    1    2    0    0 -0.46520030863E+01 -0.40009988054E+00 -0.43148855248E+02  0.47787252059E+02  0.19999913436E+02 0.  0.
         12    1    1    2    0    0  0.46520030863E+01  0.40009988054E+00  0.43148855248E+02  0.43400747941E+02  0.00000000000E+00 0. -1.
         11    1    3    3    0    0 -0.29836224523E+01 -0.11579708834E+01 -0.21508537914E+01  0.38560435420E+01  0.51100000000E-03 0. -1.
        -11    1    3    3    0    0 -0.48875841813E+01 -0.12187154802E+01 -0.39575312333E+02  0.39894599798E+02  0.51100000000E-03 0.  1.
        -12    1    3    3    0    0  0.32192035473E+01  0.19765864831E+01 -0.14226891240E+01  0.40366087186E+01  0.00000000000E+00 0.  1.
</event>
<event>
 7    1  0.2459936E-009  0.4778727E+02  0.7816164E-02  0.1312668E+00
        -11   -1    0    0    0    0  0.00000000000E+00  0.00000000000E+00  0.45593999997E+02  0.45594000000E+02  0.51100000000E-03 0. -1.
         11   -1    0    0    0    0 -0.00000000000E+00 -0.00000000000E+00 -0.45593999997E+02  0.45594000000E+02  0.51100000000E-03 0.  1.
    9900012    2    1    2    0    0 -0.30844343197E+02  0.11806836308E+02 -0.28157568124E+02  0.47787268053E+02  0.19999986361E+02 0.  0.
         12    1    1    2    0    0  0.30844343197E+02 -0.11806836308E+02  0.28157568124E+02  0.43400731947E+02  0.00000000000E+00 0. -1.
         11    1    3    3    0    0 -0.23519961588E+01  0.21226263237E+01  0.12637410378E+00  0.31707095604E+01  0.51100000000E-03 0. -1.
        -11    1    3    3    0    0 -0.23811384664E+02  0.12131631820E+02 -0.28824721873E+02  0.39306782132E+02  0.51100000000E-03 0.  1.
        -12    1    3    3    0    0 -0.46809623734E+01 -0.24474218352E+01  0.54077964435E+00  0.53097763611E+01  0.00000000000E+00 0.  1.
</event>
<event>
 7    1  0.2459936E-009  0.4778727E+02  0.7816164E-02  0.1312668E+00
        -11   -1    0    0    0    0  0.00000000000E+00  0.00000000000E+00  0.45593999997E+02  0.45594000000E+02  0.51100000000E-03 0.  1.
         11   -1    0    0    0    0 -0.00000000000E+00 -0.00000000000E+00 -0.45593999997E+02  0.45594000000E+02  0.51100000000E-03 0. -1.
    9900012    2    1    2    0    0 -0.12767940796E+02 -0.34208112795E+02  0.23460786482E+02  0.47787265034E+02  0.19999972598E+02 0.  0.
         12    1    1    2    0    0  0.12767940796E+02  0.34208112795E+02 -0.23460786482E+02  0.43400734966E+02  0.00000000000E+00 0. -1.
         11    1    3    3    0    0 -0.61958427398E+01 -0.55262414496E+01  0.39556771782E+01  0.91964772611E+01  0.51100000000E-03 0. -1.
        -11    1    3    3    0    0  0.24381611159E+01 -0.54621029319E+01 -0.13194270611E+01  0.61253641603E+01  0.51100000000E-03 0.  1.
        -12    1    3    3    0    0 -0.90102591724E+01 -0.23219768414E+02  0.20824536365E+02  0.32465423613E+02  0.00000000000E+00 0.  1.
</event>
<event>
 7    1  0.2459936E-009  0.4778727E+02  0.7816164E-02  0.1312668E+00
        -11   -1    0    0    0    0  0.00000000000E+00  0.00000000000E+00  0.45593999997E+02  0.45594000000E+02  0.51100000000E-03 0.  1.
         11   -1    0    0    0    0 -0.00000000000E+00 -0.00000000000E+00 -0.45593999997E+02  0.45594000000E+02  0.51100000000E-03 0. -1.
    9900012    2    1    2    0    0 -0.11573462769E+02 -0.31393338675E+02  0.27643023421E+02  0.47787268469E+02  0.19999988256E+02 0.  0.
         12    1    1    2    0    0  0.11573462769E+02  0.31393338675E+02 -0.27643023421E+02  0.43400731531E+02  0.00000000000E+00 0. -1.
         11    1    3    3    0    0 -0.61700608142E+00 -0.68567807433E+01  0.16146885054E+01  0.70713052470E+01  0.51100000000E-03 0. -1.
        -11    1    3    3    0    0 -0.48965824854E+00 -0.69696810625E+01 -0.74535641115E+00  0.70265052305E+01  0.51100000000E-03 0.  1.
        -12    1    3    3    0    0 -0.10466798439E+02 -0.17566876869E+02  0.26773691326E+02  0.33689457991E+02  0.00000000000E+00 0.  1.
</event>
<event>
 7    1  0.2459936E-009  0.4778727E+02  0.7816164E-02  0.1312668E+00
        -11   -1    0    0    0    0  0.00000000000E+00  0.00000000000E+00  0.45593999997E+02  0.45594000000E+02  0.51100000000E-03 0.  1.
         11   -1    0    0    0    0 -0.00000000000E+00 -0.00000000000E+00 -0.45593999997E+02  0.45594000000E+02  0.51100000000E-03 0. -1.
    9900012    2    1    2    0    0  0.21744029311E+02  0.42437837912E+01  0.37320383058E+02  0.47787268403E+02  0.19999987957E+02 0.  0.
         12    1    1    2    0    0 -0.21744029311E+02 -0.42437837912E+01 -0.37320383058E+02  0.43400731597E+02  0.00000000000E+00 0. -1.
         11    1    3    3    0    0  0.59946105114E+01 -0.45876057058E+01  0.60794706345E+01  0.96923394881E+01  0.51100000000E-03 0. -1.
        -11    1    3    3    0    0  0.13229482873E+02  0.13838507044E+01  0.14982204405E+02  0.20034987122E+02  0.51100000000E-03 0.  1.
         12    1    3    3    0    0  0.25199359259E+01  0.74475387925E+01  0.16258708019E+02  0.18059941793E+02  0.00000000000E+00 0. -1.
</event>
<event>
 7    1  0.2459936E-009  0.4778727E+02  0.7816164E-02  0.1312668E+00
        -11   -1    0    0    0    0  0.00000000000E+00  0.00000000000E+00  0.45593999997E+02  0.45594000000E+02  0.51100000000E-03 0.  1.
         11   -1    0    0    0    0 -0.00000000000E+00 -0.00000000000E+00 -0.45593999997E+02  0.45594000000E+02  0.51100000000E-03 0. -1.
    9900012    2    1    2    0    0 -0.10396564147E+02 -0.38679272894E+02  0.16716718944E+02  0.47787269707E+02  0.19999993904E+02 0.  0.
         12    1    1    2    0    0  0.10396564147E+02  0.38679272894E+02 -0.16716718944E+02  0.43400730293E+02  0.00000000000E+00 0. -1.
         11    1    3    3    0    0 -0.57936372898E+01 -0.27287712102E+01  0.13882227927E+00  0.64055988986E+01  0.51100000000E-03 0. -1.
        -11    1    3    3    0    0 -0.68463218120E+01 -0.20011126380E+02  0.55374851042E+01  0.21862777566E+02  0.51100000000E-03 0.  1.
         12    1    3    3    0    0  0.22433949548E+01 -0.15939375304E+02  0.11040411561E+02  0.19518893243E+02  0.00000000000E+00 0. -1.
</event>
<event>
 7    1  0.2459936E-009  0.4778727E+02  0.7816164E-02  0.1312668E+00
        -11   -1    0    0    0    0  0.00000000000E+00  0.00000000000E+00  0.45593999997E+02  0.45594000000E+02  0.51100000000E-03 0.  1.
         11   -1    0    0    0    0 -0.00000000000E+00 -0.00000000000E+00 -0.45593999997E+02  0.45594000000E+02  0.51100000000E-03 0. -1.
    9900012    2    1    2    0    0  0.43154719142E+02  0.24259817883E+01 -0.39253061947E+01  0.47787271889E+02  0.20000003849E+02 0.  0.
         12    1    1    2    0    0 -0.43154719142E+02 -0.24259817883E+01  0.39253061947E+01  0.43400728111E+02  0.00000000000E+00 0. -1.
         11    1    3    3    0    0  0.29104783105E+01  0.22899891487E+01  0.77655150720E+00  0.37839089315E+01  0.51100000000E-03 0. -1.
        -11    1    3    3    0    0  0.68274420697E+01 -0.63996777123E+01  0.12373994859E+01  0.94393324862E+01  0.51100000000E-03 0.  1.
        -12    1    3    3    0    0  0.33416798762E+02  0.65356703519E+01 -0.59392571878E+01  0.34564030471E+02  0.00000000000E+00 0.  1.
</event>
<event>
 7    1  0.2459936E-009  0.4778727E+02  0.7816164E-02  0.1312668E+00
        -11   -1    0    0    0    0  0.00000000000E+00  0.00000000000E+00  0.45593999997E+02  0.45594000000E+02  0.51100000000E-03 0.  1.
         11   -1    0    0    0    0 -0.00000000000E+00 -0.00000000000E+00 -0.45593999997E+02  0.45594000000E+02  0.51100000000E-03 0. -1.
    9900012    2    1    2    0    0  0.20621514309E+02  0.23645603290E+02  0.29987699915E+02  0.47787267823E+02  0.19999985312E+02 0.  0.
         12    1    1    2    0    0 -0.20621514309E+02 -0.23645603290E+02 -0.29987699915E+02  0.43400732177E+02  0.00000000000E+00 0. -1.
         11    1    3    3    0    0  0.93714150799E+00  0.49227229973E+01  0.18028521393E+01  0.53255715196E+01  0.51100000000E-03 0. -1.
        -11    1    3    3    0    0  0.17175350472E+02  0.21563714733E+02  0.26738647138E+02  0.38404969834E+02  0.51100000000E-03 0.  1.
         12    1    3    3    0    0  0.25090223290E+01 -0.28408344403E+01  0.14462006374E+01  0.40567264695E+01  0.00000000000E+00 0. -1.
</event>
<event>
 7    1  0.2459936E-009  0.4778721E+02  0.7816164E-02  0.1312668E+00
        -11   -1    0    0    0    0  0.00000000000E+00  0.00000000000E+00  0.45593999997E+02  0.45594000000E+02  0.51100000000E-03 0.  1.
         11   -1    0    0    0    0 -0.00000000000E+00 -0.00000000000E+00 -0.45593999997E+02  0.45594000000E+02  0.51100000000E-03 0. -1.
    9900012    2    1    2    0    0 -0.58789856495E+00  0.30188785267E+02  0.31175629167E+02  0.47787213895E+02  0.19999739429E+02 0.  0.
         12    1    1    2    0    0  0.58789856495E+00 -0.30188785267E+02 -0.31175629167E+02  0.43400786105E+02  0.00000000000E+00 0. -1.
         11    1    3    3    0    0 -0.17136221874E+01  0.14990444769E+02  0.10618755163E+02  0.18450146255E+02  0.51100000000E-03 0.  1.
        -11    1    3    3    0    0  0.27912308522E+01  0.10684991529E+02  0.34549569097E+01  0.11571375940E+02  0.51100000000E-03 0. -1.
         12    1    3    3    0    0 -0.16655072298E+01  0.45133489695E+01  0.17101917094E+02  0.17765691699E+02  0.00000000000E+00 0. -1.
</event>
<event>
 7    1  0.2459936E-009  0.4778727E+02  0.7816164E-02  0.1312668E+00
        -11   -1    0    0    0    0  0.00000000000E+00  0.00000000000E+00  0.45593999997E+02  0.45594000000E+02  0.51100000000E-03 0.  1.
         11   -1    0    0    0    0 -0.00000000000E+00 -0.00000000000E+00 -0.45593999997E+02  0.45594000000E+02  0.51100000000E-03 0. -1.
    9900012    2    1    2    0    0  0.92182342943E+01  0.11084437388E+02  0.40936325865E+02  0.47787269925E+02  0.19999994897E+02 0.  0.
         12    1    1    2    0    0 -0.92182342943E+01 -0.11084437388E+02 -0.40936325865E+02  0.43400730075E+02  0.00000000000E+00 0. -1.
         11    1    3    3    0    0 -0.25414665679E+01  0.38824405716E+01  0.42988887894E+01  0.63255705033E+01  0.51100000000E-03 0. -1.
        -11    1    3    3    0    0 -0.46995988409E+00 -0.16604740715E+01  0.14858057756E+02  0.14957938260E+02  0.51100000000E-03 0.  1.
         12    1    3    3    0    0  0.12229660746E+02  0.88624708881E+01  0.21779379319E+02  0.26503761162E+02  0.00000000000E+00 0. -1.
</event>
<event>
 7    1  0.2459936E-009  0.4778727E+02  0.7816164E-02  0.1312668E+00
        -11   -1    0    0    0    0  0.00000000000E+00  0.00000000000E+00  0.45593999997E+02  0.45594000000E+02  0.51100000000E-03 0. -1.
         11   -1    0    0    0    0 -0.00000000000E+00 -0.00000000000E+00 -0.45593999997E+02  0.45594000000E+02  0.51100000000E-03 0.  1.
    9900012    2    1    2    0    0  0.33844641603E+02 -0.37038789200E+01  0.26915512402E+02  0.47787270834E+02  0.19999999041E+02 0.  0.
         12    1    1    2    0    0 -0.33844641603E+02  0.37038789200E+01 -0.26915512402E+02  0.43400729166E+02  0.00000000000E+00 0. -1.
         11    1    3    3    0    0  0.39732955619E+01 -0.61699356863E+01  0.33772086496E+01  0.80784108907E+01  0.51100000000E-03 0.  1.
        -11    1    3    3    0    0  0.24954722148E+02  0.27526793519E+01  0.24038356984E+02  0.34758567402E+02  0.51100000000E-03 0. -1.
         12    1    3    3    0    0  0.49166238931E+01 -0.28662258562E+00 -0.50005323170E+00  0.49502925415E+01  0.00000000000E+00 0. -1.
</event>
<event>
 7    1  0.2459936E-009  0.4778728E+02  0.7816164E-02  0.1312668E+00
        -11   -1    0    0    0    0  0.00000000000E+00  0.00000000000E+00  0.45593999997E+02  0.45594000000E+02  0.51100000000E-03 0.  1.
         11   -1    0    0    0    0 -0.00000000000E+00 -0.00000000000E+00 -0.45593999997E+02  0.45594000000E+02  0.51100000000E-03 0. -1.
    9900012    2    1    2    0    0  0.22030016913E+02  0.10448514002E+02  0.35904448133E+02  0.47787280124E+02  0.20000041397E+02 0.  0.
         12    1    1    2    0    0 -0.22030016913E+02 -0.10448514002E+02 -0.35904448133E+02  0.43400719876E+02  0.00000000000E+00 0. -1.
         11    1    3    3    0    0  0.19939908125E+02  0.25034473274E+01  0.18880087919E+02  0.27573989640E+02  0.51100000000E-03 0. -1.
        -11    1    3    3    0    0  0.45364795123E+01  0.60395332114E+01  0.13848849662E+02  0.15774861172E+02  0.51100000000E-03 0.  1.
         12    1    3    3    0    0 -0.24463707239E+01  0.19055334630E+01  0.31755105518E+01  0.44384293125E+01  0.00000000000E+00 0. -1.
</event>
<event>
 7    1  0.2459936E-009  0.4778727E+02  0.7816164E-02  0.1312668E+00
        -11   -1    0    0    0    0  0.00000000000E+00  0.00000000000E+00  0.45593999997E+02  0.45594000000E+02  0.51100000000E-03 0.  1.
         11   -1    0    0    0    0 -0.00000000000E+00 -0.00000000000E+00 -0.45593999997E+02  0.45594000000E+02  0.51100000000E-03 0. -1.
    9900012    2    1    2    0    0 -0.90077646377E+01 -0.35359878427E+02  0.23498136787E+02  0.47787271220E+02  0.20000000802E+02 0.  0.
         12    1    1    2    0    0  0.90077646377E+01  0.35359878427E+02 -0.23498136787E+02  0.43400728780E+02  0.00000000000E+00 0. -1.
         11    1    3    3    0    0  0.26159217400E+01 -0.20740554066E+02  0.16824025907E+02  0.26833961271E+02  0.51100000000E-03 0. -1.
        -11    1    3    3    0    0  0.29750358081E+00 -0.61392066273E+00  0.18021544063E+01  0.19269581536E+01  0.51100000000E-03 0.  1.
        -12    1    3    3    0    0 -0.11921189959E+02 -0.14005403698E+02  0.48719564739E+01  0.19026351796E+02  0.00000000000E+00 0.  1.
</event>
<event>
 7    1  0.2459936E-009  0.4778728E+02  0.7816164E-02  0.1312668E+00
        -11   -1    0    0    0    0  0.00000000000E+00  0.00000000000E+00  0.45593999997E+02  0.45594000000E+02  0.51100000000E-03 0.  1.
         11   -1    0    0    0    0 -0.00000000000E+00 -0.00000000000E+00 -0.45593999997E+02  0.45594000000E+02  0.51100000000E-03 0. -1.
    9900012    2    1    2    0    0 -0.36887879307E+02 -0.15234665584E+02  0.17053204898E+02  0.47787280277E+02  0.20000042095E+02 0.  0.
         12    1    1    2    0    0  0.36887879307E+02  0.15234665584E+02 -0.17053204898E+02  0.43400719723E+02  0.00000000000E+00 0. -1.
         11    1    3    3    0    0 -0.69105847172E+01 -0.41112132214E+01  0.22820353880E+01  0.83585848718E+01  0.51100000000E-03 0. -1.
        -11    1    3    3    0    0 -0.97406743971E+01 -0.44368671559E+01  0.14615130315E+02  0.18115423325E+02  0.51100000000E-03 0.  1.
        -12    1    3    3    0    0 -0.20236620192E+02 -0.66865852063E+01  0.15603919492E+00  0.21313272080E+02  0.00000000000E+00 0.  1.
</event>
<event>
 7    1  0.2459936E-009  0.4778727E+02  0.7816164E-02  0.1312668E+00
        -11   -1    0    0    0    0  0.00000000000E+00  0.00000000000E+00  0.45593999997E+02  0.45594000000E+02  0.51100000000E-03 0.  1.
         11   -1    0    0    0    0 -0.00000000000E+00 -0.00000000000E+00 -0.45593999997E+02  0.45594000000E+02  0.51100000000E-03 0. -1.
    9900012    2    1    2    0    0 -0.57942428861E+01 -0.32518625418E+02  0.28152958207E+02  0.47787270680E+02  0.19999998340E+02 0.  0.
         12    1    1    2    0    0  0.57942428861E+01  0.32518625418E+02 -0.28152958207E+02  0.43400729320E+02  0.00000000000E+00 0. -1.
         11    1    3    3    0    0 -0.55923559912E+01 -0.41424764183E+01  0.83535227305E+01  0.10872713492E+02  0.51100000000E-03 0. -1.
        -11    1    3    3    0    0 -0.98930916578E+00 -0.15679309833E+02  0.18279095956E+02  0.24102797321E+02  0.51100000000E-03 0.  1.
        -12    1    3    3    0    0  0.78742227086E+00 -0.12696839166E+02  0.15203395209E+01  0.12811759868E+02  0.00000000000E+00 0.  1.
</event>
<event>
 7    1  0.2459936E-009  0.4778727E+02  0.7816164E-02  0.1312668E+00
        -11   -1    0    0    0    0  0.00000000000E+00  0.00000000000E+00  0.45593999997E+02  0.45594000000E+02  0.51100000000E-03 0.  1.
         11   -1    0    0    0    0 -0.00000000000E+00 -0.00000000000E+00 -0.45593999997E+02  0.45594000000E+02  0.51100000000E-03 0. -1.
    9900012    2    1    2    0    0 -0.23753860225E+02  0.24182271615E+02  0.27103412687E+02  0.47787272871E+02  0.20000008327E+02 0.  0.
         12    1    1    2    0    0  0.23753860225E+02 -0.24182271615E+02 -0.27103412687E+02  0.43400727129E+02  0.00000000000E+00 0. -1.
         11    1    3    3    0    0 -0.42108665919E+01  0.79876068241E+01  0.50333849380E+01  0.10337708858E+02  0.51100000000E-03 0. -1.
        -11    1    3    3    0    0 -0.10499432976E+02  0.18034824821E+02  0.13494315191E+02  0.24851348895E+02  0.51100000000E-03 0.  1.
         12    1    3    3    0    0 -0.90435606567E+01 -0.18401600300E+01  0.85757125578E+01  0.12598215118E+02  0.00000000000E+00 0. -1.
</event>
<event>
 7    1  0.2459936E-009  0.4778727E+02  0.7816164E-02  0.1312668E+00
        -11   -1    0    0    0    0  0.00000000000E+00  0.00000000000E+00  0.45593999997E+02  0.45594000000E+02  0.51100000000E-03 0.  1.
         11   -1    0    0    0    0 -0.00000000000E+00 -0.00000000000E+00 -0.45593999997E+02  0.45594000000E+02  0.51100000000E-03 0. -1.
    9900012    2    1    2    0    0  0.64669268719E+01 -0.40629309802E+02  0.13822481501E+02  0.47787274741E+02  0.20000016854E+02 0.  0.
         12    1    1    2    0    0 -0.64669268719E+01  0.40629309802E+02 -0.13822481501E+02  0.43400725259E+02  0.00000000000E+00 0. -1.
         11    1    3    3    0    0  0.44066415541E+01 -0.15430470707E+01  0.13372962230E+01  0.48567319771E+01  0.51100000000E-03 0.  1.
        -11    1    3    3    0    0 -0.22893936044E+01 -0.30684908718E+01  0.42654267651E+01  0.57315639276E+01  0.51100000000E-03 0. -1.
        -12    1    3    3    0    0  0.43496789222E+01 -0.36017771860E+02  0.82197585129E+01  0.37198978836E+02  0.00000000000E+00 0.  1.
</event>
<event>
 7    1  0.2459936E-009  0.4778727E+02  0.7816164E-02  0.1312668E+00
        -11   -1    0    0    0    0  0.00000000000E+00  0.00000000000E+00  0.45593999997E+02  0.45594000000E+02  0.51100000000E-03 0. -1.
         11   -1    0    0    0    0 -0.00000000000E+00 -0.00000000000E+00 -0.45593999997E+02  0.45594000000E+02  0.51100000000E-03 0.  1.
    9900012    2    1    2    0    0  0.40041015012E+02 -0.16370074504E+02 -0.35158130548E+01  0.47787272311E+02  0.20000005776E+02 0.  0.
         12    1    1    2    0    0 -0.40041015012E+02  0.16370074504E+02  0.35158130548E+01  0.43400727689E+02  0.00000000000E+00 0. -1.
         11    1    3    3    0    0  0.13810684510E+02 -0.13329295872E+02 -0.12460748981E+01  0.19234288081E+02  0.51100000000E-03 0. -1.
        -11    1    3    3    0    0  0.20490531764E+02 -0.66110450406E+01 -0.37908114568E+00  0.21533961811E+02  0.51100000000E-03 0.  1.
         12    1    3    3    0    0  0.57397987381E+01  0.35702664087E+01 -0.18906570110E+01  0.70190224189E+01  0.00000000000E+00 0. -1.
</event>
<event>
 7    1  0.2459936E-009  0.4778727E+02  0.7816164E-02  0.1312668E+00
        -11   -1    0    0    0    0  0.00000000000E+00  0.00000000000E+00  0.45593999997E+02  0.45594000000E+02  0.51100000000E-03 0. -1.
         11   -1    0    0    0    0 -0.00000000000E+00 -0.00000000000E+00 -0.45593999997E+02  0.45594000000E+02  0.51100000000E-03 0.  1.
    9900012    2    1    2    0    0 -0.30590300094E+02  0.28732756567E+02 -0.11058270850E+02  0.47787272887E+02  0.20000008400E+02 0.  0.
         12    1    1    2    0    0  0.30590300094E+02 -0.28732756567E+02  0.11058270850E+02  0.43400727113E+02  0.00000000000E+00 0. -1.
         11    1    3    3    0    0 -0.41893940631E+01  0.88913477538E+01 -0.30778909229E+01  0.10299538839E+02  0.51100000000E-03 0. -1.
        -11    1    3    3    0    0 -0.23951000761E+01  0.10339799038E+02 -0.41093567174E+01  0.11381333903E+02  0.51100000000E-03 0.  1.
         12    1    3    3    0    0 -0.24005805954E+02  0.95016097754E+01 -0.38710232097E+01  0.26106400145E+02  0.00000000000E+00 0. -1.
</event>
<event>
 7    1  0.2459936E-009  0.4778727E+02  0.7816164E-02  0.1312668E+00
        -11   -1    0    0    0    0  0.00000000000E+00  0.00000000000E+00  0.45593999997E+02  0.45594000000E+02  0.51100000000E-03 0.  1.
         11   -1    0    0    0    0 -0.00000000000E+00 -0.00000000000E+00 -0.45593999997E+02  0.45594000000E+02  0.51100000000E-03 0. -1.
    9900012    2    1    2    0    0 -0.42793319532E+02  0.72041704199E+01  0.67436233193E+00  0.47787273825E+02  0.20000012675E+02 0.  0.
         12    1    1    2    0    0  0.42793319532E+02 -0.72041704199E+01 -0.67436233193E+00  0.43400726175E+02  0.00000000000E+00 0. -1.
         11    1    3    3    0    0 -0.17940917225E+02  0.40597481402E+01 -0.80756620320E+01  0.20089160843E+02  0.51100000000E-03 0. -1.
        -11    1    3    3    0    0 -0.40230005589E+01  0.31115623629E+01 -0.49760866718E-01  0.50861409968E+01  0.51100000000E-03 0.  1.
        -12    1    3    3    0    0 -0.20829401748E+02  0.32859916864E-01  0.87997852306E+01  0.22611971985E+02  0.00000000000E+00 0.  1.
</event>
<event>
 7    1  0.2459936E-009  0.4778728E+02  0.7816164E-02  0.1312668E+00
        -11   -1    0    0    0    0  0.00000000000E+00  0.00000000000E+00  0.45593999997E+02  0.45594000000E+02  0.51100000000E-03 0. -1.
         11   -1    0    0    0    0 -0.00000000000E+00 -0.00000000000E+00 -0.45593999997E+02  0.45594000000E+02  0.51100000000E-03 0.  1.
    9900012    2    1    2    0    0 -0.19649345293E+02 -0.30616250784E+02 -0.23667937798E+02  0.47787275788E+02  0.20000021627E+02 0.  0.
         12    1    1    2    0    0  0.19649345293E+02  0.30616250784E+02  0.23667937798E+02  0.43400724212E+02  0.00000000000E+00 0. -1.
         11    1    3    3    0    0 -0.32649437724E+01 -0.51649727891E-01  0.20254150950E+00  0.32716278602E+01  0.51100000000E-03 0. -1.
        -11    1    3    3    0    0 -0.24865627286E+01 -0.53600465998E+01  0.15567819778E+01  0.61103734864E+01  0.51100000000E-03 0.  1.
        -12    1    3    3    0    0 -0.13897838792E+02 -0.25204554457E+02 -0.25427261285E+02  0.38405274441E+02  0.00000000000E+00 0.  1.
</event>
<event>
 7    1  0.2459936E-009  0.4778727E+02  0.7816164E-02  0.1312668E+00
        -11   -1    0    0    0    0  0.00000000000E+00  0.00000000000E+00  0.45593999997E+02  0.45594000000E+02  0.51100000000E-03 0. -1.
         11   -1    0    0    0    0 -0.00000000000E+00 -0.00000000000E+00 -0.45593999997E+02  0.45594000000E+02  0.51100000000E-03 0.  1.
    9900012    2    1    2    0    0  0.16045601543E+02  0.25473065041E+01 -0.40245162157E+02  0.47787272168E+02  0.20000005123E+02 0.  0.
         12    1    1    2    0    0 -0.16045601543E+02 -0.25473065041E+01  0.40245162157E+02  0.43400727832E+02  0.00000000000E+00 0. -1.
         11    1    3    3    0    0 -0.59602857585E+00 -0.38336781522E+00 -0.47073607810E+01  0.47604061516E+01  0.51100000000E-03 0. -1.
        -11    1    3    3    0    0  0.17061811520E+02 -0.13725979015E+01 -0.34600206088E+02  0.38602638497E+02  0.51100000000E-03 0.  1.
        -12    1    3    3    0    0 -0.42018140150E+00  0.43032722209E+01 -0.93759528801E+00  0.44242275191E+01  0.00000000000E+00 0.  1.
</event>
<event>
 7    1  0.2459936E-009  0.4778727E+02  0.7816164E-02  0.1312668E+00
        -11   -1    0    0    0    0  0.00000000000E+00  0.00000000000E+00  0.45593999997E+02  0.45594000000E+02  0.51100000000E-03 0.  1.
         11   -1    0    0    0    0 -0.00000000000E+00 -0.00000000000E+00 -0.45593999997E+02  0.45594000000E+02  0.51100000000E-03 0. -1.
    9900012    2    1    2    0    0 -0.26824400278E+02  0.25534076779E+02  0.22629308329E+02  0.47787272787E+02  0.20000007944E+02 0.  0.
         12    1    1    2    0    0  0.26824400278E+02 -0.25534076779E+02 -0.22629308329E+02  0.43400727213E+02  0.00000000000E+00 0. -1.
         11    1    3    3    0    0 -0.19809133447E+01  0.66896176116E+01  0.52364204924E+01  0.87232506157E+01  0.51100000000E-03 0. -1.
        -11    1    3    3    0    0 -0.18397652750E+02  0.21195914358E+02  0.14793685363E+02  0.31726858324E+02  0.51100000000E-03 0.  1.
        -12    1    3    3    0    0 -0.64458341827E+01 -0.23514551913E+01  0.25992024734E+01  0.73371638475E+01  0.00000000000E+00 0.  1.
</event>
<event>
 7    1  0.2459936E-009  0.4778726E+02  0.7816164E-02  0.1312668E+00
        -11   -1    0    0    0    0  0.00000000000E+00  0.00000000000E+00  0.45593999997E+02  0.45594000000E+02  0.51100000000E-03 0.  1.
         11   -1    0    0    0    0 -0.00000000000E+00 -0.00000000000E+00 -0.45593999997E+02  0.45594000000E+02  0.51100000000E-03 0. -1.
    9900012    2    1    2    0    0 -0.33583982150E+02  0.33703809288E+00  0.27488672760E+02  0.47787255976E+02  0.19999931299E+02 0.  0.
         12    1    1    2    0    0  0.33583982150E+02 -0.33703809288E+00 -0.27488672760E+02  0.43400744024E+02  0.00000000000E+00 0. -1.
         11    1    3    3    0    0 -0.14882336600E+02 -0.18620368536E+01  0.34720406598E+01  0.15395005376E+02  0.51100000000E-03 0. -1.
        -11    1    3    3    0    0 -0.18480039958E-02  0.24342387929E+01  0.76195193980E+00  0.25507043999E+01  0.51100000000E-03 0.  1.
        -12    1    3    3    0    0 -0.18699797546E+02 -0.23516384637E+00  0.23254680160E+02  0.29841546200E+02  0.00000000000E+00 0.  1.
</event>
<event>
 7    1  0.2459936E-009  0.4778727E+02  0.7816164E-02  0.1312668E+00
        -11   -1    0    0    0    0  0.00000000000E+00  0.00000000000E+00  0.45593999997E+02  0.45594000000E+02  0.51100000000E-03 0.  1.
         11   -1    0    0    0    0 -0.00000000000E+00 -0.00000000000E+00 -0.45593999997E+02  0.45594000000E+02  0.51100000000E-03 0. -1.
    9900012    2    1    2    0    0  0.55374567898E+01  0.15745108713E+02  0.40063094658E+02  0.47787269250E+02  0.19999991816E+02 0.  0.
         12    1    1    2    0    0 -0.55374567898E+01 -0.15745108713E+02 -0.40063094658E+02  0.43400730750E+02  0.00000000000E+00 0. -1.
         11    1    3    3    0    0  0.13354967871E+01  0.52546277474E+01  0.36861969795E+01  0.65561202601E+01  0.51100000000E-03 0. -1.
        -11    1    3    3    0    0 -0.27958300671E+01  0.11145414011E+02  0.28185362352E+02  0.30437666967E+02  0.51100000000E-03 0.  1.
        -12    1    3    3    0    0  0.69977900697E+01 -0.65493304538E+00  0.81915353268E+01  0.10793482022E+02  0.00000000000E+00 0.  1.
</event>
<event>
 7    1  0.2459936E-009  0.4778728E+02  0.7816164E-02  0.1312668E+00
        -11   -1    0    0    0    0  0.00000000000E+00  0.00000000000E+00  0.45593999997E+02  0.45594000000E+02  0.51100000000E-03 0.  1.
         11   -1    0    0    0    0 -0.00000000000E+00 -0.00000000000E+00 -0.45593999997E+02  0.45594000000E+02  0.51100000000E-03 0. -1.
    9900012    2    1    2    0    0  0.30998478722E+02 -0.18560796066E+02  0.24046075766E+02  0.47787278883E+02  0.20000035740E+02 0.  0.
         12    1    1    2    0    0 -0.30998478722E+02  0.18560796066E+02 -0.24046075766E+02  0.43400721117E+02  0.00000000000E+00 0. -1.
         11    1    3    3    0    0  0.13584313486E+02 -0.11382903320E+02  0.81092729897E+01  0.19490109531E+02  0.51100000000E-03 0. -1.
        -11    1    3    3    0    0  0.16372768577E+02 -0.98544614828E+01  0.16641406539E+02  0.25339975806E+02  0.51100000000E-03 0.  1.
         12    1    3    3    0    0  0.10413966600E+01  0.26765687363E+01 -0.70460376297E+00  0.29571935456E+01  0.00000000000E+00 0. -1.
</event>
<event>
 7    1  0.2459936E-009  0.4778727E+02  0.7816164E-02  0.1312668E+00
        -11   -1    0    0    0    0  0.00000000000E+00  0.00000000000E+00  0.45593999997E+02  0.45594000000E+02  0.51100000000E-03 0.  1.
         11   -1    0    0    0    0 -0.00000000000E+00 -0.00000000000E+00 -0.45593999997E+02  0.45594000000E+02  0.51100000000E-03 0. -1.
    9900012    2    1    2    0    0  0.40100825371E+02  0.13471306964E+00 -0.16599065718E+02  0.47787270447E+02  0.19999997276E+02 0.  0.
         12    1    1    2    0    0 -0.40100825371E+02 -0.13471306964E+00  0.16599065718E+02  0.43400729553E+02  0.00000000000E+00 0. -1.
         11    1    3    3    0    0 -0.15386422648E+00 -0.27586661375E+01  0.93181470826E+00  0.29158518430E+01  0.51100000000E-03 0. -1.
        -11    1    3    3    0    0  0.14986143578E+02 -0.28876866789E+01 -0.48461762997E+01  0.16012765491E+02  0.51100000000E-03 0.  1.
         12    1    3    3    0    0  0.25268546019E+02  0.57810658860E+01 -0.12684704127E+02  0.28858653113E+02  0.00000000000E+00 0. -1.
</event>
<event>
 7    1  0.2459936E-009  0.4778727E+02  0.7816164E-02  0.1312668E+00
        -11   -1    0    0    0    0  0.00000000000E+00  0.00000000000E+00  0.45593999997E+02  0.45594000000E+02  0.51100000000E-03 0.  1.
         11   -1    0    0    0    0 -0.00000000000E+00 -0.00000000000E+00 -0.45593999997E+02  0.45594000000E+02  0.51100000000E-03 0. -1.
    9900012    2    1    2    0    0  0.17139135080E+02  0.22496503227E+02  0.32920824235E+02  0.47787271008E+02  0.19999999832E+02 0.  0.
         12    1    1    2    0    0 -0.17139135080E+02 -0.22496503227E+02 -0.32920824235E+02  0.43400728992E+02  0.00000000000E+00 0. -1.
         11    1    3    3    0    0  0.39934851282E+01  0.15800545864E+02  0.13759354576E+02  0.21328971182E+02  0.51100000000E-03 0. -1.
        -11    1    3    3    0    0  0.36474826186E+00 -0.84477497825E+00  0.75763241411E+01  0.76319967119E+01  0.51100000000E-03 0.  1.
         12    1    3    3    0    0  0.12780901690E+02  0.75407323415E+01  0.11585145519E+02  0.18826303114E+02  0.00000000000E+00 0. -1.
</event>
<event>
 7    1  0.2459936E-009  0.4778727E+02  0.7816164E-02  0.1312668E+00
        -11   -1    0    0    0    0  0.00000000000E+00  0.00000000000E+00  0.45593999997E+02  0.45594000000E+02  0.51100000000E-03 0.  1.
         11   -1    0    0    0    0 -0.00000000000E+00 -0.00000000000E+00 -0.45593999997E+02  0.45594000000E+02  0.51100000000E-03 0. -1.
    9900012    2    1    2    0    0  0.13359878697E+02  0.36756611329E+02  0.18817242360E+02  0.47787269070E+02  0.19999990999E+02 0.  0.
         12    1    1    2    0    0 -0.13359878697E+02 -0.36756611329E+02 -0.18817242360E+02  0.43400730930E+02  0.00000000000E+00 0. -1.
         11    1    3    3    0    0  0.20765084264E+01  0.14810562571E+02  0.44918976704E+01  0.15615434539E+02  0.51100000000E-03 0. -1.
        -11    1    3    3    0    0  0.73400958100E+01  0.22628172101E+02  0.14986218031E+02  0.28115794676E+02  0.51100000000E-03 0.  1.
         12    1    3    3    0    0  0.39432744608E+01 -0.68212334304E+00 -0.66087334143E+00  0.40560398545E+01  0.00000000000E+00 0. -1.
</event>
<event>
 7    1  0.2459936E-009  0.4778729E+02  0.7816164E-02  0.1312668E+00
        -11   -1    0    0    0    0  0.00000000000E+00  0.00000000000E+00  0.45593999997E+02  0.45594000000E+02  0.51100000000E-03 0. -1.
         11   -1    0    0    0    0 -0.00000000000E+00 -0.00000000000E+00 -0.45593999997E+02  0.45594000000E+02  0.51100000000E-03 0.  1.
    9900012    2    1    2    0    0 -0.27301057051E+02 -0.29752151205E+02 -0.15908597277E+02  0.47787289353E+02  0.20000083474E+02 0.  0.
         12    1    1    2    0    0  0.27301057051E+02  0.29752151205E+02  0.15908597277E+02  0.43400710647E+02  0.00000000000E+00 0. -1.
         11    1    3    3    0    0 -0.31437841880E+01 -0.11624692807E+02 -0.43378820822E+00  0.12050105159E+02  0.51100000000E-03 0. -1.
        -11    1    3    3    0    0 -0.14701418622E+02 -0.47604829527E+01 -0.47600606715E+01  0.16169480057E+02  0.51100000000E-03 0.  1.
         12    1    3    3    0    0 -0.94558542402E+01 -0.13366975445E+02 -0.10714748397E+02  0.19567704136E+02  0.00000000000E+00 0. -1.
</event>
<event>
 7    1  0.2459936E-009  0.4778727E+02  0.7816164E-02  0.1312668E+00
        -11   -1    0    0    0    0  0.00000000000E+00  0.00000000000E+00  0.45593999997E+02  0.45594000000E+02  0.51100000000E-03 0. -1.
         11   -1    0    0    0    0 -0.00000000000E+00 -0.00000000000E+00 -0.45593999997E+02  0.45594000000E+02  0.51100000000E-03 0.  1.
    9900012    2    1    2    0    0  0.42593084850E+01  0.43087038916E+02 -0.29981379909E+01  0.47787268869E+02  0.19999990081E+02 0.  0.
         12    1    1    2    0    0 -0.42593084850E+01 -0.43087038916E+02  0.29981379909E+01  0.43400731131E+02  0.00000000000E+00 0. -1.
         11    1    3    3    0    0  0.13550724997E+01  0.75725582319E-01  0.16683705117E+01  0.21506780951E+01  0.51100000000E-03 0. -1.
        -11    1    3    3    0    0  0.71152078519E+01  0.11854717898E+02 -0.30297013714E+01  0.14154137554E+02  0.51100000000E-03 0.  1.
        -12    1    3    3    0    0 -0.42109718666E+01  0.31156595435E+02 -0.16368071312E+01  0.31482453220E+02  0.00000000000E+00 0.  1.
</event>
<event>
 7    1  0.2459936E-009  0.4778727E+02  0.7816164E-02  0.1312668E+00
        -11   -1    0    0    0    0  0.00000000000E+00  0.00000000000E+00  0.45593999997E+02  0.45594000000E+02  0.51100000000E-03 0.  1.
         11   -1    0    0    0    0 -0.00000000000E+00 -0.00000000000E+00 -0.45593999997E+02  0.45594000000E+02  0.51100000000E-03 0. -1.
    9900012    2    1    2    0    0 -0.31488678850E+02 -0.21407196924E+02  0.20828313889E+02  0.47787266880E+02  0.19999981014E+02 0.  0.
         12    1    1    2    0    0  0.31488678850E+02  0.21407196924E+02 -0.20828313889E+02  0.43400733120E+02  0.00000000000E+00 0. -1.
         11    1    3    3    0    0 -0.70185137850E+01 -0.79043890992E+01 -0.10505484377E+01  0.10622737644E+02  0.51100000000E-03 0. -1.
        -11    1    3    3    0    0 -0.27816392181E+01 -0.43808032475E+01  0.23463932292E+00  0.51946135281E+01  0.51100000000E-03 0.  1.
        -12    1    3    3    0    0 -0.21688525847E+02 -0.91220045773E+01  0.21644223004E+02  0.31969915708E+02  0.00000000000E+00 0.  1.
</event>
<event>
 7    1  0.2459936E-009  0.4778727E+02  0.7816164E-02  0.1312668E+00
        -11   -1    0    0    0    0  0.00000000000E+00  0.00000000000E+00  0.45593999997E+02  0.45594000000E+02  0.51100000000E-03 0.  1.
         11   -1    0    0    0    0 -0.00000000000E+00 -0.00000000000E+00 -0.45593999997E+02  0.45594000000E+02  0.51100000000E-03 0. -1.
    9900012    2    1    2    0    0 -0.37570862798E+02  0.11754600832E+02  0.18272466029E+02  0.47787269742E+02  0.19999994062E+02 0.  0.
         12    1    1    2    0    0  0.37570862798E+02 -0.11754600832E+02 -0.18272466029E+02  0.43400730258E+02  0.00000000000E+00 0. -1.
         11    1    3    3    0    0 -0.86063730848E+01  0.92151535777E+01  0.32749826752E+01  0.13027441227E+02  0.51100000000E-03 0. -1.
        -11    1    3    3    0    0 -0.35515961864E+01  0.40843275442E+01  0.43615941908E+00  0.54300830803E+01  0.51100000000E-03 0.  1.
        -12    1    3    3    0    0 -0.25412893527E+02 -0.15448802896E+01  0.14561323935E+02  0.29329745435E+02  0.00000000000E+00 0.  1.
</event>
<event>
 7    1  0.2459936E-009  0.4778728E+02  0.7816164E-02  0.1312668E+00
        -11   -1    0    0    0    0  0.00000000000E+00  0.00000000000E+00  0.45593999997E+02  0.45594000000E+02  0.51100000000E-03 0.  1.
         11   -1    0    0    0    0 -0.00000000000E+00 -0.00000000000E+00 -0.45593999997E+02  0.45594000000E+02  0.51100000000E-03 0. -1.
    9900012    2    1    2    0    0  0.17782394013E+02 -0.20939740411E+02  0.33599649206E+02  0.47787277746E+02  0.20000030557E+02 0.  0.
         12    1    1    2    0    0 -0.17782394013E+02  0.20939740411E+02 -0.33599649206E+02  0.43400722254E+02  0.00000000000E+00 0. -1.
         11    1    3    3    0    0  0.32694712048E+01 -0.13178036319E+02  0.10169755081E+02  0.16963902907E+02  0.51100000000E-03 0. -1.
        -11    1    3    3    0    0 -0.26963379475E+00 -0.41732158415E+01  0.86790646377E+01  0.96340332203E+01  0.51100000000E-03 0.  1.
         12    1    3    3    0    0  0.14782556603E+02 -0.35884882504E+01  0.14750829488E+02  0.21189341619E+02  0.00000000000E+00 0. -1.
</event>
<event>
 7    1  0.2459936E-009  0.4778727E+02  0.7816164E-02  0.1312668E+00
        -11   -1    0    0    0    0  0.00000000000E+00  0.00000000000E+00  0.45593999997E+02  0.45594000000E+02  0.51100000000E-03 0.  1.
         11   -1    0    0    0    0 -0.00000000000E+00 -0.00000000000E+00 -0.45593999997E+02  0.45594000000E+02  0.51100000000E-03 0. -1.
    9900012    2    1    2    0    0  0.41611952756E+02 -0.75616739887E+00 -0.12308408529E+02  0.47787270492E+02  0.19999997481E+02 0.  0.
         12    1    1    2    0    0 -0.41611952756E+02  0.75616739887E+00  0.12308408529E+02  0.43400729508E+02  0.00000000000E+00 0. -1.
         11    1    3    3    0    0  0.48422678228E+01 -0.13798734056E+01  0.25751617440E+01  0.56553573320E+01  0.51100000000E-03 0. -1.
        -11    1    3    3    0    0  0.27428282259E+02  0.10404828188E+01 -0.39267196175E+01  0.27727466516E+02  0.51100000000E-03 0.  1.
         12    1    3    3    0    0  0.93414026739E+01 -0.41677681207E+00 -0.10956850656E+02  0.14404446644E+02  0.00000000000E+00 0. -1.
</event>
<event>
 7    1  0.2459936E-009  0.4778727E+02  0.7816164E-02  0.1312668E+00
        -11   -1    0    0    0    0  0.00000000000E+00  0.00000000000E+00  0.45593999997E+02  0.45594000000E+02  0.51100000000E-03 0. -1.
         11   -1    0    0    0    0 -0.00000000000E+00 -0.00000000000E+00 -0.45593999997E+02  0.45594000000E+02  0.51100000000E-03 0.  1.
    9900012    2    1    2    0    0  0.43139557351E+02  0.22232263587E+01 -0.42023057696E+01  0.47787268236E+02  0.19999987193E+02 0.  0.
         12    1    1    2    0    0 -0.43139557351E+02 -0.22232263587E+01  0.42023057696E+01  0.43400731764E+02  0.00000000000E+00 0. -1.
         11    1    3    3    0    0  0.90334807279E+00 -0.19462790529E+01 -0.19750320174E+00  0.21547732289E+01  0.51100000000E-03 0. -1.
        -11    1    3    3    0    0  0.33961131505E+02 -0.19064834220E+01  0.13744781115E+01  0.34042360707E+02  0.51100000000E-03 0.  1.
         12    1    3    3    0    0  0.82750777730E+01  0.60759888336E+01 -0.53792806793E+01  0.11590134300E+02  0.00000000000E+00 0. -1.
</event>
<event>
 7    1  0.2459936E-009  0.4778727E+02  0.7816164E-02  0.1312668E+00
        -11   -1    0    0    0    0  0.00000000000E+00  0.00000000000E+00  0.45593999997E+02  0.45594000000E+02  0.51100000000E-03 0. -1.
         11   -1    0    0    0    0 -0.00000000000E+00 -0.00000000000E+00 -0.45593999997E+02  0.45594000000E+02  0.51100000000E-03 0.  1.
    9900012    2    1    2    0    0  0.19660893651E+02  0.28688397470E+02 -0.25962445973E+02  0.47787268561E+02  0.19999988677E+02 0.  0.
         12    1    1    2    0    0 -0.19660893651E+02 -0.28688397470E+02  0.25962445973E+02  0.43400731439E+02  0.00000000000E+00 0. -1.
         11    1    3    3    0    0  0.16306161550E+02  0.22652141996E+02 -0.23492448399E+02  0.36481578551E+02  0.51100000000E-03 0. -1.
        -11    1    3    3    0    0  0.27967299477E+01  0.79420335126E+01 -0.34399810946E+01  0.90956618730E+01  0.51100000000E-03 0.  1.
         12    1    3    3    0    0  0.55800215286E+00 -0.19057780389E+01  0.96998352084E+00  0.22100281372E+01  0.00000000000E+00 0. -1.
</event>
<event>
 7    1  0.2459936E-009  0.4778726E+02  0.7816164E-02  0.1312668E+00
        -11   -1    0    0    0    0  0.00000000000E+00  0.00000000000E+00  0.45593999997E+02  0.45594000000E+02  0.51100000000E-03 0. -1.
         11   -1    0    0    0    0 -0.00000000000E+00 -0.00000000000E+00 -0.45593999997E+02  0.45594000000E+02  0.51100000000E-03 0.  1.
    9900012    2    1    2    0    0 -0.41856634679E+02  0.94431538711E+01 -0.65171618836E+01  0.47787257833E+02  0.19999939763E+02 0.  0.
         12    1    1    2    0    0  0.41856634679E+02 -0.94431538711E+01  0.65171618836E+01  0.43400742167E+02  0.00000000000E+00 0. -1.
         11    1    3    3    0    0  0.12744822603E+01 -0.10262891349E+01  0.14633924559E+00  0.16428602668E+01  0.51100000000E-03 0. -1.
        -11    1    3    3    0    0 -0.44375430725E+01  0.48138270600E+01 -0.63699642448E+00  0.65780304187E+01  0.51100000000E-03 0.  1.
        -12    1    3    3    0    0 -0.38693573866E+02  0.56556159460E+01 -0.60265047047E+01  0.39566367147E+02  0.00000000000E+00 0.  1.
</event>
<event>
 7    1  0.2459936E-009  0.4778727E+02  0.7816164E-02  0.1312668E+00
        -11   -1    0    0    0    0  0.00000000000E+00  0.00000000000E+00  0.45593999997E+02  0.45594000000E+02  0.51100000000E-03 0. -1.
         11   -1    0    0    0    0 -0.00000000000E+00 -0.00000000000E+00 -0.45593999997E+02  0.45594000000E+02  0.51100000000E-03 0.  1.
    9900012    2    1    2    0    0  0.36432222423E+02  0.20015990068E+02 -0.12477033601E+02  0.47787273548E+02  0.20000011415E+02 0.  0.
         12    1    1    2    0    0 -0.36432222423E+02 -0.20015990068E+02  0.12477033601E+02  0.43400726452E+02  0.00000000000E+00 0. -1.
         11    1    3    3    0    0  0.90445964973E+01  0.13279824254E+01  0.91450013179E+00  0.91871961922E+01  0.51100000000E-03 0. -1.
        -11    1    3    3    0    0  0.25479475684E+02  0.15458623708E+02 -0.61287961441E+01  0.30425891450E+02  0.51100000000E-03 0.  1.
         12    1    3    3    0    0  0.19081502417E+01  0.32293839347E+01 -0.72627375889E+01  0.81741859061E+01  0.00000000000E+00 0. -1.
</event>
<event>
 7    1  0.2459936E-009  0.4778725E+02  0.7816164E-02  0.1312668E+00
        -11   -1    0    0    0    0  0.00000000000E+00  0.00000000000E+00  0.45593999997E+02  0.45594000000E+02  0.51100000000E-03 0.  1.
         11   -1    0    0    0    0 -0.00000000000E+00 -0.00000000000E+00 -0.45593999997E+02  0.45594000000E+02  0.51100000000E-03 0. -1.
    9900012    2    1    2    0    0 -0.33316844325E+02  0.13655067923E+01 -0.27780358042E+02  0.47787250957E+02  0.19999908413E+02 0.  0.
         12    1    1    2    0    0  0.33316844325E+02 -0.13655067923E+01  0.27780358042E+02  0.43400749043E+02  0.00000000000E+00 0. -1.
         11    1    3    3    0    0 -0.63704857700E+01 -0.54518950950E+01 -0.34076338332E+01  0.90508683382E+01  0.51100000000E-03 0. -1.
        -11    1    3    3    0    0 -0.15219287962E+02 -0.16484416837E+01 -0.15408395091E+02  0.21720099576E+02  0.51100000000E-03 0.  1.
         12    1    3    3    0    0 -0.11727070593E+02  0.84658435710E+01 -0.89643291171E+01  0.17016283043E+02  0.00000000000E+00 0. -1.
</event>
<event>
 7    1  0.2459936E-009  0.4778727E+02  0.7816164E-02  0.1312668E+00
        -11   -1    0    0    0    0  0.00000000000E+00  0.00000000000E+00  0.45593999997E+02  0.45594000000E+02  0.51100000000E-03 0.  1.
         11   -1    0    0    0    0 -0.00000000000E+00 -0.00000000000E+00 -0.45593999997E+02  0.45594000000E+02  0.51100000000E-03 0. -1.
    9900012    2    1    2    0    0 -0.11621776041E+02 -0.38058068861E+02  0.17324578037E+02  0.47787270883E+02  0.19999999262E+02 0.  0.
         12    1    1    2    0    0  0.11621776041E+02  0.38058068861E+02 -0.17324578037E+02  0.43400729117E+02  0.00000000000E+00 0. -1.
         11    1    3    3    0    0 -0.29443033304E+01 -0.18043454503E+00  0.55712554779E+01  0.63039960809E+01  0.51100000000E-03 0. -1.
        -11    1    3    3    0    0  0.16089745380E+01 -0.54024969436E+01  0.26120255670E+01  0.62127650940E+01  0.51100000000E-03 0.  1.
        -12    1    3    3    0    0 -0.10286447248E+02 -0.32475137372E+02  0.91412969923E+01  0.35270509708E+02  0.00000000000E+00 0.  1.
</event>
<event>
 7    1  0.2459936E-009  0.4778727E+02  0.7816164E-02  0.1312668E+00
        -11   -1    0    0    0    0  0.00000000000E+00  0.00000000000E+00  0.45593999997E+02  0.45594000000E+02  0.51100000000E-03 0. -1.
         11   -1    0    0    0    0 -0.00000000000E+00 -0.00000000000E+00 -0.45593999997E+02  0.45594000000E+02  0.51100000000E-03 0.  1.
    9900012    2    1    2    0    0 -0.48183184891E+01  0.34735590107E+02 -0.25570413689E+02  0.47787268793E+02  0.19999989733E+02 0.  0.
         12    1    1    2    0    0  0.48183184891E+01 -0.34735590107E+02  0.25570413689E+02  0.43400731207E+02  0.00000000000E+00 0. -1.
         11    1    3    3    0    0 -0.46257879101E+00  0.77409101333E+01 -0.72194977478E+01  0.10595131751E+02  0.51100000000E-03 0. -1.
        -11    1    3    3    0    0 -0.10271061967E+02  0.22132192798E+02 -0.16017590616E+02  0.29187186939E+02  0.51100000000E-03 0.  1.
         12    1    3    3    0    0  0.59153222692E+01  0.48624871749E+01 -0.23333253247E+01  0.80049501026E+01  0.00000000000E+00 0. -1.
</event>
<event>
 7    1  0.2459936E-009  0.4778727E+02  0.7816164E-02  0.1312668E+00
        -11   -1    0    0    0    0  0.00000000000E+00  0.00000000000E+00  0.45593999997E+02  0.45594000000E+02  0.51100000000E-03 0.  1.
         11   -1    0    0    0    0 -0.00000000000E+00 -0.00000000000E+00 -0.45593999997E+02  0.45594000000E+02  0.51100000000E-03 0. -1.
    9900012    2    1    2    0    0 -0.33774198589E+02 -0.24789604081E+01  0.27143714607E+02  0.47787274456E+02  0.20000015555E+02 0.  0.
         12    1    1    2    0    0  0.33774198589E+02  0.24789604081E+01 -0.27143714607E+02  0.43400725544E+02  0.00000000000E+00 0. -1.
         11    1    3    3    0    0 -0.73562647613E+01 -0.47863502737E+01  0.69941937390E+01  0.11222411795E+02  0.51100000000E-03 0. -1.
        -11    1    3    3    0    0 -0.12622585478E+02  0.31765144535E+01  0.18534199000E+02  0.22648100165E+02  0.51100000000E-03 0.  1.
         12    1    3    3    0    0 -0.13795348350E+02 -0.86912458791E+00  0.16153218684E+01  0.13916762496E+02  0.00000000000E+00 0. -1.
</event>
<event>
 7    1  0.2459936E-009  0.4778728E+02  0.7816164E-02  0.1312668E+00
        -11   -1    0    0    0    0  0.00000000000E+00  0.00000000000E+00  0.45593999997E+02  0.45594000000E+02  0.51100000000E-03 0.  1.
         11   -1    0    0    0    0 -0.00000000000E+00 -0.00000000000E+00 -0.45593999997E+02  0.45594000000E+02  0.51100000000E-03 0. -1.
    9900012    2    1    2    0    0  0.41189933546E+02  0.13511531977E+02 -0.21096771494E+01  0.47787275818E+02  0.20000021764E+02 0.  0.
         12    1    1    2    0    0 -0.41189933546E+02 -0.13511531977E+02  0.21096771494E+01  0.43400724182E+02  0.00000000000E+00 0. -1.
         11    1    3    3    0    0  0.10196741609E+02  0.61225520627E+01 -0.64607261817E+01  0.13535145594E+02  0.51100000000E-03 0. -1.
        -11    1    3    3    0    0  0.41418409278E+01  0.54261590250E+01  0.24850791692E+01  0.72645486284E+01  0.51100000000E-03 0.  1.
         12    1    3    3    0    0  0.26851351009E+02  0.19628208892E+01  0.18659698631E+01  0.26987581595E+02  0.00000000000E+00 0. -1.
</event>
<event>
 7    1  0.2459936E-009  0.4778727E+02  0.7816164E-02  0.1312668E+00
        -11   -1    0    0    0    0  0.00000000000E+00  0.00000000000E+00  0.45593999997E+02  0.45594000000E+02  0.51100000000E-03 0.  1.
         11   -1    0    0    0    0 -0.00000000000E+00 -0.00000000000E+00 -0.45593999997E+02  0.45594000000E+02  0.51100000000E-03 0. -1.
    9900012    2    1    2    0    0  0.38606131886E+02  0.16799333027E+02  0.10534329403E+02  0.47787272987E+02  0.20000008856E+02 0.  0.
         12    1    1    2    0    0 -0.38606131886E+02 -0.16799333027E+02 -0.10534329403E+02  0.43400727013E+02  0.00000000000E+00 0. -1.
         11    1    3    3    0    0  0.19084769306E+02  0.46683039249E+01  0.50627535145E+01  0.20289232474E+02  0.51100000000E-03 0. -1.
        -11    1    3    3    0    0  0.20815558130E+02  0.95796793536E+01  0.20024494064E+01  0.23001467794E+02  0.51100000000E-03 0.  1.
         12    1    3    3    0    0 -0.12941955504E+01  0.25513497479E+01  0.34691264826E+01  0.44965727183E+01  0.00000000000E+00 0. -1.
</event>
<event>
 7    1  0.2459936E-009  0.4778727E+02  0.7816164E-02  0.1312668E+00
        -11   -1    0    0    0    0  0.00000000000E+00  0.00000000000E+00  0.45593999997E+02  0.45594000000E+02  0.51100000000E-03 0.  1.
         11   -1    0    0    0    0 -0.00000000000E+00 -0.00000000000E+00 -0.45593999997E+02  0.45594000000E+02  0.51100000000E-03 0. -1.
    9900012    2    1    2    0    0 -0.89084215881E+01 -0.34722006697E+02  0.24467236978E+02  0.47787269481E+02  0.19999992872E+02 0.  0.
         12    1    1    2    0    0  0.89084215881E+01  0.34722006697E+02 -0.24467236978E+02  0.43400730519E+02  0.00000000000E+00 0. -1.
         11    1    3    3    0    0 -0.21532408909E+01 -0.16764873577E-01  0.50801085937E+01  0.55176291086E+01  0.51100000000E-03 0. -1.
        -11    1    3    3    0    0  0.25593859881E+01 -0.10286912782E+02  0.97869643156E+01  0.14427602087E+02  0.51100000000E-03 0.  1.
         12    1    3    3    0    0 -0.93145666853E+01 -0.24418329042E+02  0.96001640687E+01  0.27842038285E+02  0.00000000000E+00 0. -1.
</event>
<event>
 7    1  0.2459936E-009  0.4778727E+02  0.7816164E-02  0.1312668E+00
        -11   -1    0    0    0    0  0.00000000000E+00  0.00000000000E+00  0.45593999997E+02  0.45594000000E+02  0.51100000000E-03 0.  1.
         11   -1    0    0    0    0 -0.00000000000E+00 -0.00000000000E+00 -0.45593999997E+02  0.45594000000E+02  0.51100000000E-03 0. -1.
    9900012    2    1    2    0    0 -0.12313589478E+02  0.21366205500E+02  0.35713918149E+02  0.47787272209E+02  0.20000005308E+02 0.  0.
         12    1    1    2    0    0  0.12313589478E+02 -0.21366205500E+02 -0.35713918149E+02  0.43400727791E+02  0.00000000000E+00 0. -1.
         11    1    3    3    0    0 -0.80845381962E+01  0.11135485351E+02  0.19344938353E+02  0.23739954338E+02  0.51100000000E-03 0. -1.
        -11    1    3    3    0    0 -0.73185968979E+01  0.66653423730E+01  0.16596146385E+02  0.19324096993E+02  0.51100000000E-03 0.  1.
         12    1    3    3    0    0  0.30895456161E+01  0.35653777754E+01 -0.22716658890E+00  0.47232208772E+01  0.00000000000E+00 0. -1.
</event>
<event>
 7    1  0.2459936E-009  0.4778727E+02  0.7816164E-02  0.1312668E+00
        -11   -1    0    0    0    0  0.00000000000E+00  0.00000000000E+00  0.45593999997E+02  0.45594000000E+02  0.51100000000E-03 0.  1.
         11   -1    0    0    0    0 -0.00000000000E+00 -0.00000000000E+00 -0.45593999997E+02  0.45594000000E+02  0.51100000000E-03 0. -1.
    9900012    2    1    2    0    0  0.11011921009E+02  0.28394600530E+02  0.30920984135E+02  0.47787274160E+02  0.20000014204E+02 0.  0.
         12    1    1    2    0    0 -0.11011921009E+02 -0.28394600530E+02 -0.30920984135E+02  0.43400725840E+02  0.00000000000E+00 0. -1.
         11    1    3    3    0    0 -0.18718581288E+01  0.13341332733E+00  0.19978880586E+01  0.27410233355E+01  0.51100000000E-03 0. -1.
        -11    1    3    3    0    0  0.97552054536E+01  0.74779734500E+01  0.16690693409E+02  0.20728322824E+02  0.51100000000E-03 0.  1.
        -12    1    3    3    0    0  0.31285736841E+01  0.20783213753E+02  0.12232402667E+02  0.24317928000E+02  0.00000000000E+00 0.  1.
</event>
<event>
 7    1  0.2459936E-009  0.4778727E+02  0.7816164E-02  0.1312668E+00
        -11   -1    0    0    0    0  0.00000000000E+00  0.00000000000E+00  0.45593999997E+02  0.45594000000E+02  0.51100000000E-03 0. -1.
         11   -1    0    0    0    0 -0.00000000000E+00 -0.00000000000E+00 -0.45593999997E+02  0.45594000000E+02  0.51100000000E-03 0.  1.
    9900012    2    1    2    0    0 -0.16717216037E+02  0.34063209088E+02 -0.21067886663E+02  0.47787269892E+02  0.19999994748E+02 0.  0.
         12    1    1    2    0    0  0.16717216037E+02 -0.34063209088E+02  0.21067886663E+02  0.43400730108E+02  0.00000000000E+00 0. -1.
         11    1    3    3    0    0 -0.21457665642E+01  0.61490814585E+01 -0.72757432324E+00  0.65532344371E+01  0.51100000000E-03 0. -1.
        -11    1    3    3    0    0 -0.11949510641E+02  0.53030934851E+01 -0.65854580177E+01  0.14638369535E+02  0.51100000000E-03 0.  1.
         12    1    3    3    0    0 -0.26219388317E+01  0.22611034145E+02 -0.13754854322E+02  0.26595665920E+02  0.00000000000E+00 0. -1.
</event>
<event>
 7    1  0.2459936E-009  0.4778727E+02  0.7816164E-02  0.1312668E+00
        -11   -1    0    0    0    0  0.00000000000E+00  0.00000000000E+00  0.45593999997E+02  0.45594000000E+02  0.51100000000E-03 0.  1.
         11   -1    0    0    0    0 -0.00000000000E+00 -0.00000000000E+00 -0.45593999997E+02  0.45594000000E+02  0.51100000000E-03 0. -1.
    9900012    2    1    2    0    0 -0.23294078871E+02  0.11861979551E+02  0.34645385434E+02  0.47787269578E+02  0.19999993314E+02 0.  0.
         12    1    1    2    0    0  0.23294078871E+02 -0.11861979551E+02 -0.34645385434E+02  0.43400730422E+02  0.00000000000E+00 0. -1.
         11    1    3    3    0    0 -0.54992453447E+00  0.26672258676E+01 -0.21325216575E+01  0.34589246455E+01  0.51100000000E-03 0. -1.
        -11    1    3    3    0    0 -0.18664900772E+01  0.17495651967E+01  0.44118412464E+01  0.50999124532E+01  0.51100000000E-03 0.  1.
         12    1    3    3    0    0 -0.20877664259E+02  0.74451884866E+01  0.32366065845E+02  0.39228432479E+02  0.00000000000E+00 0. -1.
</event>
<event>
 7    1  0.2459936E-009  0.4778724E+02  0.7816164E-02  0.1312668E+00
        -11   -1    0    0    0    0  0.00000000000E+00  0.00000000000E+00  0.45593999997E+02  0.45594000000E+02  0.51100000000E-03 0. -1.
         11   -1    0    0    0    0 -0.00000000000E+00 -0.00000000000E+00 -0.45593999997E+02  0.45594000000E+02  0.51100000000E-03 0.  1.
    9900012    2    1    2    0    0 -0.37952971450E+02 -0.94503734318E+01 -0.18811910545E+02  0.47787244497E+02  0.19999878960E+02 0.  0.
         12    1    1    2    0    0  0.37952971450E+02  0.94503734318E+01  0.18811910545E+02  0.43400755503E+02  0.00000000000E+00 0. -1.
         11    1    3    3    0    0 -0.14332956612E+01 -0.27647003800E+01  0.18751610747E+01  0.36351250269E+01  0.51100000000E-03 0. -1.
        -11    1    3    3    0    0 -0.17226658349E+02 -0.40809937582E+01 -0.32141904446E+01  0.17992867709E+02  0.51100000000E-03 0.  1.
        -12    1    3    3    0    0 -0.19293017440E+02 -0.26046792935E+01 -0.17472881175E+02  0.26159251761E+02  0.00000000000E+00 0.  1.
</event>
<event>
 7    1  0.2459936E-009  0.4778729E+02  0.7816164E-02  0.1312668E+00
        -11   -1    0    0    0    0  0.00000000000E+00  0.00000000000E+00  0.45593999997E+02  0.45594000000E+02  0.51100000000E-03 0.  1.
         11   -1    0    0    0    0 -0.00000000000E+00 -0.00000000000E+00 -0.45593999997E+02  0.45594000000E+02  0.51100000000E-03 0. -1.
    9900012    2    1    2    0    0  0.30526621758E+02 -0.27097109451E+02  0.14747669991E+02  0.47787288638E+02  0.20000080217E+02 0.  0.
         12    1    1    2    0    0 -0.30526621758E+02  0.27097109451E+02 -0.14747669991E+02  0.43400711362E+02  0.00000000000E+00 0. -1.
         11    1    3    3    0    0  0.17751175993E+01  0.78569878875E+00 -0.16675630633E+00  0.19483770181E+01  0.51100000000E-03 0. -1.
        -11    1    3    3    0    0  0.21316584831E+02 -0.12556495490E+02  0.27188802971E+01  0.24888846461E+02  0.51100000000E-03 0.  1.
         12    1    3    3    0    0  0.74349193278E+01 -0.15326312750E+02  0.12195546000E+02  0.20950065159E+02  0.00000000000E+00 0. -1.
</event>
<event>
 7    1  0.2459936E-009  0.4778726E+02  0.7816164E-02  0.1312668E+00
        -11   -1    0    0    0    0  0.00000000000E+00  0.00000000000E+00  0.45593999997E+02  0.45594000000E+02  0.51100000000E-03 0.  1.
         11   -1    0    0    0    0 -0.00000000000E+00 -0.00000000000E+00 -0.45593999997E+02  0.45594000000E+02  0.51100000000E-03 0. -1.
    9900012    2    1    2    0    0 -0.30881070112E+02 -0.26568671076E+02  0.14969606099E+02  0.47787264053E+02  0.19999968121E+02 0.  0.
         12    1    1    2    0    0  0.30881070112E+02  0.26568671076E+02 -0.14969606099E+02  0.43400735947E+02  0.00000000000E+00 0. -1.
         11    1    3    3    0    0 -0.29866601740E+01 -0.12484754846E+02  0.28634169632E+01  0.13152505447E+02  0.51100000000E-03 0. -1.
        -11    1    3    3    0    0 -0.43886548177E+01 -0.56261582122E+01  0.48270125089E+01  0.86147546314E+01  0.51100000000E-03 0.  1.
        -12    1    3    3    0    0 -0.23505755120E+02 -0.84577580185E+01  0.72791766266E+01  0.26020003975E+02  0.00000000000E+00 0.  1.
</event>
<event>
 7    1  0.2459936E-009  0.4778727E+02  0.7816164E-02  0.1312668E+00
        -11   -1    0    0    0    0  0.00000000000E+00  0.00000000000E+00  0.45593999997E+02  0.45594000000E+02  0.51100000000E-03 0. -1.
         11   -1    0    0    0    0 -0.00000000000E+00 -0.00000000000E+00 -0.45593999997E+02  0.45594000000E+02  0.51100000000E-03 0.  1.
    9900012    2    1    2    0    0  0.28489899934E+02  0.26726894538E+02 -0.18910887410E+02  0.47787274747E+02  0.20000016879E+02 0.  0.
         12    1    1    2    0    0 -0.28489899934E+02 -0.26726894538E+02  0.18910887410E+02  0.43400725253E+02  0.00000000000E+00 0. -1.
         11    1    3    3    0    0  0.18637106207E+02  0.76981177669E+01 -0.15431175153E+02  0.25391414135E+02  0.51100000000E-03 0. -1.
        -11    1    3    3    0    0  0.74366940180E+01  0.95009708797E+01 -0.35131541674E+01  0.12566428213E+02  0.51100000000E-03 0.  1.
         12    1    3    3    0    0  0.24160997090E+01  0.95278058913E+01  0.33441910191E-01  0.98294323981E+01  0.00000000000E+00 0. -1.
</event>
<event>
 7    1  0.2459936E-009  0.4778728E+02  0.7816164E-02  0.1312668E+00
        -11   -1    0    0    0    0  0.00000000000E+00  0.00000000000E+00  0.45593999997E+02  0.45594000000E+02  0.51100000000E-03 0.  1.
         11   -1    0    0    0    0 -0.00000000000E+00 -0.00000000000E+00 -0.45593999997E+02  0.45594000000E+02  0.51100000000E-03 0. -1.
    9900012    2    1    2    0    0  0.39518507423E+02 -0.40808707349E+01  0.17471604937E+02  0.47787275191E+02  0.20000018905E+02 0.  0.
         12    1    1    2    0    0 -0.39518507423E+02  0.40808707349E+01 -0.17471604937E+02  0.43400724809E+02  0.00000000000E+00 0. -1.
         11    1    3    3    0    0  0.96722865776E+01  0.56078619190E+01  0.59557760163E+01  0.12667774515E+02  0.51100000000E-03 0. -1.
        -11    1    3    3    0    0  0.13402267129E+02 -0.16722559484E+01  0.99166644671E+01  0.16755818051E+02  0.51100000000E-03 0.  1.
         12    1    3    3    0    0  0.16443953717E+02 -0.80164767054E+01  0.15991644534E+01  0.18363682625E+02  0.00000000000E+00 0. -1.
</event>
<event>
 7    1  0.2459936E-009  0.4778729E+02  0.7816164E-02  0.1312668E+00
        -11   -1    0    0    0    0  0.00000000000E+00  0.00000000000E+00  0.45593999997E+02  0.45594000000E+02  0.51100000000E-03 0. -1.
         11   -1    0    0    0    0 -0.00000000000E+00 -0.00000000000E+00 -0.45593999997E+02  0.45594000000E+02  0.51100000000E-03 0.  1.
    9900012    2    1    2    0    0  0.32169085773E+02  0.28252728171E+02 -0.71102256416E+01  0.47787285291E+02  0.20000064955E+02 0.  0.
         12    1    1    2    0    0 -0.32169085773E+02 -0.28252728171E+02  0.71102256416E+01  0.43400714709E+02  0.00000000000E+00 0. -1.
         11    1    3    3    0    0 -0.14925667122E+01 -0.10187940023E+00 -0.18518892802E+01  0.23806782583E+01  0.51100000000E-03 0. -1.
        -11    1    3    3    0    0  0.39817539557E+01  0.28243241218E+01 -0.38747403004E+01  0.62325583804E+01  0.51100000000E-03 0.  1.
        -12    1    3    3    0    0  0.29679898530E+02  0.25530283449E+02 -0.13835960611E+01  0.39174048652E+02  0.00000000000E+00 0.  1.
</event>
<event>
 7    1  0.2459936E-009  0.4778727E+02  0.7816164E-02  0.1312668E+00
        -11   -1    0    0    0    0  0.00000000000E+00  0.00000000000E+00  0.45593999997E+02  0.45594000000E+02  0.51100000000E-03 0. -1.
         11   -1    0    0    0    0 -0.00000000000E+00 -0.00000000000E+00 -0.45593999997E+02  0.45594000000E+02  0.51100000000E-03 0.  1.
    9900012    2    1    2    0    0  0.36492917202E+02 -0.23266971954E+02 -0.32463145719E+01  0.47787267885E+02  0.19999985597E+02 0.  0.
         12    1    1    2    0    0 -0.36492917202E+02  0.23266971954E+02  0.32463145719E+01  0.43400732115E+02  0.00000000000E+00 0. -1.
         11    1    3    3    0    0  0.10639723307E+02 -0.27615601519E+01  0.17431100523E+01  0.11129616320E+02  0.51100000000E-03 0. -1.
        -11    1    3    3    0    0  0.24313137420E+02 -0.20289359719E+02 -0.24807858070E+00  0.31667780349E+02  0.51100000000E-03 0.  1.
        -12    1    3    3    0    0  0.15400564747E+01 -0.21605208314E+00 -0.47413460435E+01  0.49898712160E+01  0.00000000000E+00 0.  1.
</event>
<event>
 7    1  0.2459936E-009  0.4778726E+02  0.7816164E-02  0.1312668E+00
        -11   -1    0    0    0    0  0.00000000000E+00  0.00000000000E+00  0.45593999997E+02  0.45594000000E+02  0.51100000000E-03 0.  1.
         11   -1    0    0    0    0 -0.00000000000E+00 -0.00000000000E+00 -0.45593999997E+02  0.45594000000E+02  0.51100000000E-03 0. -1.
    9900012    2    1    2    0    0 -0.36342194610E+02  0.18217821666E+02  0.15198015442E+02  0.47787264883E+02  0.19999971906E+02 0.  0.
         12    1    1    2    0    0  0.36342194610E+02 -0.18217821666E+02 -0.15198015442E+02  0.43400735117E+02  0.00000000000E+00 0. -1.
         11    1    3    3    0    0 -0.34424207650E+00 -0.18662349729E+01  0.18513464449E+01  0.26511920906E+01  0.51100000000E-03 0. -1.
        -11    1    3    3    0    0 -0.24007168534E+01  0.62830552336E+01  0.30364257437E+01  0.73797090754E+01  0.51100000000E-03 0.  1.
        -12    1    3    3    0    0 -0.33597235680E+02  0.13801001406E+02  0.10310243253E+02  0.37756363717E+02  0.00000000000E+00 0.  1.
</event>
<event>
 7    1  0.2459936E-009  0.4778728E+02  0.7816164E-02  0.1312668E+00
        -11   -1    0    0    0    0  0.00000000000E+00  0.00000000000E+00  0.45593999997E+02  0.45594000000E+02  0.51100000000E-03 0. -1.
         11   -1    0    0    0    0 -0.00000000000E+00 -0.00000000000E+00 -0.45593999997E+02  0.45594000000E+02  0.51100000000E-03 0.  1.
    9900012    2    1    2    0    0  0.28194387065E+02 -0.32229751410E+02 -0.70669806577E+01  0.47787279343E+02  0.20000037837E+02 0.  0.
         12    1    1    2    0    0 -0.28194387065E+02  0.32229751410E+02  0.70669806577E+01  0.43400720657E+02  0.00000000000E+00 0. -1.
         11    1    3    3    0    0  0.36372088134E+01 -0.62486175244E+01 -0.52164795335E+01  0.89155015508E+01  0.51100000000E-03 0. -1.
        -11    1    3    3    0    0  0.11847928855E+02 -0.20366867640E+02 -0.61060106930E+01  0.24340626173E+02  0.51100000000E-03 0.  1.
         12    1    3    3    0    0  0.12709249397E+02 -0.56142662453E+01  0.42555095688E+01  0.14531151620E+02  0.00000000000E+00 0. -1.
</event>
<event>
 7    1  0.2459936E-009  0.4778728E+02  0.7816164E-02  0.1312668E+00
        -11   -1    0    0    0    0  0.00000000000E+00  0.00000000000E+00  0.45593999997E+02  0.45594000000E+02  0.51100000000E-03 0.  1.
         11   -1    0    0    0    0 -0.00000000000E+00 -0.00000000000E+00 -0.45593999997E+02  0.45594000000E+02  0.51100000000E-03 0. -1.
    9900012    2    1    2    0    0  0.64992021638E+01 -0.36052008621E+02  0.23273067883E+02  0.47787278312E+02  0.20000033136E+02 0.  0.
         12    1    1    2    0    0 -0.64992021638E+01  0.36052008621E+02 -0.23273067883E+02  0.43400721688E+02  0.00000000000E+00 0. -1.
         11    1    3    3    0    0  0.31840251839E+01 -0.29241702183E+01  0.67416653217E+01  0.80086727620E+01  0.51100000000E-03 0. -1.
        -11    1    3    3    0    0 -0.53441877167E+00 -0.23128632811E+02  0.17517550041E+02  0.29018680515E+02  0.51100000000E-03 0.  1.
         12    1    3    3    0    0  0.38495957516E+01 -0.99992055908E+01 -0.98614747978E+00  0.10759925035E+02  0.00000000000E+00 0. -1.
</event>
<event>
 7    1  0.2459936E-009  0.4778727E+02  0.7816164E-02  0.1312668E+00
        -11   -1    0    0    0    0  0.00000000000E+00  0.00000000000E+00  0.45593999997E+02  0.45594000000E+02  0.51100000000E-03 0. -1.
         11   -1    0    0    0    0 -0.00000000000E+00 -0.00000000000E+00 -0.45593999997E+02  0.45594000000E+02  0.51100000000E-03 0.  1.
    9900012    2    1    2    0    0  0.10136329369E+02 -0.16404499159E+02 -0.38881491653E+02  0.47787272369E+02  0.20000006040E+02 0.  0.
         12    1    1    2    0    0 -0.10136329369E+02  0.16404499159E+02  0.38881491653E+02  0.43400727631E+02  0.00000000000E+00 0. -1.
         11    1    3    3    0    0  0.46128235134E+01 -0.85846565895E+01 -0.33505506383E+02  0.34894031406E+02  0.51100000000E-03 0. -1.
        -11    1    3    3    0    0  0.30718825100E+01 -0.15615615761E+01 -0.51141371410E+01  0.61667929809E+01  0.51100000000E-03 0.  1.
         12    1    3    3    0    0  0.24516233452E+01 -0.62582809933E+01 -0.26184812929E+00  0.67264479825E+01  0.00000000000E+00 0. -1.
</event>
<event>
 7    1  0.2459936E-009  0.4778727E+02  0.7816164E-02  0.1312668E+00
        -11   -1    0    0    0    0  0.00000000000E+00  0.00000000000E+00  0.45593999997E+02  0.45594000000E+02  0.51100000000E-03 0.  1.
         11   -1    0    0    0    0 -0.00000000000E+00 -0.00000000000E+00 -0.45593999997E+02  0.45594000000E+02  0.51100000000E-03 0. -1.
    9900012    2    1    2    0    0 -0.26114369472E+01 -0.43262836692E+01  0.43105531197E+02  0.47787272436E+02  0.20000006345E+02 0.  0.
         12    1    1    2    0    0  0.26114369472E+01  0.43262836692E+01 -0.43105531197E+02  0.43400727564E+02  0.00000000000E+00 0. -1.
         11    1    3    3    0    0 -0.66586859673E+01 -0.44880107466E+01  0.13885204891E+02  0.16039926883E+02  0.51100000000E-03 0. -1.
        -11    1    3    3    0    0  0.64215588994E+00 -0.41444853790E+01  0.23295903497E+02  0.23670408599E+02  0.51100000000E-03 0.  1.
         12    1    3    3    0    0  0.34050931302E+01  0.43062124564E+01  0.59244228086E+01  0.80769369541E+01  0.00000000000E+00 0. -1.
</event>
<event>
 7    1  0.2459936E-009  0.4778727E+02  0.7816164E-02  0.1312668E+00
        -11   -1    0    0    0    0  0.00000000000E+00  0.00000000000E+00  0.45593999997E+02  0.45594000000E+02  0.51100000000E-03 0. -1.
         11   -1    0    0    0    0 -0.00000000000E+00 -0.00000000000E+00 -0.45593999997E+02  0.45594000000E+02  0.51100000000E-03 0.  1.
    9900012    2    1    2    0    0 -0.29367784674E+01  0.31433509967E+02 -0.29781422177E+02  0.47787270473E+02  0.19999997394E+02 0.  0.
         12    1    1    2    0    0  0.29367784674E+01 -0.31433509967E+02  0.29781422177E+02  0.43400729527E+02  0.00000000000E+00 0. -1.
         11    1    3    3    0    0  0.23599788687E+01  0.62552049282E+01 -0.17063928240E+01  0.68999178028E+01  0.51100000000E-03 0. -1.
        -11    1    3    3    0    0  0.31108427969E+01  0.35291729855E+01 -0.34585838135E+00  0.47172050146E+01  0.51100000000E-03 0.  1.
        -12    1    3    3    0    0 -0.84076001330E+01  0.21649132053E+02 -0.27729170972E+02  0.36170147656E+02  0.00000000000E+00 0.  1.
</event>
<event>
 7    1  0.2459936E-009  0.4778728E+02  0.7816164E-02  0.1312668E+00
        -11   -1    0    0    0    0  0.00000000000E+00  0.00000000000E+00  0.45593999997E+02  0.45594000000E+02  0.51100000000E-03 0.  1.
         11   -1    0    0    0    0 -0.00000000000E+00 -0.00000000000E+00 -0.45593999997E+02  0.45594000000E+02  0.51100000000E-03 0. -1.
    9900012    2    1    2    0    0 -0.61009230485E+01 -0.37245513341E+02  0.21428311897E+02  0.47787284835E+02  0.20000062878E+02 0.  0.
         12    1    1    2    0    0  0.61009230485E+01  0.37245513341E+02 -0.21428311897E+02  0.43400715165E+02  0.00000000000E+00 0. -1.
         11    1    3    3    0    0 -0.74868818518E+01 -0.13222236740E+02  0.12006800358E+02  0.19366057920E+02  0.51100000000E-03 0. -1.
        -11    1    3    3    0    0 -0.31196634836E+01 -0.19787846464E+02  0.96452870798E+01  0.22233369764E+02  0.51100000000E-03 0.  1.
         12    1    3    3    0    0  0.45056222869E+01 -0.42354301367E+01 -0.22377554061E+00  0.61878571515E+01  0.00000000000E+00 0. -1.
</event>
<event>
 7    1  0.2459936E-009  0.4778727E+02  0.7816164E-02  0.1312668E+00
        -11   -1    0    0    0    0  0.00000000000E+00  0.00000000000E+00  0.45593999997E+02  0.45594000000E+02  0.51100000000E-03 0.  1.
         11   -1    0    0    0    0 -0.00000000000E+00 -0.00000000000E+00 -0.45593999997E+02  0.45594000000E+02  0.51100000000E-03 0. -1.
    9900012    2    1    2    0    0  0.35121666230E+02  0.23751222838E+02 -0.92720752277E+01  0.47787269544E+02  0.19999993158E+02 0.  0.
         12    1    1    2    0    0 -0.35121666230E+02 -0.23751222838E+02  0.92720752277E+01  0.43400730456E+02  0.00000000000E+00 0. -1.
         11    1    3    3    0    0  0.40692573437E+01  0.27131951908E+01  0.15688142447E+01  0.51362887252E+01  0.51100000000E-03 0. -1.
        -11    1    3    3    0    0  0.14338010153E+02  0.27071198147E+01  0.19826677685E+01  0.14725420353E+02  0.51100000000E-03 0.  1.
         12    1    3    3    0    0  0.16714398734E+02  0.18330907833E+02 -0.12823557241E+02  0.27925560465E+02  0.00000000000E+00 0. -1.
</event>
<event>
 7    1  0.2459936E-009  0.4778727E+02  0.7816164E-02  0.1312668E+00
        -11   -1    0    0    0    0  0.00000000000E+00  0.00000000000E+00  0.45593999997E+02  0.45594000000E+02  0.51100000000E-03 0.  1.
         11   -1    0    0    0    0 -0.00000000000E+00 -0.00000000000E+00 -0.45593999997E+02  0.45594000000E+02  0.51100000000E-03 0. -1.
    9900012    2    1    2    0    0  0.37740634561E+02  0.21078009696E+01  0.21326623892E+02  0.47787271796E+02  0.20000003427E+02 0.  0.
         12    1    1    2    0    0 -0.37740634561E+02 -0.21078009696E+01 -0.21326623892E+02  0.43400728204E+02  0.00000000000E+00 0. -1.
         11    1    3    3    0    0  0.11554920017E+01 -0.18840989163E+01  0.70290696416E+01  0.73683655433E+01  0.51100000000E-03 0. -1.
        -11    1    3    3    0    0  0.85279967589E+01 -0.20580792547E+01  0.11463514006E+01  0.88474030502E+01  0.51100000000E-03 0.  1.
         12    1    3    3    0    0  0.28057145801E+02  0.60499791407E+01  0.13151202850E+02  0.31571503203E+02  0.00000000000E+00 0. -1.
</event>
<event>
 7    1  0.2459936E-009  0.4778727E+02  0.7816164E-02  0.1312668E+00
        -11   -1    0    0    0    0  0.00000000000E+00  0.00000000000E+00  0.45593999997E+02  0.45594000000E+02  0.51100000000E-03 0.  1.
         11   -1    0    0    0    0 -0.00000000000E+00 -0.00000000000E+00 -0.45593999997E+02  0.45594000000E+02  0.51100000000E-03 0. -1.
    9900012    2    1    2    0    0 -0.37803690923E+02  0.20848823262E+02  0.44531825076E+01  0.47787270591E+02  0.19999997932E+02 0.  0.
         12    1    1    2    0    0  0.37803690923E+02 -0.20848823262E+02 -0.44531825076E+01  0.43400729409E+02  0.00000000000E+00 0. -1.
         11    1    3    3    0    0 -0.21421814236E+02  0.47015093270E+01 -0.32846124880E+00  0.21934133267E+02  0.51100000000E-03 0. -1.
        -11    1    3    3    0    0 -0.24263993308E+01 -0.14955308197E+01  0.11182608383E+01  0.30617860325E+01  0.51100000000E-03 0.  1.
        -12    1    3    3    0    0 -0.13955477356E+02  0.17642844755E+02  0.36633829181E+01  0.22791351291E+02  0.00000000000E+00 0.  1.
</event>
<event>
 7    1  0.2459936E-009  0.4778728E+02  0.7816164E-02  0.1312668E+00
        -11   -1    0    0    0    0  0.00000000000E+00  0.00000000000E+00  0.45593999997E+02  0.45594000000E+02  0.51100000000E-03 0. -1.
         11   -1    0    0    0    0 -0.00000000000E+00 -0.00000000000E+00 -0.45593999997E+02  0.45594000000E+02  0.51100000000E-03 0.  1.
    9900012    2    1    2    0    0  0.28656987414E+02 -0.30584358098E+02 -0.11269265132E+02  0.47787283134E+02  0.20000055120E+02 0.  0.
         12    1    1    2    0    0 -0.28656987414E+02  0.30584358098E+02  0.11269265132E+02  0.43400716866E+02  0.00000000000E+00 0. -1.
         11    1    3    3    0    0 -0.77836048517E+00 -0.25805021853E+00 -0.13575037338E+00  0.83118192061E+00  0.51100000000E-03 0. -1.
        -11    1    3    3    0    0  0.10174647647E+02 -0.16490430586E+02 -0.12734942192E+02  0.23186990070E+02  0.51100000000E-03 0.  1.
         12    1    3    3    0    0  0.19260700252E+02 -0.13835877293E+02  0.16014274326E+01  0.23769111143E+02  0.00000000000E+00 0. -1.
</event>
<event>
 7    1  0.2459936E-009  0.4778727E+02  0.7816164E-02  0.1312668E+00
        -11   -1    0    0    0    0  0.00000000000E+00  0.00000000000E+00  0.45593999997E+02  0.45594000000E+02  0.51100000000E-03 0. -1.
         11   -1    0    0    0    0 -0.00000000000E+00 -0.00000000000E+00 -0.45593999997E+02  0.45594000000E+02  0.51100000000E-03 0.  1.
    9900012    2    1    2    0    0 -0.31310979764E+02 -0.29109091443E+02 -0.74770969577E+01  0.47787266857E+02  0.19999980907E+02 0.  0.
         12    1    1    2    0    0  0.31310979764E+02  0.29109091443E+02  0.74770969577E+01  0.43400733143E+02  0.00000000000E+00 0. -1.
         11    1    3    3    0    0 -0.43293293761E+01 -0.21137647010E+01  0.18145287612E+01  0.51481655902E+01  0.51100000000E-03 0. -1.
        -11    1    3    3    0    0 -0.12264028134E+02 -0.14541793003E+02  0.37152926722E+01  0.19382299392E+02  0.51100000000E-03 0.  1.
         12    1    3    3    0    0 -0.14717622254E+02 -0.12453533739E+02 -0.13006918391E+02  0.23256801875E+02  0.00000000000E+00 0. -1.
</event>
<event>
 7    1  0.2459936E-009  0.4778727E+02  0.7816164E-02  0.1312668E+00
        -11   -1    0    0    0    0  0.00000000000E+00  0.00000000000E+00  0.45593999997E+02  0.45594000000E+02  0.51100000000E-03 0. -1.
         11   -1    0    0    0    0 -0.00000000000E+00 -0.00000000000E+00 -0.45593999997E+02  0.45594000000E+02  0.51100000000E-03 0.  1.
    9900012    2    1    2    0    0  0.41577720000E+02 -0.60491323123E+01 -0.10877704147E+02  0.47787271324E+02  0.20000001273E+02 0.  0.
         12    1    1    2    0    0 -0.41577720000E+02  0.60491323123E+01  0.10877704147E+02  0.43400728676E+02  0.00000000000E+00 0. -1.
         11    1    3    3    0    0  0.49162552680E+01  0.10870036595E-01  0.45146490718E+00  0.49369529916E+01  0.51100000000E-03 0. -1.
        -11    1    3    3    0    0  0.36937407743E+02 -0.24106154607E+01 -0.12398925942E+02  0.39037373406E+02  0.51100000000E-03 0.  1.
         12    1    3    3    0    0 -0.27594301123E+00 -0.36493868882E+01  0.10697568882E+01  0.38129449255E+01  0.00000000000E+00 0. -1.
</event>
<event>
 7    1  0.2459936E-009  0.4778727E+02  0.7816164E-02  0.1312668E+00
        -11   -1    0    0    0    0  0.00000000000E+00  0.00000000000E+00  0.45593999997E+02  0.45594000000E+02  0.51100000000E-03 0.  1.
         11   -1    0    0    0    0 -0.00000000000E+00 -0.00000000000E+00 -0.45593999997E+02  0.45594000000E+02  0.51100000000E-03 0. -1.
    9900012    2    1    2    0    0  0.35056340425E+02  0.25282399548E+01  0.25461428145E+02  0.47787270462E+02  0.19999997343E+02 0.  0.
         12    1    1    2    0    0 -0.35056340425E+02 -0.25282399548E+01 -0.25461428145E+02  0.43400729538E+02  0.00000000000E+00 0. -1.
         11    1    3    3    0    0  0.13543346330E+01 -0.51091742925E+00  0.59976562304E+01  0.61698573271E+01  0.51100000000E-03 0. -1.
        -11    1    3    3    0    0  0.18488505359E+02 -0.16199372634E+01  0.17635211821E+02  0.25601752350E+02  0.51100000000E-03 0.  1.
         12    1    3    3    0    0  0.15213500433E+02  0.46590946474E+01  0.18285600941E+01  0.16015660784E+02  0.00000000000E+00 0. -1.
</event>
<event>
 7    1  0.2459936E-009  0.4778727E+02  0.7816164E-02  0.1312668E+00
        -11   -1    0    0    0    0  0.00000000000E+00  0.00000000000E+00  0.45593999997E+02  0.45594000000E+02  0.51100000000E-03 0.  1.
         11   -1    0    0    0    0 -0.00000000000E+00 -0.00000000000E+00 -0.45593999997E+02  0.45594000000E+02  0.51100000000E-03 0. -1.
    9900012    2    1    2    0    0 -0.26354288234E+02 -0.24772789697E+02  0.23987155080E+02  0.47787271590E+02  0.20000002486E+02 0.  0.
         12    1    1    2    0    0  0.26354288234E+02  0.24772789697E+02 -0.23987155080E+02  0.43400728410E+02  0.00000000000E+00 0. -1.
         11    1    3    3    0    0 -0.91536664497E+01 -0.77248774819E+01  0.39861491573E+01  0.12623498998E+02  0.51100000000E-03 0. -1.
        -11    1    3    3    0    0 -0.10292995236E+02 -0.19115805614E+02  0.14970070158E+02  0.26371628239E+02  0.51100000000E-03 0.  1.
         12    1    3    3    0    0 -0.69076265485E+01  0.20678933987E+01  0.50309357649E+01  0.87921443524E+01  0.00000000000E+00 0. -1.
</event>
<event>
 7    1  0.2459936E-009  0.4778728E+02  0.7816164E-02  0.1312668E+00
        -11   -1    0    0    0    0  0.00000000000E+00  0.00000000000E+00  0.45593999997E+02  0.45594000000E+02  0.51100000000E-03 0.  1.
         11   -1    0    0    0    0 -0.00000000000E+00 -0.00000000000E+00 -0.45593999997E+02  0.45594000000E+02  0.51100000000E-03 0. -1.
    9900012    2    1    2    0    0 -0.33373428960E+02  0.11036545641E+02  0.25456454260E+02  0.47787283834E+02  0.20000058312E+02 0.  0.
         12    1    1    2    0    0  0.33373428960E+02 -0.11036545641E+02 -0.25456454260E+02  0.43400716166E+02  0.00000000000E+00 0. -1.
         11    1    3    3    0    0 -0.54928761954E+01  0.27113579764E+01 -0.11554449428E+01  0.62336349148E+01  0.51100000000E-03 0. -1.
        -11    1    3    3    0    0 -0.10045801831E+02 -0.26479677646E+01  0.52499962012E+01  0.11640117185E+02  0.51100000000E-03 0.  1.
        -12    1    3    3    0    0 -0.17834750934E+02  0.10973155430E+02  0.21361903002E+02  0.29913531734E+02  0.00000000000E+00 0.  1.
</event>
<event>
 7    1  0.2459936E-009  0.4778728E+02  0.7816164E-02  0.1312668E+00
        -11   -1    0    0    0    0  0.00000000000E+00  0.00000000000E+00  0.45593999997E+02  0.45594000000E+02  0.51100000000E-03 0. -1.
         11   -1    0    0    0    0 -0.00000000000E+00 -0.00000000000E+00 -0.45593999997E+02  0.45594000000E+02  0.51100000000E-03 0.  1.
    9900012    2    1    2    0    0 -0.89218767022E+01 -0.31334489297E+02 -0.28673550995E+02  0.47787278461E+02  0.20000033816E+02 0.  0.
         12    1    1    2    0    0  0.89218767022E+01  0.31334489297E+02  0.28673550995E+02  0.43400721539E+02  0.00000000000E+00 0. -1.
         11    1    3    3    0    0  0.24582508001E+00 -0.13618942706E+02 -0.16040355909E+01  0.13715282018E+02  0.51100000000E-03 0. -1.
        -11    1    3    3    0    0 -0.27469632778E+00 -0.58423719193E+01 -0.72216326163E+01  0.92930482417E+01  0.51100000000E-03 0.  1.
         12    1    3    3    0    0 -0.88930054544E+01 -0.11873174672E+02 -0.19847882788E+02  0.24778948201E+02  0.00000000000E+00 0. -1.
</event>
<event>
 7    1  0.2459936E-009  0.4778726E+02  0.7816164E-02  0.1312668E+00
        -11   -1    0    0    0    0  0.00000000000E+00  0.00000000000E+00  0.45593999997E+02  0.45594000000E+02  0.51100000000E-03 0. -1.
         11   -1    0    0    0    0 -0.00000000000E+00 -0.00000000000E+00 -0.45593999997E+02  0.45594000000E+02  0.51100000000E-03 0.  1.
    9900012    2    1    2    0    0 -0.34251698427E+02  0.23042721955E+02 -0.13396937146E+02  0.47787264924E+02  0.19999972096E+02 0.  0.
         12    1    1    2    0    0  0.34251698427E+02 -0.23042721955E+02  0.13396937146E+02  0.43400735076E+02  0.00000000000E+00 0. -1.
         11    1    3    3    0    0 -0.69441524862E+00  0.20893688862E+00  0.25147053988E+01  0.26171760859E+01  0.51100000000E-03 0. -1.
        -11    1    3    3    0    0 -0.92618568545E+00  0.31455673520E+01 -0.41433415694E+01  0.52839089235E+01  0.51100000000E-03 0.  1.
        -12    1    3    3    0    0 -0.32631097493E+02  0.19688217714E+02 -0.11768300975E+02  0.39886179915E+02  0.00000000000E+00 0.  1.
</event>
<event>
 7    1  0.2459936E-009  0.4778727E+02  0.7816164E-02  0.1312668E+00
        -11   -1    0    0    0    0  0.00000000000E+00  0.00000000000E+00  0.45593999997E+02  0.45594000000E+02  0.51100000000E-03 0.  1.
         11   -1    0    0    0    0 -0.00000000000E+00 -0.00000000000E+00 -0.45593999997E+02  0.45594000000E+02  0.51100000000E-03 0. -1.
    9900012    2    1    2    0    0 -0.25262753876E+02  0.31571984072E+02  0.15767895712E+02  0.47787269052E+02  0.19999990917E+02 0.  0.
         12    1    1    2    0    0  0.25262753876E+02 -0.31571984072E+02 -0.15767895712E+02  0.43400730948E+02  0.00000000000E+00 0. -1.
         11    1    3    3    0    0 -0.90134213899E+01 -0.40680696405E-01  0.57408512985E+01  0.10686477154E+02  0.51100000000E-03 0. -1.
        -11    1    3    3    0    0 -0.29219863638E+01  0.62747425682E+01  0.54884656890E+00  0.69434596149E+01  0.51100000000E-03 0.  1.
        -12    1    3    3    0    0 -0.13327346123E+02  0.25337922200E+02  0.94781978442E+01  0.30157332283E+02  0.00000000000E+00 0.  1.
</event>
<event>
 7    1  0.2459936E-009  0.4778731E+02  0.7816164E-02  0.1312668E+00
        -11   -1    0    0    0    0  0.00000000000E+00  0.00000000000E+00  0.45593999997E+02  0.45594000000E+02  0.51100000000E-03 0. -1.
         11   -1    0    0    0    0 -0.00000000000E+00 -0.00000000000E+00 -0.45593999997E+02  0.45594000000E+02  0.51100000000E-03 0.  1.
    9900012    2    1    2    0    0  0.19714170371E+01 -0.42802704641E+02 -0.69037667603E+01  0.47787308702E+02  0.20000171693E+02 0.  0.
         12    1    1    2    0    0 -0.19714170371E+01  0.42802704641E+02  0.69037667603E+01  0.43400691298E+02  0.00000000000E+00 0. -1.
         11    1    3    3    0    0 -0.55142261794E+00 -0.32966331340E+01 -0.16181159542E+01  0.37135099873E+01  0.51100000000E-03 0. -1.
        -11    1    3    3    0    0 -0.61568850353E+01 -0.23255759152E+02 -0.82115420377E+01  0.25419814908E+02  0.51100000000E-03 0.  1.
         12    1    3    3    0    0  0.86797246903E+01 -0.16250312355E+02  0.29258912316E+01  0.18653983806E+02  0.00000000000E+00 0. -1.
</event>
<event>
 7    1  0.2459936E-009  0.4778727E+02  0.7816164E-02  0.1312668E+00
        -11   -1    0    0    0    0  0.00000000000E+00  0.00000000000E+00  0.45593999997E+02  0.45594000000E+02  0.51100000000E-03 0.  1.
         11   -1    0    0    0    0 -0.00000000000E+00 -0.00000000000E+00 -0.45593999997E+02  0.45594000000E+02  0.51100000000E-03 0. -1.
    9900012    2    1    2    0    0  0.26230992433E+02 -0.30458724463E+02  0.16365344543E+02  0.47787270030E+02  0.19999995374E+02 0.  0.
         12    1    1    2    0    0 -0.26230992433E+02  0.30458724463E+02 -0.16365344543E+02  0.43400729970E+02  0.00000000000E+00 0. -1.
         11    1    3    3    0    0  0.50838693071E+01 -0.75829168802E+00  0.11930308550E+01  0.52767467533E+01  0.51100000000E-03 0. -1.
        -11    1    3    3    0    0  0.68940826357E+01 -0.59118099828E+01  0.11319626231E+02  0.14512470876E+02  0.51100000000E-03 0.  1.
        -12    1    3    3    0    0  0.14253040490E+02 -0.23788622792E+02  0.38526874569E+01  0.27998052400E+02  0.00000000000E+00 0.  1.
</event>
<event>
 7    1  0.2459936E-009  0.4778722E+02  0.7816164E-02  0.1312668E+00
        -11   -1    0    0    0    0  0.00000000000E+00  0.00000000000E+00  0.45593999997E+02  0.45594000000E+02  0.51100000000E-03 0. -1.
         11   -1    0    0    0    0 -0.00000000000E+00 -0.00000000000E+00 -0.45593999997E+02  0.45594000000E+02  0.51100000000E-03 0.  1.
    9900012    2    1    2    0    0  0.50420885481E+00  0.43393077835E+02  0.64374608544E+00  0.47787218444E+02  0.19999760174E+02 0.  0.
         12    1    1    2    0    0 -0.50420885481E+00 -0.43393077835E+02 -0.64374608544E+00  0.43400781556E+02  0.00000000000E+00 0. -1.
         11    1    3    3    0    0 -0.37238296418E+01  0.57688300553E+01  0.17280204813E+01  0.70804210646E+01  0.51100000000E-03 0. -1.
        -11    1    3    3    0    0 -0.45099572321E+01  0.18981498787E+02 -0.39902305910E+01  0.19913787958E+02  0.51100000000E-03 0.  1.
         12    1    3    3    0    0  0.87379957287E+01  0.18642748994E+02  0.29059561952E+01  0.20793009421E+02  0.00000000000E+00 0. -1.
</event>
<event>
 7    1  0.2459936E-009  0.4778727E+02  0.7816164E-02  0.1312668E+00
        -11   -1    0    0    0    0  0.00000000000E+00  0.00000000000E+00  0.45593999997E+02  0.45594000000E+02  0.51100000000E-03 0.  1.
         11   -1    0    0    0    0 -0.00000000000E+00 -0.00000000000E+00 -0.45593999997E+02  0.45594000000E+02  0.51100000000E-03 0. -1.
    9900012    2    1    2    0    0 -0.14607675829E+02 -0.13672201484E+02  0.38513767248E+02  0.47787267815E+02  0.19999985274E+02 0.  0.
         12    1    1    2    0    0  0.14607675829E+02  0.13672201484E+02 -0.38513767248E+02  0.43400732185E+02  0.00000000000E+00 0. -1.
         11    1    3    3    0    0 -0.39182472067E+01 -0.11434094915E+01  0.87249673334E+00  0.41738827546E+01  0.51100000000E-03 0. -1.
        -11    1    3    3    0    0 -0.14348369088E+02 -0.91996252477E+01  0.28075711013E+02  0.32844396011E+02  0.51100000000E-03 0.  1.
        -12    1    3    3    0    0  0.36589404660E+01 -0.33291667452E+01  0.95655595016E+01  0.10768989049E+02  0.00000000000E+00 0.  1.
</event>
<event>
 7    1  0.2459936E-009  0.4778726E+02  0.7816164E-02  0.1312668E+00
        -11   -1    0    0    0    0  0.00000000000E+00  0.00000000000E+00  0.45593999997E+02  0.45594000000E+02  0.51100000000E-03 0. -1.
         11   -1    0    0    0    0 -0.00000000000E+00 -0.00000000000E+00 -0.45593999997E+02  0.45594000000E+02  0.51100000000E-03 0.  1.
    9900012    2    1    2    0    0 -0.18344361866E+02  0.38674667339E+02 -0.71679102980E+01  0.47787257563E+02  0.19999938535E+02 0.  0.
         12    1    1    2    0    0  0.18344361866E+02 -0.38674667339E+02  0.71679102980E+01  0.43400742437E+02  0.00000000000E+00 0. -1.
         11    1    3    3    0    0  0.20171273123E+01  0.66997395290E+01 -0.18260241336E+01  0.72311601246E+01  0.51100000000E-03 0. -1.
        -11    1    3    3    0    0 -0.87158512368E+01  0.24384351149E+02 -0.62052097762E+01  0.26628317115E+02  0.51100000000E-03 0.  1.
         12    1    3    3    0    0 -0.11645637941E+02  0.75905766606E+01  0.86332361181E+00  0.13927780324E+02  0.00000000000E+00 0. -1.
</event>
<event>
 7    1  0.2459936E-009  0.4778727E+02  0.7816164E-02  0.1312668E+00
        -11   -1    0    0    0    0  0.00000000000E+00  0.00000000000E+00  0.45593999997E+02  0.45594000000E+02  0.51100000000E-03 0. -1.
         11   -1    0    0    0    0 -0.00000000000E+00 -0.00000000000E+00 -0.45593999997E+02  0.45594000000E+02  0.51100000000E-03 0.  1.
    9900012    2    1    2    0    0  0.13586872158E+02 -0.22228696591E+02 -0.34711742131E+02  0.47787273175E+02  0.20000009715E+02 0.  0.
         12    1    1    2    0    0 -0.13586872158E+02  0.22228696591E+02  0.34711742131E+02  0.43400726825E+02  0.00000000000E+00 0. -1.
         11    1    3    3    0    0  0.65080866916E+01 -0.10590520394E+02 -0.66930200395E+01  0.14117748833E+02  0.51100000000E-03 0. -1.
        -11    1    3    3    0    0  0.91607038068E+01 -0.11108947669E+02 -0.16271912701E+02  0.21727916508E+02  0.51100000000E-03 0.  1.
        -12    1    3    3    0    0 -0.20819183408E+01 -0.52922852760E+00 -0.11746809391E+02  0.11941607834E+02  0.00000000000E+00 0.  1.
</event>
<event>
 7    1  0.2459936E-009  0.4778726E+02  0.7816164E-02  0.1312668E+00
        -11   -1    0    0    0    0  0.00000000000E+00  0.00000000000E+00  0.45593999997E+02  0.45594000000E+02  0.51100000000E-03 0.  1.
         11   -1    0    0    0    0 -0.00000000000E+00 -0.00000000000E+00 -0.45593999997E+02  0.45594000000E+02  0.51100000000E-03 0. -1.
    9900012    2    1    2    0    0 -0.10144113957E+02 -0.41916257060E+02  0.48732095458E+01  0.47787264693E+02  0.19999971043E+02 0.  0.
         12    1    1    2    0    0  0.10144113957E+02  0.41916257060E+02 -0.48732095458E+01  0.43400735307E+02  0.00000000000E+00 0. -1.
         11    1    3    3    0    0  0.14969947222E+01 -0.15721700427E+02  0.39056247044E+01  0.16268582056E+02  0.51100000000E-03 0.  1.
        -11    1    3    3    0    0 -0.28534515199E+01 -0.74549144369E+00  0.33817448776E+01  0.44871083948E+01  0.51100000000E-03 0. -1.
        -12    1    3    3    0    0 -0.87876571595E+01 -0.25449065189E+02 -0.24141600361E+01  0.27031574243E+02  0.00000000000E+00 0.  1.
</event>
<event>
 7    1  0.2459936E-009  0.4778727E+02  0.7816164E-02  0.1312668E+00
        -11   -1    0    0    0    0  0.00000000000E+00  0.00000000000E+00  0.45593999997E+02  0.45594000000E+02  0.51100000000E-03 0. -1.
         11   -1    0    0    0    0 -0.00000000000E+00 -0.00000000000E+00 -0.45593999997E+02  0.45594000000E+02  0.51100000000E-03 0.  1.
    9900012    2    1    2    0    0 -0.23372538062E+02  0.70649597903E+01 -0.35880834290E+02  0.47787268882E+02  0.19999990139E+02 0.  0.
         12    1    1    2    0    0  0.23372538062E+02 -0.70649597903E+01  0.35880834290E+02  0.43400731118E+02  0.00000000000E+00 0. -1.
         11    1    3    3    0    0 -0.10024860223E+02  0.43721935733E+00 -0.11452671111E+02  0.15226708741E+02  0.51100000000E-03 0. -1.
        -11    1    3    3    0    0 -0.14851245523E+02  0.12302438901E+00 -0.16832984542E+02  0.22448251546E+02  0.51100000000E-03 0.  1.
         12    1    3    3    0    0  0.15035676844E+01  0.65047160439E+01 -0.75951786364E+01  0.10112308595E+02  0.00000000000E+00 0. -1.
</event>
<event>
 7    1  0.2459936E-009  0.4778729E+02  0.7816164E-02  0.1312668E+00
        -11   -1    0    0    0    0  0.00000000000E+00  0.00000000000E+00  0.45593999997E+02  0.45594000000E+02  0.51100000000E-03 0. -1.
         11   -1    0    0    0    0 -0.00000000000E+00 -0.00000000000E+00 -0.45593999997E+02  0.45594000000E+02  0.51100000000E-03 0.  1.
    9900012    2    1    2    0    0  0.31755171191E+02  0.29172820927E+02  0.49170518122E+01  0.47787288292E+02  0.20000078640E+02 0.  0.
         12    1    1    2    0    0 -0.31755171191E+02 -0.29172820927E+02 -0.49170518122E+01  0.43400711708E+02  0.00000000000E+00 0. -1.
         11    1    3    3    0    0  0.68433065610E+00  0.34468330946E+01 -0.18780776540E+01  0.39844877669E+01  0.51100000000E-03 0. -1.
        -11    1    3    3    0    0  0.12478962792E+02  0.19231123937E+02 -0.13454064718E+00  0.22925504176E+02  0.51100000000E-03 0.  1.
         12    1    3    3    0    0  0.18591877742E+02  0.64948638953E+01  0.69296701134E+01  0.20877296350E+02  0.00000000000E+00 0. -1.
</event>
<event>
 7    1  0.2459936E-009  0.4778727E+02  0.7816164E-02  0.1312668E+00
        -11   -1    0    0    0    0  0.00000000000E+00  0.00000000000E+00  0.45593999997E+02  0.45594000000E+02  0.51100000000E-03 0.  1.
         11   -1    0    0    0    0 -0.00000000000E+00 -0.00000000000E+00 -0.45593999997E+02  0.45594000000E+02  0.51100000000E-03 0. -1.
    9900012    2    1    2    0    0 -0.22736679306E+02  0.30948315076E+02  0.20220501609E+02  0.47787268701E+02  0.19999989316E+02 0.  0.
         12    1    1    2    0    0  0.22736679306E+02 -0.30948315076E+02 -0.20220501609E+02  0.43400731299E+02  0.00000000000E+00 0. -1.
         11    1    3    3    0    0  0.59656035437E+00  0.11493510519E+02  0.12200708718E+01  0.11573471454E+02  0.51100000000E-03 0. -1.
        -11    1    3    3    0    0 -0.23391751540E+01  0.29755790808E+00  0.93140759135E+00  0.25353109222E+01  0.51100000000E-03 0.  1.
        -12    1    3    3    0    0 -0.20994064507E+02  0.19157246650E+02  0.18069023146E+02  0.33678486325E+02  0.00000000000E+00 0.  1.
</event>
<event>
 7    1  0.2459936E-009  0.4778733E+02  0.7816164E-02  0.1312667E+00
        -11   -1    0    0    0    0  0.00000000000E+00  0.00000000000E+00  0.45593999997E+02  0.45594000000E+02  0.51100000000E-03 0. -1.
         11   -1    0    0    0    0 -0.00000000000E+00 -0.00000000000E+00 -0.45593999997E+02  0.45594000000E+02  0.51100000000E-03 0.  1.
    9900012    2    1    2    0    0 -0.21706701085E+02  0.32666881478E+02  0.18582574285E+02  0.47787330828E+02  0.20000272576E+02 0.  0.
         12    1    1    2    0    0  0.21706701085E+02 -0.32666881478E+02 -0.18582574285E+02  0.43400669172E+02  0.00000000000E+00 0. -1.
         11    1    3    3    0    0 -0.24749687773E+01  0.13205412241E+02  0.23264345973E+01  0.13635273415E+02  0.51100000000E-03 0. -1.
        -11    1    3    3    0    0 -0.19359380145E+02  0.20231372022E+02  0.13124886271E+02  0.30925016627E+02  0.51100000000E-03 0.  1.
         12    1    3    3    0    0  0.12764783743E+00 -0.76990278539E+00  0.31312534174E+01  0.32270407858E+01  0.00000000000E+00 0. -1.
</event>
<event>
 7    1  0.2459936E-009  0.4778727E+02  0.7816164E-02  0.1312668E+00
        -11   -1    0    0    0    0  0.00000000000E+00  0.00000000000E+00  0.45593999997E+02  0.45594000000E+02  0.51100000000E-03 0.  1.
         11   -1    0    0    0    0 -0.00000000000E+00 -0.00000000000E+00 -0.45593999997E+02  0.45594000000E+02  0.51100000000E-03 0. -1.
    9900012    2    1    2    0    0 -0.14596115619E+02 -0.22223801461E+02  0.34302758400E+02  0.47787272168E+02  0.20000005122E+02 0.  0.
         12    1    1    2    0    0  0.14596115619E+02  0.22223801461E+02 -0.34302758400E+02  0.43400727832E+02  0.00000000000E+00 0. -1.
         11    1    3    3    0    0 -0.94589233227E+01 -0.44563488065E+01  0.28343305366E+01  0.10833453049E+02  0.51100000000E-03 0.  1.
        -11    1    3    3    0    0 -0.67724865043E-01 -0.56717592344E+01  0.57082405632E+01  0.80472013806E+01  0.51100000000E-03 0. -1.
        -12    1    3    3    0    0 -0.50694674310E+01 -0.12095693420E+02  0.25760187300E+02  0.28906617738E+02  0.00000000000E+00 0.  1.
</event>
<event>
 7    1  0.2459936E-009  0.4778732E+02  0.7816164E-02  0.1312668E+00
        -11   -1    0    0    0    0  0.00000000000E+00  0.00000000000E+00  0.45593999997E+02  0.45594000000E+02  0.51100000000E-03 0. -1.
         11   -1    0    0    0    0 -0.00000000000E+00 -0.00000000000E+00 -0.45593999997E+02  0.45594000000E+02  0.51100000000E-03 0.  1.
    9900012    2    1    2    0    0 -0.29473827708E+02  0.20881115832E+02 -0.24060170903E+02  0.47787316341E+02  0.20000206526E+02 0.  0.
         12    1    1    2    0    0  0.29473827708E+02 -0.20881115832E+02  0.24060170903E+02  0.43400683659E+02  0.00000000000E+00 0. -1.
         11    1    3    3    0    0 -0.46129899075E+01  0.35669086211E+01  0.11508519898E+00  0.58323029638E+01  0.51100000000E-03 0. -1.
        -11    1    3    3    0    0 -0.84751392629E+01  0.15668911341E+02 -0.12998640908E+02  0.22052379324E+02  0.51100000000E-03 0.  1.
        -12    1    3    3    0    0 -0.16385698538E+02  0.16452958696E+01 -0.11176615194E+02  0.19902634054E+02  0.00000000000E+00 0.  1.
</event>
<event>
 7    1  0.2459936E-009  0.4778727E+02  0.7816164E-02  0.1312668E+00
        -11   -1    0    0    0    0  0.00000000000E+00  0.00000000000E+00  0.45593999997E+02  0.45594000000E+02  0.51100000000E-03 0. -1.
         11   -1    0    0    0    0 -0.00000000000E+00 -0.00000000000E+00 -0.45593999997E+02  0.45594000000E+02  0.51100000000E-03 0.  1.
    9900012    2    1    2    0    0 -0.23004796886E+02 -0.18809235106E+02 -0.31632500794E+02  0.47787272915E+02  0.20000008528E+02 0.  0.
         12    1    1    2    0    0  0.23004796886E+02  0.18809235106E+02  0.31632500794E+02  0.43400727085E+02  0.00000000000E+00 0. -1.
         11    1    3    3    0    0 -0.86306238628E+01 -0.13509902447E+02 -0.12590596910E+02  0.20384510374E+02  0.51100000000E-03 0. -1.
        -11    1    3    3    0    0 -0.91345284211E+01 -0.85643724522E+01 -0.83301440599E+01  0.15039261461E+02  0.51100000000E-03 0.  1.
         12    1    3    3    0    0 -0.52396446019E+01  0.32650397934E+01 -0.10711759825E+02  0.12363501080E+02  0.00000000000E+00 0. -1.
</event>
<event>
 7    1  0.2459936E-009  0.4778727E+02  0.7816164E-02  0.1312668E+00
        -11   -1    0    0    0    0  0.00000000000E+00  0.00000000000E+00  0.45593999997E+02  0.45594000000E+02  0.51100000000E-03 0.  1.
         11   -1    0    0    0    0 -0.00000000000E+00 -0.00000000000E+00 -0.45593999997E+02  0.45594000000E+02  0.51100000000E-03 0. -1.
    9900012    2    1    2    0    0 -0.36269485949E+02 -0.16371202082E+02  0.17324302461E+02  0.47787270463E+02  0.19999997348E+02 0.  0.
         12    1    1    2    0    0  0.36269485949E+02  0.16371202082E+02 -0.17324302461E+02  0.43400729537E+02  0.00000000000E+00 0. -1.
         11    1    3    3    0    0 -0.22000149887E+01  0.25492374592E+00  0.15114457621E+01  0.26813281447E+01  0.51100000000E-03 0. -1.
        -11    1    3    3    0    0 -0.22561650215E+02 -0.53840938757E+01  0.96749663347E+00  0.23215352189E+02  0.51100000000E-03 0.  1.
        -12    1    3    3    0    0 -0.11507820746E+02 -0.11242031952E+02  0.14845360065E+02  0.21890590129E+02  0.00000000000E+00 0.  1.
</event>
<event>
 7    1  0.2459936E-009  0.4778727E+02  0.7816164E-02  0.1312668E+00
        -11   -1    0    0    0    0  0.00000000000E+00  0.00000000000E+00  0.45593999997E+02  0.45594000000E+02  0.51100000000E-03 0.  1.
         11   -1    0    0    0    0 -0.00000000000E+00 -0.00000000000E+00 -0.45593999997E+02  0.45594000000E+02  0.51100000000E-03 0. -1.
    9900012    2    1    2    0    0  0.37959499950E+02 -0.25924482476E+01 -0.20880099807E+02  0.47787274288E+02  0.20000014788E+02 0.  0.
         12    1    1    2    0    0 -0.37959499950E+02  0.25924482476E+01  0.20880099807E+02  0.43400725712E+02  0.00000000000E+00 0. -1.
         11    1    3    3    0    0  0.59186893600E+01  0.66068301340E+01 -0.35683452968E+01  0.95610761203E+01  0.51100000000E-03 0. -1.
        -11    1    3    3    0    0  0.18693810894E+02 -0.23566486785E+01 -0.11878936030E+02  0.22273784595E+02  0.51100000000E-03 0.  1.
        -12    1    3    3    0    0  0.13346999696E+02 -0.68426297031E+01 -0.54328184800E+01  0.15952413572E+02  0.00000000000E+00 0.  1.
</event>
<event>
 7    1  0.2459936E-009  0.4778727E+02  0.7816164E-02  0.1312668E+00
        -11   -1    0    0    0    0  0.00000000000E+00  0.00000000000E+00  0.45593999997E+02  0.45594000000E+02  0.51100000000E-03 0.  1.
         11   -1    0    0    0    0 -0.00000000000E+00 -0.00000000000E+00 -0.45593999997E+02  0.45594000000E+02  0.51100000000E-03 0. -1.
    9900012    2    1    2    0    0  0.83448350029E+01  0.39823758257E+01  0.42404334313E+02  0.47787272391E+02  0.20000006141E+02 0.  0.
         12    1    1    2    0    0 -0.83448350029E+01 -0.39823758257E+01 -0.42404334313E+02  0.43400727609E+02  0.00000000000E+00 0. -1.
         11    1    3    3    0    0  0.23115037661E+01  0.80805301560E+01  0.16508621828E+02  0.18524918682E+02  0.51100000000E-03 0. -1.
        -11    1    3    3    0    0  0.84233330355E+01  0.18071660200E+00  0.13269746161E+02  0.15718503789E+02  0.51100000000E-03 0.  1.
        -12    1    3    3    0    0 -0.23900017987E+01 -0.42788709323E+01  0.12625966323E+02  0.13543849920E+02  0.00000000000E+00 0.  1.
</event>
<event>
 7    1  0.2459936E-009  0.4778727E+02  0.7816164E-02  0.1312668E+00
        -11   -1    0    0    0    0  0.00000000000E+00  0.00000000000E+00  0.45593999997E+02  0.45594000000E+02  0.51100000000E-03 0.  1.
         11   -1    0    0    0    0 -0.00000000000E+00 -0.00000000000E+00 -0.45593999997E+02  0.45594000000E+02  0.51100000000E-03 0. -1.
    9900012    2    1    2    0    0 -0.27809816236E+02  0.12726798321E+02  0.30793934151E+02  0.47787266652E+02  0.19999979975E+02 0.  0.
         12    1    1    2    0    0  0.27809816236E+02 -0.12726798321E+02 -0.30793934151E+02  0.43400733348E+02  0.00000000000E+00 0. -1.
         11    1    3    3    0    0 -0.13609332173E+01  0.51272260531E+01  0.15089637028E+01  0.55152115045E+01  0.51100000000E-03 0. -1.
        -11    1    3    3    0    0 -0.34525746730E+01  0.57953044570E+01  0.10703236137E+02  0.12651683275E+02  0.51100000000E-03 0.  1.
        -12    1    3    3    0    0 -0.22996308346E+02  0.18042678112E+01  0.18581734311E+02  0.29620371873E+02  0.00000000000E+00 0.  1.
</event>
<event>
 7    1  0.2459936E-009  0.4778726E+02  0.7816164E-02  0.1312668E+00
        -11   -1    0    0    0    0  0.00000000000E+00  0.00000000000E+00  0.45593999997E+02  0.45594000000E+02  0.51100000000E-03 0.  1.
         11   -1    0    0    0    0 -0.00000000000E+00 -0.00000000000E+00 -0.45593999997E+02  0.45594000000E+02  0.51100000000E-03 0. -1.
    9900012    2    1    2    0    0 -0.27283817153E+01 -0.44459657940E+01  0.43086113967E+02  0.47787263884E+02  0.19999967351E+02 0.  0.
         12    1    1    2    0    0  0.27283817153E+01  0.44459657940E+01 -0.43086113967E+02  0.43400736116E+02  0.00000000000E+00 0. -1.
         11    1    3    3    0    0 -0.76964818739E+01 -0.21617001597E+01  0.37793015217E+02  0.38629273618E+02  0.51100000000E-03 0. -1.
        -11    1    3    3    0    0  0.12539107273E+01 -0.14066875654E+01  0.49848024193E+01  0.53291009972E+01  0.51100000000E-03 0.  1.
         12    1    3    3    0    0  0.37141894313E+01 -0.87757806895E+00  0.30829633091E+00  0.38288892680E+01  0.00000000000E+00 0. -1.
</event>
<event>
 7    1  0.2459936E-009  0.4778727E+02  0.7816164E-02  0.1312668E+00
        -11   -1    0    0    0    0  0.00000000000E+00  0.00000000000E+00  0.45593999997E+02  0.45594000000E+02  0.51100000000E-03 0.  1.
         11   -1    0    0    0    0 -0.00000000000E+00 -0.00000000000E+00 -0.45593999997E+02  0.45594000000E+02  0.51100000000E-03 0. -1.
    9900012    2    1    2    0    0  0.39821599142E+02 -0.14804135041E+02  0.88713479907E+01  0.47787274341E+02  0.20000015032E+02 0.  0.
         12    1    1    2    0    0 -0.39821599142E+02  0.14804135041E+02 -0.88713479907E+01  0.43400725659E+02  0.00000000000E+00 0. -1.
         11    1    3    3    0    0 -0.98245333990E-01 -0.13999129057E+01 -0.52528779578E+00  0.14984444663E+01  0.51100000000E-03 0. -1.
        -11    1    3    3    0    0 -0.37744100613E+00 -0.36525067124E+01  0.19749427673E+01  0.41693723979E+01  0.51100000000E-03 0.  1.
        -12    1    3    3    0    0  0.40297285482E+02 -0.97517154226E+01  0.74216930192E+01  0.42119457477E+02  0.00000000000E+00 0.  1.
</event>
<event>
 7    1  0.2459936E-009  0.4778727E+02  0.7816164E-02  0.1312668E+00
        -11   -1    0    0    0    0  0.00000000000E+00  0.00000000000E+00  0.45593999997E+02  0.45594000000E+02  0.51100000000E-03 0.  1.
         11   -1    0    0    0    0 -0.00000000000E+00 -0.00000000000E+00 -0.45593999997E+02  0.45594000000E+02  0.51100000000E-03 0. -1.
    9900012    2    1    2    0    0  0.22134238359E+02 -0.32083520433E+02  0.19087866182E+02  0.47787269286E+02  0.19999991983E+02 0.  0.
         12    1    1    2    0    0 -0.22134238359E+02  0.32083520433E+02 -0.19087866182E+02  0.43400730714E+02  0.00000000000E+00 0. -1.
         11    1    3    3    0    0  0.10392320421E+02 -0.36956952297E+01  0.47364848341E+01  0.12003865036E+02  0.51100000000E-03 0. -1.
        -11    1    3    3    0    0  0.67842146455E+01 -0.60399849834E+01  0.65334029224E+00  0.91068018950E+01  0.51100000000E-03 0.  1.
        -12    1    3    3    0    0  0.49577032924E+01 -0.22347840220E+02  0.13698041056E+02  0.26676602355E+02  0.00000000000E+00 0.  1.
</event>
<event>
 7    1  0.2459936E-009  0.4778727E+02  0.7816164E-02  0.1312668E+00
        -11   -1    0    0    0    0  0.00000000000E+00  0.00000000000E+00  0.45593999997E+02  0.45594000000E+02  0.51100000000E-03 0. -1.
         11   -1    0    0    0    0 -0.00000000000E+00 -0.00000000000E+00 -0.45593999997E+02  0.45594000000E+02  0.51100000000E-03 0.  1.
    9900012    2    1    2    0    0  0.37277927287E+02  0.16412843286E+02  0.14986594647E+02  0.47787270666E+02  0.19999998275E+02 0.  0.
         12    1    1    2    0    0 -0.37277927287E+02 -0.16412843286E+02 -0.14986594647E+02  0.43400729334E+02  0.00000000000E+00 0. -1.
         11    1    3    3    0    0  0.15981742024E+02  0.62615449957E+01  0.12369326796E+02  0.21157109196E+02  0.51100000000E-03 0. -1.
        -11    1    3    3    0    0  0.15972461401E+02  0.12062712672E+02  0.47728423075E+01  0.20576894425E+02  0.51100000000E-03 0.  1.
         12    1    3    3    0    0  0.53237238619E+01 -0.19114143812E+01 -0.21555744561E+01  0.60532670459E+01  0.00000000000E+00 0. -1.
</event>
<event>
 7    1  0.2459936E-009  0.4778727E+02  0.7816164E-02  0.1312668E+00
        -11   -1    0    0    0    0  0.00000000000E+00  0.00000000000E+00  0.45593999997E+02  0.45594000000E+02  0.51100000000E-03 0. -1.
         11   -1    0    0    0    0 -0.00000000000E+00 -0.00000000000E+00 -0.45593999997E+02  0.45594000000E+02  0.51100000000E-03 0.  1.
    9900012    2    1    2    0    0 -0.19650866158E+02 -0.38621344271E+02 -0.24204904933E+01  0.47787267883E+02  0.19999985586E+02 0.  0.
         12    1    1    2    0    0  0.19650866158E+02  0.38621344271E+02  0.24204904933E+01  0.43400732117E+02  0.00000000000E+00 0. -1.
         11    1    3    3    0    0 -0.13624138650E+02 -0.24669988659E+02  0.71652035235E+01  0.29078611318E+02  0.51100000000E-03 0. -1.
        -11    1    3    3    0    0 -0.32818927897E+01 -0.21453854886E+01 -0.19053105073E+01  0.43593242100E+01  0.51100000000E-03 0.  1.
         12    1    3    3    0    0 -0.27448347181E+01 -0.11805970124E+02 -0.76803835095E+01  0.14349332355E+02  0.00000000000E+00 0. -1.
</event>
<event>
 7    1  0.2459936E-009  0.4778727E+02  0.7816164E-02  0.1312668E+00
        -11   -1    0    0    0    0  0.00000000000E+00  0.00000000000E+00  0.45593999997E+02  0.45594000000E+02  0.51100000000E-03 0.  1.
         11   -1    0    0    0    0 -0.00000000000E+00 -0.00000000000E+00 -0.45593999997E+02  0.45594000000E+02  0.51100000000E-03 0. -1.
    9900012    2    1    2    0    0  0.36111260782E+02 -0.24067493585E+02 -0.59646394005E+00  0.47787272218E+02  0.20000005351E+02 0.  0.
         12    1    1    2    0    0 -0.36111260782E+02  0.24067493585E+02  0.59646394005E+00  0.43400727782E+02  0.00000000000E+00 0. -1.
         11    1    3    3    0    0  0.23903346592E+02 -0.93344786462E+01  0.12926602696E+01  0.25693840521E+02  0.51100000000E-03 0. -1.
        -11    1    3    3    0    0  0.96373077684E+01 -0.80824206780E+01  0.36137931707E+01  0.13086738569E+02  0.51100000000E-03 0.  1.
         12    1    3    3    0    0  0.25706064220E+01 -0.66505942608E+01 -0.55029173804E+01  0.90066931276E+01  0.00000000000E+00 0. -1.
</event>
<event>
 7    1  0.2459936E-009  0.4778724E+02  0.7816164E-02  0.1312668E+00
        -11   -1    0    0    0    0  0.00000000000E+00  0.00000000000E+00  0.45593999997E+02  0.45594000000E+02  0.51100000000E-03 0.  1.
         11   -1    0    0    0    0 -0.00000000000E+00 -0.00000000000E+00 -0.45593999997E+02  0.45594000000E+02  0.51100000000E-03 0. -1.
    9900012    2    1    2    0    0 -0.27217887545E+02  0.39052237502E+01  0.33579190549E+02  0.47787237185E+02  0.19999845622E+02 0.  0.
         12    1    1    2    0    0  0.27217887545E+02 -0.39052237502E+01 -0.33579190549E+02  0.43400762815E+02  0.00000000000E+00 0. -1.
         11    1    3    3    0    0 -0.76130438782E+01  0.51615852325E+01  0.58615932910E+01  0.10906817839E+02  0.51100000000E-03 0.  1.
        -11    1    3    3    0    0 -0.10744683342E+02  0.62997345113E+01  0.11793150836E+02  0.17152646499E+02  0.51100000000E-03 0. -1.
         12    1    3    3    0    0 -0.88601603250E+01 -0.75560959936E+01  0.15924446422E+02  0.19727772847E+02  0.00000000000E+00 0. -1.
</event>
<event>
 7    1  0.2459936E-009  0.4778727E+02  0.7816164E-02  0.1312668E+00
        -11   -1    0    0    0    0  0.00000000000E+00  0.00000000000E+00  0.45593999997E+02  0.45594000000E+02  0.51100000000E-03 0. -1.
         11   -1    0    0    0    0 -0.00000000000E+00 -0.00000000000E+00 -0.45593999997E+02  0.45594000000E+02  0.51100000000E-03 0.  1.
    9900012    2    1    2    0    0 -0.91009604360E+00 -0.41843234701E+02 -0.11486465031E+02  0.47787269085E+02  0.19999991068E+02 0.  0.
         12    1    1    2    0    0  0.91009604360E+00  0.41843234701E+02  0.11486465031E+02  0.43400730915E+02  0.00000000000E+00 0. -1.
         11    1    3    3    0    0 -0.79767493759E+00 -0.68493702011E+00 -0.20402256522E+01  0.22952004271E+01  0.51100000000E-03 0. -1.
        -11    1    3    3    0    0 -0.20464045583E+01 -0.30055457185E+02  0.97707478202E+00  0.30140885083E+02  0.51100000000E-03 0.  1.
        -12    1    3    3    0    0  0.19339834523E+01 -0.11102840496E+02 -0.10423314161E+02  0.15351183575E+02  0.00000000000E+00 0.  1.
</event>
<event>
 7    1  0.2459936E-009  0.4778727E+02  0.7816164E-02  0.1312668E+00
        -11   -1    0    0    0    0  0.00000000000E+00  0.00000000000E+00  0.45593999997E+02  0.45594000000E+02  0.51100000000E-03 0.  1.
         11   -1    0    0    0    0 -0.00000000000E+00 -0.00000000000E+00 -0.45593999997E+02  0.45594000000E+02  0.51100000000E-03 0. -1.
    9900012    2    1    2    0    0  0.42566063844E+02  0.50509754162E+01  0.68000962987E+01  0.47787268975E+02  0.19999990566E+02 0.  0.
         12    1    1    2    0    0 -0.42566063844E+02 -0.50509754162E+01 -0.68000962987E+01  0.43400731025E+02  0.00000000000E+00 0. -1.
         11    1    3    3    0    0  0.12442358856E+02 -0.10279973484E+01  0.28389558484E+01  0.12803466055E+02  0.51100000000E-03 0. -1.
        -11    1    3    3    0    0  0.26804760560E+02  0.24221114256E+01 -0.22970202046E+01  0.27011814351E+02  0.51100000000E-03 0.  1.
         12    1    3    3    0    0  0.33189444271E+01  0.36568613389E+01  0.62581606549E+01  0.79719885690E+01  0.00000000000E+00 0. -1.
</event>
<event>
 7    1  0.2459936E-009  0.4778728E+02  0.7816164E-02  0.1312668E+00
        -11   -1    0    0    0    0  0.00000000000E+00  0.00000000000E+00  0.45593999997E+02  0.45594000000E+02  0.51100000000E-03 0.  1.
         11   -1    0    0    0    0 -0.00000000000E+00 -0.00000000000E+00 -0.45593999997E+02  0.45594000000E+02  0.51100000000E-03 0. -1.
    9900012    2    1    2    0    0 -0.13407285046E+02  0.30229885553E+02  0.28107310160E+02  0.47787283908E+02  0.20000058651E+02 0.  0.
         12    1    1    2    0    0  0.13407285046E+02 -0.30229885553E+02 -0.28107310160E+02  0.43400716092E+02  0.00000000000E+00 0. -1.
         11    1    3    3    0    0 -0.13921161751E+01 -0.10980389062E+01  0.18182341897E+01  0.25396166471E+01  0.51100000000E-03 0. -1.
        -11    1    3    3    0    0 -0.59651858318E+01  0.10523181639E+02  0.18737551526E+02  0.22302839086E+02  0.51100000000E-03 0.  1.
         12    1    3    3    0    0 -0.60499830395E+01  0.20804742820E+02  0.75515244441E+01  0.22944828175E+02  0.00000000000E+00 0. -1.
</event>
<event>
 7    1  0.2459936E-009  0.4778727E+02  0.7816164E-02  0.1312668E+00
        -11   -1    0    0    0    0  0.00000000000E+00  0.00000000000E+00  0.45593999997E+02  0.45594000000E+02  0.51100000000E-03 0. -1.
         11   -1    0    0    0    0 -0.00000000000E+00 -0.00000000000E+00 -0.45593999997E+02  0.45594000000E+02  0.51100000000E-03 0.  1.
    9900012    2    1    2    0    0 -0.32714915971E+02  0.24753108385E+02  0.14164787729E+02  0.47787270593E+02  0.19999997941E+02 0.  0.
         12    1    1    2    0    0  0.32714915971E+02 -0.24753108385E+02 -0.14164787729E+02  0.43400729407E+02  0.00000000000E+00 0. -1.
         11    1    3    3    0    0 -0.14253359377E+02  0.59832700041E+01  0.31194978712E+01  0.15769877638E+02  0.51100000000E-03 0. -1.
        -11    1    3    3    0    0 -0.20902819897E+02  0.16226735514E+02  0.90502587261E+01  0.27966801897E+02  0.51100000000E-03 0.  1.
         12    1    3    3    0    0  0.24412633031E+01  0.25431028660E+01  0.19950311317E+01  0.40505910579E+01  0.00000000000E+00 0. -1.
</event>
<event>
 7    1  0.2459936E-009  0.4778727E+02  0.7816164E-02  0.1312668E+00
        -11   -1    0    0    0    0  0.00000000000E+00  0.00000000000E+00  0.45593999997E+02  0.45594000000E+02  0.51100000000E-03 0. -1.
         11   -1    0    0    0    0 -0.00000000000E+00 -0.00000000000E+00 -0.45593999997E+02  0.45594000000E+02  0.51100000000E-03 0.  1.
    9900012    2    1    2    0    0  0.17163031793E+02 -0.37563941501E+02 -0.13341817514E+02  0.47787268946E+02  0.19999990432E+02 0.  0.
         12    1    1    2    0    0 -0.17163031793E+02  0.37563941501E+02  0.13341817514E+02  0.43400731054E+02  0.00000000000E+00 0. -1.
         11    1    3    3    0    0 -0.64394382256E+00 -0.89403837178E+00 -0.58414893677E+01  0.59444904366E+01  0.51100000000E-03 0. -1.
        -11    1    3    3    0    0  0.64285852652E+01 -0.11362404667E+02 -0.50109883868E+01  0.13983595861E+02  0.51100000000E-03 0.  1.
         12    1    3    3    0    0  0.11378390350E+02 -0.25307498463E+02 -0.24893397599E+01  0.27859182648E+02  0.00000000000E+00 0. -1.
</event>
<event>
 7    1  0.2459936E-009  0.4778727E+02  0.7816164E-02  0.1312668E+00
        -11   -1    0    0    0    0  0.00000000000E+00  0.00000000000E+00  0.45593999997E+02  0.45594000000E+02  0.51100000000E-03 0. -1.
         11   -1    0    0    0    0 -0.00000000000E+00 -0.00000000000E+00 -0.45593999997E+02  0.45594000000E+02  0.51100000000E-03 0.  1.
    9900012    2    1    2    0    0 -0.37329112893E+02  0.13196472210E+02 -0.17776783301E+02  0.47787267602E+02  0.19999984305E+02 0.  0.
         12    1    1    2    0    0  0.37329112893E+02 -0.13196472210E+02  0.17776783301E+02  0.43400732398E+02  0.00000000000E+00 0. -1.
         11    1    3    3    0    0  0.12345906807E+01  0.19538214563E+01  0.70542923303E+00  0.24164567234E+01  0.51100000000E-03 0. -1.
        -11    1    3    3    0    0 -0.47593707592E+01  0.49345931683E+01 -0.14988162591E+01  0.70177111796E+01  0.51100000000E-03 0.  1.
        -12    1    3    3    0    0 -0.33804332814E+02  0.63080575853E+01 -0.16983396275E+02  0.38353099699E+02  0.00000000000E+00 0.  1.
</event>
<event>
 7    1  0.2459936E-009  0.4778727E+02  0.7816164E-02  0.1312668E+00
        -11   -1    0    0    0    0  0.00000000000E+00  0.00000000000E+00  0.45593999997E+02  0.45594000000E+02  0.51100000000E-03 0. -1.
         11   -1    0    0    0    0 -0.00000000000E+00 -0.00000000000E+00 -0.45593999997E+02  0.45594000000E+02  0.51100000000E-03 0.  1.
    9900012    2    1    2    0    0 -0.25743800404E+01 -0.32860824434E+02 -0.28234061911E+02  0.47787268819E+02  0.19999989852E+02 0.  0.
         12    1    1    2    0    0  0.25743800404E+01  0.32860824434E+02  0.28234061911E+02  0.43400731181E+02  0.00000000000E+00 0. -1.
         11    1    3    3    0    0 -0.95124598714E+01 -0.75764839944E+01 -0.78891104578E+01  0.14495794790E+02  0.51100000000E-03 0.  1.
        -11    1    3    3    0    0  0.18078092139E+01 -0.57772457279E+01 -0.33675459134E+01  0.69271284162E+01  0.51100000000E-03 0. -1.
        -12    1    3    3    0    0  0.51302706170E+01 -0.19507094712E+02 -0.16977405540E+02  0.26364345612E+02  0.00000000000E+00 0.  1.
</event>
<event>
 7    1  0.2459936E-009  0.4778727E+02  0.7816164E-02  0.1312668E+00
        -11   -1    0    0    0    0  0.00000000000E+00  0.00000000000E+00  0.45593999997E+02  0.45594000000E+02  0.51100000000E-03 0. -1.
         11   -1    0    0    0    0 -0.00000000000E+00 -0.00000000000E+00 -0.45593999997E+02  0.45594000000E+02  0.51100000000E-03 0.  1.
    9900012    2    1    2    0    0 -0.27276293849E+02 -0.33620941080E+02  0.30429586041E+01  0.47787268643E+02  0.19999989052E+02 0.  0.
         12    1    1    2    0    0  0.27276293849E+02  0.33620941080E+02 -0.30429586041E+01  0.43400731357E+02  0.00000000000E+00 0. -1.
         11    1    3    3    0    0 -0.35653089095E+01 -0.11578973546E+02  0.76209212921E+01  0.14313018466E+02  0.51100000000E-03 0. -1.
        -11    1    3    3    0    0  0.13403216530E+00  0.30059832102E+00 -0.42052769421E+00  0.53401102484E+00  0.51100000000E-03 0.  1.
        -12    1    3    3    0    0 -0.23845017105E+02 -0.22342565855E+02 -0.41574349938E+01  0.32940239153E+02  0.00000000000E+00 0.  1.
</event>
<event>
 7    1  0.2459936E-009  0.4778734E+02  0.7816164E-02  0.1312667E+00
        -11   -1    0    0    0    0  0.00000000000E+00  0.00000000000E+00  0.45593999997E+02  0.45594000000E+02  0.51100000000E-03 0.  1.
         11   -1    0    0    0    0 -0.00000000000E+00 -0.00000000000E+00 -0.45593999997E+02  0.45594000000E+02  0.51100000000E-03 0. -1.
    9900012    2    1    2    0    0 -0.38433264938E+02 -0.20159276315E+02  0.32459611225E+00  0.47787335973E+02  0.20000296035E+02 0.  0.
         12    1    1    2    0    0  0.38433264938E+02  0.20159276315E+02 -0.32459611225E+00  0.43400664027E+02  0.00000000000E+00 0. -1.
         11    1    3    3    0    0 -0.17833100400E+01  0.18247096437E+01 -0.19406442581E+00  0.25587929274E+01  0.51100000000E-03 0. -1.
        -11    1    3    3    0    0 -0.44285848796E+01  0.19616956158E+01  0.15034153049E+01  0.50715748605E+01  0.51100000000E-03 0.  1.
        -12    1    3    3    0    0 -0.32221370018E+02 -0.23945681574E+02 -0.98475476688E+00  0.40156968186E+02  0.00000000000E+00 0.  1.
</event>
<event>
 7    1  0.2459936E-009  0.4778726E+02  0.7816164E-02  0.1312668E+00
        -11   -1    0    0    0    0  0.00000000000E+00  0.00000000000E+00  0.45593999997E+02  0.45594000000E+02  0.51100000000E-03 0.  1.
         11   -1    0    0    0    0 -0.00000000000E+00 -0.00000000000E+00 -0.45593999997E+02  0.45594000000E+02  0.51100000000E-03 0. -1.
    9900012    2    1    2    0    0 -0.14201444965E+02 -0.38094332063E+02  0.15190946928E+02  0.47787262183E+02  0.19999959599E+02 0.  0.
         12    1    1    2    0    0  0.14201444965E+02  0.38094332063E+02 -0.15190946928E+02  0.43400737817E+02  0.00000000000E+00 0. -1.
         11    1    3    3    0    0 -0.13622103029E+02 -0.17864952767E+02  0.95731869890E+01  0.24420567923E+02  0.51100000000E-03 0. -1.
        -11    1    3    3    0    0 -0.48735783261E+01 -0.98899973344E+01  0.51293953066E+01  0.12160366337E+02  0.51100000000E-03 0.  1.
        -12    1    3    3    0    0  0.42942363893E+01 -0.10339381961E+02  0.48836463249E+00  0.11206327923E+02  0.00000000000E+00 0.  1.
</event>
<event>
 7    1  0.2459936E-009  0.4778727E+02  0.7816164E-02  0.1312668E+00
        -11   -1    0    0    0    0  0.00000000000E+00  0.00000000000E+00  0.45593999997E+02  0.45594000000E+02  0.51100000000E-03 0. -1.
         11   -1    0    0    0    0 -0.00000000000E+00 -0.00000000000E+00 -0.45593999997E+02  0.45594000000E+02  0.51100000000E-03 0.  1.
    9900012    2    1    2    0    0  0.29294233991E+02 -0.17988133196E+02 -0.26493356858E+02  0.47787273755E+02  0.20000012357E+02 0.  0.
         12    1    1    2    0    0 -0.29294233991E+02  0.17988133196E+02  0.26493356858E+02  0.43400726245E+02  0.00000000000E+00 0. -1.
         11    1    3    3    0    0  0.84421348727E+01 -0.83231929022E+01 -0.32146775099E+01  0.12283294878E+02  0.51100000000E-03 0.  1.
        -11    1    3    3    0    0  0.56693378976E+01 -0.10043731170E+02 -0.86458234204E+01  0.14414166326E+02  0.51100000000E-03 0. -1.
        -12    1    3    3    0    0  0.15182761221E+02  0.37879087621E+00 -0.14632855928E+02  0.21089812551E+02  0.00000000000E+00 0.  1.
</event>
<event>
 7    1  0.2459936E-009  0.4778727E+02  0.7816164E-02  0.1312668E+00
        -11   -1    0    0    0    0  0.00000000000E+00  0.00000000000E+00  0.45593999997E+02  0.45594000000E+02  0.51100000000E-03 0.  1.
         11   -1    0    0    0    0 -0.00000000000E+00 -0.00000000000E+00 -0.45593999997E+02  0.45594000000E+02  0.51100000000E-03 0. -1.
    9900012    2    1    2    0    0 -0.36726681296E+01 -0.33660033450E+02  0.27150263437E+02  0.47787272498E+02  0.20000006626E+02 0.  0.
         12    1    1    2    0    0  0.36726681296E+01  0.33660033450E+02 -0.27150263437E+02  0.43400727502E+02  0.00000000000E+00 0. -1.
         11    1    3    3    0    0 -0.69988388497E+00 -0.19314496726E+02  0.17034172881E+02  0.25762427432E+02  0.51100000000E-03 0. -1.
        -11    1    3    3    0    0 -0.86051635382E+00 -0.15803128889E+02  0.11040633984E+02  0.19297019721E+02  0.51100000000E-03 0.  1.
         12    1    3    3    0    0 -0.21122678908E+01  0.14575921648E+01 -0.92454342761E+00  0.27278253446E+01  0.00000000000E+00 0. -1.
</event>
<event>
 7    1  0.2459936E-009  0.4778727E+02  0.7816164E-02  0.1312668E+00
        -11   -1    0    0    0    0  0.00000000000E+00  0.00000000000E+00  0.45593999997E+02  0.45594000000E+02  0.51100000000E-03 0.  1.
         11   -1    0    0    0    0 -0.00000000000E+00 -0.00000000000E+00 -0.45593999997E+02  0.45594000000E+02  0.51100000000E-03 0. -1.
    9900012    2    1    2    0    0 -0.37743534381E+02 -0.93774429272E+01  0.19264280526E+02  0.47787270425E+02  0.19999997177E+02 0.  0.
         12    1    1    2    0    0  0.37743534381E+02  0.93774429272E+01 -0.19264280526E+02  0.43400729575E+02  0.00000000000E+00 0. -1.
         11    1    3    3    0    0 -0.66447035454E+01 -0.55795036936E+01  0.89402003179E+01  0.12458335710E+02  0.51100000000E-03 0. -1.
        -11    1    3    3    0    0 -0.22831231608E+02 -0.40896388008E+01  0.13056080890E+02  0.26616752821E+02  0.51100000000E-03 0.  1.
         12    1    3    3    0    0 -0.82675992277E+01  0.29169956722E+00 -0.27320006826E+01  0.87121818941E+01  0.00000000000E+00 0. -1.
</event>
<event>
 7    1  0.2459936E-009  0.4778727E+02  0.7816164E-02  0.1312668E+00
        -11   -1    0    0    0    0  0.00000000000E+00  0.00000000000E+00  0.45593999997E+02  0.45594000000E+02  0.51100000000E-03 0.  1.
         11   -1    0    0    0    0 -0.00000000000E+00 -0.00000000000E+00 -0.45593999997E+02  0.45594000000E+02  0.51100000000E-03 0. -1.
    9900012    2    1    2    0    0 -0.11984346380E+02 -0.15173778468E+02  0.38855569837E+02  0.47787269379E+02  0.19999992405E+02 0.  0.
         12    1    1    2    0    0  0.11984346380E+02  0.15173778468E+02 -0.38855569837E+02  0.43400730621E+02  0.00000000000E+00 0. -1.
         11    1    3    3    0    0 -0.13747765503E+01 -0.16832696707E+01  0.79603250088E+01  0.82516775176E+01  0.51100000000E-03 0. -1.
        -11    1    3    3    0    0 -0.12996737252E+02 -0.11784985981E+02  0.31923496371E+02  0.36426785400E+02  0.51100000000E-03 0.  1.
         12    1    3    3    0    0  0.23871674222E+01 -0.17055228153E+01 -0.10282515432E+01  0.31088064609E+01  0.00000000000E+00 0. -1.
</event>
<event>
 7    1  0.2459936E-009  0.4778727E+02  0.7816164E-02  0.1312668E+00
        -11   -1    0    0    0    0  0.00000000000E+00  0.00000000000E+00  0.45593999997E+02  0.45594000000E+02  0.51100000000E-03 0.  1.
         11   -1    0    0    0    0 -0.00000000000E+00 -0.00000000000E+00 -0.45593999997E+02  0.45594000000E+02  0.51100000000E-03 0. -1.
    9900012    2    1    2    0    0  0.34420836516E+02  0.25746454151E+02 -0.59957776588E+01  0.47787271463E+02  0.20000001909E+02 0.  0.
         12    1    1    2    0    0 -0.34420836516E+02 -0.25746454151E+02  0.59957776588E+01  0.43400728537E+02  0.00000000000E+00 0. -1.
         11    1    3    3    0    0  0.11214176963E+02  0.14436015316E+02 -0.94541012349E+01  0.20579998386E+02  0.51100000000E-03 0.  1.
        -11    1    3    3    0    0  0.11300072627E+02  0.47813194181E+01 -0.22542449880E+01  0.12475346788E+02  0.51100000000E-03 0. -1.
        -12    1    3    3    0    0  0.11906586926E+02  0.65291194173E+01  0.57125685641E+01  0.14731926289E+02  0.00000000000E+00 0.  1.
</event>
<event>
 7    1  0.2459936E-009  0.4778728E+02  0.7816164E-02  0.1312668E+00
        -11   -1    0    0    0    0  0.00000000000E+00  0.00000000000E+00  0.45593999997E+02  0.45594000000E+02  0.51100000000E-03 0. -1.
         11   -1    0    0    0    0 -0.00000000000E+00 -0.00000000000E+00 -0.45593999997E+02  0.45594000000E+02  0.51100000000E-03 0.  1.
    9900012    2    1    2    0    0 -0.57735293638E+01  0.32342065870E+02  0.28359829588E+02  0.47787276500E+02  0.20000024875E+02 0.  0.
         12    1    1    2    0    0  0.57735293638E+01 -0.32342065870E+02 -0.28359829588E+02  0.43400723500E+02  0.00000000000E+00 0. -1.
         11    1    3    3    0    0  0.33748282375E+01  0.54595902226E+01  0.23092888122E+01  0.68212466684E+01  0.51100000000E-03 0. -1.
        -11    1    3    3    0    0 -0.35309160762E+01  0.18448781249E+02  0.83193149081E+01  0.20543512326E+02  0.51100000000E-03 0.  1.
         12    1    3    3    0    0 -0.56174415251E+01  0.84336943991E+01  0.17731225867E+02  0.20422517505E+02  0.00000000000E+00 0. -1.
</event>
<event>
 7    1  0.2459936E-009  0.4778725E+02  0.7816164E-02  0.1312668E+00
        -11   -1    0    0    0    0  0.00000000000E+00  0.00000000000E+00  0.45593999997E+02  0.45594000000E+02  0.51100000000E-03 0.  1.
         11   -1    0    0    0    0 -0.00000000000E+00 -0.00000000000E+00 -0.45593999997E+02  0.45594000000E+02  0.51100000000E-03 0. -1.
    9900012    2    1    2    0    0  0.43130019423E+02 -0.43454103886E+01 -0.21316606241E+01  0.47787249501E+02  0.19999901774E+02 0.  0.
         12    1    1    2    0    0 -0.43130019423E+02  0.43454103886E+01  0.21316606241E+01  0.43400750499E+02  0.00000000000E+00 0. -1.
         11    1    3    3    0    0  0.24562438118E+00 -0.13387917911E+01  0.27219810275E+01  0.30433330037E+01  0.51100000000E-03 0. -1.
        -11    1    3    3    0    0  0.24106391417E+02 -0.71221111501E+01 -0.43742137648E+01  0.25514237607E+02  0.51100000000E-03 0.  1.
         12    1    3    3    0    0  0.18778003625E+02  0.41154925526E+01 -0.47942788674E+00  0.19229678890E+02  0.00000000000E+00 0. -1.
</event>
<event>
 7    1  0.2459936E-009  0.4778729E+02  0.7816164E-02  0.1312668E+00
        -11   -1    0    0    0    0  0.00000000000E+00  0.00000000000E+00  0.45593999997E+02  0.45594000000E+02  0.51100000000E-03 0.  1.
         11   -1    0    0    0    0 -0.00000000000E+00 -0.00000000000E+00 -0.45593999997E+02  0.45594000000E+02  0.51100000000E-03 0. -1.
    9900012    2    1    2    0    0 -0.26794078084E+02 -0.17413454283E+02  0.29367852808E+02  0.47787288151E+02  0.20000077994E+02 0.  0.
         12    1    1    2    0    0  0.26794078084E+02  0.17413454283E+02 -0.29367852808E+02  0.43400711849E+02  0.00000000000E+00 0. -1.
         11    1    3    3    0    0 -0.65942188737E+01 -0.81540416396E+01  0.60879029704E+01  0.12125785766E+02  0.51100000000E-03 0. -1.
        -11    1    3    3    0    0 -0.17833131251E+02 -0.57692589452E+01  0.90381070191E+01  0.20808466972E+02  0.51100000000E-03 0.  1.
        -12    1    3    3    0    0 -0.23667279597E+01 -0.34901536985E+01  0.14241842819E+02  0.14853035412E+02  0.00000000000E+00 0.  1.
</event>
<event>
 7    1  0.2459936E-009  0.4778727E+02  0.7816164E-02  0.1312668E+00
        -11   -1    0    0    0    0  0.00000000000E+00  0.00000000000E+00  0.45593999997E+02  0.45594000000E+02  0.51100000000E-03 0.  1.
         11   -1    0    0    0    0 -0.00000000000E+00 -0.00000000000E+00 -0.45593999997E+02  0.45594000000E+02  0.51100000000E-03 0. -1.
    9900012    2    1    2    0    0 -0.17552884517E+02  0.19391381812E+02  0.34633710750E+02  0.47787270009E+02  0.19999995277E+02 0.  0.
         12    1    1    2    0    0  0.17552884517E+02 -0.19391381812E+02 -0.34633710750E+02  0.43400729991E+02  0.00000000000E+00 0. -1.
         11    1    3    3    0    0 -0.13033152648E+01  0.54555004623E+01  0.83949177137E+01  0.10096324066E+02  0.51100000000E-03 0.  1.
        -11    1    3    3    0    0 -0.32523412453E+01  0.10268803377E+02  0.20210818333E+02  0.22902035375E+02  0.51100000000E-03 0. -1.
         12    1    3    3    0    0 -0.12997228007E+02  0.36670779723E+01  0.60279747035E+01  0.14788910567E+02  0.00000000000E+00 0. -1.
</event>
<event>
 7    1  0.2459936E-009  0.4778727E+02  0.7816164E-02  0.1312668E+00
        -11   -1    0    0    0    0  0.00000000000E+00  0.00000000000E+00  0.45593999997E+02  0.45594000000E+02  0.51100000000E-03 0. -1.
         11   -1    0    0    0    0 -0.00000000000E+00 -0.00000000000E+00 -0.45593999997E+02  0.45594000000E+02  0.51100000000E-03 0.  1.
    9900012    2    1    2    0    0  0.11371588587E+02  0.38248025840E+02 -0.17070409702E+02  0.47787269648E+02  0.19999993635E+02 0.  0.
         12    1    1    2    0    0 -0.11371588587E+02 -0.38248025840E+02  0.17070409702E+02  0.43400730352E+02  0.00000000000E+00 0. -1.
         11    1    3    3    0    0 -0.19598347345E+00  0.69909193612E+01  0.29030312677E+01  0.75722489288E+01  0.51100000000E-03 0. -1.
        -11    1    3    3    0    0  0.10264739999E+02  0.13170220176E+02 -0.82811802448E+01  0.18638603307E+02  0.51100000000E-03 0.  1.
        -12    1    3    3    0    0  0.13028320623E+01  0.18086886302E+02 -0.11692260725E+02  0.21576417413E+02  0.00000000000E+00 0.  1.
</event>
<event>
 7    1  0.2459936E-009  0.4778729E+02  0.7816164E-02  0.1312668E+00
        -11   -1    0    0    0    0  0.00000000000E+00  0.00000000000E+00  0.45593999997E+02  0.45594000000E+02  0.51100000000E-03 0. -1.
         11   -1    0    0    0    0 -0.00000000000E+00 -0.00000000000E+00 -0.45593999997E+02  0.45594000000E+02  0.51100000000E-03 0.  1.
    9900012    2    1    2    0    0 -0.28514331384E+02 -0.11093023667E+02 -0.30781482816E+02  0.47787286265E+02  0.20000069396E+02 0.  0.
         12    1    1    2    0    0  0.28514331384E+02  0.11093023667E+02  0.30781482816E+02  0.43400713735E+02  0.00000000000E+00 0. -1.
         11    1    3    3    0    0 -0.84786264270E+01  0.55192102680E+01 -0.97588366731E+01  0.14056446263E+02  0.51100000000E-03 0. -1.
        -11    1    3    3    0    0 -0.26332845250E+01 -0.17055342647E+01 -0.44800436136E+01  0.54693533035E+01  0.51100000000E-03 0.  1.
         12    1    3    3    0    0 -0.17402420432E+02 -0.14906699671E+02 -0.16542602529E+02  0.28261486698E+02  0.00000000000E+00 0. -1.
</event>
<event>
 7    1  0.2459936E-009  0.4778726E+02  0.7816164E-02  0.1312668E+00
        -11   -1    0    0    0    0  0.00000000000E+00  0.00000000000E+00  0.45593999997E+02  0.45594000000E+02  0.51100000000E-03 0.  1.
         11   -1    0    0    0    0 -0.00000000000E+00 -0.00000000000E+00 -0.45593999997E+02  0.45594000000E+02  0.51100000000E-03 0. -1.
    9900012    2    1    2    0    0  0.11561795518E+02 -0.39339401205E+02  0.14225352493E+02  0.47787259726E+02  0.19999948395E+02 0.  0.
         12    1    1    2    0    0 -0.11561795518E+02  0.39339401205E+02 -0.14225352493E+02  0.43400740274E+02  0.00000000000E+00 0. -1.
         11    1    3    3    0    0  0.90798037380E+01 -0.17980614659E+02  0.95951241833E+01  0.22311695314E+02  0.51100000000E-03 0. -1.
        -11    1    3    3    0    0  0.71730568259E+01 -0.98722513526E+01  0.46752039510E+01  0.13067961709E+02  0.51100000000E-03 0.  1.
        -12    1    3    3    0    0 -0.46910650462E+01 -0.11486535193E+02 -0.44975640924E-01  0.12407602703E+02  0.00000000000E+00 0.  1.
</event>
<event>
 7    1  0.2459936E-009  0.4778727E+02  0.7816164E-02  0.1312668E+00
        -11   -1    0    0    0    0  0.00000000000E+00  0.00000000000E+00  0.45593999997E+02  0.45594000000E+02  0.51100000000E-03 0.  1.
         11   -1    0    0    0    0 -0.00000000000E+00 -0.00000000000E+00 -0.45593999997E+02  0.45594000000E+02  0.51100000000E-03 0. -1.
    9900012    2    1    2    0    0  0.41276010175E+02 -0.10840117184E+02 -0.78997541797E+01  0.47787271059E+02  0.20000000066E+02 0.  0.
         12    1    1    2    0    0 -0.41276010175E+02  0.10840117184E+02  0.78997541797E+01  0.43400728941E+02  0.00000000000E+00 0. -1.
         11    1    3    3    0    0  0.28372944413E+00  0.15858732601E+01  0.74533271785E+00  0.17751105644E+01  0.51100000000E-03 0. -1.
        -11    1    3    3    0    0  0.37216630466E+01  0.26299570975E+01  0.10197090568E+01  0.46698240854E+01  0.51100000000E-03 0.  1.
        -12    1    3    3    0    0  0.37270617684E+02 -0.15055947542E+02 -0.96647959543E+01  0.41342336409E+02  0.00000000000E+00 0.  1.
</event>
<event>
 7    1  0.2459936E-009  0.4778727E+02  0.7816164E-02  0.1312668E+00
        -11   -1    0    0    0    0  0.00000000000E+00  0.00000000000E+00  0.45593999997E+02  0.45594000000E+02  0.51100000000E-03 0.  1.
         11   -1    0    0    0    0 -0.00000000000E+00 -0.00000000000E+00 -0.45593999997E+02  0.45594000000E+02  0.51100000000E-03 0. -1.
    9900012    2    1    2    0    0 -0.27547936990E+02  0.21911885241E+02  0.25389053102E+02  0.47787267695E+02  0.19999984727E+02 0.  0.
         12    1    1    2    0    0  0.27547936990E+02 -0.21911885241E+02 -0.25389053102E+02  0.43400732305E+02  0.00000000000E+00 0. -1.
         11    1    3    3    0    0 -0.99173675022E+01  0.41157603187E+01 -0.96477987991E+00  0.10780744949E+02  0.51100000000E-03 0. -1.
        -11    1    3    3    0    0 -0.47483884704E+01  0.70022808080E+01  0.49829678950E+01  0.98188135171E+01  0.51100000000E-03 0.  1.
         12    1    3    3    0    0 -0.12882181018E+02  0.10793844114E+02  0.21370865087E+02  0.27187709229E+02  0.00000000000E+00 0. -1.
</event>
<event>
 7    1  0.2459936E-009  0.4778732E+02  0.7816164E-02  0.1312668E+00
        -11   -1    0    0    0    0  0.00000000000E+00  0.00000000000E+00  0.45593999997E+02  0.45594000000E+02  0.51100000000E-03 0.  1.
         11   -1    0    0    0    0 -0.00000000000E+00 -0.00000000000E+00 -0.45593999997E+02  0.45594000000E+02  0.51100000000E-03 0. -1.
    9900012    2    1    2    0    0  0.16176215251E+02  0.31126676446E+02  0.25555408687E+02  0.47787322130E+02  0.20000232916E+02 0.  0.
         12    1    1    2    0    0 -0.16176215251E+02 -0.31126676446E+02 -0.25555408687E+02  0.43400677870E+02  0.00000000000E+00 0. -1.
         11    1    3    3    0    0  0.43891091626E+01  0.54678501991E+01  0.12184630315E+01  0.71166226162E+01  0.51100000000E-03 0. -1.
        -11    1    3    3    0    0  0.14576186972E+02  0.14422624965E+02  0.12028697305E+02  0.23773239086E+02  0.51100000000E-03 0.  1.
        -12    1    3    3    0    0 -0.27890808833E+01  0.11236201282E+02  0.12308248351E+02  0.16897460427E+02  0.00000000000E+00 0.  1.
</event>
<event>
 7    1  0.2459936E-009  0.4778727E+02  0.7816164E-02  0.1312668E+00
        -11   -1    0    0    0    0  0.00000000000E+00  0.00000000000E+00  0.45593999997E+02  0.45594000000E+02  0.51100000000E-03 0.  1.
         11   -1    0    0    0    0 -0.00000000000E+00 -0.00000000000E+00 -0.45593999997E+02  0.45594000000E+02  0.51100000000E-03 0. -1.
    9900012    2    1    2    0    0 -0.43723902452E+01 -0.25973326145E+02  0.34494806046E+02  0.47787272913E+02  0.20000008521E+02 0.  0.
         12    1    1    2    0    0  0.43723902452E+01  0.25973326145E+02 -0.34494806046E+02  0.43400727087E+02  0.00000000000E+00 0. -1.
         11    1    3    3    0    0  0.11613403614E+01 -0.35382688948E+01  0.10592576814E+02  0.11228122818E+02  0.51100000000E-03 0. -1.
        -11    1    3    3    0    0  0.22795269745E+01 -0.53383745575E+01  0.14337994478E+02  0.15468437932E+02  0.51100000000E-03 0.  1.
         12    1    3    3    0    0 -0.78132575811E+01 -0.17096682692E+02  0.95642347550E+01  0.21090712163E+02  0.00000000000E+00 0. -1.
</event>
<event>
 7    1  0.2459936E-009  0.4778727E+02  0.7816164E-02  0.1312668E+00
        -11   -1    0    0    0    0  0.00000000000E+00  0.00000000000E+00  0.45593999997E+02  0.45594000000E+02  0.51100000000E-03 0.  1.
         11   -1    0    0    0    0 -0.00000000000E+00 -0.00000000000E+00 -0.45593999997E+02  0.45594000000E+02  0.51100000000E-03 0. -1.
    9900012    2    1    2    0    0 -0.24759523491E+02 -0.35608850556E+02 -0.16121885731E+01  0.47787269667E+02  0.19999993719E+02 0.  0.
         12    1    1    2    0    0  0.24759523491E+02  0.35608850556E+02  0.16121885731E+01  0.43400730333E+02  0.00000000000E+00 0. -1.
         11    1    3    3    0    0 -0.10719711969E+02 -0.91413990648E+01 -0.61523552196E+01  0.15372991790E+02  0.51100000000E-03 0. -1.
        -11    1    3    3    0    0 -0.22481323234E+00 -0.88078789684E+01 -0.20469342497E+01  0.90453973376E+01  0.51100000000E-03 0.  1.
        -12    1    3    3    0    0 -0.13814998290E+02 -0.17659572523E+02  0.65871008962E+01  0.23368880539E+02  0.00000000000E+00 0.  1.
</event>
<event>
 7    1  0.2459936E-009  0.4778727E+02  0.7816164E-02  0.1312668E+00
        -11   -1    0    0    0    0  0.00000000000E+00  0.00000000000E+00  0.45593999997E+02  0.45594000000E+02  0.51100000000E-03 0.  1.
         11   -1    0    0    0    0 -0.00000000000E+00 -0.00000000000E+00 -0.45593999997E+02  0.45594000000E+02  0.51100000000E-03 0. -1.
    9900012    2    1    2    0    0 -0.50870740428E+01 -0.43090988202E+02 -0.95478533936E+00  0.47787271878E+02  0.20000003799E+02 0.  0.
         12    1    1    2    0    0  0.50870740428E+01  0.43090988202E+02  0.95478533936E+00  0.43400728122E+02  0.00000000000E+00 0. -1.
         11    1    3    3    0    0  0.13654234705E+00 -0.59690948128E+01 -0.48798789422E+01  0.77111578539E+01  0.51100000000E-03 0. -1.
        -11    1    3    3    0    0 -0.30044612706E+01 -0.31197355442E+02 -0.20037828576E+01  0.31405682926E+02  0.51100000000E-03 0.  1.
        -12    1    3    3    0    0 -0.22191551193E+01 -0.59245379472E+01  0.59288764604E+01  0.86704310973E+01  0.00000000000E+00 0.  1.
</event>
<event>
 7    1  0.2459936E-009  0.4778727E+02  0.7816164E-02  0.1312668E+00
        -11   -1    0    0    0    0  0.00000000000E+00  0.00000000000E+00  0.45593999997E+02  0.45594000000E+02  0.51100000000E-03 0.  1.
         11   -1    0    0    0    0 -0.00000000000E+00 -0.00000000000E+00 -0.45593999997E+02  0.45594000000E+02  0.51100000000E-03 0. -1.
    9900012    2    1    2    0    0 -0.17669986138E+02 -0.25680614220E+02  0.30197691978E+02  0.47787274688E+02  0.20000016612E+02 0.  0.
         12    1    1    2    0    0  0.17669986138E+02  0.25680614220E+02 -0.30197691978E+02  0.43400725312E+02  0.00000000000E+00 0. -1.
         11    1    3    3    0    0 -0.32961320230E+00 -0.84032582655E+00  0.49971700029E+01  0.50780410255E+01  0.51100000000E-03 0. -1.
        -11    1    3    3    0    0 -0.17557048687E+02 -0.20017856274E+02  0.26646901525E+02  0.37669906949E+02  0.51100000000E-03 0.  1.
         12    1    3    3    0    0  0.21667575126E+00 -0.48224321191E+01 -0.14463795496E+01  0.50393267135E+01  0.00000000000E+00 0. -1.
</event>
<event>
 7    1  0.2459936E-009  0.4778725E+02  0.7816164E-02  0.1312668E+00
        -11   -1    0    0    0    0  0.00000000000E+00  0.00000000000E+00  0.45593999997E+02  0.45594000000E+02  0.51100000000E-03 0.  1.
         11   -1    0    0    0    0 -0.00000000000E+00 -0.00000000000E+00 -0.45593999997E+02  0.45594000000E+02  0.51100000000E-03 0. -1.
    9900012    2    1    2    0    0 -0.21058374957E+01 -0.35463066521E+02  0.24931128885E+02  0.47787253162E+02  0.19999918469E+02 0.  0.
         12    1    1    2    0    0  0.21058374957E+01  0.35463066521E+02 -0.24931128885E+02  0.43400746838E+02  0.00000000000E+00 0. -1.
         11    1    3    3    0    0  0.27350625582E+01  0.48582608144E+00  0.16373536017E+00  0.27826972002E+01  0.51100000000E-03 0. -1.
        -11    1    3    3    0    0  0.24884442998E+01 -0.13147928731E+02  0.11385479245E+02  0.17569562398E+02  0.51100000000E-03 0.  1.
        -12    1    3    3    0    0 -0.73293443537E+01 -0.22800963871E+02  0.13381914280E+02  0.27434993564E+02  0.00000000000E+00 0.  1.
</event>
<event>
 7    1  0.2459936E-009  0.4778727E+02  0.7816164E-02  0.1312668E+00
        -11   -1    0    0    0    0  0.00000000000E+00  0.00000000000E+00  0.45593999997E+02  0.45594000000E+02  0.51100000000E-03 0.  1.
         11   -1    0    0    0    0 -0.00000000000E+00 -0.00000000000E+00 -0.45593999997E+02  0.45594000000E+02  0.51100000000E-03 0. -1.
    9900012    2    1    2    0    0  0.15064195077E+02 -0.38371355763E+02  0.13576916332E+02  0.47787267593E+02  0.19999984263E+02 0.  0.
         12    1    1    2    0    0 -0.15064195077E+02  0.38371355763E+02 -0.13576916332E+02  0.43400732407E+02  0.00000000000E+00 0. -1.
         11    1    3    3    0    0  0.41064199216E+01 -0.87393680535E+00  0.69540110501E+01  0.81230979348E+01  0.51100000000E-03 0. -1.
        -11    1    3    3    0    0  0.22526067502E+01 -0.97887479763E+01  0.22408910619E+01  0.10291521614E+02  0.51100000000E-03 0.  1.
         12    1    3    3    0    0  0.87051684051E+01 -0.27708670981E+02  0.43820142202E+01  0.29372648044E+02  0.00000000000E+00 0. -1.
</event>
<event>
 7    1  0.2459936E-009  0.4778727E+02  0.7816164E-02  0.1312668E+00
        -11   -1    0    0    0    0  0.00000000000E+00  0.00000000000E+00  0.45593999997E+02  0.45594000000E+02  0.51100000000E-03 0. -1.
         11   -1    0    0    0    0 -0.00000000000E+00 -0.00000000000E+00 -0.45593999997E+02  0.45594000000E+02  0.51100000000E-03 0.  1.
    9900012    2    1    2    0    0  0.42375658278E+02 -0.27534810053E+01  0.89635497017E+01  0.47787270796E+02  0.19999998869E+02 0.  0.
         12    1    1    2    0    0 -0.42375658278E+02  0.27534810053E+01 -0.89635497017E+01  0.43400729204E+02  0.00000000000E+00 0. -1.
         11    1    3    3    0    0  0.87900192658E+00  0.69194061267E-01  0.17530339976E+01  0.19622845520E+01  0.51100000000E-03 0. -1.
        -11    1    3    3    0    0  0.41588034460E+02 -0.72361228677E+00  0.37323050657E+01  0.41761445454E+02  0.51100000000E-03 0.  1.
        -12    1    3    3    0    0 -0.91378108621E-01 -0.20990627798E+01  0.34782106384E+01  0.40635407907E+01  0.00000000000E+00 0.  1.
</event>
<event>
 7    1  0.2459936E-009  0.4778727E+02  0.7816164E-02  0.1312668E+00
        -11   -1    0    0    0    0  0.00000000000E+00  0.00000000000E+00  0.45593999997E+02  0.45594000000E+02  0.51100000000E-03 0. -1.
         11   -1    0    0    0    0 -0.00000000000E+00 -0.00000000000E+00 -0.45593999997E+02  0.45594000000E+02  0.51100000000E-03 0.  1.
    9900012    2    1    2    0    0 -0.92448670946E+00 -0.26511424297E+02 -0.34349867754E+02  0.47787266035E+02  0.19999977162E+02 0.  0.
         12    1    1    2    0    0  0.92448670946E+00  0.26511424297E+02  0.34349867754E+02  0.43400733965E+02  0.00000000000E+00 0. -1.
         11    1    3    3    0    0 -0.16907391282E+01 -0.30015900120E+01 -0.54516859748E+01  0.64489550804E+01  0.51100000000E-03 0. -1.
        -11    1    3    3    0    0 -0.68034429812E+01 -0.25467722060E+01 -0.67227798130E+01  0.98979115850E+01  0.51100000000E-03 0.  1.
         12    1    3    3    0    0  0.75696954000E+01 -0.20963062079E+02 -0.22175401966E+02  0.31440399370E+02  0.00000000000E+00 0. -1.
</event>
<event>
 7    1  0.2459936E-009  0.4778727E+02  0.7816164E-02  0.1312668E+00
        -11   -1    0    0    0    0  0.00000000000E+00  0.00000000000E+00  0.45593999997E+02  0.45594000000E+02  0.51100000000E-03 0.  1.
         11   -1    0    0    0    0 -0.00000000000E+00 -0.00000000000E+00 -0.45593999997E+02  0.45594000000E+02  0.51100000000E-03 0. -1.
    9900012    2    1    2    0    0 -0.27892175103E+02  0.11470403814E+01  0.33231525016E+02  0.47787269724E+02  0.19999993979E+02 0.  0.
         12    1    1    2    0    0  0.27892175103E+02 -0.11470403814E+01 -0.33231525016E+02  0.43400730276E+02  0.00000000000E+00 0. -1.
         11    1    3    3    0    0 -0.69602929051E+01 -0.35502543414E+01  0.36165635422E+01  0.86098499017E+01  0.51100000000E-03 0. -1.
        -11    1    3    3    0    0 -0.21414955394E+02  0.98713949103E+00  0.22138360883E+02  0.30816907401E+02  0.51100000000E-03 0.  1.
         12    1    3    3    0    0  0.48307319614E+00  0.37101552317E+01  0.74766005909E+01  0.83605124217E+01  0.00000000000E+00 0. -1.
</event>
<event>
 7    1  0.2459936E-009  0.4778727E+02  0.7816164E-02  0.1312668E+00
        -11   -1    0    0    0    0  0.00000000000E+00  0.00000000000E+00  0.45593999997E+02  0.45594000000E+02  0.51100000000E-03 0.  1.
         11   -1    0    0    0    0 -0.00000000000E+00 -0.00000000000E+00 -0.45593999997E+02  0.45594000000E+02  0.51100000000E-03 0. -1.
    9900012    2    1    2    0    0 -0.10670960987E+02  0.41383391252E+02  0.75610031014E+01  0.47787271345E+02  0.20000001369E+02 0.  0.
         12    1    1    2    0    0  0.10670960987E+02 -0.41383391252E+02 -0.75610031014E+01  0.43400728655E+02  0.00000000000E+00 0. -1.
         11    1    3    3    0    0 -0.12127685718E+02  0.29448401495E+02 -0.20928353671E+00  0.31848593554E+02  0.51100000000E-03 0.  1.
        -11    1    3    3    0    0  0.15453743832E+01  0.68219883375E+01  0.45024826070E+00  0.70093102813E+01  0.51100000000E-03 0. -1.
         12    1    3    3    0    0 -0.88649652020E-01  0.51130014196E+01  0.73200383774E+01  0.89293675097E+01  0.00000000000E+00 0. -1.
</event>
<event>
 7    1  0.2459936E-009  0.4778727E+02  0.7816164E-02  0.1312668E+00
        -11   -1    0    0    0    0  0.00000000000E+00  0.00000000000E+00  0.45593999997E+02  0.45594000000E+02  0.51100000000E-03 0.  1.
         11   -1    0    0    0    0 -0.00000000000E+00 -0.00000000000E+00 -0.45593999997E+02  0.45594000000E+02  0.51100000000E-03 0. -1.
    9900012    2    1    2    0    0  0.16122764264E+02 -0.59195479735E+01  0.39857732345E+02  0.47787269552E+02  0.19999993195E+02 0.  0.
         12    1    1    2    0    0 -0.16122764264E+02  0.59195479735E+01 -0.39857732345E+02  0.43400730448E+02  0.00000000000E+00 0. -1.
         11    1    3    3    0    0  0.98604946614E+01 -0.24163339066E+01  0.11576709274E+02  0.15397669382E+02  0.51100000000E-03 0. -1.
        -11    1    3    3    0    0  0.68641677456E+01  0.39115932923E+01  0.18373417114E+02  0.19999995441E+02  0.51100000000E-03 0.  1.
        -12    1    3    3    0    0 -0.60189814249E+00 -0.74148073592E+01  0.99076059570E+01  0.12389604729E+02  0.00000000000E+00 0.  1.
</event>
<event>
 7    1  0.2459936E-009  0.4778727E+02  0.7816164E-02  0.1312668E+00
        -11   -1    0    0    0    0  0.00000000000E+00  0.00000000000E+00  0.45593999997E+02  0.45594000000E+02  0.51100000000E-03 0.  1.
         11   -1    0    0    0    0 -0.00000000000E+00 -0.00000000000E+00 -0.45593999997E+02  0.45594000000E+02  0.51100000000E-03 0. -1.
    9900012    2    1    2    0    0  0.15281175922E+02 -0.76397761330E+01  0.39896655633E+02  0.47787266738E+02  0.19999980367E+02 0.  0.
         12    1    1    2    0    0 -0.15281175922E+02  0.76397761330E+01 -0.39896655633E+02  0.43400733262E+02  0.00000000000E+00 0. -1.
         11    1    3    3    0    0  0.98621677827E+01 -0.13783743824E+00  0.15666830265E+02  0.18512993366E+02  0.51100000000E-03 0. -1.
        -11    1    3    3    0    0  0.24391512290E+01 -0.20730389214E+01  0.22660646591E+02  0.22885625473E+02  0.51100000000E-03 0.  1.
         12    1    3    3    0    0  0.29798569105E+01 -0.54288997734E+01  0.15691787765E+01  0.63886478999E+01  0.00000000000E+00 0. -1.
</event>
<event>
 7    1  0.2459936E-009  0.4778727E+02  0.7816164E-02  0.1312668E+00
        -11   -1    0    0    0    0  0.00000000000E+00  0.00000000000E+00  0.45593999997E+02  0.45594000000E+02  0.51100000000E-03 0. -1.
         11   -1    0    0    0    0 -0.00000000000E+00 -0.00000000000E+00 -0.45593999997E+02  0.45594000000E+02  0.51100000000E-03 0.  1.
    9900012    2    1    2    0    0  0.22476874020E+02 -0.20057467915E+02 -0.31242779082E+02  0.47787272706E+02  0.20000007576E+02 0.  0.
         12    1    1    2    0    0 -0.22476874020E+02  0.20057467915E+02  0.31242779082E+02  0.43400727294E+02  0.00000000000E+00 0. -1.
         11    1    3    3    0    0  0.10992651068E+02 -0.39251455790E+01 -0.18357142744E+02  0.21753846449E+02  0.51100000000E-03 0. -1.
        -11    1    3    3    0    0  0.11840960753E+02 -0.11453504028E+02 -0.13502785405E+02  0.21300617832E+02  0.51100000000E-03 0.  1.
         12    1    3    3    0    0 -0.35673780106E+00 -0.46788183075E+01  0.61714906781E+00  0.47328084247E+01  0.00000000000E+00 0. -1.
</event>
<event>
 7    1  0.2459936E-009  0.4778727E+02  0.7816164E-02  0.1312668E+00
        -11   -1    0    0    0    0  0.00000000000E+00  0.00000000000E+00  0.45593999997E+02  0.45594000000E+02  0.51100000000E-03 0. -1.
         11   -1    0    0    0    0 -0.00000000000E+00 -0.00000000000E+00 -0.45593999997E+02  0.45594000000E+02  0.51100000000E-03 0.  1.
    9900012    2    1    2    0    0 -0.37130105008E+02  0.13006622726E+02 -0.18325029469E+02  0.47787266853E+02  0.19999980892E+02 0.  0.
         12    1    1    2    0    0  0.37130105008E+02 -0.13006622726E+02  0.18325029469E+02  0.43400733147E+02  0.00000000000E+00 0. -1.
         11    1    3    3    0    0 -0.83168935543E+01  0.21556998665E+01 -0.37672131036E+01  0.93813461260E+01  0.51100000000E-03 0. -1.
        -11    1    3    3    0    0 -0.47421217169E+01  0.61245546626E+00 -0.11016280405E+02  0.12009215391E+02  0.51100000000E-03 0.  1.
         12    1    3    3    0    0 -0.24071089737E+02  0.10238467393E+02 -0.35415359601E+01  0.26396705337E+02  0.00000000000E+00 0. -1.
</event>
<event>
 7    1  0.2459936E-009  0.4778727E+02  0.7816164E-02  0.1312668E+00
        -11   -1    0    0    0    0  0.00000000000E+00  0.00000000000E+00  0.45593999997E+02  0.45594000000E+02  0.51100000000E-03 0. -1.
         11   -1    0    0    0    0 -0.00000000000E+00 -0.00000000000E+00 -0.45593999997E+02  0.45594000000E+02  0.51100000000E-03 0.  1.
    9900012    2    1    2    0    0  0.36760647981E+02 -0.23066743968E+02 -0.45082730439E+00  0.47787272328E+02  0.20000005850E+02 0.  0.
         12    1    1    2    0    0 -0.36760647981E+02  0.23066743968E+02  0.45082730439E+00  0.43400727672E+02  0.00000000000E+00 0. -1.
         11    1    3    3    0    0  0.15925506447E+02  0.89373333876E-02  0.17184906139E+01  0.16017960099E+02  0.51100000000E-03 0. -1.
        -11    1    3    3    0    0  0.50659971733E+01 -0.39624386409E+01 -0.27234881698E+01  0.69844567015E+01  0.51100000000E-03 0.  1.
         12    1    3    3    0    0  0.15769144360E+02 -0.19113242660E+02  0.55417025152E+00  0.24784855527E+02  0.00000000000E+00 0. -1.
</event>
<event>
 7    1  0.2459936E-009  0.4778728E+02  0.7816164E-02  0.1312668E+00
        -11   -1    0    0    0    0  0.00000000000E+00  0.00000000000E+00  0.45593999997E+02  0.45594000000E+02  0.51100000000E-03 0. -1.
         11   -1    0    0    0    0 -0.00000000000E+00 -0.00000000000E+00 -0.45593999997E+02  0.45594000000E+02  0.51100000000E-03 0.  1.
    9900012    2    1    2    0    0  0.35158582557E+02 -0.10402068855E+02 -0.23222687897E+02  0.47787283451E+02  0.20000056565E+02 0.  0.
         12    1    1    2    0    0 -0.35158582557E+02  0.10402068855E+02  0.23222687897E+02  0.43400716549E+02  0.00000000000E+00 0. -1.
         11    1    3    3    0    0  0.39041747595E+01  0.28392550607E+01 -0.55092255750E+01  0.73249925973E+01  0.51100000000E-03 0. -1.
        -11    1    3    3    0    0  0.35124184567E+00 -0.24338519564E+01  0.11101917763E+01  0.26980608260E+01  0.51100000000E-03 0.  1.
        -12    1    3    3    0    0  0.30903165951E+02 -0.10807471959E+02 -0.18823654098E+02  0.37764230027E+02  0.00000000000E+00 0.  1.
</event>
<event>
 7    1  0.2459936E-009  0.4778727E+02  0.7816164E-02  0.1312668E+00
        -11   -1    0    0    0    0  0.00000000000E+00  0.00000000000E+00  0.45593999997E+02  0.45594000000E+02  0.51100000000E-03 0.  1.
         11   -1    0    0    0    0 -0.00000000000E+00 -0.00000000000E+00 -0.45593999997E+02  0.45594000000E+02  0.51100000000E-03 0. -1.
    9900012    2    1    2    0    0 -0.25167403586E+02 -0.20030011145E+02  0.29138013345E+02  0.47787269921E+02  0.19999994877E+02 0.  0.
         12    1    1    2    0    0  0.25167403586E+02  0.20030011145E+02 -0.29138013345E+02  0.43400730079E+02  0.00000000000E+00 0. -1.
         11    1    3    3    0    0 -0.55547441474E+01 -0.50183280394E+01 -0.17326046657E+01  0.76837958096E+01  0.51100000000E-03 0. -1.
        -11    1    3    3    0    0 -0.89995467676E+00 -0.15074757099E+01  0.56594959417E+01  0.59255629278E+01  0.51100000000E-03 0.  1.
         12    1    3    3    0    0 -0.18712704762E+02 -0.13504207396E+02  0.25211122069E+02  0.34177911183E+02  0.00000000000E+00 0. -1.
</event>
<event>
 7    1  0.2459936E-009  0.4778729E+02  0.7816164E-02  0.1312668E+00
        -11   -1    0    0    0    0  0.00000000000E+00  0.00000000000E+00  0.45593999997E+02  0.45594000000E+02  0.51100000000E-03 0.  1.
         11   -1    0    0    0    0 -0.00000000000E+00 -0.00000000000E+00 -0.45593999997E+02  0.45594000000E+02  0.51100000000E-03 0. -1.
    9900012    2    1    2    0    0  0.41976102202E+02 -0.10891548361E+02 -0.17329324068E+01  0.47787285299E+02  0.20000064994E+02 0.  0.
         12    1    1    2    0    0 -0.41976102202E+02  0.10891548361E+02  0.17329324068E+01  0.43400714701E+02  0.00000000000E+00 0. -1.
         11    1    3    3    0    0  0.19641428614E+02 -0.54789242644E+01 -0.75100826460E+01  0.21730293848E+02  0.51100000000E-03 0. -1.
        -11    1    3    3    0    0  0.17284318484E+01 -0.43241831292E+01  0.11068277955E+00  0.46581420468E+01  0.51100000000E-03 0.  1.
        -12    1    3    3    0    0  0.20606241740E+02 -0.10884409678E+01  0.56664674597E+01  0.21398849405E+02  0.00000000000E+00 0.  1.
</event>
<event>
 7    1  0.2459936E-009  0.4778728E+02  0.7816164E-02  0.1312668E+00
        -11   -1    0    0    0    0  0.00000000000E+00  0.00000000000E+00  0.45593999997E+02  0.45594000000E+02  0.51100000000E-03 0. -1.
         11   -1    0    0    0    0 -0.00000000000E+00 -0.00000000000E+00 -0.45593999997E+02  0.45594000000E+02  0.51100000000E-03 0.  1.
    9900012    2    1    2    0    0  0.36224805879E+02 -0.40586331772E+01 -0.23556607119E+02  0.47787276467E+02  0.20000024724E+02 0.  0.
         12    1    1    2    0    0 -0.36224805879E+02  0.40586331772E+01  0.23556607119E+02  0.43400723533E+02  0.00000000000E+00 0. -1.
         11    1    3    3    0    0  0.12051901563E+02 -0.54102779296E+01 -0.85557464123E+01  0.15739130709E+02  0.51100000000E-03 0. -1.
        -11    1    3    3    0    0  0.16256639691E+02  0.37362797538E+01 -0.16704572877E+02  0.23606797235E+02  0.51100000000E-03 0.  1.
         12    1    3    3    0    0  0.79162646256E+01 -0.23846350014E+01  0.17037121710E+01  0.84413485222E+01  0.00000000000E+00 0. -1.
</event>
<event>
 7    1  0.2459936E-009  0.4778727E+02  0.7816164E-02  0.1312668E+00
        -11   -1    0    0    0    0  0.00000000000E+00  0.00000000000E+00  0.45593999997E+02  0.45594000000E+02  0.51100000000E-03 0.  1.
         11   -1    0    0    0    0 -0.00000000000E+00 -0.00000000000E+00 -0.45593999997E+02  0.45594000000E+02  0.51100000000E-03 0. -1.
    9900012    2    1    2    0    0 -0.37903979335E+02  0.67374623501E+01  0.20037927702E+02  0.47787267346E+02  0.19999983138E+02 0.  0.
         12    1    1    2    0    0  0.37903979335E+02 -0.67374623501E+01 -0.20037927702E+02  0.43400732654E+02  0.00000000000E+00 0. -1.
         11    1    3    3    0    0 -0.74481822180E+01  0.53815878760E+01  0.74575274605E+01  0.11834340814E+02  0.51100000000E-03 0. -1.
        -11    1    3    3    0    0 -0.57185454603E+01  0.36657453413E+01  0.83278585114E+01  0.10746752009E+02  0.51100000000E-03 0.  1.
        -12    1    3    3    0    0 -0.24737251656E+02 -0.23098708672E+01  0.42525417296E+01  0.25206174523E+02  0.00000000000E+00 0.  1.
</event>
<event>
 7    1  0.2459936E-009  0.4778727E+02  0.7816164E-02  0.1312668E+00
        -11   -1    0    0    0    0  0.00000000000E+00  0.00000000000E+00  0.45593999997E+02  0.45594000000E+02  0.51100000000E-03 0.  1.
         11   -1    0    0    0    0 -0.00000000000E+00 -0.00000000000E+00 -0.45593999997E+02  0.45594000000E+02  0.51100000000E-03 0. -1.
    9900012    2    1    2    0    0  0.72988577808E+01  0.21605877860E+02  0.36926089262E+02  0.47787270154E+02  0.19999995941E+02 0.  0.
         12    1    1    2    0    0 -0.72988577808E+01 -0.21605877860E+02 -0.36926089262E+02  0.43400729846E+02  0.00000000000E+00 0. -1.
         11    1    3    3    0    0 -0.25924337154E+01  0.78763312265E+01  0.40953731778E+01  0.92482099827E+01  0.51100000000E-03 0. -1.
        -11    1    3    3    0    0  0.17420001948E+01  0.27456489117E+01  0.31844883747E+00  0.32671949052E+01  0.51100000000E-03 0.  1.
        -12    1    3    3    0    0  0.81492913013E+01  0.10983897721E+02  0.32512267246E+02  0.35271865266E+02  0.00000000000E+00 0.  1.
</event>
<event>
 7    1  0.2459936E-009  0.4778727E+02  0.7816164E-02  0.1312668E+00
        -11   -1    0    0    0    0  0.00000000000E+00  0.00000000000E+00  0.45593999997E+02  0.45594000000E+02  0.51100000000E-03 0.  1.
         11   -1    0    0    0    0 -0.00000000000E+00 -0.00000000000E+00 -0.45593999997E+02  0.45594000000E+02  0.51100000000E-03 0. -1.
    9900012    2    1    2    0    0 -0.34337914997E+02  0.25917789641E+02 -0.57270518385E+01  0.47787270179E+02  0.19999996055E+02 0.  0.
         12    1    1    2    0    0  0.34337914997E+02 -0.25917789641E+02  0.57270518385E+01  0.43400729821E+02  0.00000000000E+00 0. -1.
         11    1    3    3    0    0 -0.52921809513E+01 -0.22646939837E+01 -0.19232898819E+01  0.60691895910E+01  0.51100000000E-03 0. -1.
        -11    1    3    3    0    0 -0.79276240011E+01  0.25777743036E+01 -0.27096122572E+00  0.83405972753E+01  0.51100000000E-03 0.  1.
         12    1    3    3    0    0 -0.21118110044E+02  0.25604709321E+02 -0.35328007309E+01  0.33377483313E+02  0.00000000000E+00 0. -1.
</event>
<event>
 7    1  0.2459936E-009  0.4778727E+02  0.7816164E-02  0.1312668E+00
        -11   -1    0    0    0    0  0.00000000000E+00  0.00000000000E+00  0.45593999997E+02  0.45594000000E+02  0.51100000000E-03 0. -1.
         11   -1    0    0    0    0 -0.00000000000E+00 -0.00000000000E+00 -0.45593999997E+02  0.45594000000E+02  0.51100000000E-03 0.  1.
    9900012    2    1    2    0    0  0.30819004810E+02  0.29973643218E+02  0.59491829027E+01  0.47787272789E+02  0.20000007954E+02 0.  0.
         12    1    1    2    0    0 -0.30819004810E+02 -0.29973643218E+02 -0.59491829027E+01  0.43400727211E+02  0.00000000000E+00 0. -1.
         11    1    3    3    0    0  0.64194752630E+01  0.41294513528E+01  0.59918195090E+00  0.76564384931E+01  0.51100000000E-03 0. -1.
        -11    1    3    3    0    0  0.21236549682E+02  0.11015882891E+02  0.68764400340E+01  0.24892290897E+02  0.51100000000E-03 0.  1.
         12    1    3    3    0    0  0.31629798643E+01  0.14828308974E+02 -0.15264390822E+01  0.15238543399E+02  0.00000000000E+00 0. -1.
</event>
<event>
 7    1  0.2459936E-009  0.4778727E+02  0.7816164E-02  0.1312668E+00
        -11   -1    0    0    0    0  0.00000000000E+00  0.00000000000E+00  0.45593999997E+02  0.45594000000E+02  0.51100000000E-03 0. -1.
         11   -1    0    0    0    0 -0.00000000000E+00 -0.00000000000E+00 -0.45593999997E+02  0.45594000000E+02  0.51100000000E-03 0.  1.
    9900012    2    1    2    0    0 -0.26204545547E+01  0.38840247309E+02 -0.19188316911E+02  0.47787273060E+02  0.20000009188E+02 0.  0.
         12    1    1    2    0    0  0.26204545547E+01 -0.38840247309E+02  0.19188316911E+02  0.43400726940E+02  0.00000000000E+00 0. -1.
         11    1    3    3    0    0  0.91079313938E-01 -0.38049113242E+00  0.24144192043E+01  0.24459127741E+01  0.51100000000E-03 0. -1.
        -11    1    3    3    0    0 -0.38115275673E+01  0.18310631667E+02 -0.78127421524E+01  0.20269334341E+02  0.51100000000E-03 0.  1.
        -12    1    3    3    0    0  0.10999936987E+01  0.20910106774E+02 -0.13789993963E+02  0.25072025944E+02  0.00000000000E+00 0.  1.
</event>
<event>
 7    1  0.2459936E-009  0.4778727E+02  0.7816164E-02  0.1312668E+00
        -11   -1    0    0    0    0  0.00000000000E+00  0.00000000000E+00  0.45593999997E+02  0.45594000000E+02  0.51100000000E-03 0.  1.
         11   -1    0    0    0    0 -0.00000000000E+00 -0.00000000000E+00 -0.45593999997E+02  0.45594000000E+02  0.51100000000E-03 0. -1.
    9900012    2    1    2    0    0 -0.11707416993E+02  0.40569626664E+02  0.10033181497E+02  0.47787274761E+02  0.20000016945E+02 0.  0.
         12    1    1    2    0    0  0.11707416993E+02 -0.40569626664E+02 -0.10033181497E+02  0.43400725239E+02  0.00000000000E+00 0. -1.
         11    1    3    3    0    0 -0.58743101416E+01  0.72993701018E+01 -0.12946643482E+01  0.94585664642E+01  0.51100000000E-03 0.  1.
        -11    1    3    3    0    0 -0.55947375489E+00  0.15214942920E+02 -0.18858803517E+01  0.15341578925E+02  0.51100000000E-03 0. -1.
        -12    1    3    3    0    0 -0.52736330970E+01  0.18055313642E+02  0.13213726197E+02  0.22987129372E+02  0.00000000000E+00 0.  1.
</event>
<event>
 7    1  0.2459936E-009  0.4778732E+02  0.7816164E-02  0.1312668E+00
        -11   -1    0    0    0    0  0.00000000000E+00  0.00000000000E+00  0.45593999997E+02  0.45594000000E+02  0.51100000000E-03 0.  1.
         11   -1    0    0    0    0 -0.00000000000E+00 -0.00000000000E+00 -0.45593999997E+02  0.45594000000E+02  0.51100000000E-03 0. -1.
    9900012    2    1    2    0    0  0.10862733229E+02 -0.36963926214E+02 -0.19982193544E+02  0.47787321743E+02  0.20000231156E+02 0.  0.
         12    1    1    2    0    0 -0.10862733229E+02  0.36963926214E+02  0.19982193544E+02  0.43400678257E+02  0.00000000000E+00 0. -1.
         11    1    3    3    0    0  0.31801374088E+01 -0.14143655387E+02 -0.50669963908E+01  0.15356780728E+02  0.51100000000E-03 0. -1.
        -11    1    3    3    0    0  0.84090148172E+01 -0.69301292219E+01 -0.41186359213E+00  0.10904487751E+02  0.51100000000E-03 0.  1.
         12    1    3    3    0    0 -0.72641899712E+00 -0.15890141604E+02 -0.14503333561E+02  0.21526053264E+02  0.00000000000E+00 0. -1.
</event>
<event>
 7    1  0.2459936E-009  0.4778722E+02  0.7816164E-02  0.1312668E+00
        -11   -1    0    0    0    0  0.00000000000E+00  0.00000000000E+00  0.45593999997E+02  0.45594000000E+02  0.51100000000E-03 0. -1.
         11   -1    0    0    0    0 -0.00000000000E+00 -0.00000000000E+00 -0.45593999997E+02  0.45594000000E+02  0.51100000000E-03 0.  1.
    9900012    2    1    2    0    0  0.12280305041E+02  0.26473653213E+02 -0.32124245357E+02  0.47787224130E+02  0.19999786096E+02 0.  0.
         12    1    1    2    0    0 -0.12280305041E+02 -0.26473653213E+02  0.32124245357E+02  0.43400775870E+02  0.00000000000E+00 0. -1.
         11    1    3    3    0    0  0.12562721596E+01  0.62972673083E+00  0.21662783343E+01  0.25821575430E+01  0.51100000000E-03 0. -1.
        -11    1    3    3    0    0 -0.94941352079E+00  0.46743151262E+01 -0.32524682521E+01  0.57731410795E+01  0.51100000000E-03 0.  1.
        -12    1    3    3    0    0  0.11973446402E+02  0.21169611356E+02 -0.31038055440E+02  0.39431925507E+02  0.00000000000E+00 0.  1.
</event>
<event>
 7    1  0.2459936E-009  0.4778727E+02  0.7816164E-02  0.1312668E+00
        -11   -1    0    0    0    0  0.00000000000E+00  0.00000000000E+00  0.45593999997E+02  0.45594000000E+02  0.51100000000E-03 0. -1.
         11   -1    0    0    0    0 -0.00000000000E+00 -0.00000000000E+00 -0.45593999997E+02  0.45594000000E+02  0.51100000000E-03 0.  1.
    9900012    2    1    2    0    0 -0.37897808300E+01  0.40802858658E+02 -0.14296424028E+02  0.47787268977E+02  0.19999990572E+02 0.  0.
         12    1    1    2    0    0  0.37897808300E+01 -0.40802858658E+02  0.14296424028E+02  0.43400731023E+02  0.00000000000E+00 0. -1.
         11    1    3    3    0    0 -0.46172352373E+01  0.12102012320E+02 -0.46874808533E+01  0.13774978782E+02  0.51100000000E-03 0. -1.
        -11    1    3    3    0    0  0.21454135696E+00  0.21112549185E+02 -0.13895069817E+02  0.25275654819E+02  0.51100000000E-03 0.  1.
         12    1    3    3    0    0  0.61291305031E+00  0.75882971530E+01  0.42861266420E+01  0.87366353753E+01  0.00000000000E+00 0. -1.
</event>
<event>
 7    1  0.2459936E-009  0.4778727E+02  0.7816164E-02  0.1312668E+00
        -11   -1    0    0    0    0  0.00000000000E+00  0.00000000000E+00  0.45593999997E+02  0.45594000000E+02  0.51100000000E-03 0. -1.
         11   -1    0    0    0    0 -0.00000000000E+00 -0.00000000000E+00 -0.45593999997E+02  0.45594000000E+02  0.51100000000E-03 0.  1.
    9900012    2    1    2    0    0  0.10883604356E+02  0.12143499666E+02 -0.40220719361E+02  0.47787266207E+02  0.19999977943E+02 0.  0.
         12    1    1    2    0    0 -0.10883604356E+02 -0.12143499666E+02  0.40220719361E+02  0.43400733793E+02  0.00000000000E+00 0. -1.
         11    1    3    3    0    0  0.31337714890E+01  0.41467526242E+01 -0.79799188075E+01  0.95234019923E+01  0.51100000000E-03 0. -1.
        -11    1    3    3    0    0  0.12318633041E+02  0.89895571618E+01 -0.28307775942E+02  0.32154176043E+02  0.51100000000E-03 0.  1.
         12    1    3    3    0    0 -0.45688001739E+01 -0.99281011999E+00 -0.39330246114E+01  0.61096881719E+01  0.00000000000E+00 0. -1.
</event>
<event>
 7    1  0.2459936E-009  0.4778727E+02  0.7816164E-02  0.1312668E+00
        -11   -1    0    0    0    0  0.00000000000E+00  0.00000000000E+00  0.45593999997E+02  0.45594000000E+02  0.51100000000E-03 0. -1.
         11   -1    0    0    0    0 -0.00000000000E+00 -0.00000000000E+00 -0.45593999997E+02  0.45594000000E+02  0.51100000000E-03 0.  1.
    9900012    2    1    2    0    0 -0.37455527918E+02  0.16083384398E+02 -0.14900713771E+02  0.47787273091E+02  0.20000009332E+02 0.  0.
         12    1    1    2    0    0  0.37455527918E+02 -0.16083384398E+02  0.14900713771E+02  0.43400726909E+02  0.00000000000E+00 0. -1.
         11    1    3    3    0    0 -0.26416558292E+01  0.41519755525E+01 -0.14287113924E+01  0.51243012219E+01  0.51100000000E-03 0. -1.
        -11    1    3    3    0    0 -0.36742290162E+02  0.11438336511E+02 -0.12623240775E+02  0.40499106613E+02  0.51100000000E-03 0.  1.
        -12    1    3    3    0    0  0.19284180729E+01  0.49307233440E+00 -0.84876160306E+00  0.21638652568E+01  0.00000000000E+00 0.  1.
</event>
<event>
 7    1  0.2459936E-009  0.4778727E+02  0.7816164E-02  0.1312668E+00
        -11   -1    0    0    0    0  0.00000000000E+00  0.00000000000E+00  0.45593999997E+02  0.45594000000E+02  0.51100000000E-03 0.  1.
         11   -1    0    0    0    0 -0.00000000000E+00 -0.00000000000E+00 -0.45593999997E+02  0.45594000000E+02  0.51100000000E-03 0. -1.
    9900012    2    1    2    0    0  0.24143835787E+02 -0.33095236056E+02  0.14331917109E+02  0.47787270696E+02  0.19999998412E+02 0.  0.
         12    1    1    2    0    0 -0.24143835787E+02  0.33095236056E+02 -0.14331917109E+02  0.43400729304E+02  0.00000000000E+00 0. -1.
         11    1    3    3    0    0  0.74129673309E+01 -0.27647351560E+01  0.20628873359E+01  0.81762674586E+01  0.51100000000E-03 0. -1.
        -11    1    3    3    0    0  0.94230583170E+01 -0.42429687071E+01  0.54089266554E+01  0.11664188755E+02  0.51100000000E-03 0.  1.
         12    1    3    3    0    0  0.73078101390E+01 -0.26087532192E+02  0.68601031180E+01  0.27946814482E+02  0.00000000000E+00 0. -1.
</event>
<event>
 7    1  0.2459936E-009  0.4778727E+02  0.7816164E-02  0.1312668E+00
        -11   -1    0    0    0    0  0.00000000000E+00  0.00000000000E+00  0.45593999997E+02  0.45594000000E+02  0.51100000000E-03 0. -1.
         11   -1    0    0    0    0 -0.00000000000E+00 -0.00000000000E+00 -0.45593999997E+02  0.45594000000E+02  0.51100000000E-03 0.  1.
    9900012    2    1    2    0    0 -0.43348190759E+02  0.20797357276E+01 -0.48213107618E+00  0.47787269671E+02  0.19999993737E+02 0.  0.
         12    1    1    2    0    0  0.43348190759E+02 -0.20797357276E+01  0.48213107618E+00  0.43400730329E+02  0.00000000000E+00 0. -1.
         11    1    3    3    0    0 -0.26841131257E+02 -0.55054630261E+01 -0.34992749558E+01  0.27622479537E+02  0.51100000000E-03 0. -1.
        -11    1    3    3    0    0 -0.11576404892E+02  0.97300061316E+00  0.91653133785E+00  0.11653321860E+02  0.51100000000E-03 0.  1.
        -12    1    3    3    0    0 -0.49306546096E+01  0.66121981405E+01  0.21006125418E+01  0.85114682740E+01  0.00000000000E+00 0.  1.
</event>
<event>
 7    1  0.2459936E-009  0.4778728E+02  0.7816164E-02  0.1312668E+00
        -11   -1    0    0    0    0  0.00000000000E+00  0.00000000000E+00  0.45593999997E+02  0.45594000000E+02  0.51100000000E-03 0.  1.
         11   -1    0    0    0    0 -0.00000000000E+00 -0.00000000000E+00 -0.45593999997E+02  0.45594000000E+02  0.51100000000E-03 0. -1.
    9900012    2    1    2    0    0 -0.92280793082E+01 -0.17500131672E+02  0.38629145321E+02  0.47787275069E+02  0.20000018351E+02 0.  0.
         12    1    1    2    0    0  0.92280793082E+01  0.17500131672E+02 -0.38629145321E+02  0.43400724931E+02  0.00000000000E+00 0. -1.
         11    1    3    3    0    0 -0.43888128958E+01 -0.46063288785E+01  0.19464156621E+02  0.20477630175E+02  0.51100000000E-03 0. -1.
        -11    1    3    3    0    0 -0.52868952313E+01 -0.15678440793E+02  0.17238157013E+02  0.23893907683E+02  0.51100000000E-03 0.  1.
         12    1    3    3    0    0  0.44762881890E+00  0.27846379990E+01  0.19268316871E+01  0.34157372111E+01  0.00000000000E+00 0. -1.
</event>
<event>
 7    1  0.2459936E-009  0.4778727E+02  0.7816164E-02  0.1312668E+00
        -11   -1    0    0    0    0  0.00000000000E+00  0.00000000000E+00  0.45593999997E+02  0.45594000000E+02  0.51100000000E-03 0.  1.
         11   -1    0    0    0    0 -0.00000000000E+00 -0.00000000000E+00 -0.45593999997E+02  0.45594000000E+02  0.51100000000E-03 0. -1.
    9900012    2    1    2    0    0 -0.37360899705E+02  0.93875714014E+01  0.19991496003E+02  0.47787271480E+02  0.20000001988E+02 0.  0.
         12    1    1    2    0    0  0.37360899705E+02 -0.93875714014E+01 -0.19991496003E+02  0.43400728520E+02  0.00000000000E+00 0. -1.
         11    1    3    3    0    0 -0.49806950243E+01  0.53126058205E-01  0.14489529414E+01  0.51874473675E+01  0.51100000000E-03 0. -1.
        -11    1    3    3    0    0 -0.27305647568E+02  0.98665555581E+00  0.85612183785E+01  0.28633308203E+02  0.51100000000E-03 0.  1.
         12    1    3    3    0    0 -0.50745571131E+01  0.83477897874E+01  0.99813246829E+01  0.13966515910E+02  0.00000000000E+00 0. -1.
</event>
<event>
 7    1  0.2459936E-009  0.4778727E+02  0.7816164E-02  0.1312668E+00
        -11   -1    0    0    0    0  0.00000000000E+00  0.00000000000E+00  0.45593999997E+02  0.45594000000E+02  0.51100000000E-03 0.  1.
         11   -1    0    0    0    0 -0.00000000000E+00 -0.00000000000E+00 -0.45593999997E+02  0.45594000000E+02  0.51100000000E-03 0. -1.
    9900012    2    1    2    0    0 -0.20064096218E+02  0.35841399783E+02  0.14016035547E+02  0.47787272496E+02  0.20000006617E+02 0.  0.
         12    1    1    2    0    0  0.20064096218E+02 -0.35841399783E+02 -0.14016035547E+02  0.43400727504E+02  0.00000000000E+00 0. -1.
         11    1    3    3    0    0 -0.22938262856E+01  0.63004580936E-01  0.13597198770E+00  0.22987164349E+01  0.51100000000E-03 0. -1.
        -11    1    3    3    0    0 -0.17353170023E+02  0.16933653101E+02  0.10090014954E+02  0.26261940508E+02  0.51100000000E-03 0.  1.
         12    1    3    3    0    0 -0.41709990881E+00  0.18844742102E+02  0.37900486053E+01  0.19226615553E+02  0.00000000000E+00 0. -1.
</event>
<event>
 7    1  0.2459936E-009  0.4778727E+02  0.7816164E-02  0.1312668E+00
        -11   -1    0    0    0    0  0.00000000000E+00  0.00000000000E+00  0.45593999997E+02  0.45594000000E+02  0.51100000000E-03 0.  1.
         11   -1    0    0    0    0 -0.00000000000E+00 -0.00000000000E+00 -0.45593999997E+02  0.45594000000E+02  0.51100000000E-03 0. -1.
    9900012    2    1    2    0    0  0.40005624866E+02  0.52733189359E+00  0.16819486243E+02  0.47787271696E+02  0.20000002972E+02 0.  0.
         12    1    1    2    0    0 -0.40005624866E+02 -0.52733189359E+00 -0.16819486243E+02  0.43400728304E+02  0.00000000000E+00 0. -1.
         11    1    3    3    0    0  0.19971416121E+02  0.39451677041E+01  0.15836721101E+02  0.25791927915E+02  0.51100000000E-03 0. -1.
        -11    1    3    3    0    0  0.31254584965E+01  0.13746105876E+01  0.26775174996E+01  0.43390258472E+01  0.51100000000E-03 0.  1.
        -12    1    3    3    0    0  0.16908750249E+02 -0.47924463981E+01 -0.16947523577E+01  0.17656317934E+02  0.00000000000E+00 0.  1.
</event>
<event>
 7    1  0.2459936E-009  0.4778727E+02  0.7816164E-02  0.1312668E+00
        -11   -1    0    0    0    0  0.00000000000E+00  0.00000000000E+00  0.45593999997E+02  0.45594000000E+02  0.51100000000E-03 0.  1.
         11   -1    0    0    0    0 -0.00000000000E+00 -0.00000000000E+00 -0.45593999997E+02  0.45594000000E+02  0.51100000000E-03 0. -1.
    9900012    2    1    2    0    0  0.25897629560E+02 -0.33985407921E+02  0.76110332264E+01  0.47787274255E+02  0.20000014639E+02 0.  0.
         12    1    1    2    0    0 -0.25897629560E+02  0.33985407921E+02 -0.76110332264E+01  0.43400725745E+02  0.00000000000E+00 0. -1.
         11    1    3    3    0    0  0.49645639616E+01 -0.60863384068E+01  0.91210286557E+01  0.12036759303E+02  0.51100000000E-03 0. -1.
        -11    1    3    3    0    0  0.21745053142E+01 -0.12421695790E+01 -0.19147087432E+01  0.31523909111E+01  0.51100000000E-03 0.  1.
        -12    1    3    3    0    0  0.18758560285E+02 -0.26656899935E+02  0.40471331391E+00  0.32598124041E+02  0.00000000000E+00 0.  1.
</event>
<event>
 7    1  0.2459936E-009  0.4778727E+02  0.7816164E-02  0.1312668E+00
        -11   -1    0    0    0    0  0.00000000000E+00  0.00000000000E+00  0.45593999997E+02  0.45594000000E+02  0.51100000000E-03 0.  1.
         11   -1    0    0    0    0 -0.00000000000E+00 -0.00000000000E+00 -0.45593999997E+02  0.45594000000E+02  0.51100000000E-03 0. -1.
    9900012    2    1    2    0    0 -0.27545699753E+01  0.42257670531E+02 -0.95039263625E+01  0.47787274306E+02  0.20000014873E+02 0.  0.
         12    1    1    2    0    0  0.27545699753E+01 -0.42257670531E+02  0.95039263625E+01  0.43400725694E+02  0.00000000000E+00 0. -1.
         11    1    3    3    0    0 -0.27782549004E+01  0.73334125051E+01 -0.38668629939E+01  0.87435844444E+01  0.51100000000E-03 0. -1.
        -11    1    3    3    0    0 -0.79281069099E+01  0.18736009551E+02 -0.75303125135E+00  0.20358290434E+02  0.51100000000E-03 0.  1.
         12    1    3    3    0    0  0.79517918351E+01  0.16188248474E+02 -0.48840321172E+01  0.18685399428E+02  0.00000000000E+00 0. -1.
</event>
<event>
 7    1  0.2459936E-009  0.4778727E+02  0.7816164E-02  0.1312668E+00
        -11   -1    0    0    0    0  0.00000000000E+00  0.00000000000E+00  0.45593999997E+02  0.45594000000E+02  0.51100000000E-03 0. -1.
         11   -1    0    0    0    0 -0.00000000000E+00 -0.00000000000E+00 -0.45593999997E+02  0.45594000000E+02  0.51100000000E-03 0.  1.
    9900012    2    1    2    0    0  0.21942893360E+01  0.39769917141E+02 -0.17238388721E+02  0.47787271195E+02  0.20000000687E+02 0.  0.
         12    1    1    2    0    0 -0.21942893360E+01 -0.39769917141E+02  0.17238388721E+02  0.43400728805E+02  0.00000000000E+00 0. -1.
         11    1    3    3    0    0 -0.12056723869E+00 -0.16025025872E+00 -0.31085926198E+01  0.31150545647E+01  0.51100000000E-03 0. -1.
        -11    1    3    3    0    0  0.78087020961E+01  0.16450325790E+02 -0.72096497725E+01  0.19584894616E+02  0.51100000000E-03 0.  1.
         12    1    3    3    0    0 -0.54938455215E+01  0.23479841610E+02 -0.69201463290E+01  0.25087322014E+02  0.00000000000E+00 0. -1.
</event>
<event>
 7    1  0.2459936E-009  0.4778728E+02  0.7816164E-02  0.1312668E+00
        -11   -1    0    0    0    0  0.00000000000E+00  0.00000000000E+00  0.45593999997E+02  0.45594000000E+02  0.51100000000E-03 0. -1.
         11   -1    0    0    0    0 -0.00000000000E+00 -0.00000000000E+00 -0.45593999997E+02  0.45594000000E+02  0.51100000000E-03 0.  1.
    9900012    2    1    2    0    0  0.14930200448E+02  0.47220490202E+01 -0.40477321608E+02  0.47787283451E+02  0.20000056567E+02 0.  0.
         12    1    1    2    0    0 -0.14930200448E+02 -0.47220490202E+01  0.40477321608E+02  0.43400716549E+02  0.00000000000E+00 0. -1.
         11    1    3    3    0    0  0.99522760515E+01  0.45746016663E+01 -0.14237822620E+02  0.17963584616E+02  0.51100000000E-03 0. -1.
        -11    1    3    3    0    0  0.92723723378E+01 -0.18239243770E+01 -0.17515951025E+02  0.19902565902E+02  0.51100000000E-03 0.  1.
         12    1    3    3    0    0 -0.42944479418E+01  0.19713717309E+01 -0.87235479630E+01  0.99211329337E+01  0.00000000000E+00 0. -1.
</event>
<event>
 7    1  0.2459936E-009  0.4778727E+02  0.7816164E-02  0.1312668E+00
        -11   -1    0    0    0    0  0.00000000000E+00  0.00000000000E+00  0.45593999997E+02  0.45594000000E+02  0.51100000000E-03 0. -1.
         11   -1    0    0    0    0 -0.00000000000E+00 -0.00000000000E+00 -0.45593999997E+02  0.45594000000E+02  0.51100000000E-03 0.  1.
    9900012    2    1    2    0    0  0.37517634545E+02  0.21361947075E+02 -0.44404396428E+01  0.47787272023E+02  0.20000004463E+02 0.  0.
         12    1    1    2    0    0 -0.37517634545E+02 -0.21361947075E+02  0.44404396428E+01  0.43400727977E+02  0.00000000000E+00 0. -1.
         11    1    3    3    0    0  0.23431242212E+00 -0.98650938969E+00 -0.13307421856E+01  0.16730146780E+01  0.51100000000E-03 0. -1.
        -11    1    3    3    0    0  0.97500552180E+01  0.14271148789E+02 -0.20009541127E+01  0.17399226481E+02  0.51100000000E-03 0.  1.
        -12    1    3    3    0    0  0.27533266905E+02  0.80773076761E+01 -0.11087433445E+01  0.28715030865E+02  0.00000000000E+00 0.  1.
</event>
<event>
 7    1  0.2459936E-009  0.4778727E+02  0.7816164E-02  0.1312668E+00
        -11   -1    0    0    0    0  0.00000000000E+00  0.00000000000E+00  0.45593999997E+02  0.45594000000E+02  0.51100000000E-03 0. -1.
         11   -1    0    0    0    0 -0.00000000000E+00 -0.00000000000E+00 -0.45593999997E+02  0.45594000000E+02  0.51100000000E-03 0.  1.
    9900012    2    1    2    0    0 -0.14981908704E+02 -0.21250165294E+02 -0.34750485474E+02  0.47787270120E+02  0.19999995785E+02 0.  0.
         12    1    1    2    0    0  0.14981908704E+02  0.21250165294E+02  0.34750485474E+02  0.43400729880E+02  0.00000000000E+00 0. -1.
         11    1    3    3    0    0 -0.13665596500E+02 -0.13179585409E+02 -0.22021025371E+02  0.29075342782E+02  0.51100000000E-03 0.  1.
        -11    1    3    3    0    0 -0.68163272027E+00 -0.98380544789E+01 -0.56030527752E+01  0.11342228165E+02  0.51100000000E-03 0. -1.
         12    1    3    3    0    0 -0.63467948423E+00  0.17674745941E+01 -0.71264073275E+01  0.73696991720E+01  0.00000000000E+00 0. -1.
</event>
<event>
 7    1  0.2459936E-009  0.4778727E+02  0.7816164E-02  0.1312668E+00
        -11   -1    0    0    0    0  0.00000000000E+00  0.00000000000E+00  0.45593999997E+02  0.45594000000E+02  0.51100000000E-03 0. -1.
         11   -1    0    0    0    0 -0.00000000000E+00 -0.00000000000E+00 -0.45593999997E+02  0.45594000000E+02  0.51100000000E-03 0.  1.
    9900012    2    1    2    0    0  0.39556804013E+02  0.15571303626E+02  0.87416665880E+01  0.47787274487E+02  0.20000015695E+02 0.  0.
         12    1    1    2    0    0 -0.39556804013E+02 -0.15571303626E+02 -0.87416665880E+01  0.43400725513E+02  0.00000000000E+00 0. -1.
         11    1    3    3    0    0  0.65757041402E+01  0.61700145977E+01 -0.17742899765E+01  0.91900527886E+01  0.51100000000E-03 0. -1.
        -11    1    3    3    0    0  0.10937560251E+02  0.65937819409E+01 -0.22524494464E+01  0.12968489245E+02  0.51100000000E-03 0.  1.
        -12    1    3    3    0    0  0.22043539621E+02  0.28075070877E+01  0.12768406011E+02  0.25628732453E+02  0.00000000000E+00 0.  1.
</event>
<event>
 7    1  0.2459936E-009  0.4778727E+02  0.7816164E-02  0.1312668E+00
        -11   -1    0    0    0    0  0.00000000000E+00  0.00000000000E+00  0.45593999997E+02  0.45594000000E+02  0.51100000000E-03 0. -1.
         11   -1    0    0    0    0 -0.00000000000E+00 -0.00000000000E+00 -0.45593999997E+02  0.45594000000E+02  0.51100000000E-03 0.  1.
    9900012    2    1    2    0    0  0.13167153697E+02 -0.24185272783E+02 -0.33545819332E+02  0.47787270159E+02  0.19999995963E+02 0.  0.
         12    1    1    2    0    0 -0.13167153697E+02  0.24185272783E+02  0.33545819332E+02  0.43400729841E+02  0.00000000000E+00 0. -1.
         11    1    3    3    0    0  0.14523165228E+01 -0.86660376895E+01 -0.87087408208E+00  0.88299407952E+01  0.51100000000E-03 0. -1.
        -11    1    3    3    0    0  0.58797320745E+01 -0.64972039797E+01 -0.73132422169E+01  0.11413519212E+02  0.51100000000E-03 0.  1.
        -12    1    3    3    0    0  0.58351050995E+01 -0.90220311140E+01 -0.25361703033E+02  0.27543810152E+02  0.00000000000E+00 0.  1.
</event>
<event>
 7    1  0.2459936E-009  0.4778727E+02  0.7816164E-02  0.1312668E+00
        -11   -1    0    0    0    0  0.00000000000E+00  0.00000000000E+00  0.45593999997E+02  0.45594000000E+02  0.51100000000E-03 0. -1.
         11   -1    0    0    0    0 -0.00000000000E+00 -0.00000000000E+00 -0.45593999997E+02  0.45594000000E+02  0.51100000000E-03 0.  1.
    9900012    2    1    2    0    0  0.33053201122E+02  0.24348664891E+01  0.28021075817E+02  0.47787269947E+02  0.19999994994E+02 0.  0.
         12    1    1    2    0    0 -0.33053201122E+02 -0.24348664891E+01 -0.28021075817E+02  0.43400730053E+02  0.00000000000E+00 0. -1.
         11    1    3    3    0    0  0.15737046906E+02  0.94191994822E+01  0.20590254342E+02  0.27574164327E+02  0.51100000000E-03 0. -1.
        -11    1    3    3    0    0  0.47125425692E+01 -0.22794412818E+01  0.30808858894E+01  0.60741886822E+01  0.51100000000E-03 0.  1.
         12    1    3    3    0    0  0.12603611647E+02 -0.47048917114E+01  0.43499355860E+01  0.14138916938E+02  0.00000000000E+00 0. -1.
</event>
<event>
 7    1  0.2459936E-009  0.4778727E+02  0.7816164E-02  0.1312668E+00
        -11   -1    0    0    0    0  0.00000000000E+00  0.00000000000E+00  0.45593999997E+02  0.45594000000E+02  0.51100000000E-03 0.  1.
         11   -1    0    0    0    0 -0.00000000000E+00 -0.00000000000E+00 -0.45593999997E+02  0.45594000000E+02  0.51100000000E-03 0. -1.
    9900012    2    1    2    0    0  0.35233127259E+02  0.11004652247E+02  0.22828656963E+02  0.47787271824E+02  0.20000003553E+02 0.  0.
         12    1    1    2    0    0 -0.35233127259E+02 -0.11004652247E+02 -0.22828656963E+02  0.43400728176E+02  0.00000000000E+00 0. -1.
         11    1    3    3    0    0  0.76620522842E+01  0.49433167548E+01  0.51202783258E+01  0.10457565498E+02  0.51100000000E-03 0.  1.
        -11    1    3    3    0    0  0.18679035915E+02  0.16721278549E+01  0.21454835300E+01  0.18876056106E+02  0.51100000000E-03 0. -1.
         12    1    3    3    0    0  0.88920390590E+01  0.43892076369E+01  0.15562895107E+02  0.18453650220E+02  0.00000000000E+00 0. -1.
</event>
<event>
 7    1  0.2459936E-009  0.4778728E+02  0.7816164E-02  0.1312668E+00
        -11   -1    0    0    0    0  0.00000000000E+00  0.00000000000E+00  0.45593999997E+02  0.45594000000E+02  0.51100000000E-03 0.  1.
         11   -1    0    0    0    0 -0.00000000000E+00 -0.00000000000E+00 -0.45593999997E+02  0.45594000000E+02  0.51100000000E-03 0. -1.
    9900012    2    1    2    0    0 -0.35353004372E+01  0.36987540837E+02  0.22428692548E+02  0.47787276783E+02  0.20000026165E+02 0.  0.
         12    1    1    2    0    0  0.35353004372E+01 -0.36987540837E+02 -0.22428692548E+02  0.43400723217E+02  0.00000000000E+00 0. -1.
         11    1    3    3    0    0  0.40179910928E+01  0.11253888500E+02  0.54448235912E+01  0.13131654998E+02  0.51100000000E-03 0. -1.
        -11    1    3    3    0    0 -0.93624445508E+00  0.10682936095E+02 -0.39624907739E+00  0.10731201745E+02  0.51100000000E-03 0.  1.
         12    1    3    3    0    0 -0.66170470749E+01  0.15050716242E+02  0.17380118034E+02  0.23924420040E+02  0.00000000000E+00 0. -1.
</event>
<event>
 7    1  0.2459936E-009  0.4778723E+02  0.7816164E-02  0.1312668E+00
        -11   -1    0    0    0    0  0.00000000000E+00  0.00000000000E+00  0.45593999997E+02  0.45594000000E+02  0.51100000000E-03 0.  1.
         11   -1    0    0    0    0 -0.00000000000E+00 -0.00000000000E+00 -0.45593999997E+02  0.45594000000E+02  0.51100000000E-03 0. -1.
    9900012    2    1    2    0    0 -0.63964057432E+01  0.39508718983E+02  0.16786134157E+02  0.47787226020E+02  0.19999794715E+02 0.  0.
         12    1    1    2    0    0  0.63964057432E+01 -0.39508718983E+02 -0.16786134157E+02  0.43400773980E+02  0.00000000000E+00 0. -1.
         11    1    3    3    0    0 -0.42033512652E+01  0.61142199135E+01 -0.14716981578E+01  0.75642410550E+01  0.51100000000E-03 0. -1.
        -11    1    3    3    0    0 -0.60556495743E+01  0.18251717594E+02  0.53677132332E+01  0.19965180503E+02  0.51100000000E-03 0.  1.
        -12    1    3    3    0    0  0.38625950963E+01  0.15142781476E+02  0.12890119081E+02  0.20257804462E+02  0.00000000000E+00 0.  1.
</event>
<event>
 7    1  0.2459936E-009  0.4778727E+02  0.7816164E-02  0.1312668E+00
        -11   -1    0    0    0    0  0.00000000000E+00  0.00000000000E+00  0.45593999997E+02  0.45594000000E+02  0.51100000000E-03 0.  1.
         11   -1    0    0    0    0 -0.00000000000E+00 -0.00000000000E+00 -0.45593999997E+02  0.45594000000E+02  0.51100000000E-03 0. -1.
    9900012    2    1    2    0    0  0.35349490477E+02 -0.22646792419E+02 -0.11007249394E+02  0.47787271630E+02  0.20000002671E+02 0.  0.
         12    1    1    2    0    0 -0.35349490477E+02  0.22646792419E+02  0.11007249394E+02  0.43400728370E+02  0.00000000000E+00 0. -1.
         11    1    3    3    0    0  0.89333710341E+01  0.12831304734E+01 -0.17324628228E+01  0.91898296795E+01  0.51100000000E-03 0. -1.
        -11    1    3    3    0    0  0.86190647238E+01 -0.16705218625E+01 -0.38491185976E+01  0.95861689035E+01  0.51100000000E-03 0.  1.
        -12    1    3    3    0    0  0.17797054719E+02 -0.22259401030E+02 -0.54256679736E+01  0.29011273047E+02  0.00000000000E+00 0.  1.
</event>
<event>
 7    1  0.2459936E-009  0.4778727E+02  0.7816164E-02  0.1312668E+00
        -11   -1    0    0    0    0  0.00000000000E+00  0.00000000000E+00  0.45593999997E+02  0.45594000000E+02  0.51100000000E-03 0. -1.
         11   -1    0    0    0    0 -0.00000000000E+00 -0.00000000000E+00 -0.45593999997E+02  0.45594000000E+02  0.51100000000E-03 0.  1.
    9900012    2    1    2    0    0 -0.95064400362E+00  0.38909296832E+02 -0.19203801153E+02  0.47787273247E+02  0.20000010040E+02 0.  0.
         12    1    1    2    0    0  0.95064400362E+00 -0.38909296832E+02  0.19203801153E+02  0.43400726753E+02  0.00000000000E+00 0. -1.
         11    1    3    3    0    0 -0.12165808620E+01  0.19913961361E+02 -0.32173152807E+01  0.20208835789E+02  0.51100000000E-03 0. -1.
        -11    1    3    3    0    0 -0.33199073405E+01  0.18511366423E+02 -0.14042578139E+02  0.23470970850E+02  0.51100000000E-03 0.  1.
        -12    1    3    3    0    0  0.35858441988E+01  0.48396904893E+00 -0.19439077331E+01  0.41074666077E+01  0.00000000000E+00 0.  1.
</event>
<event>
 7    1  0.2459936E-009  0.4778726E+02  0.7816164E-02  0.1312668E+00
        -11   -1    0    0    0    0  0.00000000000E+00  0.00000000000E+00  0.45593999997E+02  0.45594000000E+02  0.51100000000E-03 0.  1.
         11   -1    0    0    0    0 -0.00000000000E+00 -0.00000000000E+00 -0.45593999997E+02  0.45594000000E+02  0.51100000000E-03 0. -1.
    9900012    2    1    2    0    0  0.54174137320E+01 -0.81144541806E+01  0.42289850203E+02  0.47787260739E+02  0.19999953015E+02 0.  0.
         12    1    1    2    0    0 -0.54174137320E+01  0.81144541806E+01 -0.42289850203E+02  0.43400739261E+02  0.00000000000E+00 0. -1.
         11    1    3    3    0    0  0.36643621441E+01 -0.68784317413E+01  0.22890308242E+02  0.24180706871E+02  0.51100000000E-03 0. -1.
        -11    1    3    3    0    0 -0.16377475744E+01 -0.52132818418E+01  0.16997933913E+02  0.17854699164E+02  0.51100000000E-03 0.  1.
        -12    1    3    3    0    0  0.33907991624E+01  0.39772594024E+01  0.24016080484E+01  0.57518547036E+01  0.00000000000E+00 0.  1.
</event>
<event>
 7    1  0.2459936E-009  0.4778727E+02  0.7816164E-02  0.1312668E+00
        -11   -1    0    0    0    0  0.00000000000E+00  0.00000000000E+00  0.45593999997E+02  0.45594000000E+02  0.51100000000E-03 0. -1.
         11   -1    0    0    0    0 -0.00000000000E+00 -0.00000000000E+00 -0.45593999997E+02  0.45594000000E+02  0.51100000000E-03 0.  1.
    9900012    2    1    2    0    0 -0.23267731120E+02 -0.95374536505E+01 -0.35373336922E+02  0.47787270759E+02  0.19999998700E+02 0.  0.
         12    1    1    2    0    0  0.23267731120E+02  0.95374536505E+01  0.35373336922E+02  0.43400729241E+02  0.00000000000E+00 0. -1.
         11    1    3    3    0    0 -0.30533474013E+01 -0.49863464531E+01 -0.53269005527E+00  0.58711447146E+01  0.51100000000E-03 0. -1.
        -11    1    3    3    0    0 -0.10193132263E+02 -0.73848752375E+01 -0.15669810295E+02  0.20099235870E+02  0.51100000000E-03 0.  1.
        -12    1    3    3    0    0 -0.10021251456E+02  0.28337680402E+01 -0.19170836571E+02  0.21816890175E+02  0.00000000000E+00 0.  1.
</event>
<event>
 7    1  0.2459936E-009  0.4778727E+02  0.7816164E-02  0.1312668E+00
        -11   -1    0    0    0    0  0.00000000000E+00  0.00000000000E+00  0.45593999997E+02  0.45594000000E+02  0.51100000000E-03 0.  1.
         11   -1    0    0    0    0 -0.00000000000E+00 -0.00000000000E+00 -0.45593999997E+02  0.45594000000E+02  0.51100000000E-03 0. -1.
    9900012    2    1    2    0    0  0.36373696196E+02 -0.61536536915E+01 -0.22862853258E+02  0.47787270884E+02  0.19999999270E+02 0.  0.
         12    1    1    2    0    0 -0.36373696196E+02  0.61536536915E+01  0.22862853258E+02  0.43400729116E+02  0.00000000000E+00 0. -1.
         11    1    3    3    0    0  0.86663578837E+01  0.17069371324E+01 -0.54604695893E+01  0.10384417256E+02  0.51100000000E-03 0. -1.
        -11    1    3    3    0    0  0.51035360830E+01 -0.36439936115E+01 -0.12364313604E+02  0.13863658289E+02  0.51100000000E-03 0.  1.
        -12    1    3    3    0    0  0.22603802229E+02 -0.42165972124E+01 -0.50380700642E+01  0.23539195340E+02  0.00000000000E+00 0.  1.
</event>
<event>
 7    1  0.2459936E-009  0.4778732E+02  0.7816164E-02  0.1312668E+00
        -11   -1    0    0    0    0  0.00000000000E+00  0.00000000000E+00  0.45593999997E+02  0.45594000000E+02  0.51100000000E-03 0.  1.
         11   -1    0    0    0    0 -0.00000000000E+00 -0.00000000000E+00 -0.45593999997E+02  0.45594000000E+02  0.51100000000E-03 0. -1.
    9900012    2    1    2    0    0  0.35956204039E+02 -0.22642498643E+02  0.88367275423E+01  0.47787319045E+02  0.20000218852E+02 0.  0.
         12    1    1    2    0    0 -0.35956204039E+02  0.22642498643E+02 -0.88367275423E+01  0.43400680955E+02  0.00000000000E+00 0. -1.
         11    1    3    3    0    0 -0.79569479725E+00 -0.23457318887E+00 -0.24388066466E+01  0.25760304563E+01  0.51100000000E-03 0. -1.
        -11    1    3    3    0    0  0.85411277818E+01 -0.34336693129E+01  0.55079165320E+01  0.10727445806E+02  0.51100000000E-03 0.  1.
        -12    1    3    3    0    0  0.28210771055E+02 -0.18974256141E+02  0.57676176568E+01  0.34483842783E+02  0.00000000000E+00 0.  1.
</event>
<event>
 7    1  0.2459936E-009  0.4778727E+02  0.7816164E-02  0.1312668E+00
        -11   -1    0    0    0    0  0.00000000000E+00  0.00000000000E+00  0.45593999997E+02  0.45594000000E+02  0.51100000000E-03 0. -1.
         11   -1    0    0    0    0 -0.00000000000E+00 -0.00000000000E+00 -0.45593999997E+02  0.45594000000E+02  0.51100000000E-03 0.  1.
    9900012    2    1    2    0    0 -0.74212499233E+01 -0.20466411749E+02 -0.37545630180E+02  0.47787270675E+02  0.19999998317E+02 0.  0.
         12    1    1    2    0    0  0.74212499233E+01  0.20466411749E+02  0.37545630180E+02  0.43400729325E+02  0.00000000000E+00 0. -1.
         11    1    3    3    0    0 -0.40570428076E+01 -0.16502279806E+01 -0.89175910393E+00  0.44696849208E+01  0.51100000000E-03 0. -1.
        -11    1    3    3    0    0 -0.24226689918E+01 -0.32129941543E+01 -0.66239791186E+00  0.40781647507E+01  0.51100000000E-03 0.  1.
        -12    1    3    3    0    0 -0.94153812392E+00 -0.15603189614E+02 -0.35991473164E+02  0.39239421004E+02  0.00000000000E+00 0.  1.
</event>
<event>
 7    1  0.2459936E-009  0.4778728E+02  0.7816164E-02  0.1312668E+00
        -11   -1    0    0    0    0  0.00000000000E+00  0.00000000000E+00  0.45593999997E+02  0.45594000000E+02  0.51100000000E-03 0.  1.
         11   -1    0    0    0    0 -0.00000000000E+00 -0.00000000000E+00 -0.45593999997E+02  0.45594000000E+02  0.51100000000E-03 0. -1.
    9900012    2    1    2    0    0 -0.13241737387E+02  0.20916080377E+02  0.35648235693E+02  0.47787277248E+02  0.20000028285E+02 0.  0.
         12    1    1    2    0    0  0.13241737387E+02 -0.20916080377E+02 -0.35648235693E+02  0.43400722752E+02  0.00000000000E+00 0. -1.
         11    1    3    3    0    0  0.47385648819E+00  0.23146909088E+01  0.77552494852E+00  0.24867193612E+01  0.51100000000E-03 0.  1.
        -11    1    3    3    0    0 -0.43397101307E+01 -0.18324621957E+00  0.17557618513E+02  0.18086918790E+02  0.51100000000E-03 0. -1.
        -12    1    3    3    0    0 -0.93758837441E+01  0.18784635688E+02  0.17315092231E+02  0.27213639097E+02  0.00000000000E+00 0.  1.
</event>
<event>
 7    1  0.2459936E-009  0.4778726E+02  0.7816164E-02  0.1312668E+00
        -11   -1    0    0    0    0  0.00000000000E+00  0.00000000000E+00  0.45593999997E+02  0.45594000000E+02  0.51100000000E-03 0.  1.
         11   -1    0    0    0    0 -0.00000000000E+00 -0.00000000000E+00 -0.45593999997E+02  0.45594000000E+02  0.51100000000E-03 0. -1.
    9900012    2    1    2    0    0 -0.39209439341E+02  0.18607467757E+02  0.79652323317E-01  0.47787258828E+02  0.19999944302E+02 0.  0.
         12    1    1    2    0    0  0.39209439341E+02 -0.18607467757E+02 -0.79652323317E-01  0.43400741172E+02  0.00000000000E+00 0. -1.
         11    1    3    3    0    0 -0.74892993675E+01  0.91159089506E+01 -0.21502578514E+01  0.11992206223E+02  0.51100000000E-03 0. -1.
        -11    1    3    3    0    0 -0.22668331970E+02  0.92682945098E+01 -0.39860971312E+01  0.24812164920E+02  0.51100000000E-03 0.  1.
        -12    1    3    3    0    0 -0.90518080033E+01  0.22326429618E+00  0.62160073059E+01  0.10982887685E+02  0.00000000000E+00 0.  1.
</event>
<event>
 7    1  0.2459936E-009  0.4778727E+02  0.7816164E-02  0.1312668E+00
        -11   -1    0    0    0    0  0.00000000000E+00  0.00000000000E+00  0.45593999997E+02  0.45594000000E+02  0.51100000000E-03 0. -1.
         11   -1    0    0    0    0 -0.00000000000E+00 -0.00000000000E+00 -0.45593999997E+02  0.45594000000E+02  0.51100000000E-03 0.  1.
    9900012    2    1    2    0    0  0.25587858255E+02 -0.83287759166E+01 -0.34051671711E+02  0.47787270229E+02  0.19999996282E+02 0.  0.
         12    1    1    2    0    0 -0.25587858255E+02  0.83287759166E+01  0.34051671711E+02  0.43400729771E+02  0.00000000000E+00 0. -1.
         11    1    3    3    0    0  0.73062449960E+01  0.19721213423E+01 -0.97608241294E+01  0.12350877154E+02  0.51100000000E-03 0. -1.
        -11    1    3    3    0    0  0.28178030730E+00  0.46398295684E+00 -0.10097185536E+02  0.10111767221E+02  0.51100000000E-03 0.  1.
        -12    1    3    3    0    0  0.17999832952E+02 -0.10764880216E+02 -0.14193662045E+02  0.25324625853E+02  0.00000000000E+00 0.  1.
</event>
<event>
 7    1  0.2459936E-009  0.4778727E+02  0.7816164E-02  0.1312668E+00
        -11   -1    0    0    0    0  0.00000000000E+00  0.00000000000E+00  0.45593999997E+02  0.45594000000E+02  0.51100000000E-03 0.  1.
         11   -1    0    0    0    0 -0.00000000000E+00 -0.00000000000E+00 -0.45593999997E+02  0.45594000000E+02  0.51100000000E-03 0. -1.
    9900012    2    1    2    0    0  0.23589067997E+02  0.11373709012E+02  0.34609504106E+02  0.47787272355E+02  0.20000005975E+02 0.  0.
         12    1    1    2    0    0 -0.23589067997E+02 -0.11373709012E+02 -0.34609504106E+02  0.43400727645E+02  0.00000000000E+00 0. -1.
         11    1    3    3    0    0  0.11844036917E+01 -0.40069779202E+01  0.18428151873E+01  0.45666894172E+01  0.51100000000E-03 0. -1.
        -11    1    3    3    0    0  0.11005234806E+02  0.32712543070E+01  0.11875010172E+02  0.16517631934E+02  0.51100000000E-03 0.  1.
        -12    1    3    3    0    0  0.11399429499E+02  0.12109432626E+02  0.20891678747E+02  0.26702951003E+02  0.00000000000E+00 0.  1.
</event>
<event>
 7    1  0.2459936E-009  0.4778727E+02  0.7816164E-02  0.1312668E+00
        -11   -1    0    0    0    0  0.00000000000E+00  0.00000000000E+00  0.45593999997E+02  0.45594000000E+02  0.51100000000E-03 0.  1.
         11   -1    0    0    0    0 -0.00000000000E+00 -0.00000000000E+00 -0.45593999997E+02  0.45594000000E+02  0.51100000000E-03 0. -1.
    9900012    2    1    2    0    0 -0.34208014543E+01 -0.21061737424E+02  0.37793183323E+02  0.47787269919E+02  0.19999994867E+02 0.  0.
         12    1    1    2    0    0  0.34208014543E+01  0.21061737424E+02 -0.37793183323E+02  0.43400730081E+02  0.00000000000E+00 0. -1.
         11    1    3    3    0    0 -0.73251962642E+01 -0.51321167211E+01  0.67194326274E+01  0.11186952107E+02  0.51100000000E-03 0. -1.
        -11    1    3    3    0    0 -0.23375090748E+01 -0.72175567095E+01  0.18985592587E+02  0.20445287957E+02  0.51100000000E-03 0.  1.
         12    1    3    3    0    0  0.62419038846E+01 -0.87120639938E+01  0.12088158109E+02  0.16155029854E+02  0.00000000000E+00 0. -1.
</event>
<event>
 7    1  0.2459936E-009  0.4778727E+02  0.7816164E-02  0.1312668E+00
        -11   -1    0    0    0    0  0.00000000000E+00  0.00000000000E+00  0.45593999997E+02  0.45594000000E+02  0.51100000000E-03 0.  1.
         11   -1    0    0    0    0 -0.00000000000E+00 -0.00000000000E+00 -0.45593999997E+02  0.45594000000E+02  0.51100000000E-03 0. -1.
    9900012    2    1    2    0    0  0.18354606286E+02 -0.47845154844E+01  0.39036397457E+02  0.47787268592E+02  0.19999988820E+02 0.  0.
         12    1    1    2    0    0 -0.18354606286E+02  0.47845154844E+01 -0.39036397457E+02  0.43400731408E+02  0.00000000000E+00 0. -1.
         11    1    3    3    0    0  0.10760172212E+02  0.39427789397E+01  0.10629067758E+02  0.15630223718E+02  0.51100000000E-03 0. -1.
        -11    1    3    3    0    0 -0.10190917901E+01  0.90793487501E+00  0.71511434970E+01  0.72802298995E+01  0.51100000000E-03 0.  1.
         12    1    3    3    0    0  0.86135258639E+01 -0.96352292992E+01  0.21256186202E+02  0.24876814975E+02  0.00000000000E+00 0. -1.
</event>
<event>
 7    1  0.2459936E-009  0.4778727E+02  0.7816164E-02  0.1312668E+00
        -11   -1    0    0    0    0  0.00000000000E+00  0.00000000000E+00  0.45593999997E+02  0.45594000000E+02  0.51100000000E-03 0. -1.
         11   -1    0    0    0    0 -0.00000000000E+00 -0.00000000000E+00 -0.45593999997E+02  0.45594000000E+02  0.51100000000E-03 0.  1.
    9900012    2    1    2    0    0  0.68965445624E+01 -0.32511633529E+02 -0.27911554033E+02  0.47787268552E+02  0.19999988638E+02 0.  0.
         12    1    1    2    0    0 -0.68965445624E+01  0.32511633529E+02  0.27911554033E+02  0.43400731448E+02  0.00000000000E+00 0. -1.
         11    1    3    3    0    0 -0.24146463825E+01 -0.11868544312E+02 -0.95035498763E+01  0.15395139549E+02  0.51100000000E-03 0. -1.
        -11    1    3    3    0    0  0.19829658852E+00 -0.10207106203E+02 -0.14965595426E+02  0.18116108447E+02  0.51100000000E-03 0.  1.
         12    1    3    3    0    0  0.91128943564E+01 -0.10435983015E+02 -0.34424087311E+01  0.14276020556E+02  0.00000000000E+00 0. -1.
</event>
<event>
 7    1  0.2459936E-009  0.4778727E+02  0.7816164E-02  0.1312668E+00
        -11   -1    0    0    0    0  0.00000000000E+00  0.00000000000E+00  0.45593999997E+02  0.45594000000E+02  0.51100000000E-03 0. -1.
         11   -1    0    0    0    0 -0.00000000000E+00 -0.00000000000E+00 -0.45593999997E+02  0.45594000000E+02  0.51100000000E-03 0.  1.
    9900012    2    1    2    0    0  0.28891038747E+02  0.31988539995E+02 -0.50659817670E+01  0.47787274405E+02  0.20000015323E+02 0.  0.
         12    1    1    2    0    0 -0.28891038747E+02 -0.31988539995E+02  0.50659817670E+01  0.43400725595E+02  0.00000000000E+00 0. -1.
         11    1    3    3    0    0  0.62287504619E+01 -0.20074286990E+01 -0.16871571153E-01  0.65442636874E+01  0.51100000000E-03 0. -1.
        -11    1    3    3    0    0  0.44213655789E+01  0.52931964266E+01 -0.14187914310E+01  0.70412620586E+01  0.51100000000E-03 0.  1.
         12    1    3    3    0    0  0.18240922706E+02  0.28702772268E+02 -0.36303187649E+01  0.34201748659E+02  0.00000000000E+00 0. -1.
</event>
<event>
 7    1  0.2459936E-009  0.4778727E+02  0.7816164E-02  0.1312668E+00
        -11   -1    0    0    0    0  0.00000000000E+00  0.00000000000E+00  0.45593999997E+02  0.45594000000E+02  0.51100000000E-03 0.  1.
         11   -1    0    0    0    0 -0.00000000000E+00 -0.00000000000E+00 -0.45593999997E+02  0.45594000000E+02  0.51100000000E-03 0. -1.
    9900012    2    1    2    0    0  0.23753320831E+02  0.22676835690E+02  0.28375414312E+02  0.47787271149E+02  0.20000000477E+02 0.  0.
         12    1    1    2    0    0 -0.23753320831E+02 -0.22676835690E+02 -0.28375414312E+02  0.43400728851E+02  0.00000000000E+00 0. -1.
         11    1    3    3    0    0  0.14803030914E+02  0.18331485700E+02  0.12444051595E+02  0.26646341448E+02  0.51100000000E-03 0. -1.
        -11    1    3    3    0    0 -0.14613094825E+01  0.29448315281E+01  0.27549073367E+01  0.42891692468E+01  0.51100000000E-03 0.  1.
        -12    1    3    3    0    0  0.10411599399E+02  0.14005184621E+01  0.13176455380E+02  0.16851760454E+02  0.00000000000E+00 0.  1.
</event>
<event>
 7    1  0.2459936E-009  0.4778726E+02  0.7816164E-02  0.1312668E+00
        -11   -1    0    0    0    0  0.00000000000E+00  0.00000000000E+00  0.45593999997E+02  0.45594000000E+02  0.51100000000E-03 0.  1.
         11   -1    0    0    0    0 -0.00000000000E+00 -0.00000000000E+00 -0.45593999997E+02  0.45594000000E+02  0.51100000000E-03 0. -1.
    9900012    2    1    2    0    0 -0.31920976658E+02 -0.20979300060E+02  0.20604472188E+02  0.47787262034E+02  0.19999958920E+02 0.  0.
         12    1    1    2    0    0  0.31920976658E+02  0.20979300060E+02 -0.20604472188E+02  0.43400737966E+02  0.00000000000E+00 0. -1.
         11    1    3    3    0    0 -0.73358498065E+01 -0.22936163570E+01  0.35289553462E+00  0.76941473794E+01  0.51100000000E-03 0. -1.
        -11    1    3    3    0    0 -0.22812845843E+02 -0.91979751333E+01  0.11877491042E+02  0.27314894759E+02  0.51100000000E-03 0.  1.
         12    1    3    3    0    0 -0.17722810087E+01 -0.94877085699E+01  0.83740856110E+01  0.12778219896E+02  0.00000000000E+00 0. -1.
</event>
<event>
 7    1  0.2459936E-009  0.4778727E+02  0.7816164E-02  0.1312668E+00
        -11   -1    0    0    0    0  0.00000000000E+00  0.00000000000E+00  0.45593999997E+02  0.45594000000E+02  0.51100000000E-03 0. -1.
         11   -1    0    0    0    0 -0.00000000000E+00 -0.00000000000E+00 -0.45593999997E+02  0.45594000000E+02  0.51100000000E-03 0.  1.
    9900012    2    1    2    0    0 -0.70983085159E+01  0.41202237299E+02  0.11645297477E+02  0.47787270795E+02  0.19999998862E+02 0.  0.
         12    1    1    2    0    0  0.70983085159E+01 -0.41202237299E+02 -0.11645297477E+02  0.43400729205E+02  0.00000000000E+00 0. -1.
         11    1    3    3    0    0 -0.81658194035E+00  0.12872009638E+02  0.12240322580E+01  0.12955836268E+02  0.51100000000E-03 0. -1.
        -11    1    3    3    0    0 -0.24372751203E+01  0.27001858936E+02  0.42535690510E+01  0.27443278703E+02  0.51100000000E-03 0.  1.
         12    1    3    3    0    0 -0.38444514552E+01  0.13283687248E+01  0.61676961677E+01  0.73881558238E+01  0.00000000000E+00 0. -1.
</event>
<event>
 7    1  0.2459936E-009  0.4778727E+02  0.7816164E-02  0.1312668E+00
        -11   -1    0    0    0    0  0.00000000000E+00  0.00000000000E+00  0.45593999997E+02  0.45594000000E+02  0.51100000000E-03 0.  1.
         11   -1    0    0    0    0 -0.00000000000E+00 -0.00000000000E+00 -0.45593999997E+02  0.45594000000E+02  0.51100000000E-03 0. -1.
    9900012    2    1    2    0    0 -0.25848308841E+02  0.28459372511E+02 -0.20138330498E+02  0.47787270641E+02  0.19999998161E+02 0.  0.
         12    1    1    2    0    0  0.25848308841E+02 -0.28459372511E+02  0.20138330498E+02  0.43400729359E+02  0.00000000000E+00 0. -1.
         11    1    3    3    0    0 -0.15855172159E+01 -0.66569383549E-02 -0.56598070925E+01  0.58776973163E+01  0.51100000000E-03 0. -1.
        -11    1    3    3    0    0 -0.73925712272E+01  0.16305009887E+01 -0.37274594665E+01  0.84381631389E+01  0.51100000000E-03 0.  1.
         12    1    3    3    0    0 -0.16870220398E+02  0.26835528460E+02 -0.10751063939E+02  0.33471410186E+02  0.00000000000E+00 0. -1.
</event>
<event>
 7    1  0.2459936E-009  0.4778727E+02  0.7816164E-02  0.1312668E+00
        -11   -1    0    0    0    0  0.00000000000E+00  0.00000000000E+00  0.45593999997E+02  0.45594000000E+02  0.51100000000E-03 0.  1.
         11   -1    0    0    0    0 -0.00000000000E+00 -0.00000000000E+00 -0.45593999997E+02  0.45594000000E+02  0.51100000000E-03 0. -1.
    9900012    2    1    2    0    0 -0.28055375988E+01 -0.59164380883E+01  0.42903939524E+02  0.47787270657E+02  0.19999998232E+02 0.  0.
         12    1    1    2    0    0  0.28055375988E+01  0.59164380883E+01 -0.42903939524E+02  0.43400729343E+02  0.00000000000E+00 0. -1.
         11    1    3    3    0    0 -0.21478838890E+01 -0.53016553102E+01  0.86424997707E+01  0.10364060825E+02  0.51100000000E-03 0.  1.
        -11    1    3    3    0    0 -0.64984925590E+01  0.23691661143E+01  0.25835451140E+02  0.26745352670E+02  0.51100000000E-03 0. -1.
         12    1    3    3    0    0  0.58408388491E+01 -0.29839488924E+01  0.84259886134E+01  0.10677857162E+02  0.00000000000E+00 0. -1.
</event>
<event>
 7    1  0.2459936E-009  0.4778727E+02  0.7816164E-02  0.1312668E+00
        -11   -1    0    0    0    0  0.00000000000E+00  0.00000000000E+00  0.45593999997E+02  0.45594000000E+02  0.51100000000E-03 0.  1.
         11   -1    0    0    0    0 -0.00000000000E+00 -0.00000000000E+00 -0.45593999997E+02  0.45594000000E+02  0.51100000000E-03 0. -1.
    9900012    2    1    2    0    0 -0.41282019593E+01  0.41665789578E+02  0.11425553115E+02  0.47787270323E+02  0.19999996709E+02 0.  0.
         12    1    1    2    0    0  0.41282019593E+01 -0.41665789578E+02 -0.11425553115E+02  0.43400729677E+02  0.00000000000E+00 0. -1.
         11    1    3    3    0    0 -0.74946927779E+01  0.98985418351E+01  0.52936416312E+01  0.13497192015E+02  0.51100000000E-03 0.  1.
        -11    1    3    3    0    0 -0.32647823462E+01  0.77962981362E+01  0.39307835553E+01  0.93215947142E+01  0.51100000000E-03 0. -1.
        -12    1    3    3    0    0  0.66312731648E+01  0.23970949606E+02  0.22011279282E+01  0.24968483594E+02  0.00000000000E+00 0.  1.
</event>
<event>
 7    1  0.2459936E-009  0.4778727E+02  0.7816164E-02  0.1312668E+00
        -11   -1    0    0    0    0  0.00000000000E+00  0.00000000000E+00  0.45593999997E+02  0.45594000000E+02  0.51100000000E-03 0.  1.
         11   -1    0    0    0    0 -0.00000000000E+00 -0.00000000000E+00 -0.45593999997E+02  0.45594000000E+02  0.51100000000E-03 0. -1.
    9900012    2    1    2    0    0  0.29647122094E+01  0.14108540457E+02  0.40936324302E+02  0.47787273282E+02  0.20000010201E+02 0.  0.
         12    1    1    2    0    0 -0.29647122094E+01 -0.14108540457E+02 -0.40936324302E+02  0.43400726718E+02  0.00000000000E+00 0. -1.
         11    1    3    3    0    0  0.26136886198E+01 -0.10980331659E+01  0.46834805374E+01  0.54746721582E+01  0.51100000000E-03 0.  1.
        -11    1    3    3    0    0 -0.34292507737E+01  0.43766882177E+01  0.15632688550E+01  0.57757225001E+01  0.51100000000E-03 0. -1.
         12    1    3    3    0    0  0.37802743633E+01  0.10829885406E+02  0.34689574909E+02  0.36536878624E+02  0.00000000000E+00 0. -1.
</event>
<event>
 7    1  0.2459936E-009  0.4778727E+02  0.7816164E-02  0.1312668E+00
        -11   -1    0    0    0    0  0.00000000000E+00  0.00000000000E+00  0.45593999997E+02  0.45594000000E+02  0.51100000000E-03 0.  1.
         11   -1    0    0    0    0 -0.00000000000E+00 -0.00000000000E+00 -0.45593999997E+02  0.45594000000E+02  0.51100000000E-03 0. -1.
    9900012    2    1    2    0    0 -0.40938122651E+02  0.53858099922E+01  0.13367366795E+02  0.47787270392E+02  0.19999997027E+02 0.  0.
         12    1    1    2    0    0  0.40938122651E+02 -0.53858099922E+01 -0.13367366795E+02  0.43400729608E+02  0.00000000000E+00 0. -1.
         11    1    3    3    0    0  0.42683019206E+00 -0.12866559833E+01  0.69524006954E+00  0.15234915975E+01  0.51100000000E-03 0. -1.
        -11    1    3    3    0    0 -0.16598189320E+02 -0.44965787410E+01  0.32033354765E+01  0.17492297376E+02  0.51100000000E-03 0.  1.
         12    1    3    3    0    0 -0.24766763524E+02  0.11169044716E+02  0.94687912486E+01  0.28771481419E+02  0.00000000000E+00 0. -1.
</event>
<event>
 7    1  0.2459936E-009  0.4778727E+02  0.7816164E-02  0.1312668E+00
        -11   -1    0    0    0    0  0.00000000000E+00  0.00000000000E+00  0.45593999997E+02  0.45594000000E+02  0.51100000000E-03 0.  1.
         11   -1    0    0    0    0 -0.00000000000E+00 -0.00000000000E+00 -0.45593999997E+02  0.45594000000E+02  0.51100000000E-03 0. -1.
    9900012    2    1    2    0    0  0.15741339680E+01 -0.40954214887E+02  0.14279273147E+02  0.47787271246E+02  0.20000000919E+02 0.  0.
         12    1    1    2    0    0 -0.15741339680E+01  0.40954214887E+02 -0.14279273147E+02  0.43400728754E+02  0.00000000000E+00 0. -1.
         11    1    3    3    0    0  0.28098994513E+01 -0.74851481616E+01  0.20696143704E+01  0.82587094531E+01  0.51100000000E-03 0. -1.
        -11    1    3    3    0    0 -0.75881707514E+01 -0.17646756705E+02  0.12282894950E+01  0.19248300001E+02  0.51100000000E-03 0.  1.
        -12    1    3    3    0    0  0.63524052681E+01 -0.15822310020E+02  0.10981369282E+02  0.20280261792E+02  0.00000000000E+00 0.  1.
</event>
<event>
 7    1  0.2459936E-009  0.4778727E+02  0.7816164E-02  0.1312668E+00
        -11   -1    0    0    0    0  0.00000000000E+00  0.00000000000E+00  0.45593999997E+02  0.45594000000E+02  0.51100000000E-03 0. -1.
         11   -1    0    0    0    0 -0.00000000000E+00 -0.00000000000E+00 -0.45593999997E+02  0.45594000000E+02  0.51100000000E-03 0.  1.
    9900012    2    1    2    0    0  0.38413937143E+02  0.20161086748E+02 -0.12341727994E+01  0.47787272262E+02  0.20000005550E+02 0.  0.
         12    1    1    2    0    0 -0.38413937143E+02 -0.20161086748E+02  0.12341727994E+01  0.43400727738E+02  0.00000000000E+00 0. -1.
         11    1    3    3    0    0  0.14919692147E+02  0.62086706046E+01 -0.31928811051E+01  0.16472379744E+02  0.51100000000E-03 0. -1.
        -11    1    3    3    0    0  0.22393508812E+02  0.10801065567E+02 -0.33060252300E+01  0.25081109572E+02  0.51100000000E-03 0.  1.
         12    1    3    3    0    0  0.11007361845E+01  0.31513505768E+01  0.52647335357E+01  0.62337829452E+01  0.00000000000E+00 0. -1.
</event>
<event>
 7    1  0.2459936E-009  0.4778726E+02  0.7816164E-02  0.1312668E+00
        -11   -1    0    0    0    0  0.00000000000E+00  0.00000000000E+00  0.45593999997E+02  0.45594000000E+02  0.51100000000E-03 0.  1.
         11   -1    0    0    0    0 -0.00000000000E+00 -0.00000000000E+00 -0.45593999997E+02  0.45594000000E+02  0.51100000000E-03 0. -1.
    9900012    2    1    2    0    0  0.38278811810E+02  0.19137877614E+01  0.20364040699E+02  0.47787260712E+02  0.19999952889E+02 0.  0.
         12    1    1    2    0    0 -0.38278811810E+02 -0.19137877614E+01 -0.20364040699E+02  0.43400739288E+02  0.00000000000E+00 0. -1.
         11    1    3    3    0    0  0.26429667252E+01 -0.18856219971E+01  0.10510706045E+00  0.32483674641E+01  0.51100000000E-03 0. -1.
        -11    1    3    3    0    0  0.67460905400E+01  0.37264638121E+01  0.12398830296E+02  0.14598878830E+02  0.51100000000E-03 0.  1.
        -12    1    3    3    0    0  0.28889754545E+02  0.72945946364E-01  0.78601033422E+01  0.29940014418E+02  0.00000000000E+00 0.  1.
</event>
<event>
 7    1  0.2459936E-009  0.4778727E+02  0.7816164E-02  0.1312668E+00
        -11   -1    0    0    0    0  0.00000000000E+00  0.00000000000E+00  0.45593999997E+02  0.45594000000E+02  0.51100000000E-03 0. -1.
         11   -1    0    0    0    0 -0.00000000000E+00 -0.00000000000E+00 -0.45593999997E+02  0.45594000000E+02  0.51100000000E-03 0.  1.
    9900012    2    1    2    0    0  0.29656810780E+02 -0.28244191348E+02 -0.14365315868E+02  0.47787273387E+02  0.20000010681E+02 0.  0.
         12    1    1    2    0    0 -0.29656810780E+02  0.28244191348E+02  0.14365315868E+02  0.43400726613E+02  0.00000000000E+00 0. -1.
         11    1    3    3    0    0  0.22183970835E+02 -0.16345645979E+02 -0.10669320472E+02  0.29548994976E+02  0.51100000000E-03 0. -1.
        -11    1    3    3    0    0  0.25345054368E+01 -0.20002500902E+01 -0.61150191856E+01  0.69150689176E+01  0.51100000000E-03 0.  1.
         12    1    3    3    0    0  0.49383345081E+01 -0.98982952789E+01  0.24190237903E+01  0.11323209494E+02  0.00000000000E+00 0. -1.
</event>
<event>
 7    1  0.2459936E-009  0.4778727E+02  0.7816164E-02  0.1312668E+00
        -11   -1    0    0    0    0  0.00000000000E+00  0.00000000000E+00  0.45593999997E+02  0.45594000000E+02  0.51100000000E-03 0. -1.
         11   -1    0    0    0    0 -0.00000000000E+00 -0.00000000000E+00 -0.45593999997E+02  0.45594000000E+02  0.51100000000E-03 0.  1.
    9900012    2    1    2    0    0 -0.32741185752E+02  0.24964314981E+02  0.13726653729E+02  0.47787270865E+02  0.19999999180E+02 0.  0.
         12    1    1    2    0    0  0.32741185752E+02 -0.24964314981E+02 -0.13726653729E+02  0.43400729135E+02  0.00000000000E+00 0. -1.
         11    1    3    3    0    0 -0.15295105910E+02  0.15156386634E+02  0.47878230677E+01  0.22058548696E+02  0.51100000000E-03 0. -1.
        -11    1    3    3    0    0 -0.17821589065E+02  0.12251733185E+02  0.76450721543E+01  0.22938202444E+02  0.51100000000E-03 0.  1.
         12    1    3    3    0    0  0.37550922364E+00 -0.24438048375E+01  0.12937585067E+01  0.27905197248E+01  0.00000000000E+00 0. -1.
</event>
<event>
 7    1  0.2459936E-009  0.4778727E+02  0.7816164E-02  0.1312668E+00
        -11   -1    0    0    0    0  0.00000000000E+00  0.00000000000E+00  0.45593999997E+02  0.45594000000E+02  0.51100000000E-03 0. -1.
         11   -1    0    0    0    0 -0.00000000000E+00 -0.00000000000E+00 -0.45593999997E+02  0.45594000000E+02  0.51100000000E-03 0.  1.
    9900012    2    1    2    0    0 -0.18024378229E+00  0.29690070007E+02 -0.31655813604E+02  0.47787270977E+02  0.19999999691E+02 0.  0.
         12    1    1    2    0    0  0.18024378229E+00 -0.29690070007E+02  0.31655813604E+02  0.43400729023E+02  0.00000000000E+00 0. -1.
         11    1    3    3    0    0 -0.38932938705E+01  0.13724579637E+02 -0.74026169182E+01  0.16072353930E+02  0.51100000000E-03 0.  1.
        -11    1    3    3    0    0  0.48868337741E+01  0.14855910740E+02 -0.12972242281E+02  0.20318914792E+02  0.51100000000E-03 0. -1.
        -12    1    3    3    0    0 -0.11737836859E+01  0.11095796299E+01 -0.11280954405E+02  0.11396002255E+02  0.00000000000E+00 0.  1.
</event>
<event>
 7    1  0.2459936E-009  0.4778727E+02  0.7816164E-02  0.1312668E+00
        -11   -1    0    0    0    0  0.00000000000E+00  0.00000000000E+00  0.45593999997E+02  0.45594000000E+02  0.51100000000E-03 0. -1.
         11   -1    0    0    0    0 -0.00000000000E+00 -0.00000000000E+00 -0.45593999997E+02  0.45594000000E+02  0.51100000000E-03 0.  1.
    9900012    2    1    2    0    0  0.13226264822E+01 -0.43357517109E+02 -0.14141107059E+01  0.47787270285E+02  0.19999996539E+02 0.  0.
         12    1    1    2    0    0 -0.13226264822E+01  0.43357517109E+02  0.14141107059E+01  0.43400729715E+02  0.00000000000E+00 0. -1.
         11    1    3    3    0    0  0.37296615233E+01 -0.53662618248E+01  0.12596010407E+01  0.66553539420E+01  0.51100000000E-03 0. -1.
        -11    1    3    3    0    0  0.69064970188E+00 -0.37939157807E+02 -0.25602049315E+01  0.38031714945E+02  0.51100000000E-03 0.  1.
         12    1    3    3    0    0 -0.30976847429E+01 -0.52097477518E-01 -0.11350681505E+00  0.31002013984E+01  0.00000000000E+00 0. -1.
</event>
<event>
 7    1  0.2459936E-009  0.4778728E+02  0.7816164E-02  0.1312668E+00
        -11   -1    0    0    0    0  0.00000000000E+00  0.00000000000E+00  0.45593999997E+02  0.45594000000E+02  0.51100000000E-03 0.  1.
         11   -1    0    0    0    0 -0.00000000000E+00 -0.00000000000E+00 -0.45593999997E+02  0.45594000000E+02  0.51100000000E-03 0. -1.
    9900012    2    1    2    0    0 -0.30661097871E+02 -0.33276304107E+01  0.30535992844E+02  0.47787275285E+02  0.20000019336E+02 0.  0.
         12    1    1    2    0    0  0.30661097871E+02  0.33276304107E+01 -0.30535992844E+02  0.43400724715E+02  0.00000000000E+00 0. -1.
         11    1    3    3    0    0 -0.82505488137E+01  0.87144379668E+00  0.27724429215E+01  0.87474230509E+01  0.51100000000E-03 0. -1.
        -11    1    3    3    0    0 -0.24538637204E+02 -0.48927246064E+01  0.26592930374E+02  0.36513934547E+02  0.51100000000E-03 0.  1.
         12    1    3    3    0    0  0.21280881475E+01  0.69365039905E+00  0.11706195481E+01  0.25259176879E+01  0.00000000000E+00 0. -1.
</event>
<event>
 7    1  0.2459936E-009  0.4778727E+02  0.7816164E-02  0.1312668E+00
        -11   -1    0    0    0    0  0.00000000000E+00  0.00000000000E+00  0.45593999997E+02  0.45594000000E+02  0.51100000000E-03 0.  1.
         11   -1    0    0    0    0 -0.00000000000E+00 -0.00000000000E+00 -0.45593999997E+02  0.45594000000E+02  0.51100000000E-03 0. -1.
    9900012    2    1    2    0    0  0.32795660211E+02  0.26371333389E+02  0.10612295928E+02  0.47787269842E+02  0.19999994518E+02 0.  0.
         12    1    1    2    0    0 -0.32795660211E+02 -0.26371333389E+02 -0.10612295928E+02  0.43400730158E+02  0.00000000000E+00 0. -1.
         11    1    3    3    0    0  0.60287046425E+01 -0.52726791387E+00  0.52387413709E+01  0.80042302898E+01  0.51100000000E-03 0.  1.
        -11    1    3    3    0    0  0.48503022502E+01  0.28155246968E+01  0.45301245674E+01  0.72093439433E+01  0.51100000000E-03 0. -1.
         12    1    3    3    0    0  0.21916653319E+02  0.24083076606E+02  0.84342998949E+00  0.32573695609E+02  0.00000000000E+00 0. -1.
</event>
<event>
 7    1  0.2459936E-009  0.4778728E+02  0.7816164E-02  0.1312668E+00
        -11   -1    0    0    0    0  0.00000000000E+00  0.00000000000E+00  0.45593999997E+02  0.45594000000E+02  0.51100000000E-03 0.  1.
         11   -1    0    0    0    0 -0.00000000000E+00 -0.00000000000E+00 -0.45593999997E+02  0.45594000000E+02  0.51100000000E-03 0. -1.
    9900012    2    1    2    0    0 -0.98234485726E+01 -0.83616582468E+01  0.41439169232E+02  0.47787283219E+02  0.20000055507E+02 0.  0.
         12    1    1    2    0    0  0.98234485726E+01  0.83616582468E+01 -0.41439169232E+02  0.43400716781E+02  0.00000000000E+00 0. -1.
         11    1    3    3    0    0  0.82553067450E+00 -0.51415715621E+01  0.14384453431E+01  0.54024424373E+01  0.51100000000E-03 0. -1.
        -11    1    3    3    0    0 -0.67216371469E+01 -0.34890772671E+01  0.12585178334E+02  0.14688116969E+02  0.51100000000E-03 0.  1.
        -12    1    3    3    0    0 -0.39273421002E+01  0.26899058234E+00  0.27415545554E+02  0.27696723813E+02  0.00000000000E+00 0.  1.
</event>
<event>
 7    1  0.2459936E-009  0.4778728E+02  0.7816164E-02  0.1312668E+00
        -11   -1    0    0    0    0  0.00000000000E+00  0.00000000000E+00  0.45593999997E+02  0.45594000000E+02  0.51100000000E-03 0.  1.
         11   -1    0    0    0    0 -0.00000000000E+00 -0.00000000000E+00 -0.45593999997E+02  0.45594000000E+02  0.51100000000E-03 0. -1.
    9900012    2    1    2    0    0 -0.38496553901E+02 -0.18009119980E+02  0.87925901823E+01  0.47787277577E+02  0.20000029785E+02 0.  0.
         12    1    1    2    0    0  0.38496553901E+02  0.18009119980E+02 -0.87925901823E+01  0.43400722423E+02  0.00000000000E+00 0. -1.
         11    1    3    3    0    0 -0.69538565881E+00  0.16693414640E+01  0.26524578066E+01  0.32102639790E+01  0.51100000000E-03 0. -1.
        -11    1    3    3    0    0 -0.29423694022E+00 -0.17836219162E+01 -0.14685840605E+01  0.23290817763E+01  0.51100000000E-03 0.  1.
        -12    1    3    3    0    0 -0.37506931302E+02 -0.17894839528E+02  0.76087164362E+01  0.42247931822E+02  0.00000000000E+00 0.  1.
</event>
<event>
 7    1  0.2459936E-009  0.4778727E+02  0.7816164E-02  0.1312668E+00
        -11   -1    0    0    0    0  0.00000000000E+00  0.00000000000E+00  0.45593999997E+02  0.45594000000E+02  0.51100000000E-03 0.  1.
         11   -1    0    0    0    0 -0.00000000000E+00 -0.00000000000E+00 -0.45593999997E+02  0.45594000000E+02  0.51100000000E-03 0. -1.
    9900012    2    1    2    0    0  0.13256139709E+02 -0.38185428450E+02 -0.15804160233E+02  0.47787266521E+02  0.19999979375E+02 0.  0.
         12    1    1    2    0    0 -0.13256139709E+02  0.38185428450E+02  0.15804160233E+02  0.43400733479E+02  0.00000000000E+00 0. -1.
         11    1    3    3    0    0  0.84214857883E+00 -0.86262251206E+01 -0.89009388500E+01  0.12423674446E+02  0.51100000000E-03 0. -1.
        -11    1    3    3    0    0 -0.18893882002E+01 -0.94722612637E+01  0.33322234566E+00  0.96646033861E+01  0.51100000000E-03 0.  1.
        -12    1    3    3    0    0  0.14303379330E+02 -0.20086942065E+02 -0.72364437287E+01  0.25698988689E+02  0.00000000000E+00 0.  1.
</event>
<event>
 7    1  0.2459936E-009  0.4778728E+02  0.7816164E-02  0.1312668E+00
        -11   -1    0    0    0    0  0.00000000000E+00  0.00000000000E+00  0.45593999997E+02  0.45594000000E+02  0.51100000000E-03 0.  1.
         11   -1    0    0    0    0 -0.00000000000E+00 -0.00000000000E+00 -0.45593999997E+02  0.45594000000E+02  0.51100000000E-03 0. -1.
    9900012    2    1    2    0    0 -0.42557900871E+01  0.19685428441E+02  0.38444701441E+02  0.47787275224E+02  0.20000019057E+02 0.  0.
         12    1    1    2    0    0  0.42557900871E+01 -0.19685428441E+02 -0.38444701441E+02  0.43400724776E+02  0.00000000000E+00 0. -1.
         11    1    3    3    0    0  0.69824893804E+00  0.19090564678E+01  0.11533569676E+02  0.11711331176E+02  0.51100000000E-03 0.  1.
        -11    1    3    3    0    0  0.30200061416E+01  0.12645224408E+01  0.12009774410E+02  0.12448057509E+02  0.51100000000E-03 0. -1.
        -12    1    3    3    0    0 -0.79740451667E+01  0.16511849533E+02  0.14901357355E+02  0.23627886540E+02  0.00000000000E+00 0.  1.
</event>
<event>
 7    1  0.2459936E-009  0.4778727E+02  0.7816164E-02  0.1312668E+00
        -11   -1    0    0    0    0  0.00000000000E+00  0.00000000000E+00  0.45593999997E+02  0.45594000000E+02  0.51100000000E-03 0.  1.
         11   -1    0    0    0    0 -0.00000000000E+00 -0.00000000000E+00 -0.45593999997E+02  0.45594000000E+02  0.51100000000E-03 0. -1.
    9900012    2    1    2    0    0 -0.36435072510E+02  0.14239463309E+02  0.18797507030E+02  0.47787273109E+02  0.20000009414E+02 0.  0.
         12    1    1    2    0    0  0.36435072510E+02 -0.14239463309E+02 -0.18797507030E+02  0.43400726891E+02  0.00000000000E+00 0. -1.
         11    1    3    3    0    0 -0.16350798735E+01 -0.26082370502E+01  0.46071603085E+01  0.55409667994E+01  0.51100000000E-03 0. -1.
        -11    1    3    3    0    0 -0.28865567911E+01  0.45505636051E+01  0.34508496765E+01  0.63990782917E+01  0.51100000000E-03 0.  1.
         12    1    3    3    0    0 -0.31913435845E+02  0.12297136754E+02  0.10739497045E+02  0.35847228018E+02  0.00000000000E+00 0. -1.
</event>
<event>
 7    1  0.2459936E-009  0.4778727E+02  0.7816164E-02  0.1312668E+00
        -11   -1    0    0    0    0  0.00000000000E+00  0.00000000000E+00  0.45593999997E+02  0.45594000000E+02  0.51100000000E-03 0.  1.
         11   -1    0    0    0    0 -0.00000000000E+00 -0.00000000000E+00 -0.45593999997E+02  0.45594000000E+02  0.51100000000E-03 0. -1.
    9900012    2    1    2    0    0  0.25915944081E+02  0.26576159452E+02  0.22487658847E+02  0.47787271789E+02  0.20000003394E+02 0.  0.
         12    1    1    2    0    0 -0.25915944081E+02 -0.26576159452E+02 -0.22487658847E+02  0.43400728211E+02  0.00000000000E+00 0. -1.
         11    1    3    3    0    0  0.59643942569E+00 -0.22049909123E+01  0.14882431412E+01  0.27262781993E+01  0.51100000000E-03 0. -1.
        -11    1    3    3    0    0  0.18550267060E+01  0.88153109574E+01  0.57196669852E+01  0.10670774200E+02  0.51100000000E-03 0.  1.
        -12    1    3    3    0    0  0.23464477950E+02  0.19965839407E+02  0.15279748720E+02  0.34390219389E+02  0.00000000000E+00 0.  1.
</event>
<event>
 7    1  0.2459936E-009  0.4778727E+02  0.7816164E-02  0.1312668E+00
        -11   -1    0    0    0    0  0.00000000000E+00  0.00000000000E+00  0.45593999997E+02  0.45594000000E+02  0.51100000000E-03 0.  1.
         11   -1    0    0    0    0 -0.00000000000E+00 -0.00000000000E+00 -0.45593999997E+02  0.45594000000E+02  0.51100000000E-03 0. -1.
    9900012    2    1    2    0    0  0.69745850775E+01 -0.16680194871E+01  0.42804163096E+02  0.47787268389E+02  0.19999987892E+02 0.  0.
         12    1    1    2    0    0 -0.69745850775E+01  0.16680194871E+01 -0.42804163096E+02  0.43400731611E+02  0.00000000000E+00 0. -1.
         11    1    3    3    0    0  0.59273202830E+01  0.56570191359E+01  0.12366841636E+02  0.14834883334E+02  0.51100000000E-03 0. -1.
        -11    1    3    3    0    0  0.20233338233E+01  0.21884211284E+01  0.89425493957E+01  0.94261475032E+01  0.51100000000E-03 0.  1.
         12    1    3    3    0    0 -0.97606902890E+00 -0.95134597513E+01  0.21494772065E+02  0.23526237551E+02  0.00000000000E+00 0. -1.
</event>
<event>
 7    1  0.2459936E-009  0.4778727E+02  0.7816164E-02  0.1312668E+00
        -11   -1    0    0    0    0  0.00000000000E+00  0.00000000000E+00  0.45593999997E+02  0.45594000000E+02  0.51100000000E-03 0.  1.
         11   -1    0    0    0    0 -0.00000000000E+00 -0.00000000000E+00 -0.45593999997E+02  0.45594000000E+02  0.51100000000E-03 0. -1.
    9900012    2    1    2    0    0 -0.94789293920E+01  0.32533991129E+02  0.27116641695E+02  0.47787274914E+02  0.20000017641E+02 0.  0.
         12    1    1    2    0    0  0.94789293920E+01 -0.32533991129E+02 -0.27116641695E+02  0.43400725086E+02  0.00000000000E+00 0. -1.
         11    1    3    3    0    0  0.22855697483E-01  0.13605793977E+01 -0.89164087112E+00  0.16268750366E+01  0.51100000000E-03 0. -1.
        -11    1    3    3    0    0  0.14207113685E+01  0.14817188927E+02  0.19984308042E+02  0.24918669240E+02  0.51100000000E-03 0.  1.
        -12    1    3    3    0    0 -0.10922496458E+02  0.16356222804E+02  0.80239745237E+01  0.21241730637E+02  0.00000000000E+00 0.  1.
</event>
<event>
 7    1  0.2459936E-009  0.4778727E+02  0.7816164E-02  0.1312668E+00
        -11   -1    0    0    0    0  0.00000000000E+00  0.00000000000E+00  0.45593999997E+02  0.45594000000E+02  0.51100000000E-03 0. -1.
         11   -1    0    0    0    0 -0.00000000000E+00 -0.00000000000E+00 -0.45593999997E+02  0.45594000000E+02  0.51100000000E-03 0.  1.
    9900012    2    1    2    0    0 -0.43303279282E+02  0.22230996478E+01 -0.18726717110E+01  0.47787273417E+02  0.20000010815E+02 0.  0.
         12    1    1    2    0    0  0.43303279282E+02 -0.22230996478E+01  0.18726717110E+01  0.43400726583E+02  0.00000000000E+00 0. -1.
         11    1    3    3    0    0 -0.14551734079E+02  0.24274868688E+01  0.23899325897E+01  0.14945147548E+02  0.51100000000E-03 0.  1.
        -11    1    3    3    0    0 -0.69825033528E+01 -0.61800620296E+01  0.17350076204E+01  0.94846597970E+01  0.51100000000E-03 0. -1.
         12    1    3    3    0    0 -0.21769041851E+02  0.59756748085E+01 -0.59976119210E+01  0.23357466071E+02  0.00000000000E+00 0. -1.
</event>
<event>
 7    1  0.2459936E-009  0.4778726E+02  0.7816164E-02  0.1312668E+00
        -11   -1    0    0    0    0  0.00000000000E+00  0.00000000000E+00  0.45593999997E+02  0.45594000000E+02  0.51100000000E-03 0.  1.
         11   -1    0    0    0    0 -0.00000000000E+00 -0.00000000000E+00 -0.45593999997E+02  0.45594000000E+02  0.51100000000E-03 0. -1.
    9900012    2    1    2    0    0 -0.23785521060E+02  0.33333893571E+02  0.14377911412E+02  0.47787264876E+02  0.19999971876E+02 0.  0.
         12    1    1    2    0    0  0.23785521060E+02 -0.33333893571E+02 -0.14377911412E+02  0.43400735124E+02  0.00000000000E+00 0. -1.
         11    1    3    3    0    0 -0.15976456629E+02  0.15762635209E+02 -0.61389041735E+00  0.22451830590E+02  0.51100000000E-03 0. -1.
        -11    1    3    3    0    0 -0.27061973059E+01  0.26147499576E+01  0.32840595851E+00  0.37773366191E+01  0.51100000000E-03 0.  1.
         12    1    3    3    0    0 -0.51028671255E+01  0.14956508405E+02  0.14663395870E+02  0.21558097667E+02  0.00000000000E+00 0. -1.
</event>
<event>
 7    1  0.2459936E-009  0.4778727E+02  0.7816164E-02  0.1312668E+00
        -11   -1    0    0    0    0  0.00000000000E+00  0.00000000000E+00  0.45593999997E+02  0.45594000000E+02  0.51100000000E-03 0.  1.
         11   -1    0    0    0    0 -0.00000000000E+00 -0.00000000000E+00 -0.45593999997E+02  0.45594000000E+02  0.51100000000E-03 0. -1.
    9900012    2    1    2    0    0  0.22407481890E+02  0.35244786352E+02  0.11803934185E+02  0.47787273371E+02  0.20000010609E+02 0.  0.
         12    1    1    2    0    0 -0.22407481890E+02 -0.35244786352E+02 -0.11803934185E+02  0.43400726629E+02  0.00000000000E+00 0. -1.
         11    1    3    3    0    0  0.66594679182E+01  0.18596162184E+02  0.22578544111E+01  0.19881239089E+02  0.51100000000E-03 0. -1.
        -11    1    3    3    0    0  0.69475368199E+01  0.13637032144E+02  0.10493074417E+02  0.18556441591E+02  0.51100000000E-03 0.  1.
         12    1    3    3    0    0  0.88004771520E+01  0.30115920247E+01 -0.94699464330E+00  0.93495926906E+01  0.00000000000E+00 0. -1.
</event>
<event>
 7    1  0.2459936E-009  0.4778728E+02  0.7816164E-02  0.1312668E+00
        -11   -1    0    0    0    0  0.00000000000E+00  0.00000000000E+00  0.45593999997E+02  0.45594000000E+02  0.51100000000E-03 0.  1.
         11   -1    0    0    0    0 -0.00000000000E+00 -0.00000000000E+00 -0.45593999997E+02  0.45594000000E+02  0.51100000000E-03 0. -1.
    9900012    2    1    2    0    0  0.30739373909E+02  0.31361174225E+01  0.30477503852E+02  0.47787279017E+02  0.20000036351E+02 0.  0.
         12    1    1    2    0    0 -0.30739373909E+02 -0.31361174225E+01 -0.30477503852E+02  0.43400720983E+02  0.00000000000E+00 0. -1.
         11    1    3    3    0    0  0.67518834160E+01  0.83256676622E+01  0.81592138676E+01  0.13471356386E+02  0.51100000000E-03 0. -1.
        -11    1    3    3    0    0  0.13849162870E+02  0.13653476337E+01  0.10625745138E+02  0.17509138938E+02  0.51100000000E-03 0.  1.
         12    1    3    3    0    0  0.10138327623E+02 -0.65548978734E+01  0.11692544846E+02  0.16806783693E+02  0.00000000000E+00 0. -1.
</event>
<event>
 7    1  0.2459936E-009  0.4778728E+02  0.7816164E-02  0.1312668E+00
        -11   -1    0    0    0    0  0.00000000000E+00  0.00000000000E+00  0.45593999997E+02  0.45594000000E+02  0.51100000000E-03 0.  1.
         11   -1    0    0    0    0 -0.00000000000E+00 -0.00000000000E+00 -0.45593999997E+02  0.45594000000E+02  0.51100000000E-03 0. -1.
    9900012    2    1    2    0    0  0.77686533164E+01  0.42590012116E+02 -0.30596871565E+01  0.47787276598E+02  0.20000025319E+02 0.  0.
         12    1    1    2    0    0 -0.77686533164E+01 -0.42590012116E+02  0.30596871565E+01  0.43400723402E+02  0.00000000000E+00 0. -1.
         11    1    3    3    0    0  0.46870188913E+01  0.10275007703E+02 -0.79979924035E+01  0.13838779286E+02  0.51100000000E-03 0. -1.
        -11    1    3    3    0    0  0.25426037295E+01  0.10601262751E+02 -0.21277507618E+01  0.11107606817E+02  0.51100000000E-03 0.  1.
        -12    1    3    3    0    0  0.53903069559E+00  0.21713741662E+02  0.70660560089E+01  0.22840890494E+02  0.00000000000E+00 0.  1.
</event>
<event>
 7    1  0.3299435E-009  0.4778727E+02  0.7816164E-02  0.1312668E+00
        -11   -1    0    0    0    0  0.00000000000E+00  0.00000000000E+00  0.45593999997E+02  0.45594000000E+02  0.51100000000E-03 0. -1.
         11   -1    0    0    0    0 -0.00000000000E+00 -0.00000000000E+00 -0.45593999997E+02  0.45594000000E+02  0.51100000000E-03 0.  1.
    9900012    2    1    2    0    0 -0.13302402238E+02  0.27118852054E+02 -0.31164675473E+02  0.47787273746E+02  0.20000012318E+02 0.  0.
         12    1    1    2    0    0  0.13302402238E+02 -0.27118852054E+02  0.31164675473E+02  0.43400726254E+02  0.00000000000E+00 0. -1.
         11    1    3    3    0    0  0.16083992742E+01  0.10476384949E+01  0.54833027068E+00  0.19962868001E+01  0.51100000000E-03 0. -1.
        -11    1    3    3    0    0 -0.11450515249E+02  0.86597873323E+01 -0.89246646931E+01  0.16904314723E+02  0.51100000000E-03 0.  1.
        -12    1    3    3    0    0 -0.34602862624E+01  0.17411426227E+02 -0.22788341050E+02  0.28886672223E+02  0.00000000000E+00 0.  1.
</event>
<event>
 7    1  0.2459936E-009  0.4778727E+02  0.7816164E-02  0.1312668E+00
        -11   -1    0    0    0    0  0.00000000000E+00  0.00000000000E+00  0.45593999997E+02  0.45594000000E+02  0.51100000000E-03 0. -1.
         11   -1    0    0    0    0 -0.00000000000E+00 -0.00000000000E+00 -0.45593999997E+02  0.45594000000E+02  0.51100000000E-03 0.  1.
    9900012    2    1    2    0    0  0.69281724121E+01 -0.42836946571E+02  0.78718897304E+00  0.47787271539E+02  0.20000002253E+02 0.  0.
         12    1    1    2    0    0 -0.69281724121E+01  0.42836946571E+02 -0.78718897304E+00  0.43400728461E+02  0.00000000000E+00 0. -1.
         11    1    3    3    0    0 -0.29410082497E+01 -0.10096566785E+02 -0.46972965897E+01  0.11517585940E+02  0.51100000000E-03 0. -1.
        -11    1    3    3    0    0 -0.86112347183E+00 -0.15198257201E+02  0.34245035630E+01  0.15603069586E+02  0.51100000000E-03 0.  1.
         12    1    3    3    0    0  0.10730304134E+02 -0.17542122585E+02  0.20599819997E+01  0.20666616013E+02  0.00000000000E+00 0. -1.
</event>
<event>
 7    1  0.2459936E-009  0.4778727E+02  0.7816164E-02  0.1312668E+00
        -11   -1    0    0    0    0  0.00000000000E+00  0.00000000000E+00  0.45593999997E+02  0.45594000000E+02  0.51100000000E-03 0.  1.
         11   -1    0    0    0    0 -0.00000000000E+00 -0.00000000000E+00 -0.45593999997E+02  0.45594000000E+02  0.51100000000E-03 0. -1.
    9900012    2    1    2    0    0  0.14838649072E+01  0.25231591868E+02  0.35281560189E+02  0.47787267602E+02  0.19999984306E+02 0.  0.
         12    1    1    2    0    0 -0.14838649072E+01 -0.25231591868E+02 -0.35281560189E+02  0.43400732398E+02  0.00000000000E+00 0. -1.
         11    1    3    3    0    0 -0.41778096302E+01  0.44083088860E+01  0.38162883494E+01  0.71729587736E+01  0.51100000000E-03 0. -1.
        -11    1    3    3    0    0 -0.15065668316E+01  0.23774301855E+01  0.13809417180E+02  0.14093328954E+02  0.51100000000E-03 0.  1.
        -12    1    3    3    0    0  0.71682413690E+01  0.18445852797E+02  0.17655854660E+02  0.26520979874E+02  0.00000000000E+00 0.  1.
</event>
<event>
 7    1  0.2459936E-009  0.4778726E+02  0.7816164E-02  0.1312668E+00
        -11   -1    0    0    0    0  0.00000000000E+00  0.00000000000E+00  0.45593999997E+02  0.45594000000E+02  0.51100000000E-03 0.  1.
         11   -1    0    0    0    0 -0.00000000000E+00 -0.00000000000E+00 -0.45593999997E+02  0.45594000000E+02  0.51100000000E-03 0. -1.
    9900012    2    1    2    0    0 -0.80618196669E+01  0.20737419672E+01  0.42594960723E+02  0.47787262436E+02  0.19999960750E+02 0.  0.
         12    1    1    2    0    0  0.80618196669E+01 -0.20737419672E+01 -0.42594960723E+02  0.43400737564E+02  0.00000000000E+00 0. -1.
         11    1    3    3    0    0 -0.86907394904E+01  0.11801361174E+01  0.16616244084E+02  0.18788859515E+02  0.51100000000E-03 0. -1.
        -11    1    3    3    0    0 -0.38944101370E+01 -0.43603287467E+01  0.13748074191E+02  0.14939492672E+02  0.51100000000E-03 0.  1.
         12    1    3    3    0    0  0.45233299604E+01  0.52539345965E+01  0.12230642448E+02  0.14058910248E+02  0.00000000000E+00 0. -1.
</event>
<event>
 7    1  0.2459936E-009  0.4778727E+02  0.7816164E-02  0.1312668E+00
        -11   -1    0    0    0    0  0.00000000000E+00  0.00000000000E+00  0.45593999997E+02  0.45594000000E+02  0.51100000000E-03 0. -1.
         11   -1    0    0    0    0 -0.00000000000E+00 -0.00000000000E+00 -0.45593999997E+02  0.45594000000E+02  0.51100000000E-03 0.  1.
    9900012    2    1    2    0    0  0.27891682790E+02 -0.14922594741E+02 -0.29715207988E+02  0.47787269725E+02  0.19999993983E+02 0.  0.
         12    1    1    2    0    0 -0.27891682790E+02  0.14922594741E+02  0.29715207988E+02  0.43400730275E+02  0.00000000000E+00 0. -1.
         11    1    3    3    0    0  0.16924537294E+02  0.68077752215E+00 -0.99594210401E+01  0.19649261777E+02  0.51100000000E-03 0. -1.
        -11    1    3    3    0    0  0.37159757998E+01 -0.29512650616E+01 -0.19694683451E+01  0.51378251656E+01  0.51100000000E-03 0.  1.
         12    1    3    3    0    0  0.72511696962E+01 -0.12652107201E+02 -0.17786318602E+02  0.23000182782E+02  0.00000000000E+00 0. -1.
</event>
<event>
 7    1  0.2459936E-009  0.4778727E+02  0.7816164E-02  0.1312668E+00
        -11   -1    0    0    0    0  0.00000000000E+00  0.00000000000E+00  0.45593999997E+02  0.45594000000E+02  0.51100000000E-03 0.  1.
         11   -1    0    0    0    0 -0.00000000000E+00 -0.00000000000E+00 -0.45593999997E+02  0.45594000000E+02  0.51100000000E-03 0. -1.
    9900012    2    1    2    0    0 -0.10890613136E+02  0.19549004965E+02  0.37186752564E+02  0.47787267105E+02  0.19999982039E+02 0.  0.
         12    1    1    2    0    0  0.10890613136E+02 -0.19549004965E+02 -0.37186752564E+02  0.43400732895E+02  0.00000000000E+00 0. -1.
         11    1    3    3    0    0  0.41802144136E+00  0.77766576400E+01  0.46394762431E+01  0.90650916182E+01  0.51100000000E-03 0. -1.
        -11    1    3    3    0    0 -0.73356631734E+01  0.72392720375E+01  0.30751575641E+02  0.32432675167E+02  0.51100000000E-03 0.  1.
        -12    1    3    3    0    0 -0.39729714044E+01  0.45330752873E+01  0.17957006792E+01  0.62895003195E+01  0.00000000000E+00 0.  1.
</event>
<event>
 7    1  0.2459936E-009  0.4778727E+02  0.7816164E-02  0.1312668E+00
        -11   -1    0    0    0    0  0.00000000000E+00  0.00000000000E+00  0.45593999997E+02  0.45594000000E+02  0.51100000000E-03 0. -1.
         11   -1    0    0    0    0 -0.00000000000E+00 -0.00000000000E+00 -0.45593999997E+02  0.45594000000E+02  0.51100000000E-03 0.  1.
    9900012    2    1    2    0    0 -0.39480800222E+02  0.40187063268E+01  0.17571000086E+02  0.47787266933E+02  0.19999981255E+02 0.  0.
         12    1    1    2    0    0  0.39480800222E+02 -0.40187063268E+01 -0.17571000086E+02  0.43400733067E+02  0.00000000000E+00 0. -1.
         11    1    3    3    0    0  0.13188992779E+01 -0.10067070327E+01  0.14051219262E+01  0.21742406131E+01  0.51100000000E-03 0. -1.
        -11    1    3    3    0    0 -0.11753854896E+02  0.60673179471E+01  0.23605734633E+01  0.13436434026E+02  0.51100000000E-03 0.  1.
        -12    1    3    3    0    0 -0.29045844604E+02 -0.10419045876E+01  0.13805304697E+02  0.32176592294E+02  0.00000000000E+00 0.  1.
</event>
<event>
 7    1  0.2459936E-009  0.4778727E+02  0.7816164E-02  0.1312668E+00
        -11   -1    0    0    0    0  0.00000000000E+00  0.00000000000E+00  0.45593999997E+02  0.45594000000E+02  0.51100000000E-03 0.  1.
         11   -1    0    0    0    0 -0.00000000000E+00 -0.00000000000E+00 -0.45593999997E+02  0.45594000000E+02  0.51100000000E-03 0. -1.
    9900012    2    1    2    0    0 -0.33868955599E+02 -0.19510223904E+02  0.18864467587E+02  0.47787272731E+02  0.20000007689E+02 0.  0.
         12    1    1    2    0    0  0.33868955599E+02  0.19510223904E+02 -0.18864467587E+02  0.43400727269E+02  0.00000000000E+00 0. -1.
         11    1    3    3    0    0 -0.18815240347E+01 -0.24778772133E+01  0.26286323549E+01  0.40730475686E+01  0.51100000000E-03 0.  1.
        -11    1    3    3    0    0 -0.28135957541E+02 -0.19951685477E+02  0.17557959449E+02  0.38703795685E+02  0.51100000000E-03 0. -1.
         12    1    3    3    0    0 -0.38514740235E+01  0.29193387862E+01 -0.13221242174E+01  0.50104294774E+01  0.00000000000E+00 0. -1.
</event>
<event>
 7    1  0.2459936E-009  0.4778725E+02  0.7816164E-02  0.1312668E+00
        -11   -1    0    0    0    0  0.00000000000E+00  0.00000000000E+00  0.45593999997E+02  0.45594000000E+02  0.51100000000E-03 0.  1.
         11   -1    0    0    0    0 -0.00000000000E+00 -0.00000000000E+00 -0.45593999997E+02  0.45594000000E+02  0.51100000000E-03 0. -1.
    9900012    2    1    2    0    0  0.10857339932E+02 -0.39865308694E+02  0.13285332088E+02  0.47787254426E+02  0.19999924231E+02 0.  0.
         12    1    1    2    0    0 -0.10857339932E+02  0.39865308694E+02 -0.13285332088E+02  0.43400745574E+02  0.00000000000E+00 0. -1.
         11    1    3    3    0    0  0.81872169382E+01 -0.12124170409E+02  0.95020168968E+01  0.17444608184E+02  0.51100000000E-03 0. -1.
        -11    1    3    3    0    0 -0.29201678906E+01 -0.73313401210E+01  0.46568247981E+01  0.91630751356E+01  0.51100000000E-03 0.  1.
         12    1    3    3    0    0  0.55902908839E+01 -0.20409798164E+02 -0.87350960659E+00  0.21179571107E+02  0.00000000000E+00 0. -1.
</event>
<event>
 7    1  0.2459936E-009  0.4778728E+02  0.7816164E-02  0.1312668E+00
        -11   -1    0    0    0    0  0.00000000000E+00  0.00000000000E+00  0.45593999997E+02  0.45594000000E+02  0.51100000000E-03 0. -1.
         11   -1    0    0    0    0 -0.00000000000E+00 -0.00000000000E+00 -0.45593999997E+02  0.45594000000E+02  0.51100000000E-03 0.  1.
    9900012    2    1    2    0    0  0.32342575299E+02 -0.18878488495E+02 -0.21935877609E+02  0.47787283055E+02  0.20000054763E+02 0.  0.
         12    1    1    2    0    0 -0.32342575299E+02  0.18878488495E+02  0.21935877609E+02  0.43400716945E+02  0.00000000000E+00 0. -1.
         11    1    3    3    0    0  0.75407160927E+01 -0.91863217769E+01 -0.43902034338E+01  0.12669837940E+02  0.51100000000E-03 0. -1.
        -11    1    3    3    0    0  0.60854368732E+01 -0.36305436892E+01 -0.13181809764E+02  0.14965744162E+02  0.51100000000E-03 0.  1.
         12    1    3    3    0    0  0.18716422333E+02 -0.60616230291E+01 -0.43638644113E+01  0.20151700953E+02  0.00000000000E+00 0. -1.
</event>
<event>
 7    1  0.2459936E-009  0.4778727E+02  0.7816164E-02  0.1312668E+00
        -11   -1    0    0    0    0  0.00000000000E+00  0.00000000000E+00  0.45593999997E+02  0.45594000000E+02  0.51100000000E-03 0.  1.
         11   -1    0    0    0    0 -0.00000000000E+00 -0.00000000000E+00 -0.45593999997E+02  0.45594000000E+02  0.51100000000E-03 0. -1.
    9900012    2    1    2    0    0  0.38158894500E+02  0.12631977965E+02  0.16369352156E+02  0.47787265135E+02  0.19999973057E+02 0.  0.
         12    1    1    2    0    0 -0.38158894500E+02 -0.12631977965E+02 -0.16369352156E+02  0.43400734865E+02  0.00000000000E+00 0. -1.
         11    1    3    3    0    0  0.11114565407E+02  0.62154971376E+00 -0.25278803205E+01  0.11415343508E+02  0.51100000000E-03 0. -1.
        -11    1    3    3    0    0  0.13296136421E+02  0.83523628174E+00  0.72240419725E+01  0.15154921513E+02  0.51100000000E-03 0.  1.
         12    1    3    3    0    0  0.13748192672E+02  0.11175191969E+02  0.11673190504E+02  0.21217000114E+02  0.00000000000E+00 0. -1.
</event>
<event>
 7    1  0.2459936E-009  0.4778726E+02  0.7816164E-02  0.1312668E+00
        -11   -1    0    0    0    0  0.00000000000E+00  0.00000000000E+00  0.45593999997E+02  0.45594000000E+02  0.51100000000E-03 0. -1.
         11   -1    0    0    0    0 -0.00000000000E+00 -0.00000000000E+00 -0.45593999997E+02  0.45594000000E+02  0.51100000000E-03 0.  1.
    9900012    2    1    2    0    0  0.27060889399E+02  0.15238778017E+02  0.30316860157E+02  0.47787261524E+02  0.19999956593E+02 0.  0.
         12    1    1    2    0    0 -0.27060889399E+02 -0.15238778017E+02 -0.30316860157E+02  0.43400738476E+02  0.00000000000E+00 0. -1.
         11    1    3    3    0    0  0.59663920499E+01  0.86184867873E+01  0.69193113208E+01  0.12559976832E+02  0.51100000000E-03 0. -1.
        -11    1    3    3    0    0  0.14290489991E+02  0.94019326869E+01  0.96557129405E+01  0.19642994555E+02  0.51100000000E-03 0.  1.
         12    1    3    3    0    0  0.68040073581E+01 -0.27816414572E+01  0.13741835895E+02  0.15584290138E+02  0.00000000000E+00 0. -1.
</event>
<event>
 7    1  0.2459936E-009  0.4778728E+02  0.7816164E-02  0.1312668E+00
        -11   -1    0    0    0    0  0.00000000000E+00  0.00000000000E+00  0.45593999997E+02  0.45594000000E+02  0.51100000000E-03 0.  1.
         11   -1    0    0    0    0 -0.00000000000E+00 -0.00000000000E+00 -0.45593999997E+02  0.45594000000E+02  0.51100000000E-03 0. -1.
    9900012    2    1    2    0    0 -0.73964238449E+01 -0.38500002291E+02  0.18618947619E+02  0.47787280276E+02  0.20000042092E+02 0.  0.
         12    1    1    2    0    0  0.73964238449E+01  0.38500002291E+02 -0.18618947619E+02  0.43400719724E+02  0.00000000000E+00 0. -1.
         11    1    3    3    0    0 -0.28116651238E+01 -0.87133129962E+01 -0.21787305870E+01  0.94113841368E+01  0.51100000000E-03 0. -1.
        -11    1    3    3    0    0 -0.57870570647E+01 -0.17537326305E+02  0.66613679699E+01  0.19632158998E+02  0.51100000000E-03 0.  1.
        -12    1    3    3    0    0  0.12022983436E+01 -0.12249362989E+02  0.14136310236E+02  0.18743737142E+02  0.00000000000E+00 0.  1.
</event>
<event>
 7    1  0.2459936E-009  0.4778727E+02  0.7816164E-02  0.1312668E+00
        -11   -1    0    0    0    0  0.00000000000E+00  0.00000000000E+00  0.45593999997E+02  0.45594000000E+02  0.51100000000E-03 0.  1.
         11   -1    0    0    0    0 -0.00000000000E+00 -0.00000000000E+00 -0.45593999997E+02  0.45594000000E+02  0.51100000000E-03 0. -1.
    9900012    2    1    2    0    0  0.73443385393E+01  0.20189928538E+02  0.37710089530E+02  0.47787269875E+02  0.19999994670E+02 0.  0.
         12    1    1    2    0    0 -0.73443385393E+01 -0.20189928538E+02 -0.37710089530E+02  0.43400730125E+02  0.00000000000E+00 0. -1.
         11    1    3    3    0    0  0.13525374060E+01  0.16229159666E+02  0.22413699397E+02  0.27705394814E+02  0.51100000000E-03 0. -1.
        -11    1    3    3    0    0 -0.77390571995E+00  0.40170334986E+01  0.11752201350E+02  0.12443862947E+02  0.51100000000E-03 0.  1.
         12    1    3    3    0    0  0.67657068532E+01 -0.56264626240E-01  0.35441887830E+01  0.76380121145E+01  0.00000000000E+00 0. -1.
</event>
<event>
 7    1  0.2459936E-009  0.4778727E+02  0.7816164E-02  0.1312668E+00
        -11   -1    0    0    0    0  0.00000000000E+00  0.00000000000E+00  0.45593999997E+02  0.45594000000E+02  0.51100000000E-03 0.  1.
         11   -1    0    0    0    0 -0.00000000000E+00 -0.00000000000E+00 -0.45593999997E+02  0.45594000000E+02  0.51100000000E-03 0. -1.
    9900012    2    1    2    0    0  0.10390722430E+02 -0.84377745124E+00  0.42130085778E+02  0.47787271888E+02  0.20000003847E+02 0.  0.
         12    1    1    2    0    0 -0.10390722430E+02  0.84377745124E+00 -0.42130085778E+02  0.43400728112E+02  0.00000000000E+00 0. -1.
         11    1    3    3    0    0  0.11508424913E+01  0.25230360326E+01  0.93754072514E+00  0.29273080012E+01  0.51100000000E-03 0. -1.
        -11    1    3    3    0    0  0.81169714410E+01  0.47937650841E+01  0.24345150627E+02  0.26106546466E+02  0.51100000000E-03 0.  1.
         12    1    3    3    0    0  0.11229084978E+01 -0.81605785679E+01  0.16847394426E+02  0.18753417422E+02  0.00000000000E+00 0. -1.
</event>
<event>
 7    1  0.2459936E-009  0.4778727E+02  0.7816164E-02  0.1312668E+00
        -11   -1    0    0    0    0  0.00000000000E+00  0.00000000000E+00  0.45593999997E+02  0.45594000000E+02  0.51100000000E-03 0. -1.
         11   -1    0    0    0    0 -0.00000000000E+00 -0.00000000000E+00 -0.45593999997E+02  0.45594000000E+02  0.51100000000E-03 0.  1.
    9900012    2    1    2    0    0 -0.37589366211E+02  0.21327738427E+02  0.39736987727E+01  0.47787272350E+02  0.20000005954E+02 0.  0.
         12    1    1    2    0    0  0.37589366211E+02 -0.21327738427E+02 -0.39736987727E+01  0.43400727650E+02  0.00000000000E+00 0. -1.
         11    1    3    3    0    0 -0.11421955399E+02  0.60482181360E+01  0.87420234087E+01  0.15603364422E+02  0.51100000000E-03 0. -1.
        -11    1    3    3    0    0 -0.50919988218E+01  0.13314910412E+01  0.25839158567E+01  0.58632705728E+01  0.51100000000E-03 0.  1.
        -12    1    3    3    0    0 -0.21075411991E+02  0.13948029250E+02 -0.73522404926E+01  0.26320637355E+02  0.00000000000E+00 0.  1.
</event>
<event>
 7    1  0.2459936E-009  0.4778726E+02  0.7816164E-02  0.1312668E+00
        -11   -1    0    0    0    0  0.00000000000E+00  0.00000000000E+00  0.45593999997E+02  0.45594000000E+02  0.51100000000E-03 0. -1.
         11   -1    0    0    0    0 -0.00000000000E+00 -0.00000000000E+00 -0.45593999997E+02  0.45594000000E+02  0.51100000000E-03 0.  1.
    9900012    2    1    2    0    0 -0.20084302337E+02  0.19166562492E+02 -0.33359969109E+02  0.47787264326E+02  0.19999969366E+02 0.  0.
         12    1    1    2    0    0  0.20084302337E+02 -0.19166562492E+02  0.33359969109E+02  0.43400735674E+02  0.00000000000E+00 0. -1.
         11    1    3    3    0    0 -0.14225576287E+01  0.18706195386E+01 -0.11556107262E+01  0.26188402160E+01  0.51100000000E-03 0. -1.
        -11    1    3    3    0    0 -0.37306142787E+01 -0.33491985031E+01 -0.10744028915E+02  0.11856170170E+02  0.51100000000E-03 0.  1.
         12    1    3    3    0    0 -0.14931130430E+02  0.20645141457E+02 -0.21460329468E+02  0.33312253940E+02  0.00000000000E+00 0. -1.
</event>
<event>
 7    1  0.2485027E-009  0.4778727E+02  0.7816164E-02  0.1312668E+00
        -11   -1    0    0    0    0  0.00000000000E+00  0.00000000000E+00  0.45593999997E+02  0.45594000000E+02  0.51100000000E-03 0. -1.
         11   -1    0    0    0    0 -0.00000000000E+00 -0.00000000000E+00 -0.45593999997E+02  0.45594000000E+02  0.51100000000E-03 0.  1.
    9900012    2    1    2    0    0 -0.74936780932E+01 -0.38895572516E+02 -0.17737039736E+02  0.47787270152E+02  0.19999995931E+02 0.  0.
         12    1    1    2    0    0  0.74936780932E+01  0.38895572516E+02  0.17737039736E+02  0.43400729848E+02  0.00000000000E+00 0. -1.
         11    1    3    3    0    0  0.56788637768E+00 -0.25566501670E+01 -0.60000587020E+01  0.65467289315E+01  0.51100000000E-03 0. -1.
        -11    1    3    3    0    0 -0.62431743069E+01 -0.21751428333E+02 -0.13632128317E+02  0.26418493195E+02  0.51100000000E-03 0.  1.
         12    1    3    3    0    0 -0.18183901640E+01 -0.14587494016E+02  0.18951472826E+01  0.14822048026E+02  0.00000000000E+00 0. -1.
</event>
<event>
 7    1  0.2459936E-009  0.4778727E+02  0.7816164E-02  0.1312668E+00
        -11   -1    0    0    0    0  0.00000000000E+00  0.00000000000E+00  0.45593999997E+02  0.45594000000E+02  0.51100000000E-03 0. -1.
         11   -1    0    0    0    0 -0.00000000000E+00 -0.00000000000E+00 -0.45593999997E+02  0.45594000000E+02  0.51100000000E-03 0.  1.
    9900012    2    1    2    0    0 -0.32656381915E+02 -0.26060135392E+02 -0.11749623602E+02  0.47787267388E+02  0.19999983329E+02 0.  0.
         12    1    1    2    0    0  0.32656381915E+02  0.26060135392E+02  0.11749623602E+02  0.43400732612E+02  0.00000000000E+00 0. -1.
         11    1    3    3    0    0 -0.41150070217E+01 -0.92444860599E+01 -0.71255994127E+00  0.10144039986E+02  0.51100000000E-03 0. -1.
        -11    1    3    3    0    0 -0.21638637554E+02 -0.18514230438E+02 -0.11015938301E+02  0.30534542092E+02  0.51100000000E-03 0.  1.
        -12    1    3    3    0    0 -0.69027373399E+01  0.16985811053E+01 -0.21125360183E-01  0.71086853099E+01  0.00000000000E+00 0.  1.
</event>
<event>
 7    1  0.2459936E-009  0.4778727E+02  0.7816164E-02  0.1312668E+00
        -11   -1    0    0    0    0  0.00000000000E+00  0.00000000000E+00  0.45593999997E+02  0.45594000000E+02  0.51100000000E-03 0. -1.
         11   -1    0    0    0    0 -0.00000000000E+00 -0.00000000000E+00 -0.45593999997E+02  0.45594000000E+02  0.51100000000E-03 0.  1.
    9900012    2    1    2    0    0  0.29799205905E+01 -0.24146162217E+02 -0.35940315697E+02  0.47787269949E+02  0.19999995008E+02 0.  0.
         12    1    1    2    0    0 -0.29799205905E+01  0.24146162217E+02  0.35940315697E+02  0.43400730051E+02  0.00000000000E+00 0. -1.
         11    1    3    3    0    0  0.29715710684E+01  0.10812692732E+01 -0.39521766524E+01  0.50615292560E+01  0.51100000000E-03 0. -1.
        -11    1    3    3    0    0 -0.20824199189E+01 -0.86825475309E+00 -0.86022526873E+01  0.88932047425E+01  0.51100000000E-03 0.  1.
        -12    1    3    3    0    0  0.20907694409E+01 -0.24359176738E+02 -0.23385886357E+02  0.33832535951E+02  0.00000000000E+00 0.  1.
</event>
<event>
 7    1  0.2459936E-009  0.4778727E+02  0.7816164E-02  0.1312668E+00
        -11   -1    0    0    0    0  0.00000000000E+00  0.00000000000E+00  0.45593999997E+02  0.45594000000E+02  0.51100000000E-03 0.  1.
         11   -1    0    0    0    0 -0.00000000000E+00 -0.00000000000E+00 -0.45593999997E+02  0.45594000000E+02  0.51100000000E-03 0. -1.
    9900012    2    1    2    0    0 -0.19034466121E+02 -0.54212013733E+01  0.38625417239E+02  0.47787272106E+02  0.20000004840E+02 0.  0.
         12    1    1    2    0    0  0.19034466121E+02  0.54212013733E+01 -0.38625417239E+02  0.43400727894E+02  0.00000000000E+00 0. -1.
         11    1    3    3    0    0 -0.32526481066E+01  0.21981316633E+01  0.54755927238E+01  0.67374786421E+01  0.51100000000E-03 0. -1.
        -11    1    3    3    0    0 -0.12705353610E+02 -0.87491978840E+01  0.34273445349E+02  0.37585150397E+02  0.51100000000E-03 0.  1.
         12    1    3    3    0    0 -0.30764644045E+01  0.11298648473E+01 -0.11236208340E+01  0.34646430673E+01  0.00000000000E+00 0. -1.
</event>
<event>
 7    1  0.2459936E-009  0.4778727E+02  0.7816164E-02  0.1312668E+00
        -11   -1    0    0    0    0  0.00000000000E+00  0.00000000000E+00  0.45593999997E+02  0.45594000000E+02  0.51100000000E-03 0.  1.
         11   -1    0    0    0    0 -0.00000000000E+00 -0.00000000000E+00 -0.45593999997E+02  0.45594000000E+02  0.51100000000E-03 0. -1.
    9900012    2    1    2    0    0 -0.39416831710E+02  0.39429020479E+01  0.17731053262E+02  0.47787270186E+02  0.19999996086E+02 0.  0.
         12    1    1    2    0    0  0.39416831710E+02 -0.39429020479E+01 -0.17731053262E+02  0.43400729814E+02  0.00000000000E+00 0. -1.
         11    1    3    3    0    0 -0.46804566422E+01 -0.12496198916E+01  0.55233296582E+01  0.73467948812E+01  0.51100000000E-03 0. -1.
        -11    1    3    3    0    0 -0.30356103148E+02  0.31591435066E+01  0.15851283923E+02  0.34390934682E+02  0.51100000000E-03 0.  1.
         12    1    3    3    0    0 -0.43802719203E+01  0.20333784329E+01 -0.36435603196E+01  0.60495406230E+01  0.00000000000E+00 0. -1.
</event>
<event>
 7    1  0.2459936E-009  0.4778728E+02  0.7816164E-02  0.1312668E+00
        -11   -1    0    0    0    0  0.00000000000E+00  0.00000000000E+00  0.45593999997E+02  0.45594000000E+02  0.51100000000E-03 0.  1.
         11   -1    0    0    0    0 -0.00000000000E+00 -0.00000000000E+00 -0.45593999997E+02  0.45594000000E+02  0.51100000000E-03 0. -1.
    9900012    2    1    2    0    0  0.86420178894E+01 -0.12010716866E+02  0.40800502988E+02  0.47787276079E+02  0.20000022953E+02 0.  0.
         12    1    1    2    0    0 -0.86420178894E+01  0.12010716866E+02 -0.40800502988E+02  0.43400723921E+02  0.00000000000E+00 0. -1.
         11    1    3    3    0    0 -0.11867455670E+01 -0.33768828479E+01  0.17647168858E+02  0.18006506373E+02  0.51100000000E-03 0. -1.
        -11    1    3    3    0    0  0.58765831848E+01 -0.11290459408E+02  0.20996007234E+02  0.24552821092E+02  0.51100000000E-03 0.  1.
         12    1    3    3    0    0  0.39521802717E+01  0.26566253903E+01  0.21573268961E+01  0.52279486131E+01  0.00000000000E+00 0. -1.
</event>
<event>
 7    1  0.2459936E-009  0.4778729E+02  0.7816164E-02  0.1312668E+00
        -11   -1    0    0    0    0  0.00000000000E+00  0.00000000000E+00  0.45593999997E+02  0.45594000000E+02  0.51100000000E-03 0.  1.
         11   -1    0    0    0    0 -0.00000000000E+00 -0.00000000000E+00 -0.45593999997E+02  0.45594000000E+02  0.51100000000E-03 0. -1.
    9900012    2    1    2    0    0 -0.19257049944E+02  0.26675013482E+01  0.38802988560E+02  0.47787291974E+02  0.20000095426E+02 0.  0.
         12    1    1    2    0    0  0.19257049944E+02 -0.26675013482E+01 -0.38802988560E+02  0.43400708026E+02  0.00000000000E+00 0. -1.
         11    1    3    3    0    0 -0.89558230361E+01 -0.65955021551E-01  0.12617248864E+02  0.15472753003E+02  0.51100000000E-03 0. -1.
        -11    1    3    3    0    0 -0.11807358469E+02  0.72366251619E+01  0.21938691141E+02  0.25943951646E+02  0.51100000000E-03 0.  1.
         12    1    3    3    0    0  0.15061315608E+01 -0.45031687921E+01  0.42470485545E+01  0.63705873255E+01  0.00000000000E+00 0. -1.
</event>
<event>
 7    1  0.2459936E-009  0.4778727E+02  0.7816164E-02  0.1312668E+00
        -11   -1    0    0    0    0  0.00000000000E+00  0.00000000000E+00  0.45593999997E+02  0.45594000000E+02  0.51100000000E-03 0. -1.
         11   -1    0    0    0    0 -0.00000000000E+00 -0.00000000000E+00 -0.45593999997E+02  0.45594000000E+02  0.51100000000E-03 0.  1.
    9900012    2    1    2    0    0 -0.33813223567E+02  0.26223254289E+02  0.72546553429E+01  0.47787272153E+02  0.20000005055E+02 0.  0.
         12    1    1    2    0    0  0.33813223567E+02 -0.26223254289E+02 -0.72546553429E+01  0.43400727847E+02  0.00000000000E+00 0. -1.
         11    1    3    3    0    0 -0.25601290515E+02  0.13903490718E+02  0.42745042143E+01  0.29444940426E+02  0.51100000000E-03 0. -1.
        -11    1    3    3    0    0 -0.47126395883E+01  0.15321219628E+01  0.47496990428E+01  0.68641103470E+01  0.51100000000E-03 0.  1.
         12    1    3    3    0    0 -0.34992934636E+01  0.10787641609E+02 -0.17695479142E+01  0.11478221380E+02  0.00000000000E+00 0. -1.
</event>
<event>
 7    1  0.2459936E-009  0.4778726E+02  0.7816164E-02  0.1312668E+00
        -11   -1    0    0    0    0  0.00000000000E+00  0.00000000000E+00  0.45593999997E+02  0.45594000000E+02  0.51100000000E-03 0. -1.
         11   -1    0    0    0    0 -0.00000000000E+00 -0.00000000000E+00 -0.45593999997E+02  0.45594000000E+02  0.51100000000E-03 0.  1.
    9900012    2    1    2    0    0  0.31601806250E+02  0.28601236102E+02  0.81804048293E+01  0.47787263969E+02  0.19999967742E+02 0.  0.
         12    1    1    2    0    0 -0.31601806250E+02 -0.28601236102E+02 -0.81804048293E+01  0.43400736031E+02  0.00000000000E+00 0. -1.
         11    1    3    3    0    0  0.23951012309E+02  0.16568653709E+02  0.95690506707E+01  0.30655146507E+02  0.51100000000E-03 0. -1.
        -11    1    3    3    0    0  0.50810775078E+00 -0.92338164827E+00  0.17175379073E+01  0.20151287500E+01  0.51100000000E-03 0.  1.
        -12    1    3    3    0    0  0.71426861904E+01  0.12955964042E+02 -0.31061837488E+01  0.15116988713E+02  0.00000000000E+00 0.  1.
</event>
<event>
 7    1  0.2459936E-009  0.4778726E+02  0.7816164E-02  0.1312668E+00
        -11   -1    0    0    0    0  0.00000000000E+00  0.00000000000E+00  0.45593999997E+02  0.45594000000E+02  0.51100000000E-03 0. -1.
         11   -1    0    0    0    0 -0.00000000000E+00 -0.00000000000E+00 -0.45593999997E+02  0.45594000000E+02  0.51100000000E-03 0.  1.
    9900012    2    1    2    0    0  0.19631425387E+02  0.38646363429E+02  0.21655631629E+01  0.47787263453E+02  0.19999965388E+02 0.  0.
         12    1    1    2    0    0 -0.19631425387E+02 -0.38646363429E+02 -0.21655631629E+01  0.43400736547E+02  0.00000000000E+00 0. -1.
         11    1    3    3    0    0  0.72658667173E+01  0.73317530539E+01 -0.36567228467E+00  0.10328656180E+02  0.51100000000E-03 0. -1.
        -11    1    3    3    0    0  0.99243467361E+01  0.14302785138E+02 -0.58135113308E+01  0.18353725374E+02  0.51100000000E-03 0.  1.
         12    1    3    3    0    0  0.24412119334E+01  0.17011825237E+02  0.83447467783E+01  0.19104881899E+02  0.00000000000E+00 0. -1.
</event>
<event>
 7    1  0.2459936E-009  0.4778727E+02  0.7816164E-02  0.1312668E+00
        -11   -1    0    0    0    0  0.00000000000E+00  0.00000000000E+00  0.45593999997E+02  0.45594000000E+02  0.51100000000E-03 0.  1.
         11   -1    0    0    0    0 -0.00000000000E+00 -0.00000000000E+00 -0.45593999997E+02  0.45594000000E+02  0.51100000000E-03 0. -1.
    9900012    2    1    2    0    0  0.39929664449E+02  0.14934214931E+02  0.81372170098E+01  0.47787272134E+02  0.20000004969E+02 0.  0.
         12    1    1    2    0    0 -0.39929664449E+02 -0.14934214931E+02 -0.81372170098E+01  0.43400727866E+02  0.00000000000E+00 0. -1.
         11    1    3    3    0    0  0.62586438251E+01 -0.17432039213E+01 -0.25686816066E+01  0.69862370342E+01  0.51100000000E-03 0. -1.
        -11    1    3    3    0    0  0.70967474895E+01 -0.13577474567E+01  0.13583928185E+01  0.73520428723E+01  0.51100000000E-03 0.  1.
        -12    1    3    3    0    0  0.26574273134E+02  0.18035166309E+02  0.93475057979E+01  0.33448992228E+02  0.00000000000E+00 0.  1.
</event>
<event>
 7    1  0.2459936E-009  0.4778727E+02  0.7816164E-02  0.1312668E+00
        -11   -1    0    0    0    0  0.00000000000E+00  0.00000000000E+00  0.45593999997E+02  0.45594000000E+02  0.51100000000E-03 0.  1.
         11   -1    0    0    0    0 -0.00000000000E+00 -0.00000000000E+00 -0.45593999997E+02  0.45594000000E+02  0.51100000000E-03 0. -1.
    9900012    2    1    2    0    0 -0.88510997480E+01 -0.16418754704E+02  0.39188080516E+02  0.47787272733E+02  0.20000007699E+02 0.  0.
         12    1    1    2    0    0  0.88510997480E+01  0.16418754704E+02 -0.39188080516E+02  0.43400727267E+02  0.00000000000E+00 0. -1.
         11    1    3    3    0    0  0.14924305076E+00 -0.78118983995E+01  0.16169316327E+02  0.17958140796E+02  0.51100000000E-03 0. -1.
        -11    1    3    3    0    0  0.30437686842E+01 -0.65878149456E+00  0.97153422451E+01  0.10202274063E+02  0.51100000000E-03 0.  1.
        -12    1    3    3    0    0 -0.12044111483E+02 -0.79480748103E+01  0.13303421944E+02  0.19626857874E+02  0.00000000000E+00 0.  1.
</event>
<event>
 7    1  0.2459936E-009  0.4778727E+02  0.7816164E-02  0.1312668E+00
        -11   -1    0    0    0    0  0.00000000000E+00  0.00000000000E+00  0.45593999997E+02  0.45594000000E+02  0.51100000000E-03 0. -1.
         11   -1    0    0    0    0 -0.00000000000E+00 -0.00000000000E+00 -0.45593999997E+02  0.45594000000E+02  0.51100000000E-03 0.  1.
    9900012    2    1    2    0    0 -0.39638615144E+01  0.33359564737E+02 -0.27478184928E+02  0.47787269540E+02  0.19999993140E+02 0.  0.
         12    1    1    2    0    0  0.39638615144E+01 -0.33359564737E+02  0.27478184928E+02  0.43400730460E+02  0.00000000000E+00 0. -1.
         11    1    3    3    0    0  0.28222263355E+01 -0.69957754601E+00  0.86541139408E-01  0.29089276137E+01  0.51100000000E-03 0. -1.
        -11    1    3    3    0    0  0.47132693888E+00 -0.27387122877E-01 -0.48773523616E-01  0.47463486549E+00  0.51100000000E-03 0.  1.
        -12    1    3    3    0    0 -0.72574147888E+01  0.34086529406E+02 -0.27515952544E+02  0.44403707061E+02  0.00000000000E+00 0.  1.
</event>
<event>
 7    1  0.2459936E-009  0.4778727E+02  0.7816164E-02  0.1312668E+00
        -11   -1    0    0    0    0  0.00000000000E+00  0.00000000000E+00  0.45593999997E+02  0.45594000000E+02  0.51100000000E-03 0.  1.
         11   -1    0    0    0    0 -0.00000000000E+00 -0.00000000000E+00 -0.45593999997E+02  0.45594000000E+02  0.51100000000E-03 0. -1.
    9900012    2    1    2    0    0 -0.94310450672E+01  0.25524949446E+02  0.33810582560E+02  0.47787272491E+02  0.20000006595E+02 0.  0.
         12    1    1    2    0    0  0.94310450672E+01 -0.25524949446E+02 -0.33810582560E+02  0.43400727509E+02  0.00000000000E+00 0. -1.
         11    1    3    3    0    0 -0.38724998520E+01  0.43330322561E-02  0.86266118343E+01  0.94559349553E+01  0.51100000000E-03 0. -1.
        -11    1    3    3    0    0 -0.46650625556E+01  0.78573367560E+01  0.15944707363E+02  0.18377547244E+02  0.51100000000E-03 0.  1.
         12    1    3    3    0    0 -0.89348265969E+00  0.17663279658E+02  0.92392633624E+01  0.19953790292E+02  0.00000000000E+00 0. -1.
</event>
<event>
 7    1  0.2459936E-009  0.4778727E+02  0.7816164E-02  0.1312668E+00
        -11   -1    0    0    0    0  0.00000000000E+00  0.00000000000E+00  0.45593999997E+02  0.45594000000E+02  0.51100000000E-03 0. -1.
         11   -1    0    0    0    0 -0.00000000000E+00 -0.00000000000E+00 -0.45593999997E+02  0.45594000000E+02  0.51100000000E-03 0.  1.
    9900012    2    1    2    0    0  0.40886805968E+02 -0.37928874246E+01 -0.14053696607E+02  0.47787270909E+02  0.19999999383E+02 0.  0.
         12    1    1    2    0    0 -0.40886805968E+02  0.37928874246E+01  0.14053696607E+02  0.43400729091E+02  0.00000000000E+00 0. -1.
         11    1    3    3    0    0  0.16224436428E+02 -0.24218619471E-01 -0.25462115287E+01  0.16423036179E+02  0.51100000000E-03 0. -1.
        -11    1    3    3    0    0  0.26277343114E+02 -0.34920913081E+01 -0.12644724580E+02  0.29369755239E+02  0.51100000000E-03 0.  1.
         12    1    3    3    0    0 -0.16149735736E+01 -0.27657749709E+00  0.11372395014E+01  0.19944794907E+01  0.00000000000E+00 0. -1.
</event>
<event>
 7    1  0.2459936E-009  0.4778727E+02  0.7816164E-02  0.1312668E+00
        -11   -1    0    0    0    0  0.00000000000E+00  0.00000000000E+00  0.45593999997E+02  0.45594000000E+02  0.51100000000E-03 0.  1.
         11   -1    0    0    0    0 -0.00000000000E+00 -0.00000000000E+00 -0.45593999997E+02  0.45594000000E+02  0.51100000000E-03 0. -1.
    9900012    2    1    2    0    0 -0.23733834764E+02 -0.28506045315E+02  0.22532949407E+02  0.47787270270E+02  0.19999996471E+02 0.  0.
         12    1    1    2    0    0  0.23733834764E+02  0.28506045315E+02 -0.22532949407E+02  0.43400729730E+02  0.00000000000E+00 0. -1.
         11    1    3    3    0    0 -0.48752130590E+01 -0.11711638253E+02  0.13506127844E+02  0.18529588839E+02  0.51100000000E-03 0. -1.
        -11    1    3    3    0    0 -0.72275080517E+00 -0.70755208373E+01  0.10487807701E+01  0.71892492800E+01  0.51100000000E-03 0.  1.
        -12    1    3    3    0    0 -0.18135870900E+02 -0.97188862243E+01  0.79780407933E+01  0.22068432152E+02  0.00000000000E+00 0.  1.
</event>
<event>
 7    1  0.2459936E-009  0.4778728E+02  0.7816164E-02  0.1312668E+00
        -11   -1    0    0    0    0  0.00000000000E+00  0.00000000000E+00  0.45593999997E+02  0.45594000000E+02  0.51100000000E-03 0. -1.
         11   -1    0    0    0    0 -0.00000000000E+00 -0.00000000000E+00 -0.45593999997E+02  0.45594000000E+02  0.51100000000E-03 0.  1.
    9900012    2    1    2    0    0 -0.13509559868E+02  0.33873377695E+02 -0.23531021173E+02  0.47787275562E+02  0.20000020596E+02 0.  0.
         12    1    1    2    0    0  0.13509559868E+02 -0.33873377695E+02  0.23531021173E+02  0.43400724438E+02  0.00000000000E+00 0. -1.
         11    1    3    3    0    0 -0.33099951226E+01  0.12175642500E+02  0.16982201984E+01  0.12731311405E+02  0.51100000000E-03 0. -1.
        -11    1    3    3    0    0 -0.18979481097E+01  0.22511249954E+01 -0.49444333823E+01  0.57547539048E+01  0.51100000000E-03 0.  1.
         12    1    3    3    0    0 -0.83016166359E+01  0.19446610200E+02 -0.20284807989E+02  0.29301210251E+02  0.00000000000E+00 0. -1.
</event>
<event>
 7    1  0.2459936E-009  0.4778727E+02  0.7816164E-02  0.1312668E+00
        -11   -1    0    0    0    0  0.00000000000E+00  0.00000000000E+00  0.45593999997E+02  0.45594000000E+02  0.51100000000E-03 0.  1.
         11   -1    0    0    0    0 -0.00000000000E+00 -0.00000000000E+00 -0.45593999997E+02  0.45594000000E+02  0.51100000000E-03 0. -1.
    9900012    2    1    2    0    0 -0.71655479016E+01 -0.42566373331E+02  0.45146123594E+01  0.47787274891E+02  0.20000017536E+02 0.  0.
         12    1    1    2    0    0  0.71655479016E+01  0.42566373331E+02 -0.45146123594E+01  0.43400725109E+02  0.00000000000E+00 0. -1.
         11    1    3    3    0    0 -0.28500660604E+01 -0.67483137931E+01  0.50851471338E+01  0.89174737023E+01  0.51100000000E-03 0. -1.
        -11    1    3    3    0    0  0.64702060716E+00 -0.31405168796E+01  0.44016110233E+01  0.54457012219E+01  0.51100000000E-03 0.  1.
         12    1    3    3    0    0 -0.49625024484E+01 -0.32677542658E+02 -0.49721457976E+01  0.33424099966E+02  0.00000000000E+00 0. -1.
</event>
<event>
 7    1  0.2459936E-009  0.4778728E+02  0.7816164E-02  0.1312668E+00
        -11   -1    0    0    0    0  0.00000000000E+00  0.00000000000E+00  0.45593999997E+02  0.45594000000E+02  0.51100000000E-03 0.  1.
         11   -1    0    0    0    0 -0.00000000000E+00 -0.00000000000E+00 -0.45593999997E+02  0.45594000000E+02  0.51100000000E-03 0. -1.
    9900012    2    1    2    0    0  0.83932862040E+01 -0.99431411179E+01  0.41404221412E+02  0.47787275820E+02  0.20000021774E+02 0.  0.
         12    1    1    2    0    0 -0.83932862040E+01  0.99431411179E+01 -0.41404221412E+02  0.43400724180E+02  0.00000000000E+00 0. -1.
         11    1    3    3    0    0 -0.28731461334E+01  0.43145853006E+01  0.91454639651E+01  0.10512379674E+02  0.51100000000E-03 0. -1.
        -11    1    3    3    0    0  0.37010589490E+01 -0.70199647129E+01  0.17101621831E+02  0.18853201623E+02  0.51100000000E-03 0.  1.
         12    1    3    3    0    0  0.75653733883E+01 -0.72377617056E+01  0.15157135616E+02  0.18421694523E+02  0.00000000000E+00 0. -1.
</event>
<event>
 7    1  0.2459936E-009  0.4778727E+02  0.7816164E-02  0.1312668E+00
        -11   -1    0    0    0    0  0.00000000000E+00  0.00000000000E+00  0.45593999997E+02  0.45594000000E+02  0.51100000000E-03 0. -1.
         11   -1    0    0    0    0 -0.00000000000E+00 -0.00000000000E+00 -0.45593999997E+02  0.45594000000E+02  0.51100000000E-03 0.  1.
    9900012    2    1    2    0    0 -0.30888342869E+02  0.29949965761E+02 -0.57037828359E+01  0.47787270595E+02  0.19999997950E+02 0.  0.
         12    1    1    2    0    0  0.30888342869E+02 -0.29949965761E+02  0.57037828359E+01  0.43400729405E+02  0.00000000000E+00 0. -1.
         11    1    3    3    0    0  0.14500331011E-02 -0.18807079312E+01 -0.42578461125E-01  0.18811904772E+01  0.51100000000E-03 0. -1.
        -11    1    3    3    0    0 -0.55642847641E+00 -0.47823737169E-01  0.12439797780E+01  0.13635929409E+01  0.51100000000E-03 0.  1.
        -12    1    3    3    0    0 -0.30333364426E+02  0.31878497429E+02 -0.69051841528E+01  0.44542487177E+02  0.00000000000E+00 0.  1.
</event>
<event>
 7    1  0.2459936E-009  0.4778724E+02  0.7816164E-02  0.1312668E+00
        -11   -1    0    0    0    0  0.00000000000E+00  0.00000000000E+00  0.45593999997E+02  0.45594000000E+02  0.51100000000E-03 0.  1.
         11   -1    0    0    0    0 -0.00000000000E+00 -0.00000000000E+00 -0.45593999997E+02  0.45594000000E+02  0.51100000000E-03 0. -1.
    9900012    2    1    2    0    0 -0.20445909091E+02  0.27382097148E+01  0.38184982064E+02  0.47787241410E+02  0.19999864882E+02 0.  0.
         12    1    1    2    0    0  0.20445909091E+02 -0.27382097148E+01 -0.38184982064E+02  0.43400758590E+02  0.00000000000E+00 0. -1.
         11    1    3    3    0    0 -0.12450946061E+02  0.70033007463E+00  0.85235084410E+01  0.15105188395E+02  0.51100000000E-03 0. -1.
        -11    1    3    3    0    0 -0.53566388710E+01 -0.21528646532E+01  0.53484575841E+01  0.78698414851E+01  0.51100000000E-03 0.  1.
        -12    1    3    3    0    0 -0.26383241589E+01  0.41907442935E+01  0.24313016039E+02  0.24812211530E+02  0.00000000000E+00 0.  1.
</event>
<event>
 7    1  0.2459936E-009  0.4778727E+02  0.7816164E-02  0.1312668E+00
        -11   -1    0    0    0    0  0.00000000000E+00  0.00000000000E+00  0.45593999997E+02  0.45594000000E+02  0.51100000000E-03 0.  1.
         11   -1    0    0    0    0 -0.00000000000E+00 -0.00000000000E+00 -0.45593999997E+02  0.45594000000E+02  0.51100000000E-03 0. -1.
    9900012    2    1    2    0    0  0.40597037173E+02 -0.14473184296E+02  0.51020414309E+01  0.47787270540E+02  0.19999997699E+02 0.  0.
         12    1    1    2    0    0 -0.40597037173E+02  0.14473184296E+02 -0.51020414309E+01  0.43400729460E+02  0.00000000000E+00 0. -1.
         11    1    3    3    0    0  0.16133274298E+01 -0.16435664566E+00 -0.14346364801E+01  0.21651837321E+01  0.51100000000E-03 0. -1.
        -11    1    3    3    0    0  0.33898525593E+02 -0.46624929633E+01  0.42537926522E+01  0.34481061907E+02  0.51100000000E-03 0.  1.
        -12    1    3    3    0    0  0.50851841502E+01 -0.96463346869E+01  0.22828852588E+01  0.11141024901E+02  0.00000000000E+00 0.  1.
</event>
<event>
 7    1  0.2459936E-009  0.4778727E+02  0.7816164E-02  0.1312668E+00
        -11   -1    0    0    0    0  0.00000000000E+00  0.00000000000E+00  0.45593999997E+02  0.45594000000E+02  0.51100000000E-03 0.  1.
         11   -1    0    0    0    0 -0.00000000000E+00 -0.00000000000E+00 -0.45593999997E+02  0.45594000000E+02  0.51100000000E-03 0. -1.
    9900012    2    1    2    0    0  0.16227463127E+02  0.17431626821E+02  0.36282662478E+02  0.47787265333E+02  0.19999973959E+02 0.  0.
         12    1    1    2    0    0 -0.16227463127E+02 -0.17431626821E+02 -0.36282662478E+02  0.43400734667E+02  0.00000000000E+00 0. -1.
         11    1    3    3    0    0 -0.68524385595E+00 -0.13188629407E-01 -0.17330569276E+00  0.70694285931E+00  0.51100000000E-03 0. -1.
        -11    1    3    3    0    0  0.12838846608E+02  0.12942517208E+02  0.11866295499E+02  0.21752096520E+02  0.51100000000E-03 0.  1.
        -12    1    3    3    0    0  0.40738603746E+01  0.45022982423E+01  0.24589672672E+02  0.25328225953E+02  0.00000000000E+00 0.  1.
</event>
<event>
 7    1  0.2459936E-009  0.4778726E+02  0.7816164E-02  0.1312668E+00
        -11   -1    0    0    0    0  0.00000000000E+00  0.00000000000E+00  0.45593999997E+02  0.45594000000E+02  0.51100000000E-03 0.  1.
         11   -1    0    0    0    0 -0.00000000000E+00 -0.00000000000E+00 -0.45593999997E+02  0.45594000000E+02  0.51100000000E-03 0. -1.
    9900012    2    1    2    0    0  0.50160796890E+01  0.28006504585E+02  0.32773443545E+02  0.47787263182E+02  0.19999964151E+02 0.  0.
         12    1    1    2    0    0 -0.50160796890E+01 -0.28006504585E+02 -0.32773443545E+02  0.43400736818E+02  0.00000000000E+00 0. -1.
         11    1    3    3    0    0  0.69960499943E+01  0.10943773786E+02  0.13175110334E+02  0.18501200847E+02  0.51100000000E-03 0. -1.
        -11    1    3    3    0    0 -0.88301488629E+00  0.16109717158E+02  0.21507787950E+02  0.26886569974E+02  0.51100000000E-03 0.  1.
        -12    1    3    3    0    0 -0.10969554189E+01  0.95301364172E+00 -0.19094547388E+01  0.23994923613E+01  0.00000000000E+00 0.  1.
</event>
<event>
 7    1  0.2459936E-009  0.4778724E+02  0.7816164E-02  0.1312668E+00
        -11   -1    0    0    0    0  0.00000000000E+00  0.00000000000E+00  0.45593999997E+02  0.45594000000E+02  0.51100000000E-03 0.  1.
         11   -1    0    0    0    0 -0.00000000000E+00 -0.00000000000E+00 -0.45593999997E+02  0.45594000000E+02  0.51100000000E-03 0. -1.
    9900012    2    1    2    0    0 -0.31131203486E+02  0.18156120894E+01  0.30185712822E+02  0.47787244980E+02  0.19999881160E+02 0.  0.
         12    1    1    2    0    0  0.31131203486E+02 -0.18156120894E+01 -0.30185712822E+02  0.43400755020E+02  0.00000000000E+00 0. -1.
         11    1    3    3    0    0 -0.67409993577E+01  0.38064453233E+01  0.38560161919E+01  0.86486391688E+01  0.51100000000E-03 0. -1.
        -11    1    3    3    0    0 -0.10135538073E+02  0.37079159824E+01  0.29834487884E+01  0.11197264840E+02  0.51100000000E-03 0.  1.
         12    1    3    3    0    0 -0.14254666056E+02 -0.56987492162E+01  0.23346247842E+02  0.27941340971E+02  0.00000000000E+00 0. -1.
</event>
<event>
 7    1  0.2459936E-009  0.4778727E+02  0.7816164E-02  0.1312668E+00
        -11   -1    0    0    0    0  0.00000000000E+00  0.00000000000E+00  0.45593999997E+02  0.45594000000E+02  0.51100000000E-03 0. -1.
         11   -1    0    0    0    0 -0.00000000000E+00 -0.00000000000E+00 -0.45593999997E+02  0.45594000000E+02  0.51100000000E-03 0.  1.
    9900012    2    1    2    0    0 -0.80090235444E+01  0.39979266974E+02  0.14870678244E+02  0.47787270544E+02  0.19999997716E+02 0.  0.
         12    1    1    2    0    0  0.80090235444E+01 -0.39979266974E+02 -0.14870678244E+02  0.43400729456E+02  0.00000000000E+00 0. -1.
         11    1    3    3    0    0 -0.48788521630E+01  0.67897850139E+01  0.57676120693E+01  0.10157250032E+02  0.51100000000E-03 0. -1.
        -11    1    3    3    0    0 -0.72774714908E+01  0.30913151333E+02  0.74675993509E+01  0.32624370599E+02  0.51100000000E-03 0.  1.
        -12    1    3    3    0    0  0.41473001094E+01  0.22763306274E+01  0.16354668236E+01  0.50056499133E+01  0.00000000000E+00 0.  1.
</event>
<event>
 7    1  0.2459936E-009  0.4778727E+02  0.7816164E-02  0.1312668E+00
        -11   -1    0    0    0    0  0.00000000000E+00  0.00000000000E+00  0.45593999997E+02  0.45594000000E+02  0.51100000000E-03 0. -1.
         11   -1    0    0    0    0 -0.00000000000E+00 -0.00000000000E+00 -0.45593999997E+02  0.45594000000E+02  0.51100000000E-03 0.  1.
    9900012    2    1    2    0    0  0.41888884294E+02 -0.84441689865E+01 -0.75921421712E+01  0.47787271435E+02  0.20000001779E+02 0.  0.
         12    1    1    2    0    0 -0.41888884294E+02  0.84441689865E+01  0.75921421712E+01  0.43400728565E+02  0.00000000000E+00 0. -1.
         11    1    3    3    0    0  0.28889420961E+02 -0.62483236358E+01 -0.58142705198E+01  0.30123843275E+02  0.51100000000E-03 0.  1.
        -11    1    3    3    0    0  0.80922359761E+01 -0.70715533427E+00 -0.67193121294E+01  0.10541987835E+02  0.51100000000E-03 0. -1.
         12    1    3    3    0    0  0.49072273568E+01 -0.14886900165E+01  0.49414404781E+01  0.71214403245E+01  0.00000000000E+00 0. -1.
</event>
<event>
 7    1  0.2459936E-009  0.4778727E+02  0.7816164E-02  0.1312668E+00
        -11   -1    0    0    0    0  0.00000000000E+00  0.00000000000E+00  0.45593999997E+02  0.45594000000E+02  0.51100000000E-03 0.  1.
         11   -1    0    0    0    0 -0.00000000000E+00 -0.00000000000E+00 -0.45593999997E+02  0.45594000000E+02  0.51100000000E-03 0. -1.
    9900012    2    1    2    0    0  0.17754408466E+02 -0.12414146662E+02  0.37607093920E+02  0.47787267628E+02  0.19999984423E+02 0.  0.
         12    1    1    2    0    0 -0.17754408466E+02  0.12414146662E+02 -0.37607093920E+02  0.43400732372E+02  0.00000000000E+00 0. -1.
         11    1    3    3    0    0  0.82846893421E+01 -0.59708533192E+01  0.60777817528E+01  0.11883879760E+02  0.51100000000E-03 0. -1.
        -11    1    3    3    0    0  0.12317618656E+02 -0.44728335502E+01  0.20388842972E+02  0.24237056078E+02  0.51100000000E-03 0.  1.
        -12    1    3    3    0    0 -0.28478995325E+01 -0.19704597929E+01  0.11140469195E+02  0.11666331790E+02  0.00000000000E+00 0.  1.
</event>
<event>
 7    1  0.2459936E-009  0.4778728E+02  0.7816164E-02  0.1312668E+00
        -11   -1    0    0    0    0  0.00000000000E+00  0.00000000000E+00  0.45593999997E+02  0.45594000000E+02  0.51100000000E-03 0. -1.
         11   -1    0    0    0    0 -0.00000000000E+00 -0.00000000000E+00 -0.45593999997E+02  0.45594000000E+02  0.51100000000E-03 0.  1.
    9900012    2    1    2    0    0 -0.12165947563E+02 -0.34288426438E+02 -0.23662537898E+02  0.47787283791E+02  0.20000058115E+02 0.  0.
         12    1    1    2    0    0  0.12165947563E+02  0.34288426438E+02  0.23662537898E+02  0.43400716209E+02  0.00000000000E+00 0. -1.
         11    1    3    3    0    0  0.29404354035E+01 -0.43846972447E+01 -0.13076019200E+01  0.54388926568E+01  0.51100000000E-03 0. -1.
        -11    1    3    3    0    0 -0.11763811555E+02 -0.29256475632E+02 -0.16533813245E+02  0.35604713303E+02  0.51100000000E-03 0.  1.
         12    1    3    3    0    0 -0.33425714119E+01 -0.64725356137E+00 -0.58211227328E+01  0.67436778309E+01  0.00000000000E+00 0. -1.
</event>
<event>
 7    1  0.2459936E-009  0.4778727E+02  0.7816164E-02  0.1312668E+00
        -11   -1    0    0    0    0  0.00000000000E+00  0.00000000000E+00  0.45593999997E+02  0.45594000000E+02  0.51100000000E-03 0.  1.
         11   -1    0    0    0    0 -0.00000000000E+00 -0.00000000000E+00 -0.45593999997E+02  0.45594000000E+02  0.51100000000E-03 0. -1.
    9900012    2    1    2    0    0 -0.25767180220E+02 -0.95160635032E+00  0.34910888520E+02  0.47787271108E+02  0.20000000289E+02 0.  0.
         12    1    1    2    0    0  0.25767180220E+02  0.95160635032E+00 -0.34910888520E+02  0.43400728892E+02  0.00000000000E+00 0. -1.
         11    1    3    3    0    0 -0.68798320265E+01 -0.14701537608E+00  0.73234356687E+01  0.10049199594E+02  0.51100000000E-03 0.  1.
        -11    1    3    3    0    0  0.83986410144E+00 -0.27019722651E+01  0.12538139439E+02  0.12853441822E+02  0.51100000000E-03 0. -1.
        -12    1    3    3    0    0 -0.19727212295E+02  0.18973812909E+01  0.15049313412E+02  0.24884629691E+02  0.00000000000E+00 0.  1.
</event>
<event>
 7    1  0.2459936E-009  0.4778725E+02  0.7816164E-02  0.1312668E+00
        -11   -1    0    0    0    0  0.00000000000E+00  0.00000000000E+00  0.45593999997E+02  0.45594000000E+02  0.51100000000E-03 0.  1.
         11   -1    0    0    0    0 -0.00000000000E+00 -0.00000000000E+00 -0.45593999997E+02  0.45594000000E+02  0.51100000000E-03 0. -1.
    9900012    2    1    2    0    0  0.11568977962E+02 -0.17368632834E+02  0.38054093576E+02  0.47787254667E+02  0.19999925329E+02 0.  0.
         12    1    1    2    0    0 -0.11568977962E+02  0.17368632834E+02 -0.38054093576E+02  0.43400745333E+02  0.00000000000E+00 0. -1.
         11    1    3    3    0    0  0.41877842017E+00 -0.29417322042E+01  0.10841370029E+02  0.11241195136E+02  0.51100000000E-03 0. -1.
        -11    1    3    3    0    0  0.13795386504E+02 -0.16118100111E+02  0.22978981074E+02  0.31275220406E+02  0.51100000000E-03 0.  1.
        -12    1    3    3    0    0 -0.26451869623E+01  0.16911994819E+01  0.42337424729E+01  0.52708391249E+01  0.00000000000E+00 0.  1.
</event>
<event>
 7    1  0.2459936E-009  0.4778726E+02  0.7816164E-02  0.1312668E+00
        -11   -1    0    0    0    0  0.00000000000E+00  0.00000000000E+00  0.45593999997E+02  0.45594000000E+02  0.51100000000E-03 0. -1.
         11   -1    0    0    0    0 -0.00000000000E+00 -0.00000000000E+00 -0.45593999997E+02  0.45594000000E+02  0.51100000000E-03 0.  1.
    9900012    2    1    2    0    0  0.11620628956E+02 -0.18268391933E+02 -0.37614503907E+02  0.47787261926E+02  0.19999958426E+02 0.  0.
         12    1    1    2    0    0 -0.11620628956E+02  0.18268391933E+02  0.37614503907E+02  0.43400738074E+02  0.00000000000E+00 0. -1.
         11    1    3    3    0    0  0.21796912407E+01 -0.34583674141E+01 -0.84302143534E+00  0.41739722660E+01  0.51100000000E-03 0. -1.
        -11    1    3    3    0    0  0.16827513674E+01 -0.15316898663E+02 -0.21195470489E+02  0.26204713437E+02  0.51100000000E-03 0.  1.
         12    1    3    3    0    0  0.77581863481E+01  0.50687414391E+00 -0.15576011983E+02  0.17408576223E+02  0.00000000000E+00 0. -1.
</event>
<event>
 7    1  0.2459936E-009  0.4778727E+02  0.7816164E-02  0.1312668E+00
        -11   -1    0    0    0    0  0.00000000000E+00  0.00000000000E+00  0.45593999997E+02  0.45594000000E+02  0.51100000000E-03 0.  1.
         11   -1    0    0    0    0 -0.00000000000E+00 -0.00000000000E+00 -0.45593999997E+02  0.45594000000E+02  0.51100000000E-03 0. -1.
    9900012    2    1    2    0    0 -0.39273667884E+02 -0.59156210806E+01  0.17498804759E+02  0.47787265791E+02  0.19999976049E+02 0.  0.
         12    1    1    2    0    0  0.39273667884E+02  0.59156210806E+01 -0.17498804759E+02  0.43400734209E+02  0.00000000000E+00 0. -1.
         11    1    3    3    0    0 -0.12512994300E+02 -0.53657080207E-01 -0.20601302313E+01  0.12681563085E+02  0.51100000000E-03 0. -1.
        -11    1    3    3    0    0 -0.61784736764E+01  0.19235088350E+01  0.15092351785E+01  0.66446380107E+01  0.51100000000E-03 0.  1.
        -12    1    3    3    0    0 -0.20582199908E+02 -0.77854728353E+01  0.18049699812E+02  0.28461064696E+02  0.00000000000E+00 0.  1.
</event>
<event>
 7    1  0.2459936E-009  0.4778727E+02  0.7816164E-02  0.1312668E+00
        -11   -1    0    0    0    0  0.00000000000E+00  0.00000000000E+00  0.45593999997E+02  0.45594000000E+02  0.51100000000E-03 0.  1.
         11   -1    0    0    0    0 -0.00000000000E+00 -0.00000000000E+00 -0.45593999997E+02  0.45594000000E+02  0.51100000000E-03 0. -1.
    9900012    2    1    2    0    0  0.38690867311E+02 -0.10829680850E+02  0.16412127224E+02  0.47787272811E+02  0.20000008052E+02 0.  0.
         12    1    1    2    0    0 -0.38690867311E+02  0.10829680850E+02 -0.16412127224E+02  0.43400727189E+02  0.00000000000E+00 0. -1.
         11    1    3    3    0    0  0.19619046184E+02 -0.56118211088E+00  0.12053627729E+02  0.23032842643E+02  0.51100000000E-03 0. -1.
        -11    1    3    3    0    0  0.55286541573E+01  0.12796612298E+01  0.40174079147E+01  0.69529214196E+01  0.51100000000E-03 0.  1.
         12    1    3    3    0    0  0.13543166970E+02 -0.11548159969E+02  0.34109157970E+00  0.17801508748E+02  0.00000000000E+00 0. -1.
</event>
<event>
 7    1  0.2459936E-009  0.4778727E+02  0.7816164E-02  0.1312668E+00
        -11   -1    0    0    0    0  0.00000000000E+00  0.00000000000E+00  0.45593999997E+02  0.45594000000E+02  0.51100000000E-03 0. -1.
         11   -1    0    0    0    0 -0.00000000000E+00 -0.00000000000E+00 -0.45593999997E+02  0.45594000000E+02  0.51100000000E-03 0.  1.
    9900012    2    1    2    0    0 -0.98157606443E+01  0.41152362992E+02  0.96828278409E+01  0.47787270838E+02  0.19999999058E+02 0.  0.
         12    1    1    2    0    0  0.98157606443E+01 -0.41152362992E+02 -0.96828278409E+01  0.43400729162E+02  0.00000000000E+00 0. -1.
         11    1    3    3    0    0 -0.39004973720E+01  0.49425024949E+01  0.13501514244E-01  0.62962205499E+01  0.51100000000E-03 0. -1.
        -11    1    3    3    0    0  0.57340738959E+01  0.14322141909E+02  0.21190095034E+01  0.15572204527E+02  0.51100000000E-03 0.  1.
        -12    1    3    3    0    0 -0.11649337168E+02  0.21887718588E+02  0.75503168233E+01  0.25918845761E+02  0.00000000000E+00 0.  1.
</event>
<event>
 7    1  0.2459936E-009  0.4778727E+02  0.7816164E-02  0.1312668E+00
        -11   -1    0    0    0    0  0.00000000000E+00  0.00000000000E+00  0.45593999997E+02  0.45594000000E+02  0.51100000000E-03 0.  1.
         11   -1    0    0    0    0 -0.00000000000E+00 -0.00000000000E+00 -0.45593999997E+02  0.45594000000E+02  0.51100000000E-03 0. -1.
    9900012    2    1    2    0    0 -0.26784931143E+02  0.26267255018E+02  0.21822517426E+02  0.47787268562E+02  0.19999988683E+02 0.  0.
         12    1    1    2    0    0  0.26784931143E+02 -0.26267255018E+02 -0.21822517426E+02  0.43400731438E+02  0.00000000000E+00 0. -1.
         11    1    3    3    0    0 -0.27484208888E+01  0.20567983374E+01  0.35615470054E+01  0.49466002583E+01  0.51100000000E-03 0. -1.
        -11    1    3    3    0    0 -0.48168711472E+00 -0.12308328766E+01  0.58776492010E+01  0.60244279760E+01  0.51100000000E-03 0.  1.
        -12    1    3    3    0    0 -0.23554823140E+02  0.25441289557E+02  0.12383321219E+02  0.36816240328E+02  0.00000000000E+00 0.  1.
</event>
<event>
 7    1  0.2459936E-009  0.4778727E+02  0.7816164E-02  0.1312668E+00
        -11   -1    0    0    0    0  0.00000000000E+00  0.00000000000E+00  0.45593999997E+02  0.45594000000E+02  0.51100000000E-03 0.  1.
         11   -1    0    0    0    0 -0.00000000000E+00 -0.00000000000E+00 -0.45593999997E+02  0.45594000000E+02  0.51100000000E-03 0. -1.
    9900012    2    1    2    0    0  0.47484055423E+01 -0.43129069844E+02 -0.97944663506E+00  0.47787270323E+02  0.19999996710E+02 0.  0.
         12    1    1    2    0    0 -0.47484055423E+01  0.43129069844E+02  0.97944663506E+00  0.43400729677E+02  0.00000000000E+00 0. -1.
         11    1    3    3    0    0  0.18097651800E+01 -0.10625923698E+01  0.38302346554E+01  0.43674993219E+01  0.51100000000E-03 0. -1.
        -11    1    3    3    0    0 -0.97973163138E-01  0.79354545350E-01  0.78576877303E+00  0.79581952122E+00  0.51100000000E-03 0.  1.
        -12    1    3    3    0    0  0.30366135255E+01 -0.42145832020E+02 -0.55954500635E+01  0.42623951480E+02  0.00000000000E+00 0.  1.
</event>
<event>
 7    1  0.2459936E-009  0.4778727E+02  0.7816164E-02  0.1312668E+00
        -11   -1    0    0    0    0  0.00000000000E+00  0.00000000000E+00  0.45593999997E+02  0.45594000000E+02  0.51100000000E-03 0. -1.
         11   -1    0    0    0    0 -0.00000000000E+00 -0.00000000000E+00 -0.45593999997E+02  0.45594000000E+02  0.51100000000E-03 0.  1.
    9900012    2    1    2    0    0 -0.37067577023E+02  0.16500185702E+02 -0.15406561530E+02  0.47787268062E+02  0.19999986402E+02 0.  0.
         12    1    1    2    0    0  0.37067577023E+02 -0.16500185702E+02  0.15406561530E+02  0.43400731938E+02  0.00000000000E+00 0. -1.
         11    1    3    3    0    0 -0.73334530313E+01 -0.32048707778E+01 -0.59660349785E+01  0.99821993413E+01  0.51100000000E-03 0. -1.
        -11    1    3    3    0    0 -0.68081544599E-01  0.20612681889E+01 -0.88472525970E+00  0.22441480988E+01  0.51100000000E-03 0.  1.
        -12    1    3    3    0    0 -0.29666042447E+02  0.17643788291E+02 -0.85558012923E+01  0.35560920622E+02  0.00000000000E+00 0.  1.
</event>
<event>
 7    1  0.2459936E-009  0.4778727E+02  0.7816164E-02  0.1312668E+00
        -11   -1    0    0    0    0  0.00000000000E+00  0.00000000000E+00  0.45593999997E+02  0.45594000000E+02  0.51100000000E-03 0. -1.
         11   -1    0    0    0    0 -0.00000000000E+00 -0.00000000000E+00 -0.45593999997E+02  0.45594000000E+02  0.51100000000E-03 0.  1.
    9900012    2    1    2    0    0 -0.12365800305E+02 -0.41570544137E+02 -0.16124394454E+01  0.47787272840E+02  0.20000008185E+02 0.  0.
         12    1    1    2    0    0  0.12365800305E+02  0.41570544137E+02  0.16124394454E+01  0.43400727160E+02  0.00000000000E+00 0. -1.
         11    1    3    3    0    0 -0.37089711633E+01 -0.29983159459E+00 -0.19855142563E+01  0.42176573117E+01  0.51100000000E-03 0. -1.
        -11    1    3    3    0    0 -0.82057522040E+01 -0.20097322819E+02 -0.36499530574E+01  0.22012698865E+02  0.51100000000E-03 0.  1.
         12    1    3    3    0    0 -0.45107693814E+00 -0.21173389723E+02  0.40230278683E+01  0.21556916663E+02  0.00000000000E+00 0. -1.
</event>
<event>
 7    1  0.2459936E-009  0.4778727E+02  0.7816164E-02  0.1312668E+00
        -11   -1    0    0    0    0  0.00000000000E+00  0.00000000000E+00  0.45593999997E+02  0.45594000000E+02  0.51100000000E-03 0.  1.
         11   -1    0    0    0    0 -0.00000000000E+00 -0.00000000000E+00 -0.45593999997E+02  0.45594000000E+02  0.51100000000E-03 0. -1.
    9900012    2    1    2    0    0 -0.29130667663E+02  0.22470654026E+02  0.23023836657E+02  0.47787272526E+02  0.20000006755E+02 0.  0.
         12    1    1    2    0    0  0.29130667663E+02 -0.22470654026E+02 -0.23023836657E+02  0.43400727474E+02  0.00000000000E+00 0. -1.
         11    1    3    3    0    0 -0.11703992242E+02  0.12425585220E+02  0.13879392457E+02  0.22000366763E+02  0.51100000000E-03 0. -1.
        -11    1    3    3    0    0 -0.19071438112E+02  0.10957762254E+02  0.93390952529E+01  0.23895836576E+02  0.51100000000E-03 0.  1.
         12    1    3    3    0    0  0.16447626909E+01 -0.91269344751E+00 -0.19465105248E+00  0.18910691872E+01  0.00000000000E+00 0. -1.
</event>
<event>
 7    1  0.2459936E-009  0.4778727E+02  0.7816164E-02  0.1312668E+00
        -11   -1    0    0    0    0  0.00000000000E+00  0.00000000000E+00  0.45593999997E+02  0.45594000000E+02  0.51100000000E-03 0.  1.
         11   -1    0    0    0    0 -0.00000000000E+00 -0.00000000000E+00 -0.45593999997E+02  0.45594000000E+02  0.51100000000E-03 0. -1.
    9900012    2    1    2    0    0 -0.13998880025E+02 -0.40707422626E+02  0.55281548351E+01  0.47787269652E+02  0.19999993653E+02 0.  0.
         12    1    1    2    0    0  0.13998880025E+02  0.40707422626E+02 -0.55281548351E+01  0.43400730348E+02  0.00000000000E+00 0. -1.
         11    1    3    3    0    0 -0.28709985446E+01 -0.12627825526E+01  0.50652856361E+01  0.59577152713E+01  0.51100000000E-03 0. -1.
        -11    1    3    3    0    0 -0.85817306768E+00 -0.43092141194E+01 -0.25841689202E+01  0.50974225457E+01  0.51100000000E-03 0.  1.
        -12    1    3    3    0    0 -0.10269708413E+02 -0.35135425954E+02  0.30470381193E+01  0.36732131835E+02  0.00000000000E+00 0.  1.
</event>
<event>
 7    1  0.2459936E-009  0.4778727E+02  0.7816164E-02  0.1312668E+00
        -11   -1    0    0    0    0  0.00000000000E+00  0.00000000000E+00  0.45593999997E+02  0.45594000000E+02  0.51100000000E-03 0.  1.
         11   -1    0    0    0    0 -0.00000000000E+00 -0.00000000000E+00 -0.45593999997E+02  0.45594000000E+02  0.51100000000E-03 0. -1.
    9900012    2    1    2    0    0 -0.16222226927E+02 -0.32536024211E+02  0.23703789192E+02  0.47787272587E+02  0.20000007031E+02 0.  0.
         12    1    1    2    0    0  0.16222226927E+02  0.32536024211E+02 -0.23703789192E+02  0.43400727413E+02  0.00000000000E+00 0. -1.
         11    1    3    3    0    0 -0.10820850892E+02 -0.15258630194E+02  0.19613692561E+02  0.27103755193E+02  0.51100000000E-03 0. -1.
        -11    1    3    3    0    0  0.10619995404E+01 -0.34631457446E-01  0.18499804688E+01  0.21334175302E+01  0.51100000000E-03 0.  1.
        -12    1    3    3    0    0 -0.64633755756E+01 -0.17242762559E+02  0.22401161621E+01  0.18550099863E+02  0.00000000000E+00 0.  1.
</event>
<event>
 7    1  0.2459936E-009  0.4778728E+02  0.7816164E-02  0.1312668E+00
        -11   -1    0    0    0    0  0.00000000000E+00  0.00000000000E+00  0.45593999997E+02  0.45594000000E+02  0.51100000000E-03 0. -1.
         11   -1    0    0    0    0 -0.00000000000E+00 -0.00000000000E+00 -0.45593999997E+02  0.45594000000E+02  0.51100000000E-03 0.  1.
    9900012    2    1    2    0    0 -0.15851534749E+02  0.27991772166E+02 -0.29134385786E+02  0.47787275375E+02  0.20000019744E+02 0.  0.
         12    1    1    2    0    0  0.15851534749E+02 -0.27991772166E+02  0.29134385786E+02  0.43400724625E+02  0.00000000000E+00 0. -1.
         11    1    3    3    0    0 -0.54450290006E+00 -0.29923882579E+01 -0.21632216596E+01  0.37323449873E+01  0.51100000000E-03 0. -1.
        -11    1    3    3    0    0 -0.73025029448E+01  0.11952872918E+02 -0.13127798397E+02  0.19197312605E+02  0.51100000000E-03 0.  1.
        -12    1    3    3    0    0 -0.80045289039E+01  0.19031287506E+02 -0.13843365730E+02  0.24857617783E+02  0.00000000000E+00 0.  1.
</event>
<event>
 7    1  0.2459936E-009  0.4778727E+02  0.7816164E-02  0.1312668E+00
        -11   -1    0    0    0    0  0.00000000000E+00  0.00000000000E+00  0.45593999997E+02  0.45594000000E+02  0.51100000000E-03 0.  1.
         11   -1    0    0    0    0 -0.00000000000E+00 -0.00000000000E+00 -0.45593999997E+02  0.45594000000E+02  0.51100000000E-03 0. -1.
    9900012    2    1    2    0    0 -0.46533575938E+01 -0.13109281136E+02  0.41111023555E+02  0.47787271360E+02  0.20000001437E+02 0.  0.
         12    1    1    2    0    0  0.46533575938E+01  0.13109281136E+02 -0.41111023555E+02  0.43400728640E+02  0.00000000000E+00 0. -1.
         11    1    3    3    0    0 -0.11351676782E+01 -0.94271874092E+00  0.29208568826E+01  0.32724195134E+01  0.51100000000E-03 0. -1.
        -11    1    3    3    0    0 -0.11273822997E+02 -0.64442605071E+01  0.18631525013E+02  0.22710378751E+02  0.51100000000E-03 0.  1.
         12    1    3    3    0    0  0.77556330816E+01 -0.57223018883E+01  0.19558641659E+02  0.21804473095E+02  0.00000000000E+00 0. -1.
</event>
<event>
 7    1  0.2459936E-009  0.4778727E+02  0.7816164E-02  0.1312668E+00
        -11   -1    0    0    0    0  0.00000000000E+00  0.00000000000E+00  0.45593999997E+02  0.45594000000E+02  0.51100000000E-03 0.  1.
         11   -1    0    0    0    0 -0.00000000000E+00 -0.00000000000E+00 -0.45593999997E+02  0.45594000000E+02  0.51100000000E-03 0. -1.
    9900012    2    1    2    0    0  0.34185295502E+02  0.63938639282E+01  0.25963580202E+02  0.47787269345E+02  0.19999992252E+02 0.  0.
         12    1    1    2    0    0 -0.34185295502E+02 -0.63938639282E+01 -0.25963580202E+02  0.43400730655E+02  0.00000000000E+00 0. -1.
         11    1    3    3    0    0  0.17628043358E+02 -0.21344085921E+01  0.72346521478E+01  0.19174039862E+02  0.51100000000E-03 0. -1.
        -11    1    3    3    0    0  0.16061066828E+02  0.55352725308E+01  0.10817137631E+02  0.20139701498E+02  0.51100000000E-03 0.  1.
         12    1    3    3    0    0  0.49618531500E+00  0.29929999895E+01  0.79117904232E+01  0.84735279845E+01  0.00000000000E+00 0. -1.
</event>
<event>
 7    1  0.2459936E-009  0.4778727E+02  0.7816164E-02  0.1312668E+00
        -11   -1    0    0    0    0  0.00000000000E+00  0.00000000000E+00  0.45593999997E+02  0.45594000000E+02  0.51100000000E-03 0. -1.
         11   -1    0    0    0    0 -0.00000000000E+00 -0.00000000000E+00 -0.45593999997E+02  0.45594000000E+02  0.51100000000E-03 0.  1.
    9900012    2    1    2    0    0 -0.43094552308E+02  0.49638620722E+01  0.13574537486E+01  0.47787273670E+02  0.20000011971E+02 0.  0.
         12    1    1    2    0    0  0.43094552308E+02 -0.49638620722E+01 -0.13574537486E+01  0.43400726330E+02  0.00000000000E+00 0. -1.
         11    1    3    3    0    0 -0.58393453955E+01 -0.22011813800E+01 -0.86902218003E+00  0.63006629751E+01  0.51100000000E-03 0. -1.
        -11    1    3    3    0    0 -0.34642081415E+02  0.11294326447E+02  0.29083022702E+01  0.36552617375E+02  0.51100000000E-03 0.  1.
         12    1    3    3    0    0 -0.26131254979E+01 -0.41292829946E+01 -0.68182634153E+00  0.49339933196E+01  0.00000000000E+00 0. -1.
</event>
<event>
 7    1  0.2459936E-009  0.4778728E+02  0.7816164E-02  0.1312668E+00
        -11   -1    0    0    0    0  0.00000000000E+00  0.00000000000E+00  0.45593999997E+02  0.45594000000E+02  0.51100000000E-03 0.  1.
         11   -1    0    0    0    0 -0.00000000000E+00 -0.00000000000E+00 -0.45593999997E+02  0.45594000000E+02  0.51100000000E-03 0. -1.
    9900012    2    1    2    0    0 -0.18675226888E+02 -0.22110601524E+02  0.32341615937E+02  0.47787275116E+02  0.20000018564E+02 0.  0.
         12    1    1    2    0    0  0.18675226888E+02  0.22110601524E+02 -0.32341615937E+02  0.43400724884E+02  0.00000000000E+00 0. -1.
         11    1    3    3    0    0 -0.59517479792E+01  0.13514734454E+01  0.11093243082E+02  0.12661351698E+02  0.51100000000E-03 0. -1.
        -11    1    3    3    0    0 -0.51947087713E+01 -0.43138348769E+01  0.87488777087E+01  0.11051562423E+02  0.51100000000E-03 0.  1.
        -12    1    3    3    0    0 -0.75287701378E+01 -0.19148240092E+02  0.12499495146E+02  0.24074360995E+02  0.00000000000E+00 0.  1.
</event>
<event>
 7    1  0.2459936E-009  0.4778727E+02  0.7816164E-02  0.1312668E+00
        -11   -1    0    0    0    0  0.00000000000E+00  0.00000000000E+00  0.45593999997E+02  0.45594000000E+02  0.51100000000E-03 0.  1.
         11   -1    0    0    0    0 -0.00000000000E+00 -0.00000000000E+00 -0.45593999997E+02  0.45594000000E+02  0.51100000000E-03 0. -1.
    9900012    2    1    2    0    0 -0.37007422796E+02  0.18509197084E+02  0.13095173685E+02  0.47787270829E+02  0.19999999020E+02 0.  0.
         12    1    1    2    0    0  0.37007422796E+02 -0.18509197084E+02 -0.13095173685E+02  0.43400729171E+02  0.00000000000E+00 0. -1.
         11    1    3    3    0    0 -0.14689039586E+02  0.76764568347E+01  0.18314695803E+01  0.16674835968E+02  0.51100000000E-03 0. -1.
        -11    1    3    3    0    0 -0.10622051500E+02  0.12992671028E+02  0.88622619726E+01  0.18978334122E+02  0.51100000000E-03 0.  1.
         12    1    3    3    0    0 -0.11696331710E+02 -0.21599307782E+01  0.24014421319E+01  0.12134100740E+02  0.00000000000E+00 0. -1.
</event>
<event>
 7    1  0.2459936E-009  0.4778727E+02  0.7816164E-02  0.1312668E+00
        -11   -1    0    0    0    0  0.00000000000E+00  0.00000000000E+00  0.45593999997E+02  0.45594000000E+02  0.51100000000E-03 0. -1.
         11   -1    0    0    0    0 -0.00000000000E+00 -0.00000000000E+00 -0.45593999997E+02  0.45594000000E+02  0.51100000000E-03 0.  1.
    9900012    2    1    2    0    0 -0.16568855172E+02  0.77491265441E+01 -0.39357941971E+02  0.47787268208E+02  0.19999987068E+02 0.  0.
         12    1    1    2    0    0  0.16568855172E+02 -0.77491265441E+01  0.39357941971E+02  0.43400731792E+02  0.00000000000E+00 0. -1.
         11    1    3    3    0    0 -0.14249217820E+01  0.33126499947E+01 -0.10507573843E+02  0.11109147600E+02  0.51100000000E-03 0. -1.
        -11    1    3    3    0    0 -0.14313089834E+02  0.97171991601E+01 -0.22272299273E+02  0.28201840636E+02  0.51100000000E-03 0.  1.
         12    1    3    3    0    0 -0.83084355671E+00 -0.52807226107E+01 -0.65780688546E+01  0.84762799719E+01  0.00000000000E+00 0. -1.
</event>
<event>
 7    1  0.2459936E-009  0.4778727E+02  0.7816164E-02  0.1312668E+00
        -11   -1    0    0    0    0  0.00000000000E+00  0.00000000000E+00  0.45593999997E+02  0.45594000000E+02  0.51100000000E-03 0.  1.
         11   -1    0    0    0    0 -0.00000000000E+00 -0.00000000000E+00 -0.45593999997E+02  0.45594000000E+02  0.51100000000E-03 0. -1.
    9900012    2    1    2    0    0  0.56335833266E+01  0.16540629649E+02  0.39727745536E+02  0.47787268950E+02  0.19999990449E+02 0.  0.
         12    1    1    2    0    0 -0.56335833266E+01 -0.16540629649E+02 -0.39727745536E+02  0.43400731050E+02  0.00000000000E+00 0. -1.
         11    1    3    3    0    0  0.20805498871E+01  0.86425594303E+01  0.85674001774E+01  0.12345965633E+02  0.51100000000E-03 0. -1.
        -11    1    3    3    0    0  0.77583018340E+01  0.11451712917E+01  0.92251849076E+01  0.12108125432E+02  0.51100000000E-03 0.  1.
         12    1    3    3    0    0 -0.42052683945E+01  0.67528989273E+01  0.21935160452E+02  0.23333177885E+02  0.00000000000E+00 0. -1.
</event>
<event>
 7    1  0.2459936E-009  0.4778727E+02  0.7816164E-02  0.1312668E+00
        -11   -1    0    0    0    0  0.00000000000E+00  0.00000000000E+00  0.45593999997E+02  0.45594000000E+02  0.51100000000E-03 0. -1.
         11   -1    0    0    0    0 -0.00000000000E+00 -0.00000000000E+00 -0.45593999997E+02  0.45594000000E+02  0.51100000000E-03 0.  1.
    9900012    2    1    2    0    0 -0.18138873198E+02 -0.18506833316E+02 -0.34815253947E+02  0.47787268352E+02  0.19999987722E+02 0.  0.
         12    1    1    2    0    0  0.18138873198E+02  0.18506833316E+02  0.34815253947E+02  0.43400731648E+02  0.00000000000E+00 0. -1.
         11    1    3    3    0    0  0.13101193833E+01  0.89954633770E-01  0.10643545998E+01  0.16903714414E+01  0.51100000000E-03 0. -1.
        -11    1    3    3    0    0 -0.66850924163E+01 -0.15429831276E+01 -0.46270408379E+01  0.82753105515E+01  0.51100000000E-03 0.  1.
        -12    1    3    3    0    0 -0.12763900165E+02 -0.17053804822E+02 -0.31252567708E+02  0.37821586359E+02  0.00000000000E+00 0.  1.
</event>
<event>
 7    1  0.2459936E-009  0.4778729E+02  0.7816164E-02  0.1312668E+00
        -11   -1    0    0    0    0  0.00000000000E+00  0.00000000000E+00  0.45593999997E+02  0.45594000000E+02  0.51100000000E-03 0. -1.
         11   -1    0    0    0    0 -0.00000000000E+00 -0.00000000000E+00 -0.45593999997E+02  0.45594000000E+02  0.51100000000E-03 0.  1.
    9900012    2    1    2    0    0  0.38320269929E+02 -0.96877654568E+01 -0.17925554478E+02  0.47787292744E+02  0.20000098938E+02 0.  0.
         12    1    1    2    0    0 -0.38320269929E+02  0.96877654568E+01  0.17925554478E+02  0.43400707256E+02  0.00000000000E+00 0. -1.
         11    1    3    3    0    0  0.12930811685E+02 -0.50613616819E+01 -0.13107978882E+02  0.19095611631E+02  0.51100000000E-03 0. -1.
        -11    1    3    3    0    0  0.21305072423E+02 -0.51102666837E+01 -0.81724811296E+01  0.23383977091E+02  0.51100000000E-03 0.  1.
         12    1    3    3    0    0  0.40843858211E+01  0.48386290881E+00  0.33549055342E+01  0.53077040228E+01  0.00000000000E+00 0. -1.
</event>
<event>
 7    1  0.2459936E-009  0.4778727E+02  0.7816164E-02  0.1312668E+00
        -11   -1    0    0    0    0  0.00000000000E+00  0.00000000000E+00  0.45593999997E+02  0.45594000000E+02  0.51100000000E-03 0. -1.
         11   -1    0    0    0    0 -0.00000000000E+00 -0.00000000000E+00 -0.45593999997E+02  0.45594000000E+02  0.51100000000E-03 0.  1.
    9900012    2    1    2    0    0  0.39513276206E+02  0.17952173998E+02  0.20897995817E+00  0.47787271660E+02  0.20000002808E+02 0.  0.
         12    1    1    2    0    0 -0.39513276206E+02 -0.17952173998E+02 -0.20897995817E+00  0.43400728340E+02  0.00000000000E+00 0. -1.
         11    1    3    3    0    0  0.14576368432E+02  0.13199843498E+02 -0.32249296564E+01  0.19927532627E+02  0.51100000000E-03 0. -1.
        -11    1    3    3    0    0  0.51821468792E+01  0.42693999199E+01 -0.25972571872E+01  0.71991782247E+01  0.51100000000E-03 0.  1.
        -12    1    3    3    0    0  0.19754760895E+02  0.48293058045E+00  0.60311668018E+01  0.20660560809E+02  0.00000000000E+00 0.  1.
</event>
<event>
 7    1  0.2459936E-009  0.4778727E+02  0.7816164E-02  0.1312668E+00
        -11   -1    0    0    0    0  0.00000000000E+00  0.00000000000E+00  0.45593999997E+02  0.45594000000E+02  0.51100000000E-03 0.  1.
         11   -1    0    0    0    0 -0.00000000000E+00 -0.00000000000E+00 -0.45593999997E+02  0.45594000000E+02  0.51100000000E-03 0. -1.
    9900012    2    1    2    0    0 -0.11673231022E+02  0.22984024633E+02  0.34915518957E+02  0.47787272185E+02  0.20000005201E+02 0.  0.
         12    1    1    2    0    0  0.11673231022E+02 -0.22984024633E+02 -0.34915518957E+02  0.43400727815E+02  0.00000000000E+00 0. -1.
         11    1    3    3    0    0 -0.57861306316E+01  0.28487789871E+01  0.61103891489E+01  0.88843517048E+01  0.51100000000E-03 0. -1.
        -11    1    3    3    0    0 -0.56799480602E+01  0.59064717601E+01  0.21284801299E+02  0.22807695745E+02  0.51100000000E-03 0.  1.
         12    1    3    3    0    0 -0.20715233020E+00  0.14228773886E+02  0.75203285093E+01  0.16095224735E+02  0.00000000000E+00 0. -1.
</event>
<event>
 7    1  0.2459936E-009  0.4778727E+02  0.7816164E-02  0.1312668E+00
        -11   -1    0    0    0    0  0.00000000000E+00  0.00000000000E+00  0.45593999997E+02  0.45594000000E+02  0.51100000000E-03 0. -1.
         11   -1    0    0    0    0 -0.00000000000E+00 -0.00000000000E+00 -0.45593999997E+02  0.45594000000E+02  0.51100000000E-03 0.  1.
    9900012    2    1    2    0    0 -0.28115468901E+02  0.79398697221E+01 -0.32095206603E+02  0.47787269481E+02  0.19999992872E+02 0.  0.
         12    1    1    2    0    0  0.28115468901E+02 -0.79398697221E+01  0.32095206603E+02  0.43400730519E+02  0.00000000000E+00 0. -1.
         11    1    3    3    0    0  0.18696104885E+01  0.31438548312E-01 -0.21270542685E+01  0.28321002601E+01  0.51100000000E-03 0. -1.
        -11    1    3    3    0    0 -0.11417344822E+02  0.13330363457E+01 -0.19532631063E+02  0.22663989613E+02  0.51100000000E-03 0.  1.
        -12    1    3    3    0    0 -0.18567734568E+02  0.65753948281E+01 -0.10435521271E+02  0.22291179608E+02  0.00000000000E+00 0.  1.
</event>
<event>
 7    1  0.2459936E-009  0.4778727E+02  0.7816164E-02  0.1312668E+00
        -11   -1    0    0    0    0  0.00000000000E+00  0.00000000000E+00  0.45593999997E+02  0.45594000000E+02  0.51100000000E-03 0. -1.
         11   -1    0    0    0    0 -0.00000000000E+00 -0.00000000000E+00 -0.45593999997E+02  0.45594000000E+02  0.51100000000E-03 0.  1.
    9900012    2    1    2    0    0  0.12023930873E+02  0.41146649777E+02  0.67824433547E+01  0.47787271442E+02  0.20000001812E+02 0.  0.
         12    1    1    2    0    0 -0.12023930873E+02 -0.41146649777E+02 -0.67824433547E+01  0.43400728558E+02  0.00000000000E+00 0. -1.
         11    1    3    3    0    0 -0.38697863026E+01  0.77122306098E+01 -0.17870574817E+01  0.88117717690E+01  0.51100000000E-03 0. -1.
        -11    1    3    3    0    0  0.44249299875E+01  0.27521150281E+01  0.46243283078E+00  0.52314421440E+01  0.51100000000E-03 0.  1.
        -12    1    3    3    0    0  0.11468787188E+02  0.30682304139E+02  0.81070680056E+01  0.33744057529E+02  0.00000000000E+00 0.  1.
</event>
<event>
 7    1  0.2459936E-009  0.4778727E+02  0.7816164E-02  0.1312668E+00
        -11   -1    0    0    0    0  0.00000000000E+00  0.00000000000E+00  0.45593999997E+02  0.45594000000E+02  0.51100000000E-03 0. -1.
         11   -1    0    0    0    0 -0.00000000000E+00 -0.00000000000E+00 -0.45593999997E+02  0.45594000000E+02  0.51100000000E-03 0.  1.
    9900012    2    1    2    0    0 -0.41857008322E+02  0.33441504909E+01 -0.10974099190E+02  0.47787270269E+02  0.19999996464E+02 0.  0.
         12    1    1    2    0    0  0.41857008322E+02 -0.33441504909E+01  0.10974099190E+02  0.43400729731E+02  0.00000000000E+00 0. -1.
         11    1    3    3    0    0 -0.15059340954E+02  0.74333271641E+00  0.27488910321E+01  0.15326209435E+02  0.51100000000E-03 0. -1.
        -11    1    3    3    0    0 -0.56925172278E+01  0.39722826384E+01  0.52269153034E+00  0.69611054040E+01  0.51100000000E-03 0.  1.
        -12    1    3    3    0    0 -0.21105150141E+02 -0.13714648639E+01 -0.14245681752E+02  0.25499955430E+02  0.00000000000E+00 0.  1.
</event>
<event>
 7    1  0.2459936E-009  0.4778727E+02  0.7816164E-02  0.1312668E+00
        -11   -1    0    0    0    0  0.00000000000E+00  0.00000000000E+00  0.45593999997E+02  0.45594000000E+02  0.51100000000E-03 0. -1.
         11   -1    0    0    0    0 -0.00000000000E+00 -0.00000000000E+00 -0.45593999997E+02  0.45594000000E+02  0.51100000000E-03 0.  1.
    9900012    2    1    2    0    0  0.31073867409E+02  0.62762527232E+01 -0.29641972385E+02  0.47787272923E+02  0.20000008563E+02 0.  0.
         12    1    1    2    0    0 -0.31073867409E+02 -0.62762527232E+01  0.29641972385E+02  0.43400727077E+02  0.00000000000E+00 0. -1.
         11    1    3    3    0    0  0.56673518240E+01  0.13903348347E+01 -0.38684024564E+01  0.70011745783E+01  0.51100000000E-03 0. -1.
        -11    1    3    3    0    0  0.15807708961E+02  0.86610441350E+01 -0.24466301883E+02  0.30389097982E+02  0.51100000000E-03 0.  1.
         12    1    3    3    0    0  0.95988066243E+01 -0.37751262465E+01 -0.13072680455E+01  0.10397000362E+02  0.00000000000E+00 0. -1.
</event>
<event>
 7    1  0.2459936E-009  0.4778727E+02  0.7816164E-02  0.1312668E+00
        -11   -1    0    0    0    0  0.00000000000E+00  0.00000000000E+00  0.45593999997E+02  0.45594000000E+02  0.51100000000E-03 0.  1.
         11   -1    0    0    0    0 -0.00000000000E+00 -0.00000000000E+00 -0.45593999997E+02  0.45594000000E+02  0.51100000000E-03 0. -1.
    9900012    2    1    2    0    0 -0.23607101755E+02  0.31423811270E+02  0.18408469977E+02  0.47787274950E+02  0.20000017805E+02 0.  0.
         12    1    1    2    0    0  0.23607101755E+02 -0.31423811270E+02 -0.18408469977E+02  0.43400725050E+02  0.00000000000E+00 0. -1.
         11    1    3    3    0    0 -0.12500926295E+01  0.90340595871E+01  0.16750013414E+01  0.92726799772E+01  0.51100000000E-03 0. -1.
        -11    1    3    3    0    0 -0.53214191510E+01  0.12890003836E+02  0.20387713125E+01  0.14093483934E+02  0.51100000000E-03 0.  1.
         12    1    3    3    0    0 -0.17035589974E+02  0.94997478472E+01  0.14694697324E+02  0.24421111038E+02  0.00000000000E+00 0. -1.
</event>
<event>
 7    1  0.2459936E-009  0.4778727E+02  0.7816164E-02  0.1312668E+00
        -11   -1    0    0    0    0  0.00000000000E+00  0.00000000000E+00  0.45593999997E+02  0.45594000000E+02  0.51100000000E-03 0. -1.
         11   -1    0    0    0    0 -0.00000000000E+00 -0.00000000000E+00 -0.45593999997E+02  0.45594000000E+02  0.51100000000E-03 0.  1.
    9900012    2    1    2    0    0  0.20568814303E+02 -0.32330402792E+02 -0.20378716544E+02  0.47787272419E+02  0.20000006269E+02 0.  0.
         12    1    1    2    0    0 -0.20568814303E+02  0.32330402792E+02  0.20378716544E+02  0.43400727581E+02  0.00000000000E+00 0. -1.
         11    1    3    3    0    0  0.10812763428E+02 -0.17647662900E+02 -0.30453607378E+01  0.20919609965E+02  0.51100000000E-03 0. -1.
        -11    1    3    3    0    0  0.78993129214E+01 -0.10864252461E+02 -0.58995229504E+01  0.14670906498E+02  0.51100000000E-03 0.  1.
        -12    1    3    3    0    0  0.18567379534E+01 -0.38184874307E+01 -0.11433832856E+02  0.12196755956E+02  0.00000000000E+00 0.  1.
</event>
<event>
 7    1  0.2459936E-009  0.4778727E+02  0.7816164E-02  0.1312668E+00
        -11   -1    0    0    0    0  0.00000000000E+00  0.00000000000E+00  0.45593999997E+02  0.45594000000E+02  0.51100000000E-03 0.  1.
         11   -1    0    0    0    0 -0.00000000000E+00 -0.00000000000E+00 -0.45593999997E+02  0.45594000000E+02  0.51100000000E-03 0. -1.
    9900012    2    1    2    0    0 -0.14119580730E-01  0.32869808835E+02  0.28340757548E+02  0.47787273386E+02  0.20000010678E+02 0.  0.
         12    1    1    2    0    0  0.14119580730E-01 -0.32869808835E+02 -0.28340757548E+02  0.43400726614E+02  0.00000000000E+00 0. -1.
         11    1    3    3    0    0  0.34124974789E+01  0.64454154590E+01  0.16938338336E+02  0.18441687160E+02  0.51100000000E-03 0. -1.
        -11    1    3    3    0    0 -0.17901623720E+01  0.82836546123E+01  0.58709674512E+01  0.10309795058E+02  0.51100000000E-03 0.  1.
         12    1    3    3    0    0 -0.16364546877E+01  0.18140738763E+02  0.55314517610E+01  0.19035791169E+02  0.00000000000E+00 0. -1.
</event>
<event>
 7    1  0.2459936E-009  0.4778727E+02  0.7816164E-02  0.1312668E+00
        -11   -1    0    0    0    0  0.00000000000E+00  0.00000000000E+00  0.45593999997E+02  0.45594000000E+02  0.51100000000E-03 0. -1.
         11   -1    0    0    0    0 -0.00000000000E+00 -0.00000000000E+00 -0.45593999997E+02  0.45594000000E+02  0.51100000000E-03 0.  1.
    9900012    2    1    2    0    0  0.32430504028E+02 -0.60194840222E+01 -0.28207296180E+02  0.47787270315E+02  0.19999996676E+02 0.  0.
         12    1    1    2    0    0 -0.32430504028E+02  0.60194840222E+01  0.28207296180E+02  0.43400729685E+02  0.00000000000E+00 0. -1.
         11    1    3    3    0    0  0.13351617130E+02  0.75083298534E+00 -0.16500497510E+02  0.21239017127E+02  0.51100000000E-03 0. -1.
        -11    1    3    3    0    0  0.78997876363E+01  0.26252516142E+01 -0.78555863620E+01  0.11445908793E+02  0.51100000000E-03 0.  1.
         12    1    3    3    0    0  0.11179099261E+02 -0.93955686218E+01 -0.38512123074E+01  0.15102344396E+02  0.00000000000E+00 0. -1.
</event>
<event>
 7    1  0.2459936E-009  0.4778727E+02  0.7816164E-02  0.1312668E+00
        -11   -1    0    0    0    0  0.00000000000E+00  0.00000000000E+00  0.45593999997E+02  0.45594000000E+02  0.51100000000E-03 0.  1.
         11   -1    0    0    0    0 -0.00000000000E+00 -0.00000000000E+00 -0.45593999997E+02  0.45594000000E+02  0.51100000000E-03 0. -1.
    9900012    2    1    2    0    0 -0.28951616265E+02  0.25797169526E+02  0.19491879002E+02  0.47787269742E+02  0.19999994062E+02 0.  0.
         12    1    1    2    0    0  0.28951616265E+02 -0.25797169526E+02 -0.19491879002E+02  0.43400730258E+02  0.00000000000E+00 0. -1.
         11    1    3    3    0    0 -0.20639151818E+01 -0.96968715688E+00 -0.86377584381E+00  0.24384724787E+01  0.51100000000E-03 0. -1.
        -11    1    3    3    0    0 -0.11728129320E+02  0.28271788366E+01  0.44825190912E+01  0.12869923667E+02  0.51100000000E-03 0.  1.
         12    1    3    3    0    0 -0.15159571762E+02  0.23939677846E+02  0.15873135755E+02  0.32478873596E+02  0.00000000000E+00 0. -1.
</event>
<event>
 7    1  0.2459936E-009  0.4778726E+02  0.7816164E-02  0.1312668E+00
        -11   -1    0    0    0    0  0.00000000000E+00  0.00000000000E+00  0.45593999997E+02  0.45594000000E+02  0.51100000000E-03 0.  1.
         11   -1    0    0    0    0 -0.00000000000E+00 -0.00000000000E+00 -0.45593999997E+02  0.45594000000E+02  0.51100000000E-03 0. -1.
    9900012    2    1    2    0    0 -0.25663906622E+02 -0.92860030987E+01  0.33745487596E+02  0.47787263949E+02  0.19999967648E+02 0.  0.
         12    1    1    2    0    0  0.25663906622E+02  0.92860030987E+01 -0.33745487596E+02  0.43400736051E+02  0.00000000000E+00 0. -1.
         11    1    3    3    0    0 -0.24446064454E+01 -0.63217129985E+01  0.77994060741E+01  0.10333000110E+02  0.51100000000E-03 0. -1.
        -11    1    3    3    0    0 -0.88573763544E-01  0.11698518156E+01 -0.11128389575E+01  0.16170372255E+01  0.51100000000E-03 0.  1.
        -12    1    3    3    0    0 -0.23130726413E+02 -0.41341419158E+01  0.27058920480E+02  0.35837226613E+02  0.00000000000E+00 0.  1.
</event>
<event>
 7    1  0.2459936E-009  0.4778727E+02  0.7816164E-02  0.1312668E+00
        -11   -1    0    0    0    0  0.00000000000E+00  0.00000000000E+00  0.45593999997E+02  0.45594000000E+02  0.51100000000E-03 0.  1.
         11   -1    0    0    0    0 -0.00000000000E+00 -0.00000000000E+00 -0.45593999997E+02  0.45594000000E+02  0.51100000000E-03 0. -1.
    9900012    2    1    2    0    0 -0.36817446057E+02  0.20556439531E+02  0.10272857714E+02  0.47787272518E+02  0.20000006717E+02 0.  0.
         12    1    1    2    0    0  0.36817446057E+02 -0.20556439531E+02 -0.10272857714E+02  0.43400727482E+02  0.00000000000E+00 0. -1.
         11    1    3    3    0    0 -0.22792639724E+01  0.91542532277E+00 -0.10325166193E+01  0.26644208766E+01  0.51100000000E-03 0. -1.
        -11    1    3    3    0    0 -0.13046123988E+02  0.17854789591E+02  0.60382382865E+01  0.22922809259E+02  0.51100000000E-03 0.  1.
        -12    1    3    3    0    0 -0.21492058097E+02  0.17862246173E+01  0.52671360468E+01  0.22200042382E+02  0.00000000000E+00 0.  1.
</event>
<event>
 7    1  0.2459936E-009  0.4778727E+02  0.7816164E-02  0.1312668E+00
        -11   -1    0    0    0    0  0.00000000000E+00  0.00000000000E+00  0.45593999997E+02  0.45594000000E+02  0.51100000000E-03 0.  1.
         11   -1    0    0    0    0 -0.00000000000E+00 -0.00000000000E+00 -0.45593999997E+02  0.45594000000E+02  0.51100000000E-03 0. -1.
    9900012    2    1    2    0    0 -0.42895798788E+02 -0.55122807472E+01  0.36315951332E+01  0.47787271021E+02  0.19999999892E+02 0.  0.
         12    1    1    2    0    0  0.42895798788E+02  0.55122807472E+01 -0.36315951332E+01  0.43400728979E+02  0.00000000000E+00 0. -1.
         11    1    3    3    0    0 -0.10195261277E+02 -0.19138056185E+01 -0.39252550802E+01  0.11091151074E+02  0.51100000000E-03 0. -1.
        -11    1    3    3    0    0 -0.23466992391E+02 -0.88129093621E+01  0.33591428201E+01  0.25291321516E+02  0.51100000000E-03 0.  1.
        -12    1    3    3    0    0 -0.92335451203E+01  0.52144342335E+01  0.41977073933E+01  0.11404798430E+02  0.00000000000E+00 0.  1.
</event>
<event>
 7    1  0.2459936E-009  0.4778727E+02  0.7816164E-02  0.1312668E+00
        -11   -1    0    0    0    0  0.00000000000E+00  0.00000000000E+00  0.45593999997E+02  0.45594000000E+02  0.51100000000E-03 0.  1.
         11   -1    0    0    0    0 -0.00000000000E+00 -0.00000000000E+00 -0.45593999997E+02  0.45594000000E+02  0.51100000000E-03 0. -1.
    9900012    2    1    2    0    0  0.12901657535E+02 -0.40951125600E+02 -0.63384620024E+01  0.47787267799E+02  0.19999985202E+02 0.  0.
         12    1    1    2    0    0 -0.12901657535E+02  0.40951125600E+02  0.63384620024E+01  0.43400732201E+02  0.00000000000E+00 0. -1.
         11    1    3    3    0    0  0.41533172924E+00  0.46533333383E+00 -0.18230775265E+01  0.19268231589E+01  0.51100000000E-03 0. -1.
        -11    1    3    3    0    0  0.11331812282E+02 -0.18033760145E+02  0.24401939175E+01  0.21437840870E+02  0.51100000000E-03 0.  1.
        -12    1    3    3    0    0  0.11545135240E+01 -0.23382698789E+02 -0.69555783934E+01  0.24422603770E+02  0.00000000000E+00 0.  1.
</event>
<event>
 7    1  0.2459936E-009  0.4778727E+02  0.7816164E-02  0.1312668E+00
        -11   -1    0    0    0    0  0.00000000000E+00  0.00000000000E+00  0.45593999997E+02  0.45594000000E+02  0.51100000000E-03 0.  1.
         11   -1    0    0    0    0 -0.00000000000E+00 -0.00000000000E+00 -0.45593999997E+02  0.45594000000E+02  0.51100000000E-03 0. -1.
    9900012    2    1    2    0    0  0.30200004660E+02  0.19648023834E+02  0.24197896111E+02  0.47787270763E+02  0.19999998717E+02 0.  0.
         12    1    1    2    0    0 -0.30200004660E+02 -0.19648023834E+02 -0.24197896111E+02  0.43400729237E+02  0.00000000000E+00 0. -1.
         11    1    3    3    0    0  0.21357671319E+01 -0.15864867398E+00  0.60875056380E+01  0.64532469190E+01  0.51100000000E-03 0. -1.
        -11    1    3    3    0    0  0.10505331754E+02  0.59545005927E+01  0.14182026266E+02  0.18626538644E+02  0.51100000000E-03 0.  1.
        -12    1    3    3    0    0  0.17558905775E+02  0.13852171916E+02  0.39283642072E+01  0.22707485200E+02  0.00000000000E+00 0.  1.
</event>
<event>
 7    1  0.2459936E-009  0.4778727E+02  0.7816164E-02  0.1312668E+00
        -11   -1    0    0    0    0  0.00000000000E+00  0.00000000000E+00  0.45593999997E+02  0.45594000000E+02  0.51100000000E-03 0.  1.
         11   -1    0    0    0    0 -0.00000000000E+00 -0.00000000000E+00 -0.45593999997E+02  0.45594000000E+02  0.51100000000E-03 0. -1.
    9900012    2    1    2    0    0  0.42152163039E+02  0.84161125365E+01  0.59989570127E+01  0.47787270923E+02  0.19999999449E+02 0.  0.
         12    1    1    2    0    0 -0.42152163039E+02 -0.84161125365E+01 -0.59989570127E+01  0.43400729077E+02  0.00000000000E+00 0. -1.
         11    1    3    3    0    0  0.15822394859E+02 -0.17702844482E+01 -0.36239912317E+01  0.16328361792E+02  0.51100000000E-03 0. -1.
        -11    1    3    3    0    0  0.21381525331E+02  0.50103421374E+01  0.39271066817E+01  0.22309086063E+02  0.51100000000E-03 0.  1.
         12    1    3    3    0    0  0.49482428498E+01  0.51760548473E+01  0.56958415628E+01  0.91498230689E+01  0.00000000000E+00 0. -1.
</event>
<event>
 7    1  0.2459936E-009  0.4778727E+02  0.7816164E-02  0.1312668E+00
        -11   -1    0    0    0    0  0.00000000000E+00  0.00000000000E+00  0.45593999997E+02  0.45594000000E+02  0.51100000000E-03 0.  1.
         11   -1    0    0    0    0 -0.00000000000E+00 -0.00000000000E+00 -0.45593999997E+02  0.45594000000E+02  0.51100000000E-03 0. -1.
    9900012    2    1    2    0    0  0.37665622503E+02 -0.49485229161E+01  0.20986575375E+02  0.47787270241E+02  0.19999996339E+02 0.  0.
         12    1    1    2    0    0 -0.37665622503E+02  0.49485229161E+01 -0.20986575375E+02  0.43400729759E+02  0.00000000000E+00 0. -1.
         11    1    3    3    0    0  0.12717855510E+01  0.11845469334E+00  0.55336437597E+01  0.56791446119E+01  0.51100000000E-03 0. -1.
        -11    1    3    3    0    0  0.17224491642E+02 -0.70409131955E+01  0.12960985982E+02  0.22676964719E+02  0.51100000000E-03 0.  1.
        -12    1    3    3    0    0  0.19169345310E+02  0.19739355861E+01  0.24919456333E+01  0.19431160911E+02  0.00000000000E+00 0.  1.
</event>
<event>
 7    1  0.2459936E-009  0.4778727E+02  0.7816164E-02  0.1312668E+00
        -11   -1    0    0    0    0  0.00000000000E+00  0.00000000000E+00  0.45593999997E+02  0.45594000000E+02  0.51100000000E-03 0.  1.
         11   -1    0    0    0    0 -0.00000000000E+00 -0.00000000000E+00 -0.45593999997E+02  0.45594000000E+02  0.51100000000E-03 0. -1.
    9900012    2    1    2    0    0 -0.56858634758E+01  0.42585590415E+02  0.61450711509E+01  0.47787268971E+02  0.19999990544E+02 0.  0.
         12    1    1    2    0    0  0.56858634758E+01 -0.42585590415E+02 -0.61450711509E+01  0.43400731029E+02  0.00000000000E+00 0. -1.
         11    1    3    3    0    0 -0.70432791176E+01  0.84187118132E+01  0.21512599512E+01  0.11185276436E+02  0.51100000000E-03 0. -1.
        -11    1    3    3    0    0 -0.53053213974E+01  0.10071876227E+02  0.11604325072E+01  0.11442715138E+02  0.51100000000E-03 0.  1.
         12    1    3    3    0    0  0.66627370392E+01  0.24095002375E+02  0.28333786926E+01  0.25159277396E+02  0.00000000000E+00 0. -1.
</event>
<event>
 7    1  0.2459936E-009  0.4778726E+02  0.7816164E-02  0.1312668E+00
        -11   -1    0    0    0    0  0.00000000000E+00  0.00000000000E+00  0.45593999997E+02  0.45594000000E+02  0.51100000000E-03 0.  1.
         11   -1    0    0    0    0 -0.00000000000E+00 -0.00000000000E+00 -0.45593999997E+02  0.45594000000E+02  0.51100000000E-03 0. -1.
    9900012    2    1    2    0    0  0.38298252860E+01  0.40762523263E+02  0.14400473168E+02  0.47787257012E+02  0.19999936019E+02 0.  0.
         12    1    1    2    0    0 -0.38298252860E+01 -0.40762523263E+02 -0.14400473168E+02  0.43400742988E+02  0.00000000000E+00 0. -1.
         11    1    3    3    0    0  0.69394695001E+01  0.92553790012E+01 -0.76540384304E+00  0.11593279118E+02  0.51100000000E-03 0. -1.
        -11    1    3    3    0    0 -0.60334095229E+00  0.18660883683E+02  0.42434972729E+01  0.19146797891E+02  0.51100000000E-03 0.  1.
        -12    1    3    3    0    0 -0.25063032618E+01  0.12846260579E+02  0.10922379738E+02  0.17047180003E+02  0.00000000000E+00 0.  1.
</event>
<event>
 7    1  0.2459936E-009  0.4778726E+02  0.7816164E-02  0.1312668E+00
        -11   -1    0    0    0    0  0.00000000000E+00  0.00000000000E+00  0.45593999997E+02  0.45594000000E+02  0.51100000000E-03 0.  1.
         11   -1    0    0    0    0 -0.00000000000E+00 -0.00000000000E+00 -0.45593999997E+02  0.45594000000E+02  0.51100000000E-03 0. -1.
    9900012    2    1    2    0    0 -0.17522977043E+02 -0.34829785943E+02  0.19064503952E+02  0.47787262400E+02  0.19999960584E+02 0.  0.
         12    1    1    2    0    0  0.17522977043E+02  0.34829785943E+02 -0.19064503952E+02  0.43400737600E+02  0.00000000000E+00 0. -1.
         11    1    3    3    0    0 -0.43839521699E+01 -0.12637586416E+01  0.30739590940E+01  0.55013950326E+01  0.51100000000E-03 0. -1.
        -11    1    3    3    0    0 -0.16334211348E+02 -0.25741354771E+02  0.14268692151E+02  0.33660353263E+02  0.51100000000E-03 0.  1.
        -12    1    3    3    0    0  0.31951864743E+01 -0.78246725308E+01  0.17218527070E+01  0.86255141043E+01  0.00000000000E+00 0.  1.
</event>
<event>
 7    1  0.2459936E-009  0.4778726E+02  0.7816164E-02  0.1312668E+00
        -11   -1    0    0    0    0  0.00000000000E+00  0.00000000000E+00  0.45593999997E+02  0.45594000000E+02  0.51100000000E-03 0.  1.
         11   -1    0    0    0    0 -0.00000000000E+00 -0.00000000000E+00 -0.45593999997E+02  0.45594000000E+02  0.51100000000E-03 0. -1.
    9900012    2    1    2    0    0  0.39763755479E+02 -0.76986390582E+01  0.15594848571E+02  0.47787255823E+02  0.19999930599E+02 0.  0.
         12    1    1    2    0    0 -0.39763755479E+02  0.76986390582E+01 -0.15594848571E+02  0.43400744177E+02  0.00000000000E+00 0. -1.
         11    1    3    3    0    0  0.15930216525E+02 -0.10181631429E+02  0.34809903487E+01  0.19223805845E+02  0.51100000000E-03 0. -1.
        -11    1    3    3    0    0  0.41509789668E+01 -0.30911296595E+01  0.96055217542E+00  0.52638740199E+01  0.51100000000E-03 0.  1.
        -12    1    3    3    0    0  0.19682559987E+02  0.55741220300E+01  0.11153306047E+02  0.23299575958E+02  0.00000000000E+00 0.  1.
</event>
<event>
 7    1  0.2459936E-009  0.4778727E+02  0.7816164E-02  0.1312668E+00
        -11   -1    0    0    0    0  0.00000000000E+00  0.00000000000E+00  0.45593999997E+02  0.45594000000E+02  0.51100000000E-03 0. -1.
         11   -1    0    0    0    0 -0.00000000000E+00 -0.00000000000E+00 -0.45593999997E+02  0.45594000000E+02  0.51100000000E-03 0.  1.
    9900012    2    1    2    0    0 -0.14562305611E+02 -0.40855417589E+02  0.15484516407E+01  0.47787267361E+02  0.19999983207E+02 0.  0.
         12    1    1    2    0    0  0.14562305611E+02  0.40855417589E+02 -0.15484516407E+01  0.43400732639E+02  0.00000000000E+00 0. -1.
         11    1    3    3    0    0  0.18040785712E+01 -0.12325888430E+02 -0.21428771587E+00  0.12459058735E+02  0.51100000000E-03 0. -1.
        -11    1    3    3    0    0 -0.75900034997E+01 -0.23832171609E+02  0.33946781799E+01  0.25240927022E+02  0.51100000000E-03 0.  1.
         12    1    3    3    0    0 -0.87763806828E+01 -0.46973575504E+01 -0.16319388234E+01  0.10087281604E+02  0.00000000000E+00 0. -1.
</event>
<event>
 7    1  0.2459936E-009  0.4778727E+02  0.7816164E-02  0.1312668E+00
        -11   -1    0    0    0    0  0.00000000000E+00  0.00000000000E+00  0.45593999997E+02  0.45594000000E+02  0.51100000000E-03 0.  1.
         11   -1    0    0    0    0 -0.00000000000E+00 -0.00000000000E+00 -0.45593999997E+02  0.45594000000E+02  0.51100000000E-03 0. -1.
    9900012    2    1    2    0    0 -0.38385979314E+02 -0.41251994844E+01  0.19827321152E+02  0.47787270251E+02  0.19999996381E+02 0.  0.
         12    1    1    2    0    0  0.38385979314E+02  0.41251994844E+01 -0.19827321152E+02  0.43400729749E+02  0.00000000000E+00 0. -1.
         11    1    3    3    0    0 -0.36582858871E+01 -0.27887690196E+01  0.52845603390E+01  0.70062020036E+01  0.51100000000E-03 0.  1.
        -11    1    3    3    0    0 -0.19744139942E+02 -0.42435555518E+01  0.15545319061E+02  0.25485206900E+02  0.51100000000E-03 0. -1.
         12    1    3    3    0    0 -0.14983553485E+02  0.29071250869E+01 -0.10025582479E+01  0.15295861347E+02  0.00000000000E+00 0. -1.
</event>
<event>
 7    1  0.2459936E-009  0.4778727E+02  0.7816164E-02  0.1312668E+00
        -11   -1    0    0    0    0  0.00000000000E+00  0.00000000000E+00  0.45593999997E+02  0.45594000000E+02  0.51100000000E-03 0. -1.
         11   -1    0    0    0    0 -0.00000000000E+00 -0.00000000000E+00 -0.45593999997E+02  0.45594000000E+02  0.51100000000E-03 0.  1.
    9900012    2    1    2    0    0 -0.25386056804E+02 -0.94832636565E+01 -0.33900430000E+02  0.47787270469E+02  0.19999997376E+02 0.  0.
         12    1    1    2    0    0  0.25386056804E+02  0.94832636565E+01  0.33900430000E+02  0.43400729531E+02  0.00000000000E+00 0. -1.
         11    1    3    3    0    0 -0.57035377608E+01 -0.98556261650E+01 -0.10630035730E+02  0.15577591918E+02  0.51100000000E-03 0. -1.
        -11    1    3    3    0    0 -0.55840100937E+01 -0.41083793758E+01 -0.43182501991E+01  0.81674497161E+01  0.51100000000E-03 0.  1.
        -12    1    3    3    0    0 -0.14098508950E+02  0.44807418843E+01 -0.18952144071E+02  0.24042228835E+02  0.00000000000E+00 0.  1.
</event>
<event>
 7    1  0.2459936E-009  0.4778727E+02  0.7816164E-02  0.1312668E+00
        -11   -1    0    0    0    0  0.00000000000E+00  0.00000000000E+00  0.45593999997E+02  0.45594000000E+02  0.51100000000E-03 0. -1.
         11   -1    0    0    0    0 -0.00000000000E+00 -0.00000000000E+00 -0.45593999997E+02  0.45594000000E+02  0.51100000000E-03 0.  1.
    9900012    2    1    2    0    0  0.35265949444E+02  0.15795275000E+01 -0.25247598555E+02  0.47787270397E+02  0.19999997046E+02 0.  0.
         12    1    1    2    0    0 -0.35265949444E+02 -0.15795275000E+01  0.25247598555E+02  0.43400729603E+02  0.00000000000E+00 0. -1.
         11    1    3    3    0    0 -0.14019971018E+01  0.77613282327E+00 -0.22589036666E+01  0.27695891516E+01  0.51100000000E-03 0. -1.
        -11    1    3    3    0    0  0.34538642435E+02  0.37674674589E+01 -0.22353185761E+02  0.41313152219E+02  0.51100000000E-03 0.  1.
         12    1    3    3    0    0  0.21293041107E+01 -0.29640727822E+01 -0.63550912717E+00  0.37045290261E+01  0.00000000000E+00 0. -1.
</event>
<event>
 7    1  0.2459936E-009  0.4778727E+02  0.7816164E-02  0.1312668E+00
        -11   -1    0    0    0    0  0.00000000000E+00  0.00000000000E+00  0.45593999997E+02  0.45594000000E+02  0.51100000000E-03 0. -1.
         11   -1    0    0    0    0 -0.00000000000E+00 -0.00000000000E+00 -0.45593999997E+02  0.45594000000E+02  0.51100000000E-03 0.  1.
    9900012    2    1    2    0    0 -0.27399404199E+02  0.24683681631E+02 -0.22882567523E+02  0.47787269755E+02  0.19999994121E+02 0.  0.
         12    1    1    2    0    0  0.27399404199E+02 -0.24683681631E+02  0.22882567523E+02  0.43400730245E+02  0.00000000000E+00 0. -1.
         11    1    3    3    0    0 -0.14656866731E+02  0.12201865097E+02 -0.25841928149E+01  0.19245448994E+02  0.51100000000E-03 0. -1.
        -11    1    3    3    0    0 -0.56447091082E+01  0.97286152177E+01 -0.70877928874E+01  0.13294566681E+02  0.51100000000E-03 0.  1.
        -12    1    3    3    0    0 -0.70978283604E+01  0.27532013164E+01 -0.13210581821E+02  0.15247254080E+02  0.00000000000E+00 0.  1.
</event>
<event>
 7    1  0.2459936E-009  0.4778727E+02  0.7816164E-02  0.1312668E+00
        -11   -1    0    0    0    0  0.00000000000E+00  0.00000000000E+00  0.45593999997E+02  0.45594000000E+02  0.51100000000E-03 0.  1.
         11   -1    0    0    0    0 -0.00000000000E+00 -0.00000000000E+00 -0.45593999997E+02  0.45594000000E+02  0.51100000000E-03 0. -1.
    9900012    2    1    2    0    0 -0.15356395890E+01 -0.28484574799E+02  0.32709238191E+02  0.47787268976E+02  0.19999990567E+02 0.  0.
         12    1    1    2    0    0  0.15356395890E+01  0.28484574799E+02 -0.32709238191E+02  0.43400731024E+02  0.00000000000E+00 0. -1.
         11    1    3    3    0    0  0.43087844238E+01 -0.23512865711E+01  0.17936532764E+01  0.52260275628E+01  0.51100000000E-03 0. -1.
        -11    1    3    3    0    0  0.22666605901E+01 -0.15936087308E+02  0.19033189720E+02  0.24927072433E+02  0.51100000000E-03 0.  1.
         12    1    3    3    0    0 -0.81110846029E+01 -0.10197200920E+02  0.11882395195E+02  0.17634168979E+02  0.00000000000E+00 0. -1.
</event>
<event>
 7    1  0.2459936E-009  0.4778727E+02  0.7816164E-02  0.1312668E+00
        -11   -1    0    0    0    0  0.00000000000E+00  0.00000000000E+00  0.45593999997E+02  0.45594000000E+02  0.51100000000E-03 0.  1.
         11   -1    0    0    0    0 -0.00000000000E+00 -0.00000000000E+00 -0.45593999997E+02  0.45594000000E+02  0.51100000000E-03 0. -1.
    9900012    2    1    2    0    0 -0.21478340945E+02 -0.99101819744E+01  0.36388082932E+02  0.47787269407E+02  0.19999992536E+02 0.  0.
         12    1    1    2    0    0  0.21478340945E+02  0.99101819744E+01 -0.36388082932E+02  0.43400730593E+02  0.00000000000E+00 0. -1.
         11    1    3    3    0    0 -0.11383909782E+02  0.14783625861E+01  0.15365330256E+02  0.19179998228E+02  0.51100000000E-03 0. -1.
        -11    1    3    3    0    0 -0.56851642081E+01  0.10676445142E+01  0.92507659044E+01  0.10910436607E+02  0.51100000000E-03 0.  1.
        -12    1    3    3    0    0 -0.44092669547E+01 -0.12456189075E+02  0.11771986771E+02  0.17696834572E+02  0.00000000000E+00 0.  1.
</event>
<event>
 7    1  0.2459936E-009  0.4778727E+02  0.7816164E-02  0.1312668E+00
        -11   -1    0    0    0    0  0.00000000000E+00  0.00000000000E+00  0.45593999997E+02  0.45594000000E+02  0.51100000000E-03 0.  1.
         11   -1    0    0    0    0 -0.00000000000E+00 -0.00000000000E+00 -0.45593999997E+02  0.45594000000E+02  0.51100000000E-03 0. -1.
    9900012    2    1    2    0    0 -0.16241382916E+02 -0.22172680501E+02  0.33588884638E+02  0.47787269006E+02  0.19999990705E+02 0.  0.
         12    1    1    2    0    0  0.16241382916E+02  0.22172680501E+02 -0.33588884638E+02  0.43400730994E+02  0.00000000000E+00 0. -1.
         11    1    3    3    0    0 -0.36796519023E+01 -0.63870983626E+01  0.33011892766E+01  0.80766771953E+01  0.51100000000E-03 0. -1.
        -11    1    3    3    0    0  0.30288733509E+01 -0.73428653101E+01  0.98762343352E+01  0.12674058136E+02  0.51100000000E-03 0.  1.
         12    1    3    3    0    0 -0.15590604365E+02 -0.84427168280E+01  0.20411461026E+02  0.27036533674E+02  0.00000000000E+00 0. -1.
</event>
<event>
 7    1  0.2459936E-009  0.4778728E+02  0.7816164E-02  0.1312668E+00
        -11   -1    0    0    0    0  0.00000000000E+00  0.00000000000E+00  0.45593999997E+02  0.45594000000E+02  0.51100000000E-03 0.  1.
         11   -1    0    0    0    0 -0.00000000000E+00 -0.00000000000E+00 -0.45593999997E+02  0.45594000000E+02  0.51100000000E-03 0. -1.
    9900012    2    1    2    0    0  0.18700260436E+02 -0.32255992571E+02  0.22214277656E+02  0.47787275018E+02  0.20000018119E+02 0.  0.
         12    1    1    2    0    0 -0.18700260436E+02  0.32255992571E+02 -0.22214277656E+02  0.43400724982E+02  0.00000000000E+00 0. -1.
         11    1    3    3    0    0  0.13382996382E+02 -0.10102391255E+02  0.61669138631E+01  0.17865993622E+02  0.51100000000E-03 0. -1.
        -11    1    3    3    0    0  0.86806619747E+01 -0.15373305446E+02  0.11898522150E+02  0.21290073797E+02  0.51100000000E-03 0.  1.
         12    1    3    3    0    0 -0.33633979204E+01 -0.67802958698E+01  0.41488416432E+01  0.86312076000E+01  0.00000000000E+00 0. -1.
</event>
<event>
 7    1  0.2459936E-009  0.4778727E+02  0.7816164E-02  0.1312668E+00
        -11   -1    0    0    0    0  0.00000000000E+00  0.00000000000E+00  0.45593999997E+02  0.45594000000E+02  0.51100000000E-03 0.  1.
         11   -1    0    0    0    0 -0.00000000000E+00 -0.00000000000E+00 -0.45593999997E+02  0.45594000000E+02  0.51100000000E-03 0. -1.
    9900012    2    1    2    0    0 -0.15344683627E+02 -0.22715491394E+02  0.33647747789E+02  0.47787265028E+02  0.19999972567E+02 0.  0.
         12    1    1    2    0    0  0.15344683627E+02  0.22715491394E+02 -0.33647747789E+02  0.43400734972E+02  0.00000000000E+00 0. -1.
         11    1    3    3    0    0 -0.10561902989E+02 -0.32761051218E+01  0.85939957846E+01  0.14005121325E+02  0.51100000000E-03 0. -1.
        -11    1    3    3    0    0 -0.22542763350E+01  0.22150415658E-02  0.41020722456E+00  0.22912959061E+01  0.51100000000E-03 0.  1.
        -12    1    3    3    0    0 -0.25285043032E+01 -0.19441601314E+02  0.24643544780E+02  0.31490847797E+02  0.00000000000E+00 0.  1.
</event>
<event>
 7    1  0.2459936E-009  0.4778727E+02  0.7816164E-02  0.1312668E+00
        -11   -1    0    0    0    0  0.00000000000E+00  0.00000000000E+00  0.45593999997E+02  0.45594000000E+02  0.51100000000E-03 0. -1.
         11   -1    0    0    0    0 -0.00000000000E+00 -0.00000000000E+00 -0.45593999997E+02  0.45594000000E+02  0.51100000000E-03 0.  1.
    9900012    2    1    2    0    0 -0.31845461986E+02  0.27690554058E+02 -0.10135228940E+02  0.47787273062E+02  0.20000009198E+02 0.  0.
         12    1    1    2    0    0  0.31845461986E+02 -0.27690554058E+02  0.10135228940E+02  0.43400726938E+02  0.00000000000E+00 0. -1.
         11    1    3    3    0    0 -0.38726531054E+01  0.65009195491E+01  0.30585237165E+01  0.81617378446E+01  0.51100000000E-03 0. -1.
        -11    1    3    3    0    0 -0.54773149744E+01  0.86403867582E+01 -0.88001319416E+01  0.13494427928E+02  0.51100000000E-03 0.  1.
        -12    1    3    3    0    0 -0.22495493906E+02  0.12549247750E+02 -0.43936207145E+01  0.26131107289E+02  0.00000000000E+00 0.  1.
</event>
<event>
 7    1  0.2459936E-009  0.4778727E+02  0.7816164E-02  0.1312668E+00
        -11   -1    0    0    0    0  0.00000000000E+00  0.00000000000E+00  0.45593999997E+02  0.45594000000E+02  0.51100000000E-03 0.  1.
         11   -1    0    0    0    0 -0.00000000000E+00 -0.00000000000E+00 -0.45593999997E+02  0.45594000000E+02  0.51100000000E-03 0. -1.
    9900012    2    1    2    0    0 -0.92631520031E+01 -0.29959791200E+02  0.30003808685E+02  0.47787267179E+02  0.19999982376E+02 0.  0.
         12    1    1    2    0    0  0.92631520031E+01  0.29959791200E+02 -0.30003808685E+02  0.43400732821E+02  0.00000000000E+00 0. -1.
         11    1    3    3    0    0 -0.37493897214E+01 -0.10331587056E+02  0.63191164464E+01  0.12677967002E+02  0.51100000000E-03 0. -1.
        -11    1    3    3    0    0 -0.37005454367E+01 -0.97186447233E+01  0.11967321265E+01  0.10467963500E+02  0.51100000000E-03 0.  1.
        -12    1    3    3    0    0 -0.18132168450E+01 -0.99095594212E+01  0.22487960112E+02  0.24641336678E+02  0.00000000000E+00 0.  1.
</event>
<event>
 7    1  0.2459936E-009  0.4778727E+02  0.7816164E-02  0.1312668E+00
        -11   -1    0    0    0    0  0.00000000000E+00  0.00000000000E+00  0.45593999997E+02  0.45594000000E+02  0.51100000000E-03 0. -1.
         11   -1    0    0    0    0 -0.00000000000E+00 -0.00000000000E+00 -0.45593999997E+02  0.45594000000E+02  0.51100000000E-03 0.  1.
    9900012    2    1    2    0    0 -0.24312249229E+00  0.43398698277E+02  0.34244170697E+00  0.47787269741E+02  0.19999994057E+02 0.  0.
         12    1    1    2    0    0  0.24312249229E+00 -0.43398698277E+02 -0.34244170697E+00  0.43400730259E+02  0.00000000000E+00 0. -1.
         11    1    3    3    0    0  0.31844334673E+01  0.10936060536E+02  0.79653299477E+01  0.13899083351E+02  0.51100000000E-03 0. -1.
        -11    1    3    3    0    0  0.10187902065E+01  0.73276495630E+01 -0.28061848362E+01  0.79124620188E+01  0.51100000000E-03 0.  1.
         12    1    3    3    0    0 -0.44463461661E+01  0.25134988178E+02 -0.48167034046E+01  0.25975724371E+02  0.00000000000E+00 0. -1.
</event>
<event>
 7    1  0.2459936E-009  0.4778733E+02  0.7816164E-02  0.1312667E+00
        -11   -1    0    0    0    0  0.00000000000E+00  0.00000000000E+00  0.45593999997E+02  0.45594000000E+02  0.51100000000E-03 0.  1.
         11   -1    0    0    0    0 -0.00000000000E+00 -0.00000000000E+00 -0.45593999997E+02  0.45594000000E+02  0.51100000000E-03 0. -1.
    9900012    2    1    2    0    0  0.40674511216E+02 -0.15056847101E+02 -0.15790261559E+01  0.47787333751E+02  0.20000285901E+02 0.  0.
         12    1    1    2    0    0 -0.40674511216E+02  0.15056847101E+02  0.15790261559E+01  0.43400666249E+02  0.00000000000E+00 0. -1.
         11    1    3    3    0    0  0.34718105831E+01 -0.93117847419E+00  0.31700323697E+01  0.47926681047E+01  0.51100000000E-03 0. -1.
        -11    1    3    3    0    0  0.17903937713E+02 -0.96259968823E+01  0.49653732412E+01  0.20925241535E+02  0.51100000000E-03 0.  1.
         12    1    3    3    0    0  0.19298762920E+02 -0.44996717441E+01 -0.97144317668E+01  0.22069424111E+02  0.00000000000E+00 0. -1.
</event>
<event>
 7    1  0.2459936E-009  0.4778727E+02  0.7816164E-02  0.1312668E+00
        -11   -1    0    0    0    0  0.00000000000E+00  0.00000000000E+00  0.45593999997E+02  0.45594000000E+02  0.51100000000E-03 0.  1.
         11   -1    0    0    0    0 -0.00000000000E+00 -0.00000000000E+00 -0.45593999997E+02  0.45594000000E+02  0.51100000000E-03 0. -1.
    9900012    2    1    2    0    0  0.49282521830E+01  0.71607759096E+01  0.42521276957E+02  0.47787269876E+02  0.19999994672E+02 0.  0.
         12    1    1    2    0    0 -0.49282521830E+01 -0.71607759096E+01 -0.42521276957E+02  0.43400730124E+02  0.00000000000E+00 0. -1.
         11    1    3    3    0    0  0.17180101605E+01  0.51231080929E+00 -0.46884824045E+00  0.18530623871E+01  0.51100000000E-03 0.  1.
        -11    1    3    3    0    0  0.19943330611E+00  0.96453823222E+00 -0.10425462908E+01  0.14342282505E+01  0.51100000000E-03 0. -1.
        -12    1    3    3    0    0  0.30108087164E+01  0.56839268680E+01  0.44032671489E+02  0.44499979238E+02  0.00000000000E+00 0.  1.
</event>
<event>
 7    1  0.2459936E-009  0.4778727E+02  0.7816164E-02  0.1312668E+00
        -11   -1    0    0    0    0  0.00000000000E+00  0.00000000000E+00  0.45593999997E+02  0.45594000000E+02  0.51100000000E-03 0.  1.
         11   -1    0    0    0    0 -0.00000000000E+00 -0.00000000000E+00 -0.45593999997E+02  0.45594000000E+02  0.51100000000E-03 0. -1.
    9900012    2    1    2    0    0 -0.12054581334E+02 -0.13268284143E+02  0.39525471054E+02  0.47787272388E+02  0.20000006126E+02 0.  0.
         12    1    1    2    0    0  0.12054581334E+02  0.13268284143E+02 -0.39525471054E+02  0.43400727612E+02  0.00000000000E+00 0. -1.
         11    1    3    3    0    0  0.16570839376E-01 -0.80891548373E+00  0.37240915786E+00  0.89067822165E+00  0.51100000000E-03 0. -1.
        -11    1    3    3    0    0 -0.16645262495E+02 -0.73775896397E+01  0.33042988922E+02  0.37727081912E+02  0.51100000000E-03 0.  1.
        -12    1    3    3    0    0  0.45741103218E+01 -0.50817790195E+01  0.61100729737E+01  0.91695122544E+01  0.00000000000E+00 0.  1.
</event>
<event>
 7    1  0.2459936E-009  0.4778727E+02  0.7816164E-02  0.1312668E+00
        -11   -1    0    0    0    0  0.00000000000E+00  0.00000000000E+00  0.45593999997E+02  0.45594000000E+02  0.51100000000E-03 0. -1.
         11   -1    0    0    0    0 -0.00000000000E+00 -0.00000000000E+00 -0.45593999997E+02  0.45594000000E+02  0.51100000000E-03 0.  1.
    9900012    2    1    2    0    0  0.32429688388E+01  0.18408976716E+02 -0.39169072683E+02  0.47787268146E+02  0.19999986783E+02 0.  0.
         12    1    1    2    0    0 -0.32429688388E+01 -0.18408976716E+02  0.39169072683E+02  0.43400731854E+02  0.00000000000E+00 0. -1.
         11    1    3    3    0    0 -0.26039037416E+01 -0.65300379892E-01 -0.85302650334E+01  0.89190807058E+01  0.51100000000E-03 0. -1.
        -11    1    3    3    0    0  0.21422541756E+01  0.34320257780E+01 -0.19172300545E+02  0.19594518681E+02  0.51100000000E-03 0.  1.
        -12    1    3    3    0    0  0.37046184048E+01  0.15042251318E+02 -0.11466507105E+02  0.19273668759E+02  0.00000000000E+00 0.  1.
</event>
<event>
 7    1  0.2459936E-009  0.4778728E+02  0.7816164E-02  0.1312668E+00
        -11   -1    0    0    0    0  0.00000000000E+00  0.00000000000E+00  0.45593999997E+02  0.45594000000E+02  0.51100000000E-03 0.  1.
         11   -1    0    0    0    0 -0.00000000000E+00 -0.00000000000E+00 -0.45593999997E+02  0.45594000000E+02  0.51100000000E-03 0. -1.
    9900012    2    1    2    0    0 -0.29804626730E+00 -0.52642921639E+01  0.43079243598E+02  0.47787276128E+02  0.20000023180E+02 0.  0.
         12    1    1    2    0    0  0.29804626730E+00  0.52642921639E+01 -0.43079243598E+02  0.43400723872E+02  0.00000000000E+00 0. -1.
         11    1    3    3    0    0  0.38620507294E+01 -0.18842350647E+01  0.71204216849E+01  0.83166208792E+01  0.51100000000E-03 0.  1.
        -11    1    3    3    0    0  0.41290749703E+01  0.34687033386E+01  0.14460486174E+02  0.15433302421E+02  0.51100000000E-03 0. -1.
         12    1    3    3    0    0 -0.82891719670E+01 -0.68487604378E+01  0.21498335739E+02  0.24037352828E+02  0.00000000000E+00 0. -1.
</event>
<event>
 7    1  0.2459936E-009  0.4778726E+02  0.7816164E-02  0.1312668E+00
        -11   -1    0    0    0    0  0.00000000000E+00  0.00000000000E+00  0.45593999997E+02  0.45594000000E+02  0.51100000000E-03 0.  1.
         11   -1    0    0    0    0 -0.00000000000E+00 -0.00000000000E+00 -0.45593999997E+02  0.45594000000E+02  0.51100000000E-03 0. -1.
    9900012    2    1    2    0    0  0.65862652545E+01  0.10494762714E+02  0.41594532617E+02  0.47787261780E+02  0.19999957758E+02 0.  0.
         12    1    1    2    0    0 -0.65862652545E+01 -0.10494762714E+02 -0.41594532617E+02  0.43400738220E+02  0.00000000000E+00 0. -1.
         11    1    3    3    0    0 -0.40593414478E+01  0.88757884671E+00  0.47519043704E+01  0.63124198693E+01  0.51100000000E-03 0. -1.
        -11    1    3    3    0    0  0.19610580542E+01 -0.30923525650E+01  0.71297500876E+01  0.80150938642E+01  0.51100000000E-03 0.  1.
        -12    1    3    3    0    0  0.86845486481E+01  0.12699536433E+02  0.29712878159E+02  0.33459748046E+02  0.00000000000E+00 0.  1.
</event>
<event>
 7    1  0.2459936E-009  0.4778727E+02  0.7816164E-02  0.1312668E+00
        -11   -1    0    0    0    0  0.00000000000E+00  0.00000000000E+00  0.45593999997E+02  0.45594000000E+02  0.51100000000E-03 0. -1.
         11   -1    0    0    0    0 -0.00000000000E+00 -0.00000000000E+00 -0.45593999997E+02  0.45594000000E+02  0.51100000000E-03 0.  1.
    9900012    2    1    2    0    0 -0.33606603104E+02  0.24990747438E+02  0.11387788045E+02  0.47787274819E+02  0.20000017208E+02 0.  0.
         12    1    1    2    0    0  0.33606603104E+02 -0.24990747438E+02 -0.11387788045E+02  0.43400725181E+02  0.00000000000E+00 0. -1.
         11    1    3    3    0    0 -0.46985562056E+01  0.69636204100E+01  0.18873261916E+01  0.86099036026E+01  0.51100000000E-03 0. -1.
        -11    1    3    3    0    0 -0.10903887075E+02  0.14949144339E+02  0.97403409680E+01  0.20910425922E+02  0.51100000000E-03 0.  1.
         12    1    3    3    0    0 -0.18004159823E+02  0.30779826892E+01 -0.23987911469E+00  0.18266945294E+02  0.00000000000E+00 0. -1.
</event>
<event>
 7    1  0.2459936E-009  0.4778727E+02  0.7816164E-02  0.1312668E+00
        -11   -1    0    0    0    0  0.00000000000E+00  0.00000000000E+00  0.45593999997E+02  0.45594000000E+02  0.51100000000E-03 0.  1.
         11   -1    0    0    0    0 -0.00000000000E+00 -0.00000000000E+00 -0.45593999997E+02  0.45594000000E+02  0.51100000000E-03 0. -1.
    9900012    2    1    2    0    0 -0.93351907695E+01 -0.18623642139E+01  0.42343940527E+02  0.47787268594E+02  0.19999988828E+02 0.  0.
         12    1    1    2    0    0  0.93351907695E+01  0.18623642139E+01 -0.42343940527E+02  0.43400731406E+02  0.00000000000E+00 0. -1.
         11    1    3    3    0    0 -0.29314749497E+01  0.86054997195E+00  0.11930824676E+01  0.32798685447E+01  0.51100000000E-03 0. -1.
        -11    1    3    3    0    0 -0.87268498434E+01  0.21519658053E+01  0.35777870949E+02  0.36889631537E+02  0.51100000000E-03 0.  1.
        -12    1    3    3    0    0  0.23231340235E+01 -0.48748799912E+01  0.53729871108E+01  0.76177685127E+01  0.00000000000E+00 0.  1.
</event>
<event>
 7    1  0.2459936E-009  0.4778727E+02  0.7816164E-02  0.1312668E+00
        -11   -1    0    0    0    0  0.00000000000E+00  0.00000000000E+00  0.45593999997E+02  0.45594000000E+02  0.51100000000E-03 0.  1.
         11   -1    0    0    0    0 -0.00000000000E+00 -0.00000000000E+00 -0.45593999997E+02  0.45594000000E+02  0.51100000000E-03 0. -1.
    9900012    2    1    2    0    0  0.15278516036E+02 -0.36968290784E+01  0.40453965934E+02  0.47787274691E+02  0.20000016628E+02 0.  0.
         12    1    1    2    0    0 -0.15278516036E+02  0.36968290784E+01 -0.40453965934E+02  0.43400725309E+02  0.00000000000E+00 0. -1.
         11    1    3    3    0    0  0.42363418444E+01  0.54475720352E+01  0.84311117672E+01  0.10895241126E+02  0.51100000000E-03 0. -1.
        -11    1    3    3    0    0  0.91868016164E+01 -0.20610920561E+00  0.16174596532E+02  0.18602617509E+02  0.51100000000E-03 0.  1.
        -12    1    3    3    0    0  0.18553725749E+01 -0.89382919080E+01  0.15848257635E+02  0.18289416057E+02  0.00000000000E+00 0.  1.
</event>
<event>
 7    1  0.2459936E-009  0.4778727E+02  0.7816164E-02  0.1312668E+00
        -11   -1    0    0    0    0  0.00000000000E+00  0.00000000000E+00  0.45593999997E+02  0.45594000000E+02  0.51100000000E-03 0.  1.
         11   -1    0    0    0    0 -0.00000000000E+00 -0.00000000000E+00 -0.45593999997E+02  0.45594000000E+02  0.51100000000E-03 0. -1.
    9900012    2    1    2    0    0 -0.12503542395E+02  0.38117687751E+02  0.16562813742E+02  0.47787268543E+02  0.19999988596E+02 0.  0.
         12    1    1    2    0    0  0.12503542395E+02 -0.38117687751E+02 -0.16562813742E+02  0.43400731457E+02  0.00000000000E+00 0. -1.
         11    1    3    3    0    0  0.14129822339E+01  0.89200414468E+01  0.80160278944E+00  0.90667648861E+01  0.51100000000E-03 0. -1.
        -11    1    3    3    0    0  0.20720340983E+01  0.10742441314E+02  0.44682856921E+01  0.11817738700E+02  0.51100000000E-03 0.  1.
         12    1    3    3    0    0 -0.15988558727E+02  0.18455204991E+02  0.11292925260E+02  0.26902764957E+02  0.00000000000E+00 0. -1.
</event>
<event>
 7    1  0.2459936E-009  0.4778728E+02  0.7816164E-02  0.1312668E+00
        -11   -1    0    0    0    0  0.00000000000E+00  0.00000000000E+00  0.45593999997E+02  0.45594000000E+02  0.51100000000E-03 0.  1.
         11   -1    0    0    0    0 -0.00000000000E+00 -0.00000000000E+00 -0.45593999997E+02  0.45594000000E+02  0.51100000000E-03 0. -1.
    9900012    2    1    2    0    0 -0.14141737542E+02 -0.39160184928E+02  0.12252097772E+02  0.47787277378E+02  0.20000028876E+02 0.  0.
         12    1    1    2    0    0  0.14141737542E+02  0.39160184928E+02 -0.12252097772E+02  0.43400722622E+02  0.00000000000E+00 0. -1.
         11    1    3    3    0    0 -0.79517003604E+01 -0.52056086253E+01  0.48149861940E+01  0.10654200678E+02  0.51100000000E-03 0. -1.
        -11    1    3    3    0    0 -0.41552029858E+01 -0.16553580155E+02  0.94325312875E+01  0.19500240372E+02  0.51100000000E-03 0.  1.
        -12    1    3    3    0    0 -0.20348341958E+01 -0.17400996148E+02 -0.19954197098E+01  0.17632836328E+02  0.00000000000E+00 0.  1.
</event>
<event>
 7    1  0.2459936E-009  0.4778728E+02  0.7816164E-02  0.1312668E+00
        -11   -1    0    0    0    0  0.00000000000E+00  0.00000000000E+00  0.45593999997E+02  0.45594000000E+02  0.51100000000E-03 0.  1.
         11   -1    0    0    0    0 -0.00000000000E+00 -0.00000000000E+00 -0.45593999997E+02  0.45594000000E+02  0.51100000000E-03 0. -1.
    9900012    2    1    2    0    0 -0.14527923578E+01  0.16168177759E+02  0.40250493884E+02  0.47787276094E+02  0.20000023022E+02 0.  0.
         12    1    1    2    0    0  0.14527923578E+01 -0.16168177759E+02 -0.40250493884E+02  0.43400723906E+02  0.00000000000E+00 0. -1.
         11    1    3    3    0    0  0.22158645978E+01 -0.29312690878E+01  0.66653224084E+01  0.76111048770E+01  0.51100000000E-03 0. -1.
        -11    1    3    3    0    0  0.15198801312E+01  0.49248814522E+00  0.77775990167E+01  0.79400016947E+01  0.51100000000E-03 0.  1.
        -12    1    3    3    0    0 -0.51885370868E+01  0.18606958701E+02  0.25807572459E+02  0.32236169522E+02  0.00000000000E+00 0.  1.
</event>
<event>
 7    1  0.2459936E-009  0.4778726E+02  0.7816164E-02  0.1312668E+00
        -11   -1    0    0    0    0  0.00000000000E+00  0.00000000000E+00  0.45593999997E+02  0.45594000000E+02  0.51100000000E-03 0.  1.
         11   -1    0    0    0    0 -0.00000000000E+00 -0.00000000000E+00 -0.45593999997E+02  0.45594000000E+02  0.51100000000E-03 0. -1.
    9900012    2    1    2    0    0  0.27766698714E+02 -0.19046541060E+02  0.27383644302E+02  0.47787259694E+02  0.19999948251E+02 0.  0.
         12    1    1    2    0    0 -0.27766698714E+02  0.19046541060E+02 -0.27383644302E+02  0.43400740306E+02  0.00000000000E+00 0. -1.
         11    1    3    3    0    0  0.97459007018E+01 -0.22489652127E+01  0.41554348850E+01  0.10830884745E+02  0.51100000000E-03 0. -1.
        -11    1    3    3    0    0  0.17104416924E+02 -0.63333336802E+01  0.14846163319E+02  0.23517669088E+02  0.51100000000E-03 0.  1.
        -12    1    3    3    0    0  0.91638108864E+00 -0.10464242167E+02  0.83820460980E+01  0.13438705861E+02  0.00000000000E+00 0.  1.
</event>
<event>
 7    1  0.2459936E-009  0.4778727E+02  0.7816164E-02  0.1312668E+00
        -11   -1    0    0    0    0  0.00000000000E+00  0.00000000000E+00  0.45593999997E+02  0.45594000000E+02  0.51100000000E-03 0.  1.
         11   -1    0    0    0    0 -0.00000000000E+00 -0.00000000000E+00 -0.45593999997E+02  0.45594000000E+02  0.51100000000E-03 0. -1.
    9900012    2    1    2    0    0 -0.12484639924E+02 -0.18180505908E+02  0.37379496369E+02  0.47787265238E+02  0.19999973525E+02 0.  0.
         12    1    1    2    0    0  0.12484639924E+02  0.18180505908E+02 -0.37379496369E+02  0.43400734762E+02  0.00000000000E+00 0. -1.
         11    1    3    3    0    0 -0.12056236083E+00 -0.14349744089E+01 -0.16287569740E+01  0.21740598838E+01  0.51100000000E-03 0. -1.
        -11    1    3    3    0    0 -0.41987255070E+01 -0.13165025373E+02  0.17272031906E+02  0.22119454681E+02  0.51100000000E-03 0.  1.
        -12    1    3    3    0    0 -0.81653520566E+01 -0.35805061257E+01  0.21736221437E+02  0.23493750673E+02  0.00000000000E+00 0.  1.
</event>
<event>
 7    1  0.2459936E-009  0.4778727E+02  0.7816164E-02  0.1312668E+00
        -11   -1    0    0    0    0  0.00000000000E+00  0.00000000000E+00  0.45593999997E+02  0.45594000000E+02  0.51100000000E-03 0.  1.
         11   -1    0    0    0    0 -0.00000000000E+00 -0.00000000000E+00 -0.45593999997E+02  0.45594000000E+02  0.51100000000E-03 0. -1.
    9900012    2    1    2    0    0  0.78188121336E+01 -0.61656316442E+01  0.42243042682E+02  0.47787268534E+02  0.19999988554E+02 0.  0.
         12    1    1    2    0    0 -0.78188121336E+01  0.61656316442E+01 -0.42243042682E+02  0.43400731466E+02  0.00000000000E+00 0. -1.
         11    1    3    3    0    0  0.11766563118E+02 -0.44607261317E+00  0.16683770543E+02  0.20420557980E+02  0.51100000000E-03 0. -1.
        -11    1    3    3    0    0 -0.43098777757E+01 -0.48604079235E+00  0.88927746341E+01  0.98940751487E+01  0.51100000000E-03 0.  1.
        -12    1    3    3    0    0  0.36212679142E+00 -0.52335182387E+01  0.16666497504E+02  0.17472635406E+02  0.00000000000E+00 0.  1.
</event>
<event>
 7    1  0.2459936E-009  0.4778728E+02  0.7816164E-02  0.1312668E+00
        -11   -1    0    0    0    0  0.00000000000E+00  0.00000000000E+00  0.45593999997E+02  0.45594000000E+02  0.51100000000E-03 0. -1.
         11   -1    0    0    0    0 -0.00000000000E+00 -0.00000000000E+00 -0.45593999997E+02  0.45594000000E+02  0.51100000000E-03 0.  1.
    9900012    2    1    2    0    0  0.13199777757E+02 -0.15075297469E+02 -0.38498366147E+02  0.47787275092E+02  0.20000018454E+02 0.  0.
         12    1    1    2    0    0 -0.13199777757E+02  0.15075297469E+02  0.38498366147E+02  0.43400724908E+02  0.00000000000E+00 0. -1.
         11    1    3    3    0    0  0.91000862682E+01 -0.53229221513E+01 -0.13875834034E+02  0.17426526927E+02  0.51100000000E-03 0.  1.
        -11    1    3    3    0    0  0.11274441581E+01 -0.87097751220E+01 -0.25598538934E+02  0.27063194727E+02  0.51100000000E-03 0. -1.
         12    1    3    3    0    0  0.29722473304E+01 -0.10426001952E+01  0.97600682188E+00  0.32975534380E+01  0.00000000000E+00 0. -1.
</event>
<event>
 7    1  0.2459936E-009  0.4778727E+02  0.7816164E-02  0.1312668E+00
        -11   -1    0    0    0    0  0.00000000000E+00  0.00000000000E+00  0.45593999997E+02  0.45594000000E+02  0.51100000000E-03 0. -1.
         11   -1    0    0    0    0 -0.00000000000E+00 -0.00000000000E+00 -0.45593999997E+02  0.45594000000E+02  0.51100000000E-03 0.  1.
    9900012    2    1    2    0    0 -0.14432339406E+02 -0.32847707775E+02 -0.24420461471E+02  0.47787271144E+02  0.20000000454E+02 0.  0.
         12    1    1    2    0    0  0.14432339406E+02  0.32847707775E+02  0.24420461471E+02  0.43400728856E+02  0.00000000000E+00 0. -1.
         11    1    3    3    0    0 -0.63903566068E+01 -0.94262295133E+01 -0.44922550660E+01  0.12242173673E+02  0.51100000000E-03 0. -1.
        -11    1    3    3    0    0 -0.71685478113E+01 -0.13187148325E+02 -0.23593178124E+01  0.15193924426E+02  0.51100000000E-03 0.  1.
         12    1    3    3    0    0 -0.87343498776E+00 -0.10234329937E+02 -0.17568888593E+02  0.20351173045E+02  0.00000000000E+00 0. -1.
</event>
<event>
 7    1  0.2459936E-009  0.4778727E+02  0.7816164E-02  0.1312668E+00
        -11   -1    0    0    0    0  0.00000000000E+00  0.00000000000E+00  0.45593999997E+02  0.45594000000E+02  0.51100000000E-03 0.  1.
         11   -1    0    0    0    0 -0.00000000000E+00 -0.00000000000E+00 -0.45593999997E+02  0.45594000000E+02  0.51100000000E-03 0. -1.
    9900012    2    1    2    0    0  0.85762955739E+01 -0.31066230729E+02  0.29068187126E+02  0.47787273736E+02  0.20000012270E+02 0.  0.
         12    1    1    2    0    0 -0.85762955739E+01  0.31066230729E+02 -0.29068187126E+02  0.43400726264E+02  0.00000000000E+00 0. -1.
         11    1    3    3    0    0 -0.94337905095E+00 -0.32430730147E+01 -0.13050250418E+01  0.36208531085E+01  0.51100000000E-03 0. -1.
        -11    1    3    3    0    0 -0.14604488588E+01 -0.97791017352E-01 -0.17749886085E+00  0.14744422874E+01  0.51100000000E-03 0.  1.
        -12    1    3    3    0    0  0.10980123484E+02 -0.27725366697E+02  0.30550711029E+02  0.42691978340E+02  0.00000000000E+00 0.  1.
</event>
<event>
 7    1  0.2459936E-009  0.4778727E+02  0.7816164E-02  0.1312668E+00
        -11   -1    0    0    0    0  0.00000000000E+00  0.00000000000E+00  0.45593999997E+02  0.45594000000E+02  0.51100000000E-03 0.  1.
         11   -1    0    0    0    0 -0.00000000000E+00 -0.00000000000E+00 -0.45593999997E+02  0.45594000000E+02  0.51100000000E-03 0. -1.
    9900012    2    1    2    0    0 -0.62987087420E+01 -0.40857898525E+02  0.13212937828E+02  0.47787270401E+02  0.19999997064E+02 0.  0.
         12    1    1    2    0    0  0.62987087420E+01  0.40857898525E+02 -0.13212937828E+02  0.43400729599E+02  0.00000000000E+00 0. -1.
         11    1    3    3    0    0  0.82760180326E+00 -0.17767281255E+01 -0.20491218440E+01  0.28355930895E+01  0.51100000000E-03 0. -1.
        -11    1    3    3    0    0  0.10174033831E+01 -0.10586203077E+02 -0.17532511385E+01  0.10778529355E+02  0.51100000000E-03 0.  1.
        -12    1    3    3    0    0 -0.81437139283E+01 -0.28494967322E+02  0.17015310811E+02  0.34173147956E+02  0.00000000000E+00 0.  1.
</event>
<event>
 7    1  0.2459936E-009  0.4778727E+02  0.7816164E-02  0.1312668E+00
        -11   -1    0    0    0    0  0.00000000000E+00  0.00000000000E+00  0.45593999997E+02  0.45594000000E+02  0.51100000000E-03 0.  1.
         11   -1    0    0    0    0 -0.00000000000E+00 -0.00000000000E+00 -0.45593999997E+02  0.45594000000E+02  0.51100000000E-03 0. -1.
    9900012    2    1    2    0    0 -0.29665843706E+01 -0.42433163126E+02 -0.86167997186E+01  0.47787271975E+02  0.20000004243E+02 0.  0.
         12    1    1    2    0    0  0.29665843706E+01  0.42433163126E+02  0.86167997186E+01  0.43400728025E+02  0.00000000000E+00 0. -1.
         11    1    3    3    0    0  0.27104811976E+01 -0.10099914752E+01 -0.40053537138E+00  0.29201403986E+01  0.51100000000E-03 0. -1.
        -11    1    3    3    0    0 -0.34299262501E+01 -0.52468489992E+01 -0.58008258678E+01  0.85406908099E+01  0.51100000000E-03 0.  1.
        -12    1    3    3    0    0 -0.22471393181E+01 -0.36176322652E+02 -0.24154384794E+01  0.36326440766E+02  0.00000000000E+00 0.  1.
</event>
<event>
 7    1  0.2459936E-009  0.4778727E+02  0.7816164E-02  0.1312668E+00
        -11   -1    0    0    0    0  0.00000000000E+00  0.00000000000E+00  0.45593999997E+02  0.45594000000E+02  0.51100000000E-03 0. -1.
         11   -1    0    0    0    0 -0.00000000000E+00 -0.00000000000E+00 -0.45593999997E+02  0.45594000000E+02  0.51100000000E-03 0.  1.
    9900012    2    1    2    0    0  0.34433024584E+02  0.11025424452E+02 -0.24008958177E+02  0.47787271445E+02  0.20000001828E+02 0.  0.
         12    1    1    2    0    0 -0.34433024584E+02 -0.11025424452E+02  0.24008958177E+02  0.43400728555E+02  0.00000000000E+00 0. -1.
         11    1    3    3    0    0  0.13757554754E+02  0.39454957532E+00 -0.42906690157E+01  0.14416512166E+02  0.51100000000E-03 0. -1.
        -11    1    3    3    0    0  0.78744062847E+01 -0.23129448827E+01 -0.92694315664E+01  0.12380563404E+02  0.51100000000E-03 0.  1.
         12    1    3    3    0    0  0.12801063545E+02  0.12943819759E+02 -0.10448857595E+02  0.20990195876E+02  0.00000000000E+00 0. -1.
</event>
<event>
 7    1  0.2459936E-009  0.4778727E+02  0.7816164E-02  0.1312668E+00
        -11   -1    0    0    0    0  0.00000000000E+00  0.00000000000E+00  0.45593999997E+02  0.45594000000E+02  0.51100000000E-03 0.  1.
         11   -1    0    0    0    0 -0.00000000000E+00 -0.00000000000E+00 -0.45593999997E+02  0.45594000000E+02  0.51100000000E-03 0. -1.
    9900012    2    1    2    0    0 -0.33721795481E+02  0.14443857274E+02  0.23191351182E+02  0.47787271053E+02  0.20000000040E+02 0.  0.
         12    1    1    2    0    0  0.33721795481E+02 -0.14443857274E+02 -0.23191351182E+02  0.43400728947E+02  0.00000000000E+00 0. -1.
         11    1    3    3    0    0 -0.17085367819E+02  0.13099605365E+02  0.16811962121E+02  0.27315774286E+02  0.51100000000E-03 0. -1.
        -11    1    3    3    0    0 -0.75841948693E+01  0.56182972921E+01  0.29126071362E+01  0.98776797310E+01  0.51100000000E-03 0.  1.
        -12    1    3    3    0    0 -0.90522327934E+01 -0.42740453830E+01  0.34667819253E+01  0.10593817036E+02  0.00000000000E+00 0.  1.
</event>
<event>
 7    1  0.2459936E-009  0.4778728E+02  0.7816164E-02  0.1312668E+00
        -11   -1    0    0    0    0  0.00000000000E+00  0.00000000000E+00  0.45593999997E+02  0.45594000000E+02  0.51100000000E-03 0. -1.
         11   -1    0    0    0    0 -0.00000000000E+00 -0.00000000000E+00 -0.45593999997E+02  0.45594000000E+02  0.51100000000E-03 0.  1.
    9900012    2    1    2    0    0  0.20702057201E+02 -0.35299050722E+02  0.14457689076E+02  0.47787275033E+02  0.20000018185E+02 0.  0.
         12    1    1    2    0    0 -0.20702057201E+02  0.35299050722E+02 -0.14457689076E+02  0.43400724967E+02  0.00000000000E+00 0. -1.
         11    1    3    3    0    0  0.11295183525E+02 -0.20357891958E+02  0.70018697780E+01  0.24311542865E+02  0.51100000000E-03 0. -1.
        -11    1    3    3    0    0  0.11995564584E+02 -0.90746831849E+01  0.22342721714E+01  0.15206426832E+02  0.51100000000E-03 0.  1.
        -12    1    3    3    0    0 -0.25886909079E+01 -0.58664755795E+01  0.52215471269E+01  0.82693053360E+01  0.00000000000E+00 0.  1.
</event>
<event>
 7    1  0.2459936E-009  0.4778727E+02  0.7816164E-02  0.1312668E+00
        -11   -1    0    0    0    0  0.00000000000E+00  0.00000000000E+00  0.45593999997E+02  0.45594000000E+02  0.51100000000E-03 0. -1.
         11   -1    0    0    0    0 -0.00000000000E+00 -0.00000000000E+00 -0.45593999997E+02  0.45594000000E+02  0.51100000000E-03 0.  1.
    9900012    2    1    2    0    0  0.19163517542E+02  0.62840079953E+01 -0.38430381540E+02  0.47787269748E+02  0.19999994090E+02 0.  0.
         12    1    1    2    0    0 -0.19163517542E+02 -0.62840079953E+01  0.38430381540E+02  0.43400730252E+02  0.00000000000E+00 0. -1.
         11    1    3    3    0    0  0.53715499947E+01 -0.36172807363E-01 -0.68524617117E+01  0.87069563907E+01  0.51100000000E-03 0. -1.
        -11    1    3    3    0    0  0.11284389077E+02  0.11126656222E+02 -0.29065786585E+02  0.33105284557E+02  0.51100000000E-03 0.  1.
         12    1    3    3    0    0  0.25075784701E+01 -0.48064754189E+01 -0.25121332433E+01  0.59750288006E+01  0.00000000000E+00 0. -1.
</event>
<event>
 7    1  0.2459936E-009  0.4778726E+02  0.7816164E-02  0.1312668E+00
        -11   -1    0    0    0    0  0.00000000000E+00  0.00000000000E+00  0.45593999997E+02  0.45594000000E+02  0.51100000000E-03 0.  1.
         11   -1    0    0    0    0 -0.00000000000E+00 -0.00000000000E+00 -0.45593999997E+02  0.45594000000E+02  0.51100000000E-03 0. -1.
    9900012    2    1    2    0    0  0.20462038603E+02 -0.23818441461E+02  0.29960157392E+02  0.47787260278E+02  0.19999950913E+02 0.  0.
         12    1    1    2    0    0 -0.20462038603E+02  0.23818441461E+02 -0.29960157392E+02  0.43400739722E+02  0.00000000000E+00 0. -1.
         11    1    3    3    0    0  0.23406424201E+01 -0.35698751594E+01  0.42175816794E+01  0.60008841912E+01  0.51100000000E-03 0. -1.
        -11    1    3    3    0    0  0.19283462026E+02 -0.21671342880E+02  0.18712817371E+02  0.34520552489E+02  0.51100000000E-03 0.  1.
         12    1    3    3    0    0 -0.11620658429E+01  0.14227765783E+01  0.70297583419E+01  0.72658235982E+01  0.00000000000E+00 0. -1.
</event>
<event>
 7    1  0.2459936E-009  0.4778727E+02  0.7816164E-02  0.1312668E+00
        -11   -1    0    0    0    0  0.00000000000E+00  0.00000000000E+00  0.45593999997E+02  0.45594000000E+02  0.51100000000E-03 0. -1.
         11   -1    0    0    0    0 -0.00000000000E+00 -0.00000000000E+00 -0.45593999997E+02  0.45594000000E+02  0.51100000000E-03 0.  1.
    9900012    2    1    2    0    0 -0.42450154294E+02 -0.51880442284E+01  0.73954025492E+01  0.47787269806E+02  0.19999994355E+02 0.  0.
         12    1    1    2    0    0  0.42450154294E+02  0.51880442284E+01 -0.73954025492E+01  0.43400730194E+02  0.00000000000E+00 0. -1.
         11    1    3    3    0    0 -0.90749309170E+01 -0.11146987126E+01 -0.13701630433E+01  0.92452296561E+01  0.51100000000E-03 0. -1.
        -11    1    3    3    0    0 -0.34329966782E+02 -0.64813392538E+01  0.79960977929E+01  0.35839809681E+02  0.51100000000E-03 0.  1.
         12    1    3    3    0    0  0.95474340564E+00  0.24079937381E+01  0.76946779959E+00  0.27022304691E+01  0.00000000000E+00 0. -1.
</event>
<event>
 7    1  0.2459936E-009  0.4778727E+02  0.7816164E-02  0.1312668E+00
        -11   -1    0    0    0    0  0.00000000000E+00  0.00000000000E+00  0.45593999997E+02  0.45594000000E+02  0.51100000000E-03 0.  1.
         11   -1    0    0    0    0 -0.00000000000E+00 -0.00000000000E+00 -0.45593999997E+02  0.45594000000E+02  0.51100000000E-03 0. -1.
    9900012    2    1    2    0    0  0.18361302145E+02  0.18180428979E+02  0.34870588933E+02  0.47787269743E+02  0.19999994067E+02 0.  0.
         12    1    1    2    0    0 -0.18361302145E+02 -0.18180428979E+02 -0.34870588933E+02  0.43400730257E+02  0.00000000000E+00 0. -1.
         11    1    3    3    0    0  0.12005146106E+02  0.38316014286E+01  0.62860697187E+01  0.14082591214E+02  0.51100000000E-03 0. -1.
        -11    1    3    3    0    0  0.12979380760E+01 -0.10117949824E+01  0.33564935294E+01  0.37382377412E+01  0.51100000000E-03 0.  1.
        -12    1    3    3    0    0  0.50582179627E+01  0.15360622532E+02  0.25228025685E+02  0.29966440788E+02  0.00000000000E+00 0.  1.
</event>
<event>
 7    1  0.2459936E-009  0.4778727E+02  0.7816164E-02  0.1312668E+00
        -11   -1    0    0    0    0  0.00000000000E+00  0.00000000000E+00  0.45593999997E+02  0.45594000000E+02  0.51100000000E-03 0.  1.
         11   -1    0    0    0    0 -0.00000000000E+00 -0.00000000000E+00 -0.45593999997E+02  0.45594000000E+02  0.51100000000E-03 0. -1.
    9900012    2    1    2    0    0  0.17285707917E+01 -0.40650447265E+02  0.15105512920E+02  0.47787270278E+02  0.19999996507E+02 0.  0.
         12    1    1    2    0    0 -0.17285707917E+01  0.40650447265E+02 -0.15105512920E+02  0.43400729722E+02  0.00000000000E+00 0. -1.
         11    1    3    3    0    0 -0.51662210876E+01 -0.12111361766E+02  0.88266938510E+01  0.15851985641E+02  0.51100000000E-03 0. -1.
        -11    1    3    3    0    0 -0.12953652844E+00 -0.18844154651E+02  0.65771286602E+01  0.19959397934E+02  0.51100000000E-03 0.  1.
        -12    1    3    3    0    0  0.70243284078E+01 -0.96949308475E+01 -0.29830959159E+00  0.11975886703E+02  0.00000000000E+00 0.  1.
</event>
<event>
 7    1  0.2459936E-009  0.4778727E+02  0.7816164E-02  0.1312668E+00
        -11   -1    0    0    0    0  0.00000000000E+00  0.00000000000E+00  0.45593999997E+02  0.45594000000E+02  0.51100000000E-03 0.  1.
         11   -1    0    0    0    0 -0.00000000000E+00 -0.00000000000E+00 -0.45593999997E+02  0.45594000000E+02  0.51100000000E-03 0. -1.
    9900012    2    1    2    0    0  0.24084186708E+02 -0.35725682003E+02  0.52202176019E+01  0.47787273327E+02  0.20000010405E+02 0.  0.
         12    1    1    2    0    0 -0.24084186708E+02  0.35725682003E+02 -0.52202176019E+01  0.43400726673E+02  0.00000000000E+00 0. -1.
         11    1    3    3    0    0 -0.19716895745E+01 -0.36291078739E+01  0.46722720816E+00  0.41564751009E+01  0.51100000000E-03 0. -1.
        -11    1    3    3    0    0  0.24796618847E+02 -0.32250931977E+02  0.21539130539E+01  0.40738608977E+02  0.51100000000E-03 0.  1.
         12    1    3    3    0    0  0.12592574357E+01  0.15435784817E+00  0.25990773398E+01  0.28921892492E+01  0.00000000000E+00 0. -1.
</event>
<event>
 7    1  0.2459936E-009  0.4778727E+02  0.7816164E-02  0.1312668E+00
        -11   -1    0    0    0    0  0.00000000000E+00  0.00000000000E+00  0.45593999997E+02  0.45594000000E+02  0.51100000000E-03 0.  1.
         11   -1    0    0    0    0 -0.00000000000E+00 -0.00000000000E+00 -0.45593999997E+02  0.45594000000E+02  0.51100000000E-03 0. -1.
    9900012    2    1    2    0    0  0.36428308239E+02 -0.19458342995E+02  0.13340698399E+02  0.47787274349E+02  0.20000015066E+02 0.  0.
         12    1    1    2    0    0 -0.36428308239E+02  0.19458342995E+02 -0.13340698399E+02  0.43400725651E+02  0.00000000000E+00 0. -1.
         11    1    3    3    0    0  0.92525350907E+01  0.42257949482E+00 -0.39220572600E+00  0.92704802802E+01  0.51100000000E-03 0. -1.
        -11    1    3    3    0    0  0.12284754466E+02 -0.16856867633E+01  0.59219212950E+01  0.13741393097E+02  0.51100000000E-03 0.  1.
        -12    1    3    3    0    0  0.14891018682E+02 -0.18195235727E+02  0.78109828300E+01  0.24775400972E+02  0.00000000000E+00 0.  1.
</event>
<event>
 7    1  0.2459936E-009  0.4778727E+02  0.7816164E-02  0.1312668E+00
        -11   -1    0    0    0    0  0.00000000000E+00  0.00000000000E+00  0.45593999997E+02  0.45594000000E+02  0.51100000000E-03 0.  1.
         11   -1    0    0    0    0 -0.00000000000E+00 -0.00000000000E+00 -0.45593999997E+02  0.45594000000E+02  0.51100000000E-03 0. -1.
    9900012    2    1    2    0    0  0.13308393204E+02  0.12045382973E+02  0.39514791425E+02  0.47787270490E+02  0.19999997473E+02 0.  0.
         12    1    1    2    0    0 -0.13308393204E+02 -0.12045382973E+02 -0.39514791425E+02  0.43400729510E+02  0.00000000000E+00 0. -1.
         11    1    3    3    0    0 -0.42767281260E+00  0.96235551939E+01  0.10740792026E+02  0.14427762551E+02  0.51100000000E-03 0. -1.
        -11    1    3    3    0    0 -0.87161448253E+00  0.41058726682E+00 -0.68915140884E-01  0.96594164813E+00  0.51100000000E-03 0.  1.
        -12    1    3    3    0    0  0.14607680499E+02  0.20112405124E+01  0.28842914539E+02  0.32393566292E+02  0.00000000000E+00 0.  1.
</event>
<event>
 7    1  0.2459936E-009  0.4778727E+02  0.7816164E-02  0.1312668E+00
        -11   -1    0    0    0    0  0.00000000000E+00  0.00000000000E+00  0.45593999997E+02  0.45594000000E+02  0.51100000000E-03 0.  1.
         11   -1    0    0    0    0 -0.00000000000E+00 -0.00000000000E+00 -0.45593999997E+02  0.45594000000E+02  0.51100000000E-03 0. -1.
    9900012    2    1    2    0    0  0.33712038715E+02 -0.15150360845E+02  0.22750572145E+02  0.47787268198E+02  0.19999987020E+02 0.  0.
         12    1    1    2    0    0 -0.33712038715E+02  0.15150360845E+02 -0.22750572145E+02  0.43400731802E+02  0.00000000000E+00 0. -1.
         11    1    3    3    0    0  0.12139041332E+02 -0.26800756423E+01  0.18344377960E+02  0.22159768340E+02  0.51100000000E-03 0. -1.
        -11    1    3    3    0    0  0.77638227504E+01 -0.24787470620E+01  0.21917432467E+01  0.84394827696E+01  0.51100000000E-03 0.  1.
         12    1    3    3    0    0  0.13809174632E+02 -0.99915381407E+01  0.22144509388E+01  0.17188017088E+02  0.00000000000E+00 0. -1.
</event>
<event>
 7    1  0.2459936E-009  0.4778727E+02  0.7816164E-02  0.1312668E+00
        -11   -1    0    0    0    0  0.00000000000E+00  0.00000000000E+00  0.45593999997E+02  0.45594000000E+02  0.51100000000E-03 0.  1.
         11   -1    0    0    0    0 -0.00000000000E+00 -0.00000000000E+00 -0.45593999997E+02  0.45594000000E+02  0.51100000000E-03 0. -1.
    9900012    2    1    2    0    0  0.23657679927E+02 -0.31160649302E+02  0.18787000341E+02  0.47787271132E+02  0.20000000399E+02 0.  0.
         12    1    1    2    0    0 -0.23657679927E+02  0.31160649302E+02 -0.18787000341E+02  0.43400728868E+02  0.00000000000E+00 0. -1.
         11    1    3    3    0    0  0.47811599030E+01 -0.13663916848E+01  0.63423158760E+00  0.50128600841E+01  0.51100000000E-03 0. -1.
        -11    1    3    3    0    0  0.21246813279E+02 -0.24765759583E+02  0.17880437016E+02  0.37208600489E+02  0.51100000000E-03 0.  1.
        -12    1    3    3    0    0 -0.23702932553E+01 -0.50284980342E+01  0.27233173802E+00  0.55658105584E+01  0.00000000000E+00 0.  1.
</event>
<event>
 7    1  0.2459936E-009  0.4778727E+02  0.7816164E-02  0.1312668E+00
        -11   -1    0    0    0    0  0.00000000000E+00  0.00000000000E+00  0.45593999997E+02  0.45594000000E+02  0.51100000000E-03 0. -1.
         11   -1    0    0    0    0 -0.00000000000E+00 -0.00000000000E+00 -0.45593999997E+02  0.45594000000E+02  0.51100000000E-03 0.  1.
    9900012    2    1    2    0    0  0.22081992980E+02  0.17635418235E+01 -0.37321558561E+02  0.47787271583E+02  0.20000002454E+02 0.  0.
         12    1    1    2    0    0 -0.22081992980E+02 -0.17635418235E+01  0.37321558561E+02  0.43400728417E+02  0.00000000000E+00 0. -1.
         11    1    3    3    0    0 -0.16339731673E+01 -0.41675359643E+00 -0.29108253142E+01  0.33639940758E+01  0.51100000000E-03 0. -1.
        -11    1    3    3    0    0  0.11440199691E+02 -0.63942787699E+01 -0.15333498574E+02  0.20171295168E+02  0.51100000000E-03 0.  1.
         12    1    3    3    0    0  0.12275766456E+02  0.85745741898E+01 -0.19077234673E+02  0.24251982339E+02  0.00000000000E+00 0. -1.
</event>
<event>
 7    1  0.2459936E-009  0.4778727E+02  0.7816164E-02  0.1312668E+00
        -11   -1    0    0    0    0  0.00000000000E+00  0.00000000000E+00  0.45593999997E+02  0.45594000000E+02  0.51100000000E-03 0.  1.
         11   -1    0    0    0    0 -0.00000000000E+00 -0.00000000000E+00 -0.45593999997E+02  0.45594000000E+02  0.51100000000E-03 0. -1.
    9900012    2    1    2    0    0  0.15164333716E+02  0.10222649125E+02  0.39359415034E+02  0.47787272771E+02  0.20000007874E+02 0.  0.
         12    1    1    2    0    0 -0.15164333716E+02 -0.10222649125E+02 -0.39359415034E+02  0.43400727229E+02  0.00000000000E+00 0. -1.
         11    1    3    3    0    0  0.42886152878E+01 -0.32262619666E+01  0.13212272448E+01  0.55269004929E+01  0.51100000000E-03 0. -1.
        -11    1    3    3    0    0  0.49382616061E+01  0.16554359185E+01  0.10583717466E+02  0.11795845516E+02  0.51100000000E-03 0.  1.
         12    1    3    3    0    0  0.59374568218E+01  0.11793475173E+02  0.27454470323E+02  0.30464526763E+02  0.00000000000E+00 0. -1.
</event>
<event>
 7    1  0.2459936E-009  0.4778727E+02  0.7816164E-02  0.1312668E+00
        -11   -1    0    0    0    0  0.00000000000E+00  0.00000000000E+00  0.45593999997E+02  0.45594000000E+02  0.51100000000E-03 0.  1.
         11   -1    0    0    0    0 -0.00000000000E+00 -0.00000000000E+00 -0.45593999997E+02  0.45594000000E+02  0.51100000000E-03 0. -1.
    9900012    2    1    2    0    0 -0.18109040278E+02 -0.11167607955E+02  0.37828171795E+02  0.47787269723E+02  0.19999993974E+02 0.  0.
         12    1    1    2    0    0  0.18109040278E+02  0.11167607955E+02 -0.37828171795E+02  0.43400730277E+02  0.00000000000E+00 0. -1.
         11    1    3    3    0    0 -0.62120890129E+01 -0.76891694227E+01  0.17212716327E+02  0.19849206028E+02  0.51100000000E-03 0. -1.
        -11    1    3    3    0    0 -0.96730908177E+01 -0.73890571019E+01  0.80548998259E+01  0.14596172864E+02  0.51100000000E-03 0.  1.
        -12    1    3    3    0    0 -0.22238604472E+01  0.39106185699E+01  0.12560555642E+02  0.13341890830E+02  0.00000000000E+00 0.  1.
</event>
<event>
 7    1  0.2459936E-009  0.4778727E+02  0.7816164E-02  0.1312668E+00
        -11   -1    0    0    0    0  0.00000000000E+00  0.00000000000E+00  0.45593999997E+02  0.45594000000E+02  0.51100000000E-03 0.  1.
         11   -1    0    0    0    0 -0.00000000000E+00 -0.00000000000E+00 -0.45593999997E+02  0.45594000000E+02  0.51100000000E-03 0. -1.
    9900012    2    1    2    0    0  0.75283257927E+01  0.38946936593E+02  0.17609189170E+02  0.47787273019E+02  0.20000009004E+02 0.  0.
         12    1    1    2    0    0 -0.75283257927E+01 -0.38946936593E+02 -0.17609189170E+02  0.43400726981E+02  0.00000000000E+00 0. -1.
         11    1    3    3    0    0  0.48169990960E+01  0.22332561547E+02  0.76635530545E+01  0.24097237004E+02  0.51100000000E-03 0. -1.
        -11    1    3    3    0    0  0.51330110322E+01  0.17731002943E+02  0.70658901948E+01  0.19765198509E+02  0.51100000000E-03 0.  1.
        -12    1    3    3    0    0 -0.24216843355E+01 -0.11166278964E+01  0.28797459212E+01  0.39248375062E+01  0.00000000000E+00 0.  1.
</event>
<event>
 7    1  0.2459936E-009  0.4778727E+02  0.7816164E-02  0.1312668E+00
        -11   -1    0    0    0    0  0.00000000000E+00  0.00000000000E+00  0.45593999997E+02  0.45594000000E+02  0.51100000000E-03 0.  1.
         11   -1    0    0    0    0 -0.00000000000E+00 -0.00000000000E+00 -0.45593999997E+02  0.45594000000E+02  0.51100000000E-03 0. -1.
    9900012    2    1    2    0    0 -0.34210650943E+02 -0.61709973196E+01  0.25984099480E+02  0.47787271070E+02  0.20000000116E+02 0.  0.
         12    1    1    2    0    0  0.34210650943E+02  0.61709973196E+01 -0.25984099480E+02  0.43400728930E+02  0.00000000000E+00 0. -1.
         11    1    3    3    0    0 -0.20166127497E+01 -0.21528838325E+01  0.19034149356E+01  0.35106444504E+01  0.51100000000E-03 0. -1.
        -11    1    3    3    0    0 -0.43977449626E+01  0.54573316362E+01  0.85509820970E+01  0.11056306998E+02  0.51100000000E-03 0.  1.
        -12    1    3    3    0    0 -0.27796293231E+02 -0.94754451233E+01  0.15529702447E+02  0.33220319622E+02  0.00000000000E+00 0.  1.
</event>
<event>
 7    1  0.2459936E-009  0.4778727E+02  0.7816164E-02  0.1312668E+00
        -11   -1    0    0    0    0  0.00000000000E+00  0.00000000000E+00  0.45593999997E+02  0.45594000000E+02  0.51100000000E-03 0. -1.
         11   -1    0    0    0    0 -0.00000000000E+00 -0.00000000000E+00 -0.45593999997E+02  0.45594000000E+02  0.51100000000E-03 0.  1.
    9900012    2    1    2    0    0  0.10147750896E+01  0.92529101659E+01 -0.42390765667E+02  0.47787272715E+02  0.20000007619E+02 0.  0.
         12    1    1    2    0    0 -0.10147750896E+01 -0.92529101659E+01  0.42390765667E+02  0.43400727285E+02  0.00000000000E+00 0. -1.
         11    1    3    3    0    0 -0.13554523500E+00  0.12250329392E+01  0.10541121463E+00  0.12370084875E+01  0.51100000000E-03 0. -1.
        -11    1    3    3    0    0  0.19420564730E+01 -0.52434807214E+01 -0.10362338485E+02  0.11774707323E+02  0.51100000000E-03 0.  1.
         12    1    3    3    0    0 -0.79173614837E+00  0.13271357948E+02 -0.32133838397E+02  0.34775556905E+02  0.00000000000E+00 0. -1.
</event>
<event>
 7    1  0.2459936E-009  0.4778727E+02  0.7816164E-02  0.1312668E+00
        -11   -1    0    0    0    0  0.00000000000E+00  0.00000000000E+00  0.45593999997E+02  0.45594000000E+02  0.51100000000E-03 0.  1.
         11   -1    0    0    0    0 -0.00000000000E+00 -0.00000000000E+00 -0.45593999997E+02  0.45594000000E+02  0.51100000000E-03 0. -1.
    9900012    2    1    2    0    0 -0.27178451034E+02 -0.24416502650E+02  0.23426258003E+02  0.47787269980E+02  0.19999995147E+02 0.  0.
         12    1    1    2    0    0  0.27178451034E+02  0.24416502650E+02 -0.23426258003E+02  0.43400730020E+02  0.00000000000E+00 0. -1.
         11    1    3    3    0    0 -0.15438987846E+01  0.24568708652E+01  0.10188513151E+01  0.30753692735E+01  0.51100000000E-03 0. -1.
        -11    1    3    3    0    0 -0.66629149906E+01 -0.41369414726E+01  0.97379688607E+01  0.12503469867E+02  0.51100000000E-03 0.  1.
         12    1    3    3    0    0 -0.18971637258E+02 -0.22736432042E+02  0.12669437827E+02  0.32208430840E+02  0.00000000000E+00 0. -1.
</event>
<event>
 7    1  0.2459936E-009  0.4778727E+02  0.7816164E-02  0.1312668E+00
        -11   -1    0    0    0    0  0.00000000000E+00  0.00000000000E+00  0.45593999997E+02  0.45594000000E+02  0.51100000000E-03 0.  1.
         11   -1    0    0    0    0 -0.00000000000E+00 -0.00000000000E+00 -0.45593999997E+02  0.45594000000E+02  0.51100000000E-03 0. -1.
    9900012    2    1    2    0    0  0.38193390528E+02  0.72580522924E+01  0.19292721485E+02  0.47787268377E+02  0.19999987837E+02 0.  0.
         12    1    1    2    0    0 -0.38193390528E+02 -0.72580522924E+01 -0.19292721485E+02  0.43400731623E+02  0.00000000000E+00 0. -1.
         11    1    3    3    0    0  0.77223122027E+01 -0.48429552012E+01  0.89819281942E+01  0.12797005712E+02  0.51100000000E-03 0. -1.
        -11    1    3    3    0    0  0.99017917257E+01  0.41867938688E+01  0.66717827025E+01  0.12652565233E+02  0.51100000000E-03 0.  1.
        -12    1    3    3    0    0  0.20569286600E+02  0.79142136248E+01  0.36390105886E+01  0.22337697432E+02  0.00000000000E+00 0.  1.
</event>
<event>
 7    1  0.2459936E-009  0.4778729E+02  0.7816164E-02  0.1312668E+00
        -11   -1    0    0    0    0  0.00000000000E+00  0.00000000000E+00  0.45593999997E+02  0.45594000000E+02  0.51100000000E-03 0.  1.
         11   -1    0    0    0    0 -0.00000000000E+00 -0.00000000000E+00 -0.45593999997E+02  0.45594000000E+02  0.51100000000E-03 0. -1.
    9900012    2    1    2    0    0 -0.32955241371E+02 -0.23149276889E+02 -0.16176679321E+02  0.47787286778E+02  0.20000071737E+02 0.  0.
         12    1    1    2    0    0  0.32955241371E+02  0.23149276889E+02  0.16176679321E+02  0.43400713222E+02  0.00000000000E+00 0. -1.
         11    1    3    3    0    0 -0.10940572664E+02 -0.86480878108E+01 -0.79514207181E+01  0.16053368640E+02  0.51100000000E-03 0. -1.
        -11    1    3    3    0    0 -0.18071493249E+02 -0.14749885260E+02 -0.82071562622E+00  0.23341198723E+02  0.51100000000E-03 0.  1.
         12    1    3    3    0    0 -0.39431754582E+01  0.24869618266E+00 -0.74045429768E+01  0.83927194151E+01  0.00000000000E+00 0. -1.
</event>
<event>
 7    1  0.2459936E-009  0.4778727E+02  0.7816164E-02  0.1312668E+00
        -11   -1    0    0    0    0  0.00000000000E+00  0.00000000000E+00  0.45593999997E+02  0.45594000000E+02  0.51100000000E-03 0.  1.
         11   -1    0    0    0    0 -0.00000000000E+00 -0.00000000000E+00 -0.45593999997E+02  0.45594000000E+02  0.51100000000E-03 0. -1.
    9900012    2    1    2    0    0 -0.15511810004E+02 -0.38145501609E+02 -0.13708669392E+02  0.47787272367E+02  0.20000006029E+02 0.  0.
         12    1    1    2    0    0  0.15511810004E+02  0.38145501609E+02  0.13708669392E+02  0.43400727633E+02  0.00000000000E+00 0. -1.
         11    1    3    3    0    0 -0.10274396788E+00 -0.54705723907E+01  0.77961881678E+00  0.55268005542E+01  0.51100000000E-03 0. -1.
        -11    1    3    3    0    0 -0.71697545005E+01 -0.27240065374E+02 -0.15810928857E+02  0.32301888687E+02  0.51100000000E-03 0.  1.
        -12    1    3    3    0    0 -0.82393115354E+01 -0.54348638443E+01  0.13226406481E+01  0.99585831255E+01  0.00000000000E+00 0.  1.
</event>
<event>
 7    1  0.2459936E-009  0.4778727E+02  0.7816164E-02  0.1312668E+00
        -11   -1    0    0    0    0  0.00000000000E+00  0.00000000000E+00  0.45593999997E+02  0.45594000000E+02  0.51100000000E-03 0.  1.
         11   -1    0    0    0    0 -0.00000000000E+00 -0.00000000000E+00 -0.45593999997E+02  0.45594000000E+02  0.51100000000E-03 0. -1.
    9900012    2    1    2    0    0  0.52286154084E+01 -0.42683099578E+02 -0.58683944467E+01  0.47787268877E+02  0.19999990118E+02 0.  0.
         12    1    1    2    0    0 -0.52286154084E+01  0.42683099578E+02  0.58683944467E+01  0.43400731123E+02  0.00000000000E+00 0. -1.
         11    1    3    3    0    0 -0.18322527564E+01 -0.23914770287E+01 -0.43493302518E+01  0.52908398617E+01  0.51100000000E-03 0. -1.
        -11    1    3    3    0    0  0.19638643941E+01 -0.10613177791E+02 -0.55129643043E+01  0.12119780603E+02  0.51100000000E-03 0.  1.
        -12    1    3    3    0    0  0.50970037706E+01 -0.29678444758E+02  0.39939001094E+01  0.30376648412E+02  0.00000000000E+00 0.  1.
</event>
<event>
 7    1  0.2459936E-009  0.4778730E+02  0.7816164E-02  0.1312668E+00
        -11   -1    0    0    0    0  0.00000000000E+00  0.00000000000E+00  0.45593999997E+02  0.45594000000E+02  0.51100000000E-03 0.  1.
         11   -1    0    0    0    0 -0.00000000000E+00 -0.00000000000E+00 -0.45593999997E+02  0.45594000000E+02  0.51100000000E-03 0. -1.
    9900012    2    1    2    0    0 -0.35565029778E+02 -0.23727672060E+02  0.74664041828E+01  0.47787297748E+02  0.20000121754E+02 0.  0.
         12    1    1    2    0    0  0.35565029778E+02  0.23727672060E+02 -0.74664041828E+01  0.43400702252E+02  0.00000000000E+00 0. -1.
         11    1    3    3    0    0 -0.76901732509E+01 -0.37148698454E+01 -0.32267823924E+01  0.91296849598E+01  0.51100000000E-03 0. -1.
        -11    1    3    3    0    0 -0.45685979982E+01 -0.96043217845E+01 -0.79783387030E+00  0.10665440626E+02  0.51100000000E-03 0.  1.
        -12    1    3    3    0    0 -0.23306258529E+02 -0.10408480430E+02  0.11491020445E+02  0.27992172162E+02  0.00000000000E+00 0.  1.
</event>
<event>
 7    1  0.2459936E-009  0.4778727E+02  0.7816164E-02  0.1312668E+00
        -11   -1    0    0    0    0  0.00000000000E+00  0.00000000000E+00  0.45593999997E+02  0.45594000000E+02  0.51100000000E-03 0. -1.
         11   -1    0    0    0    0 -0.00000000000E+00 -0.00000000000E+00 -0.45593999997E+02  0.45594000000E+02  0.51100000000E-03 0.  1.
    9900012    2    1    2    0    0  0.16566119805E+02  0.39315624472E+02  0.79667288223E+01  0.47787269348E+02  0.19999992265E+02 0.  0.
         12    1    1    2    0    0 -0.16566119805E+02 -0.39315624472E+02 -0.79667288223E+01  0.43400730652E+02  0.00000000000E+00 0. -1.
         11    1    3    3    0    0  0.27971171688E+01  0.14223553929E+02  0.67276132240E+01  0.15981055371E+02  0.51100000000E-03 0. -1.
        -11    1    3    3    0    0  0.49464798040E+01  0.90551203376E+01  0.71711726998E+01  0.12565372455E+02  0.51100000000E-03 0.  1.
        -12    1    3    3    0    0  0.88225228320E+01  0.16036950206E+02 -0.59320571015E+01  0.19240841522E+02  0.00000000000E+00 0.  1.
</event>
<event>
 7    1  0.2459936E-009  0.4778727E+02  0.7816164E-02  0.1312668E+00
        -11   -1    0    0    0    0  0.00000000000E+00  0.00000000000E+00  0.45593999997E+02  0.45594000000E+02  0.51100000000E-03 0.  1.
         11   -1    0    0    0    0 -0.00000000000E+00 -0.00000000000E+00 -0.45593999997E+02  0.45594000000E+02  0.51100000000E-03 0. -1.
    9900012    2    1    2    0    0  0.15899113695E+02  0.40354615888E+02  0.15318713359E+01  0.47787268791E+02  0.19999989723E+02 0.  0.
         12    1    1    2    0    0 -0.15899113695E+02 -0.40354615888E+02 -0.15318713359E+01  0.43400731209E+02  0.00000000000E+00 0. -1.
         11    1    3    3    0    0  0.19154618335E+01 -0.94851845311E+00 -0.14152408162E+01  0.25635108973E+01  0.51100000000E-03 0. -1.
        -11    1    3    3    0    0  0.78346325190E+00  0.74506139992E+01 -0.35864985738E+01  0.83059277576E+01  0.51100000000E-03 0.  1.
        -12    1    3    3    0    0  0.13200188610E+02  0.33852520342E+02  0.65336107259E+01  0.36917830136E+02  0.00000000000E+00 0.  1.
</event>
<event>
 7    1  0.2459936E-009  0.4778727E+02  0.7816164E-02  0.1312668E+00
        -11   -1    0    0    0    0  0.00000000000E+00  0.00000000000E+00  0.45593999997E+02  0.45594000000E+02  0.51100000000E-03 0.  1.
         11   -1    0    0    0    0 -0.00000000000E+00 -0.00000000000E+00 -0.45593999997E+02  0.45594000000E+02  0.51100000000E-03 0. -1.
    9900012    2    1    2    0    0  0.95029489032E+01  0.13398004469E+02  0.40172261316E+02  0.47787272577E+02  0.20000006989E+02 0.  0.
         12    1    1    2    0    0 -0.95029489032E+01 -0.13398004469E+02 -0.40172261316E+02  0.43400727423E+02  0.00000000000E+00 0. -1.
         11    1    3    3    0    0 -0.29978879728E+01  0.10267744574E+02  0.10982550888E+02  0.15330699110E+02  0.51100000000E-03 0. -1.
        -11    1    3    3    0    0  0.73755132318E+00  0.14328574912E+01  0.10866984990E+01  0.19437017347E+01  0.51100000000E-03 0.  1.
        -12    1    3    3    0    0  0.11763285553E+02  0.16974024040E+01  0.28103011928E+02  0.30512871733E+02  0.00000000000E+00 0.  1.
</event>
<event>
 7    1  0.2459936E-009  0.4778727E+02  0.7816164E-02  0.1312668E+00
        -11   -1    0    0    0    0  0.00000000000E+00  0.00000000000E+00  0.45593999997E+02  0.45594000000E+02  0.51100000000E-03 0.  1.
         11   -1    0    0    0    0 -0.00000000000E+00 -0.00000000000E+00 -0.45593999997E+02  0.45594000000E+02  0.51100000000E-03 0. -1.
    9900012    2    1    2    0    0  0.28093797264E+02  0.18515293470E+01  0.33029284161E+02  0.47787271690E+02  0.20000002945E+02 0.  0.
         12    1    1    2    0    0 -0.28093797264E+02 -0.18515293470E+01 -0.33029284161E+02  0.43400728310E+02  0.00000000000E+00 0. -1.
         11    1    3    3    0    0  0.13830688569E+02  0.19279355764E+01  0.13675422491E+02  0.19545384684E+02  0.51100000000E-03 0.  1.
        -11    1    3    3    0    0  0.13222985592E+02 -0.27740290030E+01  0.20957971813E+02  0.24935500149E+02  0.51100000000E-03 0. -1.
         12    1    3    3    0    0  0.10401231034E+01  0.26976227736E+01 -0.16041101438E+01  0.33063868577E+01  0.00000000000E+00 0. -1.
</event>
<event>
 7    1  0.2459936E-009  0.4778727E+02  0.7816164E-02  0.1312668E+00
        -11   -1    0    0    0    0  0.00000000000E+00  0.00000000000E+00  0.45593999997E+02  0.45594000000E+02  0.51100000000E-03 0. -1.
         11   -1    0    0    0    0 -0.00000000000E+00 -0.00000000000E+00 -0.45593999997E+02  0.45594000000E+02  0.51100000000E-03 0.  1.
    9900012    2    1    2    0    0  0.36629841347E+02  0.24967954207E+01  0.23143986756E+02  0.47787269736E+02  0.19999994035E+02 0.  0.
         12    1    1    2    0    0 -0.36629841347E+02 -0.24967954207E+01 -0.23143986756E+02  0.43400730264E+02  0.00000000000E+00 0. -1.
         11    1    3    3    0    0  0.70234878979E+01  0.75451099120E+00 -0.25108757321E+01  0.74968771026E+01  0.51100000000E-03 0. -1.
        -11    1    3    3    0    0  0.10711531949E+02 -0.12561089301E+01  0.42768322230E+01  0.11601983471E+02  0.51100000000E-03 0.  1.
        -12    1    3    3    0    0  0.18894821501E+02  0.29983933596E+01  0.21378030265E+02  0.28688409163E+02  0.00000000000E+00 0.  1.
</event>
<event>
 7    1  0.2459936E-009  0.4778728E+02  0.7816164E-02  0.1312668E+00
        -11   -1    0    0    0    0  0.00000000000E+00  0.00000000000E+00  0.45593999997E+02  0.45594000000E+02  0.51100000000E-03 0.  1.
         11   -1    0    0    0    0 -0.00000000000E+00 -0.00000000000E+00 -0.45593999997E+02  0.45594000000E+02  0.51100000000E-03 0. -1.
    9900012    2    1    2    0    0  0.37081176379E+02  0.21132969989E+02 -0.78744355155E+01  0.47787276539E+02  0.20000025053E+02 0.  0.
         12    1    1    2    0    0 -0.37081176379E+02 -0.21132969989E+02  0.78744355155E+01  0.43400723461E+02  0.00000000000E+00 0. -1.
         11    1    3    3    0    0  0.14466756883E+02  0.77771889173E+01  0.64539552527E+01  0.17647245135E+02  0.51100000000E-03 0. -1.
        -11    1    3    3    0    0  0.61937626947E+00  0.95113199269E+00 -0.61796924301E-01  0.11367049537E+01  0.51100000000E-03 0.  1.
         12    1    3    3    0    0  0.21995043226E+02  0.12404649079E+02 -0.14266593844E+02  0.29003326451E+02  0.00000000000E+00 0. -1.
</event>
<event>
 7    1  0.2459936E-009  0.4778727E+02  0.7816164E-02  0.1312668E+00
        -11   -1    0    0    0    0  0.00000000000E+00  0.00000000000E+00  0.45593999997E+02  0.45594000000E+02  0.51100000000E-03 0.  1.
         11   -1    0    0    0    0 -0.00000000000E+00 -0.00000000000E+00 -0.45593999997E+02  0.45594000000E+02  0.51100000000E-03 0. -1.
    9900012    2    1    2    0    0 -0.26353270570E+02  0.20332134427E+02  0.27851986046E+02  0.47787266287E+02  0.19999978310E+02 0.  0.
         12    1    1    2    0    0  0.26353270570E+02 -0.20332134427E+02 -0.27851986046E+02  0.43400733713E+02  0.00000000000E+00 0. -1.
         11    1    3    3    0    0 -0.31283612191E+01 -0.71355485951E-01  0.72197762947E+01  0.78687296007E+01  0.51100000000E-03 0. -1.
        -11    1    3    3    0    0 -0.11379896283E+02  0.36752731882E+01  0.13917277588E+02  0.18349394762E+02  0.51100000000E-03 0.  1.
         12    1    3    3    0    0 -0.11845013068E+02  0.16728216725E+02  0.67149321629E+01  0.21569141924E+02  0.00000000000E+00 0. -1.
</event>
<event>
 7    1  0.2459936E-009  0.4778727E+02  0.7816164E-02  0.1312668E+00
        -11   -1    0    0    0    0  0.00000000000E+00  0.00000000000E+00  0.45593999997E+02  0.45594000000E+02  0.51100000000E-03 0.  1.
         11   -1    0    0    0    0 -0.00000000000E+00 -0.00000000000E+00 -0.45593999997E+02  0.45594000000E+02  0.51100000000E-03 0. -1.
    9900012    2    1    2    0    0  0.83441567779E+01 -0.34762767771E+02  0.24607888102E+02  0.47787272676E+02  0.20000007440E+02 0.  0.
         12    1    1    2    0    0 -0.83441567779E+01  0.34762767771E+02 -0.24607888102E+02  0.43400727324E+02  0.00000000000E+00 0. -1.
         11    1    3    3    0    0  0.45732159574E+01 -0.15927938660E+02  0.11285922989E+02  0.20049578353E+02  0.51100000000E-03 0. -1.
        -11    1    3    3    0    0  0.29390288775E+01 -0.20377284165E+02  0.14872218499E+02  0.25397922830E+02  0.51100000000E-03 0.  1.
         12    1    3    3    0    0  0.83191194303E+00  0.15424550549E+01 -0.15502533871E+01  0.23397714934E+01  0.00000000000E+00 0. -1.
</event>
<event>
 7    1  0.2459936E-009  0.4778727E+02  0.7816164E-02  0.1312668E+00
        -11   -1    0    0    0    0  0.00000000000E+00  0.00000000000E+00  0.45593999997E+02  0.45594000000E+02  0.51100000000E-03 0.  1.
         11   -1    0    0    0    0 -0.00000000000E+00 -0.00000000000E+00 -0.45593999997E+02  0.45594000000E+02  0.51100000000E-03 0. -1.
    9900012    2    1    2    0    0  0.22041142937E+02 -0.24899527364E+02  0.27889506392E+02  0.47787274065E+02  0.20000013771E+02 0.  0.
         12    1    1    2    0    0 -0.22041142937E+02  0.24899527364E+02 -0.27889506392E+02  0.43400725935E+02  0.00000000000E+00 0. -1.
         11    1    3    3    0    0  0.73575299214E+01 -0.77601569567E+01  0.16701643610E+02  0.19831746823E+02  0.51100000000E-03 0.  1.
        -11    1    3    3    0    0 -0.18056023885E+01 -0.30367704828E+01  0.33986363840E+01  0.49023366349E+01  0.51100000000E-03 0. -1.
         12    1    3    3    0    0  0.16489215404E+02 -0.14102599925E+02  0.77892263983E+01  0.23053190607E+02  0.00000000000E+00 0. -1.
</event>
<event>
 7    1  0.2459936E-009  0.4778728E+02  0.7816164E-02  0.1312668E+00
        -11   -1    0    0    0    0  0.00000000000E+00  0.00000000000E+00  0.45593999997E+02  0.45594000000E+02  0.51100000000E-03 0.  1.
         11   -1    0    0    0    0 -0.00000000000E+00 -0.00000000000E+00 -0.45593999997E+02  0.45594000000E+02  0.51100000000E-03 0. -1.
    9900012    2    1    2    0    0  0.33515692456E+02 -0.19062642701E+02  0.19923274063E+02  0.47787276078E+02  0.20000022949E+02 0.  0.
         12    1    1    2    0    0 -0.33515692456E+02  0.19062642701E+02 -0.19923274063E+02  0.43400723922E+02  0.00000000000E+00 0. -1.
         11    1    3    3    0    0  0.26522937572E+01 -0.70062117400E+01  0.18919988266E+01  0.77266632475E+01  0.51100000000E-03 0. -1.
        -11    1    3    3    0    0  0.56187620968E+01 -0.34299199467E+01  0.10407736366E+02  0.12314861545E+02  0.51100000000E-03 0.  1.
        -12    1    3    3    0    0  0.25244636602E+02 -0.86265110144E+01  0.76235388704E+01  0.27745751285E+02  0.00000000000E+00 0.  1.
</event>
<event>
 7    1  0.2459936E-009  0.4778725E+02  0.7816164E-02  0.1312668E+00
        -11   -1    0    0    0    0  0.00000000000E+00  0.00000000000E+00  0.45593999997E+02  0.45594000000E+02  0.51100000000E-03 0.  1.
         11   -1    0    0    0    0 -0.00000000000E+00 -0.00000000000E+00 -0.45593999997E+02  0.45594000000E+02  0.51100000000E-03 0. -1.
    9900012    2    1    2    0    0 -0.22165992529E+02 -0.12236171653E+02  0.35250101175E+02  0.47787253988E+02  0.19999922235E+02 0.  0.
         12    1    1    2    0    0  0.22165992529E+02  0.12236171653E+02 -0.35250101175E+02  0.43400746012E+02  0.00000000000E+00 0. -1.
         11    1    3    3    0    0 -0.91642509335E+01  0.12813293400E+01  0.23403779743E+02  0.25166688431E+02  0.51100000000E-03 0. -1.
        -11    1    3    3    0    0  0.34916663076E-01 -0.13529896565E+01  0.14365588758E+01  0.19737025735E+01  0.51100000000E-03 0.  1.
        -12    1    3    3    0    0 -0.13036658259E+02 -0.12164511336E+02  0.10409762556E+02  0.20646862984E+02  0.00000000000E+00 0.  1.
</event>
<event>
 7    1  0.2459936E-009  0.4778728E+02  0.7816164E-02  0.1312668E+00
        -11   -1    0    0    0    0  0.00000000000E+00  0.00000000000E+00  0.45593999997E+02  0.45594000000E+02  0.51100000000E-03 0. -1.
         11   -1    0    0    0    0 -0.00000000000E+00 -0.00000000000E+00 -0.45593999997E+02  0.45594000000E+02  0.51100000000E-03 0.  1.
    9900012    2    1    2    0    0 -0.24814820860E+02  0.31089024145E+02 -0.17358573946E+02  0.47787275973E+02  0.20000022470E+02 0.  0.
         12    1    1    2    0    0  0.24814820860E+02 -0.31089024145E+02  0.17358573946E+02  0.43400724027E+02  0.00000000000E+00 0. -1.
         11    1    3    3    0    0 -0.43752796514E+01  0.92783607436E+01 -0.35878751684E+01  0.10867561760E+02  0.51100000000E-03 0. -1.
        -11    1    3    3    0    0 -0.37503151715E+01  0.12529062186E+02 -0.11985961244E+02  0.17739941667E+02  0.51100000000E-03 0.  1.
         12    1    3    3    0    0 -0.16689226037E+02  0.92816012153E+01 -0.17847375343E+01  0.19179772546E+02  0.00000000000E+00 0. -1.
</event>
<event>
 7    1  0.2459936E-009  0.4778727E+02  0.7816164E-02  0.1312668E+00
        -11   -1    0    0    0    0  0.00000000000E+00  0.00000000000E+00  0.45593999997E+02  0.45594000000E+02  0.51100000000E-03 0. -1.
         11   -1    0    0    0    0 -0.00000000000E+00 -0.00000000000E+00 -0.45593999997E+02  0.45594000000E+02  0.51100000000E-03 0.  1.
    9900012    2    1    2    0    0 -0.13076288518E+01  0.35347346133E+02 -0.25149126201E+02  0.47787270507E+02  0.19999997548E+02 0.  0.
         12    1    1    2    0    0  0.13076288518E+01 -0.35347346133E+02  0.25149126201E+02  0.43400729493E+02  0.00000000000E+00 0. -1.
         11    1    3    3    0    0 -0.41666524097E+01 -0.15198236676E+00 -0.53343335016E+01  0.67704656494E+01  0.51100000000E-03 0. -1.
        -11    1    3    3    0    0 -0.12186593475E+01  0.11318351474E+02 -0.59074862946E+01  0.12825311118E+02  0.51100000000E-03 0.  1.
         12    1    3    3    0    0  0.40776829054E+01  0.24180977026E+02 -0.13907306405E+02  0.28191493739E+02  0.00000000000E+00 0. -1.
</event>
<event>
 7    1  0.2459936E-009  0.4778727E+02  0.7816164E-02  0.1312668E+00
        -11   -1    0    0    0    0  0.00000000000E+00  0.00000000000E+00  0.45593999997E+02  0.45594000000E+02  0.51100000000E-03 0.  1.
         11   -1    0    0    0    0 -0.00000000000E+00 -0.00000000000E+00 -0.45593999997E+02  0.45594000000E+02  0.51100000000E-03 0. -1.
    9900012    2    1    2    0    0 -0.22639696705E+02  0.36108664656E+02  0.81994853654E+01  0.47787273158E+02  0.20000009636E+02 0.  0.
         12    1    1    2    0    0  0.22639696705E+02 -0.36108664656E+02 -0.81994853654E+01  0.43400726842E+02  0.00000000000E+00 0. -1.
         11    1    3    3    0    0 -0.31443307235E+01  0.91365961600E-01 -0.13356132434E+01  0.34174590612E+01  0.51100000000E-03 0. -1.
        -11    1    3    3    0    0 -0.10692310833E+02  0.15565487155E+02 -0.25174153773E+01  0.19051175338E+02  0.51100000000E-03 0.  1.
         12    1    3    3    0    0 -0.88030551483E+01  0.20451811540E+02  0.12052513986E+02  0.25318638759E+02  0.00000000000E+00 0. -1.
</event>
<event>
 7    1  0.2459936E-009  0.4778727E+02  0.7816164E-02  0.1312668E+00
        -11   -1    0    0    0    0  0.00000000000E+00  0.00000000000E+00  0.45593999997E+02  0.45594000000E+02  0.51100000000E-03 0.  1.
         11   -1    0    0    0    0 -0.00000000000E+00 -0.00000000000E+00 -0.45593999997E+02  0.45594000000E+02  0.51100000000E-03 0. -1.
    9900012    2    1    2    0    0 -0.40429918992E+02 -0.12432776418E+02  0.97196416944E+01  0.47787265976E+02  0.19999976892E+02 0.  0.
         12    1    1    2    0    0  0.40429918992E+02  0.12432776418E+02 -0.97196416944E+01  0.43400734024E+02  0.00000000000E+00 0. -1.
         11    1    3    3    0    0 -0.45172690703E+00 -0.23233940867E+01  0.13955436574E+01  0.27476825947E+01  0.51100000000E-03 0. -1.
        -11    1    3    3    0    0 -0.20420419263E+02  0.32277918190E+00 -0.21265967112E+01  0.20533390443E+02  0.51100000000E-03 0.  1.
        -12    1    3    3    0    0 -0.19557772822E+02 -0.10432161514E+02  0.10450694748E+02  0.24506192938E+02  0.00000000000E+00 0.  1.
</event>
<event>
 7    1  0.2459936E-009  0.4778727E+02  0.7816164E-02  0.1312668E+00
        -11   -1    0    0    0    0  0.00000000000E+00  0.00000000000E+00  0.45593999997E+02  0.45594000000E+02  0.51100000000E-03 0.  1.
         11   -1    0    0    0    0 -0.00000000000E+00 -0.00000000000E+00 -0.45593999997E+02  0.45594000000E+02  0.51100000000E-03 0. -1.
    9900012    2    1    2    0    0  0.22959133593E+02 -0.70380518595E-01  0.36830650745E+02  0.47787267252E+02  0.19999982711E+02 0.  0.
         12    1    1    2    0    0 -0.22959133593E+02  0.70380518595E-01 -0.36830650745E+02  0.43400732748E+02  0.00000000000E+00 0. -1.
         11    1    3    3    0    0  0.73864890832E+01  0.24811847400E+01  0.82802649626E+01  0.11370104960E+02  0.51100000000E-03 0. -1.
        -11    1    3    3    0    0  0.14906869620E+02  0.42817487909E+01  0.22081120073E+02  0.26983772874E+02  0.51100000000E-03 0.  1.
        -12    1    3    3    0    0  0.66577488949E+00 -0.68333140495E+01  0.64692657094E+01  0.94333894185E+01  0.00000000000E+00 0.  1.
</event>
<event>
 7    1  0.2459936E-009  0.4778727E+02  0.7816164E-02  0.1312668E+00
        -11   -1    0    0    0    0  0.00000000000E+00  0.00000000000E+00  0.45593999997E+02  0.45594000000E+02  0.51100000000E-03 0. -1.
         11   -1    0    0    0    0 -0.00000000000E+00 -0.00000000000E+00 -0.45593999997E+02  0.45594000000E+02  0.51100000000E-03 0.  1.
    9900012    2    1    2    0    0 -0.42396236156E+02 -0.61280119846E+01 -0.69735221313E+01  0.47787269799E+02  0.19999994320E+02 0.  0.
         12    1    1    2    0    0  0.42396236156E+02  0.61280119846E+01  0.69735221313E+01  0.43400730201E+02  0.00000000000E+00 0. -1.
         11    1    3    3    0    0 -0.54612106820E+01  0.46414991123E+00  0.30419414885E+01  0.62684659634E+01  0.51100000000E-03 0. -1.
        -11    1    3    3    0    0 -0.62652695331E+01  0.38233244677E+01  0.77055128141E+00  0.73800516154E+01  0.51100000000E-03 0.  1.
        -12    1    3    3    0    0 -0.30669755941E+02 -0.10415486364E+02 -0.10786014901E+02  0.34138752220E+02  0.00000000000E+00 0.  1.
</event>
<event>
 7    1  0.2459936E-009  0.4778727E+02  0.7816164E-02  0.1312668E+00
        -11   -1    0    0    0    0  0.00000000000E+00  0.00000000000E+00  0.45593999997E+02  0.45594000000E+02  0.51100000000E-03 0.  1.
         11   -1    0    0    0    0 -0.00000000000E+00 -0.00000000000E+00 -0.45593999997E+02  0.45594000000E+02  0.51100000000E-03 0. -1.
    9900012    2    1    2    0    0 -0.43147876540E+02 -0.44777581927E+01 -0.13543007144E+01  0.47787266149E+02  0.19999977681E+02 0.  0.
         12    1    1    2    0    0  0.43147876540E+02  0.44777581927E+01  0.13543007144E+01  0.43400733851E+02  0.00000000000E+00 0. -1.
         11    1    3    3    0    0 -0.27673283733E+02 -0.12223881617E+02 -0.23425162660E+01  0.30343389677E+02  0.51100000000E-03 0.  1.
        -11    1    3    3    0    0 -0.71172324358E+01  0.34991979437E+01  0.14306185421E+01  0.80589114319E+01  0.51100000000E-03 0. -1.
        -12    1    3    3    0    0 -0.83573603709E+01  0.42469254803E+01 -0.44240299052E+00  0.93849650405E+01  0.00000000000E+00 0.  1.
</event>
<event>
 7    1  0.2459936E-009  0.4778727E+02  0.7816164E-02  0.1312668E+00
        -11   -1    0    0    0    0  0.00000000000E+00  0.00000000000E+00  0.45593999997E+02  0.45594000000E+02  0.51100000000E-03 0.  1.
         11   -1    0    0    0    0 -0.00000000000E+00 -0.00000000000E+00 -0.45593999997E+02  0.45594000000E+02  0.51100000000E-03 0. -1.
    9900012    2    1    2    0    0 -0.22950840275E+02 -0.65146093530E+01  0.36255235096E+02  0.47787271018E+02  0.19999999878E+02 0.  0.
         12    1    1    2    0    0  0.22950840275E+02  0.65146093530E+01 -0.36255235096E+02  0.43400728982E+02  0.00000000000E+00 0. -1.
         11    1    3    3    0    0 -0.37628685093E+01 -0.11613651692E+01  0.12264271683E+01  0.41245693514E+01  0.51100000000E-03 0. -1.
        -11    1    3    3    0    0  0.24572677617E-01 -0.48078186226E+01  0.15637460022E+02  0.16359886305E+02  0.51100000000E-03 0.  1.
        -12    1    3    3    0    0 -0.19212544444E+02 -0.54542556114E+00  0.19391347905E+02  0.27302815361E+02  0.00000000000E+00 0.  1.
</event>
<event>
 7    1  0.2459936E-009  0.4778727E+02  0.7816164E-02  0.1312668E+00
        -11   -1    0    0    0    0  0.00000000000E+00  0.00000000000E+00  0.45593999997E+02  0.45594000000E+02  0.51100000000E-03 0.  1.
         11   -1    0    0    0    0 -0.00000000000E+00 -0.00000000000E+00 -0.45593999997E+02  0.45594000000E+02  0.51100000000E-03 0. -1.
    9900012    2    1    2    0    0  0.37001833374E+02 -0.17295531289E+02  0.14674887801E+02  0.47787269504E+02  0.19999992978E+02 0.  0.
         12    1    1    2    0    0 -0.37001833374E+02  0.17295531289E+02 -0.14674887801E+02  0.43400730496E+02  0.00000000000E+00 0. -1.
         11    1    3    3    0    0  0.17993251796E+02 -0.53507861093E+01  0.54205352370E+01  0.19538941238E+02  0.51100000000E-03 0. -1.
        -11    1    3    3    0    0  0.19222176552E+02 -0.10976948887E+02  0.12105722995E+02  0.25229625596E+02  0.51100000000E-03 0.  1.
         12    1    3    3    0    0 -0.21359497371E+00 -0.96779629274E+00 -0.28513704308E+01  0.30187026702E+01  0.00000000000E+00 0. -1.
</event>
<event>
 7    1  0.2459936E-009  0.4778727E+02  0.7816164E-02  0.1312668E+00
        -11   -1    0    0    0    0  0.00000000000E+00  0.00000000000E+00  0.45593999997E+02  0.45594000000E+02  0.51100000000E-03 0.  1.
         11   -1    0    0    0    0 -0.00000000000E+00 -0.00000000000E+00 -0.45593999997E+02  0.45594000000E+02  0.51100000000E-03 0. -1.
    9900012    2    1    2    0    0 -0.28635090218E+02 -0.52872560754E+01  0.32182290501E+02  0.47787270853E+02  0.19999999128E+02 0.  0.
         12    1    1    2    0    0  0.28635090218E+02  0.52872560754E+01 -0.32182290501E+02  0.43400729147E+02  0.00000000000E+00 0. -1.
         11    1    3    3    0    0 -0.75051318659E+01 -0.78523610137E+01  0.65773854260E+01  0.12698369073E+02  0.51100000000E-03 0. -1.
        -11    1    3    3    0    0 -0.16373866213E+02 -0.26236832640E+01  0.14998314100E+02  0.22359262840E+02  0.51100000000E-03 0.  1.
        -12    1    3    3    0    0 -0.47560921393E+01  0.51887882023E+01  0.10606590975E+02  0.12729638940E+02  0.00000000000E+00 0.  1.
</event>
<event>
 7    1  0.2459936E-009  0.4778727E+02  0.7816164E-02  0.1312668E+00
        -11   -1    0    0    0    0  0.00000000000E+00  0.00000000000E+00  0.45593999997E+02  0.45594000000E+02  0.51100000000E-03 0.  1.
         11   -1    0    0    0    0 -0.00000000000E+00 -0.00000000000E+00 -0.45593999997E+02  0.45594000000E+02  0.51100000000E-03 0. -1.
    9900012    2    1    2    0    0  0.42718676094E+02 -0.15770763256E+00  0.76624317336E+01  0.47787273981E+02  0.20000013390E+02 0.  0.
         12    1    1    2    0    0 -0.42718676094E+02  0.15770763256E+00 -0.76624317336E+01  0.43400726019E+02  0.00000000000E+00 0. -1.
         11    1    3    3    0    0  0.23964219907E+01  0.21387791192E+01 -0.21507358995E+01  0.38656021068E+01  0.51100000000E-03 0. -1.
        -11    1    3    3    0    0  0.17222746715E+02 -0.13606300531E+01 -0.29309595123E+01  0.17523265748E+02  0.51100000000E-03 0.  1.
         12    1    3    3    0    0  0.23099507388E+02 -0.93585669865E+00  0.12744127145E+02  0.26398406127E+02  0.00000000000E+00 0. -1.
</event>
<event>
 7    1  0.2459936E-009  0.4778725E+02  0.7816164E-02  0.1312668E+00
        -11   -1    0    0    0    0  0.00000000000E+00  0.00000000000E+00  0.45593999997E+02  0.45594000000E+02  0.51100000000E-03 0.  1.
         11   -1    0    0    0    0 -0.00000000000E+00 -0.00000000000E+00 -0.45593999997E+02  0.45594000000E+02  0.51100000000E-03 0. -1.
    9900012    2    1    2    0    0 -0.94786363247E+01  0.38092675397E+02 -0.18512925223E+02  0.47787252705E+02  0.19999916383E+02 0.  0.
         12    1    1    2    0    0  0.94786363247E+01 -0.38092675397E+02  0.18512925223E+02  0.43400747295E+02  0.00000000000E+00 0. -1.
         11    1    3    3    0    0  0.13220435132E+01  0.13616660771E+02 -0.27725742214E+01  0.13958811471E+02  0.51100000000E-03 0. -1.
        -11    1    3    3    0    0 -0.14354704467E+01  0.41359827961E+01  0.24156715400E+01  0.50002398286E+01  0.51100000000E-03 0.  1.
         12    1    3    3    0    0 -0.93652093911E+01  0.20340031830E+02 -0.18156022541E+02  0.28828201406E+02  0.00000000000E+00 0. -1.
</event>
<event>
 7    1  0.2459936E-009  0.4778727E+02  0.7816164E-02  0.1312668E+00
        -11   -1    0    0    0    0  0.00000000000E+00  0.00000000000E+00  0.45593999997E+02  0.45594000000E+02  0.51100000000E-03 0.  1.
         11   -1    0    0    0    0 -0.00000000000E+00 -0.00000000000E+00 -0.45593999997E+02  0.45594000000E+02  0.51100000000E-03 0. -1.
    9900012    2    1    2    0    0 -0.10430265205E+02 -0.25989011308E+02  0.33157264814E+02  0.47787270156E+02  0.19999995949E+02 0.  0.
         12    1    1    2    0    0  0.10430265205E+02  0.25989011308E+02 -0.33157264814E+02  0.43400729844E+02  0.00000000000E+00 0. -1.
         11    1    3    3    0    0 -0.18134395261E+01 -0.18421044329E+01 -0.49255013239E+00  0.26314478050E+01  0.51100000000E-03 0. -1.
        -11    1    3    3    0    0 -0.13051506929E+02 -0.16045430961E+02  0.25540689246E+02  0.32865247531E+02  0.51100000000E-03 0.  1.
        -12    1    3    3    0    0  0.44346812497E+01 -0.81014759143E+01  0.81091257007E+01  0.12290574820E+02  0.00000000000E+00 0.  1.
</event>
<event>
 7    1  0.2459936E-009  0.4778727E+02  0.7816164E-02  0.1312668E+00
        -11   -1    0    0    0    0  0.00000000000E+00  0.00000000000E+00  0.45593999997E+02  0.45594000000E+02  0.51100000000E-03 0.  1.
         11   -1    0    0    0    0 -0.00000000000E+00 -0.00000000000E+00 -0.45593999997E+02  0.45594000000E+02  0.51100000000E-03 0. -1.
    9900012    2    1    2    0    0  0.30048248384E+02 -0.19762869830E+02  0.24293107061E+02  0.47787270680E+02  0.19999998338E+02 0.  0.
         12    1    1    2    0    0 -0.30048248384E+02  0.19762869830E+02 -0.24293107061E+02  0.43400729320E+02  0.00000000000E+00 0. -1.
         11    1    3    3    0    0  0.13838457984E+01 -0.71995732858E+01  0.42815601697E+01  0.84900319457E+01  0.51100000000E-03 0. -1.
        -11    1    3    3    0    0  0.68709789984E+01 -0.84450957493E+01  0.10628613694E+02  0.15215039399E+02  0.51100000000E-03 0.  1.
         12    1    3    3    0    0  0.21793423587E+02 -0.41182007950E+01  0.93829331975E+01  0.24082199335E+02  0.00000000000E+00 0. -1.
</event>
<event>
 7    1  0.2459936E-009  0.4778727E+02  0.7816164E-02  0.1312668E+00
        -11   -1    0    0    0    0  0.00000000000E+00  0.00000000000E+00  0.45593999997E+02  0.45594000000E+02  0.51100000000E-03 0.  1.
         11   -1    0    0    0    0 -0.00000000000E+00 -0.00000000000E+00 -0.45593999997E+02  0.45594000000E+02  0.51100000000E-03 0. -1.
    9900012    2    1    2    0    0 -0.10017377261E+02 -0.29469222450E-01  0.42228836554E+02  0.47787270140E+02  0.19999995878E+02 0.  0.
         12    1    1    2    0    0  0.10017377261E+02  0.29469222450E-01 -0.42228836554E+02  0.43400729860E+02  0.00000000000E+00 0. -1.
         11    1    3    3    0    0  0.37358246167E+01  0.17176972735E+01  0.14327220251E+02  0.14905573114E+02  0.51100000000E-03 0. -1.
        -11    1    3    3    0    0 -0.16138925536E+01 -0.44192933798E+01  0.52950198028E+01  0.70832222981E+01  0.51100000000E-03 0.  1.
         12    1    3    3    0    0 -0.12139309324E+02  0.26721268838E+01  0.22606596501E+02  0.25798474728E+02  0.00000000000E+00 0. -1.
</event>
<event>
 7    1  0.2459936E-009  0.4778728E+02  0.7816164E-02  0.1312668E+00
        -11   -1    0    0    0    0  0.00000000000E+00  0.00000000000E+00  0.45593999997E+02  0.45594000000E+02  0.51100000000E-03 0.  1.
         11   -1    0    0    0    0 -0.00000000000E+00 -0.00000000000E+00 -0.45593999997E+02  0.45594000000E+02  0.51100000000E-03 0. -1.
    9900012    2    1    2    0    0 -0.36458004521E+02 -0.22045349025E+02  0.82728100598E+01  0.47787275426E+02  0.20000019977E+02 0.  0.
         12    1    1    2    0    0  0.36458004521E+02  0.22045349025E+02 -0.82728100598E+01  0.43400724574E+02  0.00000000000E+00 0. -1.
         11    1    3    3    0    0 -0.19785822072E+02 -0.15738208201E+02 -0.39348662073E+01  0.25586190118E+02  0.51100000000E-03 0. -1.
        -11    1    3    3    0    0 -0.10102985327E+02 -0.11235799553E+01  0.70614956294E+01  0.12377296361E+02  0.51100000000E-03 0.  1.
         12    1    3    3    0    0 -0.65691971217E+01 -0.51835608695E+01  0.51461806376E+01  0.98237889466E+01  0.00000000000E+00 0. -1.
</event>
<event>
 7    1  0.2459936E-009  0.4778728E+02  0.7816164E-02  0.1312668E+00
        -11   -1    0    0    0    0  0.00000000000E+00  0.00000000000E+00  0.45593999997E+02  0.45594000000E+02  0.51100000000E-03 0.  1.
         11   -1    0    0    0    0 -0.00000000000E+00 -0.00000000000E+00 -0.45593999997E+02  0.45594000000E+02  0.51100000000E-03 0. -1.
    9900012    2    1    2    0    0 -0.23779013862E+02  0.17269306100E+02  0.31936694462E+02  0.47787275506E+02  0.20000020344E+02 0.  0.
         12    1    1    2    0    0  0.23779013862E+02 -0.17269306100E+02 -0.31936694462E+02  0.43400724494E+02  0.00000000000E+00 0. -1.
         11    1    3    3    0    0 -0.60037574562E+01  0.44604006921E+00  0.20267612936E+01  0.63523080009E+01  0.51100000000E-03 0. -1.
        -11    1    3    3    0    0 -0.44678504205E+01  0.12013066073E+01  0.15969891785E+02  0.16626553125E+02  0.51100000000E-03 0.  1.
         12    1    3    3    0    0 -0.13307405986E+02  0.15621959424E+02  0.13940041383E+02  0.24808414380E+02  0.00000000000E+00 0. -1.
</event>
<event>
 7    1  0.2459936E-009  0.4778727E+02  0.7816164E-02  0.1312668E+00
        -11   -1    0    0    0    0  0.00000000000E+00  0.00000000000E+00  0.45593999997E+02  0.45594000000E+02  0.51100000000E-03 0.  1.
         11   -1    0    0    0    0 -0.00000000000E+00 -0.00000000000E+00 -0.45593999997E+02  0.45594000000E+02  0.51100000000E-03 0. -1.
    9900012    2    1    2    0    0  0.33849492713E+02  0.24471998672E+02 -0.11787986360E+02  0.47787268459E+02  0.19999988210E+02 0.  0.
         12    1    1    2    0    0 -0.33849492713E+02 -0.24471998672E+02  0.11787986360E+02  0.43400731541E+02  0.00000000000E+00 0. -1.
         11    1    3    3    0    0  0.31916538040E+01  0.49766915114E+01  0.41700483614E+00  0.59268883656E+01  0.51100000000E-03 0. -1.
        -11    1    3    3    0    0  0.29109309227E+02  0.21854479972E+02 -0.13410205132E+02  0.38791800428E+02  0.51100000000E-03 0.  1.
         12    1    3    3    0    0  0.15485296820E+01 -0.23591728113E+01  0.12052139360E+01  0.30685796651E+01  0.00000000000E+00 0. -1.
</event>
<event>
 7    1  0.2459936E-009  0.4778728E+02  0.7816164E-02  0.1312668E+00
        -11   -1    0    0    0    0  0.00000000000E+00  0.00000000000E+00  0.45593999997E+02  0.45594000000E+02  0.51100000000E-03 0.  1.
         11   -1    0    0    0    0 -0.00000000000E+00 -0.00000000000E+00 -0.45593999997E+02  0.45594000000E+02  0.51100000000E-03 0. -1.
    9900012    2    1    2    0    0  0.62582720312E+01 -0.25074485470E+02  0.34867277441E+02  0.47787276198E+02  0.20000023496E+02 0.  0.
         12    1    1    2    0    0 -0.62582720312E+01  0.25074485470E+02 -0.34867277441E+02  0.43400723802E+02  0.00000000000E+00 0. -1.
         11    1    3    3    0    0 -0.15587820047E+01 -0.38053490481E+01  0.67927880407E+00  0.41679614526E+01  0.51100000000E-03 0. -1.
        -11    1    3    3    0    0 -0.40280839248E+01 -0.97750131542E+01  0.12730185344E+02  0.16547929218E+02  0.51100000000E-03 0.  1.
         12    1    3    3    0    0  0.11845137961E+02 -0.11494123267E+02  0.21457813294E+02  0.27071385527E+02  0.00000000000E+00 0. -1.
</event>
<event>
 7    1  0.2459936E-009  0.4778728E+02  0.7816164E-02  0.1312668E+00
        -11   -1    0    0    0    0  0.00000000000E+00  0.00000000000E+00  0.45593999997E+02  0.45594000000E+02  0.51100000000E-03 0.  1.
         11   -1    0    0    0    0 -0.00000000000E+00 -0.00000000000E+00 -0.45593999997E+02  0.45594000000E+02  0.51100000000E-03 0. -1.
    9900012    2    1    2    0    0 -0.16703583867E+02  0.33971703946E+02  0.21225842724E+02  0.47787276707E+02  0.20000025820E+02 0.  0.
         12    1    1    2    0    0  0.16703583867E+02 -0.33971703946E+02 -0.21225842724E+02  0.43400723293E+02  0.00000000000E+00 0. -1.
         11    1    3    3    0    0  0.93428922135E+00  0.10944458984E+02  0.54890104775E+01  0.12279385778E+02  0.51100000000E-03 0. -1.
        -11    1    3    3    0    0 -0.18168064726E+02  0.24361165594E+02  0.14895399249E+02  0.33844022870E+02  0.51100000000E-03 0.  1.
         12    1    3    3    0    0  0.53019163722E+00 -0.13339206332E+01  0.84143299736E+00  0.16638680588E+01  0.00000000000E+00 0. -1.
</event>
<event>
 7    1  0.2459936E-009  0.4778727E+02  0.7816164E-02  0.1312668E+00
        -11   -1    0    0    0    0  0.00000000000E+00  0.00000000000E+00  0.45593999997E+02  0.45594000000E+02  0.51100000000E-03 0.  1.
         11   -1    0    0    0    0 -0.00000000000E+00 -0.00000000000E+00 -0.45593999997E+02  0.45594000000E+02  0.51100000000E-03 0. -1.
    9900012    2    1    2    0    0  0.24459113637E+02  0.27552591258E+02  0.22939698391E+02  0.47787270891E+02  0.19999999299E+02 0.  0.
         12    1    1    2    0    0 -0.24459113637E+02 -0.27552591258E+02 -0.22939698391E+02  0.43400729109E+02  0.00000000000E+00 0. -1.
         11    1    3    3    0    0  0.41637709727E+01 -0.33382629886E+00 -0.14369946795E+01  0.44173954635E+01  0.51100000000E-03 0. -1.
        -11    1    3    3    0    0  0.35625495132E+01  0.24119543337E+01  0.71920921732E+01  0.83806606440E+01  0.51100000000E-03 0.  1.
        -12    1    3    3    0    0  0.16732793151E+02  0.25474463223E+02  0.17184600897E+02  0.34989214783E+02  0.00000000000E+00 0.  1.
</event>
<event>
 7    1  0.2459936E-009  0.4778728E+02  0.7816164E-02  0.1312668E+00
        -11   -1    0    0    0    0  0.00000000000E+00  0.00000000000E+00  0.45593999997E+02  0.45594000000E+02  0.51100000000E-03 0.  1.
         11   -1    0    0    0    0 -0.00000000000E+00 -0.00000000000E+00 -0.45593999997E+02  0.45594000000E+02  0.51100000000E-03 0. -1.
    9900012    2    1    2    0    0 -0.37778215721E+02 -0.16181992194E+02  0.13948898998E+02  0.47787282982E+02  0.20000054429E+02 0.  0.
         12    1    1    2    0    0  0.37778215721E+02  0.16181992194E+02 -0.13948898998E+02  0.43400717018E+02  0.00000000000E+00 0. -1.
         11    1    3    3    0    0 -0.65045148994E+01 -0.57073799055E+01 -0.24322885991E+01  0.89888223674E+01  0.51100000000E-03 0. -1.
        -11    1    3    3    0    0 -0.17787735857E+02 -0.12022977469E+02  0.84223336115E+01  0.23062767351E+02  0.51100000000E-03 0.  1.
        -12    1    3    3    0    0 -0.13485964964E+02  0.15483651806E+01  0.79588539853E+01  0.15735693264E+02  0.00000000000E+00 0.  1.
</event>
<event>
 7    1  0.2459936E-009  0.4778727E+02  0.7816164E-02  0.1312668E+00
        -11   -1    0    0    0    0  0.00000000000E+00  0.00000000000E+00  0.45593999997E+02  0.45594000000E+02  0.51100000000E-03 0. -1.
         11   -1    0    0    0    0 -0.00000000000E+00 -0.00000000000E+00 -0.45593999997E+02  0.45594000000E+02  0.51100000000E-03 0.  1.
    9900012    2    1    2    0    0 -0.21019565001E+02  0.50510124632E+01 -0.37633606277E+02  0.47787272344E+02  0.20000005923E+02 0.  0.
         12    1    1    2    0    0  0.21019565001E+02 -0.50510124632E+01  0.37633606277E+02  0.43400727656E+02  0.00000000000E+00 0. -1.
         11    1    3    3    0    0  0.13119626473E+01 -0.11790690188E+01  0.10315956722E+01  0.20434381887E+01  0.51100000000E-03 0. -1.
        -11    1    3    3    0    0 -0.27041295456E+00  0.80177745845E+00  0.57737782217E-01  0.84811801743E+00  0.51100000000E-03 0.  1.
        -12    1    3    3    0    0 -0.22061114693E+02  0.54283040236E+01 -0.38722939731E+02  0.44895716138E+02  0.00000000000E+00 0.  1.
</event>
<event>
 7    1  0.2459936E-009  0.4778727E+02  0.7816164E-02  0.1312668E+00
        -11   -1    0    0    0    0  0.00000000000E+00  0.00000000000E+00  0.45593999997E+02  0.45594000000E+02  0.51100000000E-03 0. -1.
         11   -1    0    0    0    0 -0.00000000000E+00 -0.00000000000E+00 -0.45593999997E+02  0.45594000000E+02  0.51100000000E-03 0.  1.
    9900012    2    1    2    0    0 -0.31791307626E+01  0.18802876404E+02 -0.38986772919E+02  0.47787268484E+02  0.19999988325E+02 0.  0.
         12    1    1    2    0    0  0.31791307626E+01 -0.18802876404E+02  0.38986772919E+02  0.43400731516E+02  0.00000000000E+00 0. -1.
         11    1    3    3    0    0 -0.58810191236E+01  0.61081472039E+01 -0.17495820790E+02  0.19442211643E+02  0.51100000000E-03 0. -1.
        -11    1    3    3    0    0  0.24748798245E+01  0.58678979368E+00 -0.13725302465E+02  0.13958985652E+02  0.51100000000E-03 0.  1.
         12    1    3    3    0    0  0.22700853653E+00  0.12107939407E+02 -0.77656496642E+01  0.14386071189E+02  0.00000000000E+00 0. -1.
</event>
<event>
 7    1  0.2459936E-009  0.4778727E+02  0.7816164E-02  0.1312668E+00
        -11   -1    0    0    0    0  0.00000000000E+00  0.00000000000E+00  0.45593999997E+02  0.45594000000E+02  0.51100000000E-03 0. -1.
         11   -1    0    0    0    0 -0.00000000000E+00 -0.00000000000E+00 -0.45593999997E+02  0.45594000000E+02  0.51100000000E-03 0.  1.
    9900012    2    1    2    0    0 -0.27905682774E+02  0.31147306062E+02 -0.11607818821E+02  0.47787271161E+02  0.20000000531E+02 0.  0.
         12    1    1    2    0    0  0.27905682774E+02 -0.31147306062E+02  0.11607818821E+02  0.43400728839E+02  0.00000000000E+00 0. -1.
         11    1    3    3    0    0 -0.10871237880E+02  0.75839535585E+01 -0.75458611806E+01  0.15252546864E+02  0.51100000000E-03 0. -1.
        -11    1    3    3    0    0 -0.81539059926E+01  0.11768187943E+02 -0.90651113958E+01  0.16945579816E+02  0.51100000000E-03 0.  1.
        -12    1    3    3    0    0 -0.88805389013E+01  0.11795164560E+02  0.50031537549E+01  0.15589144481E+02  0.00000000000E+00 0.  1.
</event>
<event>
 7    1  0.2459936E-009  0.4778727E+02  0.7816164E-02  0.1312668E+00
        -11   -1    0    0    0    0  0.00000000000E+00  0.00000000000E+00  0.45593999997E+02  0.45594000000E+02  0.51100000000E-03 0. -1.
         11   -1    0    0    0    0 -0.00000000000E+00 -0.00000000000E+00 -0.45593999997E+02  0.45594000000E+02  0.51100000000E-03 0.  1.
    9900012    2    1    2    0    0  0.26122495564E+02  0.63114730515E+01 -0.34079371049E+02  0.47787274227E+02  0.20000014509E+02 0.  0.
         12    1    1    2    0    0 -0.26122495564E+02 -0.63114730515E+01  0.34079371049E+02  0.43400725773E+02  0.00000000000E+00 0. -1.
         11    1    3    3    0    0  0.20358324441E+02 -0.14121152048E+01 -0.18903966091E+02  0.27817537231E+02  0.51100000000E-03 0. -1.
        -11    1    3    3    0    0  0.80211274435E+01  0.55673188026E+01 -0.10404176368E+02  0.14268160718E+02  0.51100000000E-03 0.  1.
         12    1    3    3    0    0 -0.22569563206E+01  0.21562694537E+01 -0.47712285901E+01  0.57015762776E+01  0.00000000000E+00 0. -1.
</event>
<event>
 7    1  0.2459936E-009  0.4778727E+02  0.7816164E-02  0.1312668E+00
        -11   -1    0    0    0    0  0.00000000000E+00  0.00000000000E+00  0.45593999997E+02  0.45594000000E+02  0.51100000000E-03 0.  1.
         11   -1    0    0    0    0 -0.00000000000E+00 -0.00000000000E+00 -0.45593999997E+02  0.45594000000E+02  0.51100000000E-03 0. -1.
    9900012    2    1    2    0    0 -0.20991312274E+02 -0.35869684235E+02 -0.12504149121E+02  0.47787272087E+02  0.20000004755E+02 0.  0.
         12    1    1    2    0    0  0.20991312274E+02  0.35869684235E+02  0.12504149121E+02  0.43400727913E+02  0.00000000000E+00 0. -1.
         11    1    3    3    0    0 -0.64227273002E+01 -0.16237813522E+02 -0.14092749102E+02  0.22439331351E+02  0.51100000000E-03 0. -1.
        -11    1    3    3    0    0 -0.50903910276E+01 -0.77696397313E+01 -0.25077778911E+01  0.96212438167E+01  0.51100000000E-03 0.  1.
         12    1    3    3    0    0 -0.94781939459E+01 -0.11862230982E+02  0.40963778720E+01  0.15726696920E+02  0.00000000000E+00 0. -1.
</event>
<event>
 7    1  0.2459936E-009  0.4778728E+02  0.7816164E-02  0.1312668E+00
        -11   -1    0    0    0    0  0.00000000000E+00  0.00000000000E+00  0.45593999997E+02  0.45594000000E+02  0.51100000000E-03 0.  1.
         11   -1    0    0    0    0 -0.00000000000E+00 -0.00000000000E+00 -0.45593999997E+02  0.45594000000E+02  0.51100000000E-03 0. -1.
    9900012    2    1    2    0    0 -0.98544794613E+01  0.23511319345E+00  0.42266492455E+02  0.47787280788E+02  0.20000044423E+02 0.  0.
         12    1    1    2    0    0  0.98544794613E+01 -0.23511319345E+00 -0.42266492455E+02  0.43400719212E+02  0.00000000000E+00 0. -1.
         11    1    3    3    0    0  0.22176179235E+01  0.85468647985E+00  0.18255052392E+02  0.18409107972E+02  0.51100000000E-03 0. -1.
        -11    1    3    3    0    0  0.10196818123E+01  0.37161003590E+00  0.10436695369E+02  0.10492971719E+02  0.51100000000E-03 0.  1.
         12    1    3    3    0    0 -0.13091779197E+02 -0.99118332230E+00  0.13574744695E+02  0.18885201096E+02  0.00000000000E+00 0. -1.
</event>
<event>
 7    1  0.2459936E-009  0.4778728E+02  0.7816164E-02  0.1312668E+00
        -11   -1    0    0    0    0  0.00000000000E+00  0.00000000000E+00  0.45593999997E+02  0.45594000000E+02  0.51100000000E-03 0.  1.
         11   -1    0    0    0    0 -0.00000000000E+00 -0.00000000000E+00 -0.45593999997E+02  0.45594000000E+02  0.51100000000E-03 0. -1.
    9900012    2    1    2    0    0 -0.39137194515E+02  0.15892141569E+02 -0.99670648922E+01  0.47787279491E+02  0.20000038512E+02 0.  0.
         12    1    1    2    0    0  0.39137194515E+02 -0.15892141569E+02  0.99670648922E+01  0.43400720509E+02  0.00000000000E+00 0. -1.
         11    1    3    3    0    0 -0.86714267569E+01  0.95912062916E+01  0.21288454487E+01  0.13104078118E+02  0.51100000000E-03 0. -1.
        -11    1    3    3    0    0 -0.14224906434E+02  0.24705322990E+01 -0.65779355371E+00  0.14452826212E+02  0.51100000000E-03 0.  1.
         12    1    3    3    0    0 -0.16240861324E+02  0.38304029784E+01 -0.11438116787E+02  0.20230375161E+02  0.00000000000E+00 0. -1.
</event>
<event>
 7    1  0.2459936E-009  0.4778727E+02  0.7816164E-02  0.1312668E+00
        -11   -1    0    0    0    0  0.00000000000E+00  0.00000000000E+00  0.45593999997E+02  0.45594000000E+02  0.51100000000E-03 0. -1.
         11   -1    0    0    0    0 -0.00000000000E+00 -0.00000000000E+00 -0.45593999997E+02  0.45594000000E+02  0.51100000000E-03 0.  1.
    9900012    2    1    2    0    0  0.33363770081E+01 -0.31628073959E+02 -0.29532295660E+02  0.47787274650E+02  0.20000016441E+02 0.  0.
         12    1    1    2    0    0 -0.33363770081E+01  0.31628073959E+02  0.29532295660E+02  0.43400725350E+02  0.00000000000E+00 0. -1.
         11    1    3    3    0    0 -0.31675333622E+01 -0.12255174903E+02 -0.40243023023E+01  0.13282228306E+02  0.51100000000E-03 0. -1.
        -11    1    3    3    0    0  0.88409577774E+01 -0.17818135021E+02 -0.19409974850E+02  0.27792005937E+02  0.51100000000E-03 0.  1.
         12    1    3    3    0    0 -0.23370474072E+01 -0.15547640354E+01 -0.60980185079E+01  0.67130404075E+01  0.00000000000E+00 0. -1.
</event>
<event>
 7    1  0.2459936E-009  0.4778727E+02  0.7816164E-02  0.1312668E+00
        -11   -1    0    0    0    0  0.00000000000E+00  0.00000000000E+00  0.45593999997E+02  0.45594000000E+02  0.51100000000E-03 0. -1.
         11   -1    0    0    0    0 -0.00000000000E+00 -0.00000000000E+00 -0.45593999997E+02  0.45594000000E+02  0.51100000000E-03 0.  1.
    9900012    2    1    2    0    0 -0.13021004378E+02  0.38868931430E+02 -0.14257720192E+02  0.47787274538E+02  0.20000015928E+02 0.  0.
         12    1    1    2    0    0  0.13021004378E+02 -0.38868931430E+02  0.14257720192E+02  0.43400725462E+02  0.00000000000E+00 0. -1.
         11    1    3    3    0    0 -0.19339638679E+01  0.18778221898E+01 -0.20197498963E+01  0.33683560268E+01  0.51100000000E-03 0. -1.
        -11    1    3    3    0    0  0.12155795649E+01  0.60233689714E+01 -0.90579187798E+01  0.10945524214E+02  0.51100000000E-03 0.  1.
         12    1    3    3    0    0 -0.12302620075E+02  0.30967740269E+02 -0.31800515159E+01  0.33473394297E+02  0.00000000000E+00 0. -1.
</event>
<event>
 7    1  0.2459936E-009  0.4778727E+02  0.7816164E-02  0.1312668E+00
        -11   -1    0    0    0    0  0.00000000000E+00  0.00000000000E+00  0.45593999997E+02  0.45594000000E+02  0.51100000000E-03 0.  1.
         11   -1    0    0    0    0 -0.00000000000E+00 -0.00000000000E+00 -0.45593999997E+02  0.45594000000E+02  0.51100000000E-03 0. -1.
    9900012    2    1    2    0    0 -0.32266239186E+02  0.11479265079E+02 -0.26659698835E+02  0.47787271205E+02  0.20000000732E+02 0.  0.
         12    1    1    2    0    0  0.32266239186E+02 -0.11479265079E+02  0.26659698835E+02  0.43400728795E+02  0.00000000000E+00 0. -1.
         11    1    3    3    0    0  0.32578344495E+00 -0.18037282074E+01 -0.90982315522E+00  0.20463012325E+01  0.51100000000E-03 0. -1.
        -11    1    3    3    0    0 -0.60883050988E+01 -0.28610738424E+01 -0.54510338957E+01  0.86583470305E+01  0.51100000000E-03 0.  1.
        -12    1    3    3    0    0 -0.26503717532E+02  0.16144067129E+02 -0.20298841784E+02  0.37082622942E+02  0.00000000000E+00 0.  1.
</event>
<event>
 7    1  0.2459936E-009  0.4778727E+02  0.7816164E-02  0.1312668E+00
        -11   -1    0    0    0    0  0.00000000000E+00  0.00000000000E+00  0.45593999997E+02  0.45594000000E+02  0.51100000000E-03 0.  1.
         11   -1    0    0    0    0 -0.00000000000E+00 -0.00000000000E+00 -0.45593999997E+02  0.45594000000E+02  0.51100000000E-03 0. -1.
    9900012    2    1    2    0    0 -0.35510982010E+02  0.39812132206E+01  0.24632163436E+02  0.47787269850E+02  0.19999994556E+02 0.  0.
         12    1    1    2    0    0  0.35510982010E+02 -0.39812132206E+01 -0.24632163436E+02  0.43400730150E+02  0.00000000000E+00 0. -1.
         11    1    3    3    0    0 -0.25265828601E+01 -0.24948077265E+01  0.13604103159E+01  0.38024206803E+01  0.51100000000E-03 0. -1.
        -11    1    3    3    0    0 -0.27344862554E+02  0.16885304282E+01  0.24167768698E+02  0.36533186108E+02  0.51100000000E-03 0.  1.
         12    1    3    3    0    0 -0.56395365958E+01  0.47874905189E+01 -0.89601557779E+00  0.74516630626E+01  0.00000000000E+00 0. -1.
</event>
<event>
 7    1  0.2459936E-009  0.4778727E+02  0.7816164E-02  0.1312668E+00
        -11   -1    0    0    0    0  0.00000000000E+00  0.00000000000E+00  0.45593999997E+02  0.45594000000E+02  0.51100000000E-03 0. -1.
         11   -1    0    0    0    0 -0.00000000000E+00 -0.00000000000E+00 -0.45593999997E+02  0.45594000000E+02  0.51100000000E-03 0.  1.
    9900012    2    1    2    0    0 -0.35868090012E+02  0.22232374937E+02 -0.10140262115E+02  0.47787270833E+02  0.19999999038E+02 0.  0.
         12    1    1    2    0    0  0.35868090012E+02 -0.22232374937E+02  0.10140262115E+02  0.43400729167E+02  0.00000000000E+00 0. -1.
         11    1    3    3    0    0 -0.41459411089E+01  0.35991424484E+01 -0.83450693335E+01  0.99891359228E+01  0.51100000000E-03 0. -1.
        -11    1    3    3    0    0 -0.31395218883E+01  0.60332220015E+00  0.20318091094E+01  0.37879867849E+01  0.51100000000E-03 0.  1.
        -12    1    3    3    0    0 -0.28582627015E+02  0.18029910288E+02 -0.38270018907E+01  0.34010148126E+02  0.00000000000E+00 0.  1.
</event>
<event>
 7    1  0.2459936E-009  0.4778727E+02  0.7816164E-02  0.1312668E+00
        -11   -1    0    0    0    0  0.00000000000E+00  0.00000000000E+00  0.45593999997E+02  0.45594000000E+02  0.51100000000E-03 0. -1.
         11   -1    0    0    0    0 -0.00000000000E+00 -0.00000000000E+00 -0.45593999997E+02  0.45594000000E+02  0.51100000000E-03 0.  1.
    9900012    2    1    2    0    0  0.37279391016E+02 -0.12422522291E+02 -0.18426919961E+02  0.47787269202E+02  0.19999991599E+02 0.  0.
         12    1    1    2    0    0 -0.37279391016E+02  0.12422522291E+02  0.18426919961E+02  0.43400730798E+02  0.00000000000E+00 0. -1.
         11    1    3    3    0    0  0.28590876412E+01  0.34144074513E+01 -0.56617193622E+01  0.72033066560E+01  0.51100000000E-03 0. -1.
        -11    1    3    3    0    0  0.17055483798E+00 -0.87287068106E-02  0.54779644651E+00  0.57379992246E+00  0.51100000000E-03 0.  1.
        -12    1    3    3    0    0  0.34249748537E+02 -0.15828201035E+02 -0.13312997045E+02  0.40010162623E+02  0.00000000000E+00 0.  1.
</event>
<event>
 7    1  0.2459936E-009  0.4778727E+02  0.7816164E-02  0.1312668E+00
        -11   -1    0    0    0    0  0.00000000000E+00  0.00000000000E+00  0.45593999997E+02  0.45594000000E+02  0.51100000000E-03 0.  1.
         11   -1    0    0    0    0 -0.00000000000E+00 -0.00000000000E+00 -0.45593999997E+02  0.45594000000E+02  0.51100000000E-03 0. -1.
    9900012    2    1    2    0    0 -0.24462603513E+02 -0.35464278905E+02 -0.52430435139E+01  0.47787267815E+02  0.19999985276E+02 0.  0.
         12    1    1    2    0    0  0.24462603513E+02  0.35464278905E+02  0.52430435139E+01  0.43400732185E+02  0.00000000000E+00 0. -1.
         11    1    3    3    0    0  0.23399597280E+01 -0.39630920842E+01 -0.15231200016E+01  0.48478247903E+01  0.51100000000E-03 0. -1.
        -11    1    3    3    0    0 -0.85803724989E+01 -0.18374220607E+02 -0.27038544600E+01  0.20458387139E+02  0.51100000000E-03 0.  1.
        -12    1    3    3    0    0 -0.18222190742E+02 -0.13126966214E+02 -0.10160690522E+01  0.22481055886E+02  0.00000000000E+00 0.  1.
</event>
<event>
 7    1  0.2459936E-009  0.4778727E+02  0.7816164E-02  0.1312668E+00
        -11   -1    0    0    0    0  0.00000000000E+00  0.00000000000E+00  0.45593999997E+02  0.45594000000E+02  0.51100000000E-03 0.  1.
         11   -1    0    0    0    0 -0.00000000000E+00 -0.00000000000E+00 -0.45593999997E+02  0.45594000000E+02  0.51100000000E-03 0. -1.
    9900012    2    1    2    0    0  0.36504429220E+02 -0.23151202833E+02 -0.38822221264E+01  0.47787271966E+02  0.20000004202E+02 0.  0.
         12    1    1    2    0    0 -0.36504429220E+02  0.23151202833E+02  0.38822221264E+01  0.43400728034E+02  0.00000000000E+00 0. -1.
         11    1    3    3    0    0  0.11955577127E+02 -0.71731197940E+01  0.23480477757E+01  0.14138698690E+02  0.51100000000E-03 0.  1.
        -11    1    3    3    0    0  0.33801580153E+01  0.29856348849E+01  0.18154560613E+00  0.45135842678E+01  0.51100000000E-03 0. -1.
         12    1    3    3    0    0  0.21168694077E+02 -0.18963717924E+02 -0.64118155083E+01  0.29134989009E+02  0.00000000000E+00 0. -1.
</event>
<event>
 7    1  0.2459936E-009  0.4778725E+02  0.7816164E-02  0.1312668E+00
        -11   -1    0    0    0    0  0.00000000000E+00  0.00000000000E+00  0.45593999997E+02  0.45594000000E+02  0.51100000000E-03 0.  1.
         11   -1    0    0    0    0 -0.00000000000E+00 -0.00000000000E+00 -0.45593999997E+02  0.45594000000E+02  0.51100000000E-03 0. -1.
    9900012    2    1    2    0    0 -0.13749903546E+02 -0.28765838344E+02  0.29446427745E+02  0.47787246434E+02  0.19999887791E+02 0.  0.
         12    1    1    2    0    0  0.13749903546E+02  0.28765838344E+02 -0.29446427745E+02  0.43400753566E+02  0.00000000000E+00 0. -1.
         11    1    3    3    0    0 -0.90785814703E+01 -0.19494352293E+02  0.15707253796E+02  0.26630212821E+02  0.51100000000E-03 0. -1.
        -11    1    3    3    0    0 -0.84246979892E+01 -0.80809455536E+01  0.12317701473E+02  0.16970650756E+02  0.51100000000E-03 0.  1.
         12    1    3    3    0    0  0.37533759133E+01 -0.11905404979E+01  0.14214724755E+01  0.41863828566E+01  0.00000000000E+00 0. -1.
</event>
<event>
 7    1  0.2459936E-009  0.4778727E+02  0.7816164E-02  0.1312668E+00
        -11   -1    0    0    0    0  0.00000000000E+00  0.00000000000E+00  0.45593999997E+02  0.45594000000E+02  0.51100000000E-03 0. -1.
         11   -1    0    0    0    0 -0.00000000000E+00 -0.00000000000E+00 -0.45593999997E+02  0.45594000000E+02  0.51100000000E-03 0.  1.
    9900012    2    1    2    0    0 -0.20184451841E+02  0.10590854413E+02 -0.36932980061E+02  0.47787270633E+02  0.19999998126E+02 0.  0.
         12    1    1    2    0    0  0.20184451841E+02 -0.10590854413E+02  0.36932980061E+02  0.43400729367E+02  0.00000000000E+00 0. -1.
         11    1    3    3    0    0  0.17196118874E+01  0.73415388431E+00 -0.15441244885E+02  0.15554037766E+02  0.51100000000E-03 0.  1.
        -11    1    3    3    0    0 -0.12456049721E+02  0.56186642480E+01 -0.11974492086E+02  0.18168957690E+02  0.51100000000E-03 0. -1.
        -12    1    3    3    0    0 -0.94480140080E+01  0.42380362807E+01 -0.95172430902E+01  0.14064275177E+02  0.00000000000E+00 0.  1.
</event>
<event>
 7    1  0.2459936E-009  0.4778727E+02  0.7816164E-02  0.1312668E+00
        -11   -1    0    0    0    0  0.00000000000E+00  0.00000000000E+00  0.45593999997E+02  0.45594000000E+02  0.51100000000E-03 0.  1.
         11   -1    0    0    0    0 -0.00000000000E+00 -0.00000000000E+00 -0.45593999997E+02  0.45594000000E+02  0.51100000000E-03 0. -1.
    9900012    2    1    2    0    0 -0.19004140132E+02  0.16590868939E+02  0.35315847717E+02  0.47787269887E+02  0.19999994723E+02 0.  0.
         12    1    1    2    0    0  0.19004140132E+02 -0.16590868939E+02 -0.35315847717E+02  0.43400730113E+02  0.00000000000E+00 0. -1.
         11    1    3    3    0    0 -0.62903474876E+01  0.11544544622E+01  0.76780487405E+01  0.99926807885E+01  0.51100000000E-03 0. -1.
        -11    1    3    3    0    0 -0.12967321918E+02  0.18540568502E+02  0.24946774762E+02  0.33678564241E+02  0.51100000000E-03 0.  1.
         12    1    3    3    0    0  0.25352927280E+00 -0.31041540244E+01  0.26910242150E+01  0.41160248572E+01  0.00000000000E+00 0. -1.
</event>
<event>
 7    1  0.2459936E-009  0.4778724E+02  0.7816164E-02  0.1312668E+00
        -11   -1    0    0    0    0  0.00000000000E+00  0.00000000000E+00  0.45593999997E+02  0.45594000000E+02  0.51100000000E-03 0.  1.
         11   -1    0    0    0    0 -0.00000000000E+00 -0.00000000000E+00 -0.45593999997E+02  0.45594000000E+02  0.51100000000E-03 0. -1.
    9900012    2    1    2    0    0 -0.13315461687E+02 -0.15626519611E+02  0.38237886833E+02  0.47787243963E+02  0.19999876525E+02 0.  0.
         12    1    1    2    0    0  0.13315461687E+02  0.15626519611E+02 -0.38237886833E+02  0.43400756037E+02  0.00000000000E+00 0. -1.
         11    1    3    3    0    0 -0.30353993860E+01 -0.12650550199E+02  0.30692814049E+02  0.33336150112E+02  0.51100000000E-03 0. -1.
        -11    1    3    3    0    0 -0.40429586165E+01 -0.27611791627E+01  0.32353637988E+00  0.49065569184E+01  0.51100000000E-03 0.  1.
        -12    1    3    3    0    0 -0.62371036846E+01 -0.21479024961E+00  0.72215364041E+01  0.95445369327E+01  0.00000000000E+00 0.  1.
</event>
<event>
 7    1  0.2459936E-009  0.4778727E+02  0.7816164E-02  0.1312668E+00
        -11   -1    0    0    0    0  0.00000000000E+00  0.00000000000E+00  0.45593999997E+02  0.45594000000E+02  0.51100000000E-03 0.  1.
         11   -1    0    0    0    0 -0.00000000000E+00 -0.00000000000E+00 -0.45593999997E+02  0.45594000000E+02  0.51100000000E-03 0. -1.
    9900012    2    1    2    0    0 -0.42677701465E+01  0.22290672410E+02  0.36993716883E+02  0.47787273885E+02  0.20000012951E+02 0.  0.
         12    1    1    2    0    0  0.42677701465E+01 -0.22290672410E+02 -0.36993716883E+02  0.43400726115E+02  0.00000000000E+00 0. -1.
         11    1    3    3    0    0  0.10337081182E+01  0.45541617679E+01 -0.47556094875E+00  0.46941559794E+01  0.51100000000E-03 0. -1.
        -11    1    3    3    0    0 -0.39352883432E+01  0.11704353491E+02  0.13314784069E+02  0.18159346355E+02  0.51100000000E-03 0.  1.
        -12    1    3    3    0    0 -0.13661899214E+01  0.60321571511E+01  0.24154493763E+02  0.24933771551E+02  0.00000000000E+00 0.  1.
</event>
<event>
 7    1  0.2459936E-009  0.4778727E+02  0.7816164E-02  0.1312668E+00
        -11   -1    0    0    0    0  0.00000000000E+00  0.00000000000E+00  0.45593999997E+02  0.45594000000E+02  0.51100000000E-03 0. -1.
         11   -1    0    0    0    0 -0.00000000000E+00 -0.00000000000E+00 -0.45593999997E+02  0.45594000000E+02  0.51100000000E-03 0.  1.
    9900012    2    1    2    0    0 -0.58076078600E+01 -0.25588440779E+02 -0.34570601407E+02  0.47787273137E+02  0.20000009543E+02 0.  0.
         12    1    1    2    0    0  0.58076078600E+01  0.25588440779E+02  0.34570601407E+02  0.43400726863E+02  0.00000000000E+00 0. -1.
         11    1    3    3    0    0 -0.42712417592E+00 -0.10476390749E+01 -0.57457724210E+01  0.58560979900E+01  0.51100000000E-03 0. -1.
        -11    1    3    3    0    0  0.29740582605E+01 -0.21080093327E+02 -0.18478009013E+02  0.28189575636E+02  0.51100000000E-03 0.  1.
        -12    1    3    3    0    0 -0.83545419447E+01 -0.34607083778E+01 -0.10346819973E+02  0.13741599512E+02  0.00000000000E+00 0.  1.
</event>
<event>
 7    1  0.2459936E-009  0.4778727E+02  0.7816164E-02  0.1312668E+00
        -11   -1    0    0    0    0  0.00000000000E+00  0.00000000000E+00  0.45593999997E+02  0.45594000000E+02  0.51100000000E-03 0.  1.
         11   -1    0    0    0    0 -0.00000000000E+00 -0.00000000000E+00 -0.45593999997E+02  0.45594000000E+02  0.51100000000E-03 0. -1.
    9900012    2    1    2    0    0  0.34313540491E+02 -0.26528936594E+02 -0.15555751878E+01  0.47787270145E+02  0.19999995897E+02 0.  0.
         12    1    1    2    0    0 -0.34313540491E+02  0.26528936594E+02  0.15555751878E+01  0.43400729855E+02  0.00000000000E+00 0. -1.
         11    1    3    3    0    0  0.19788352959E+02 -0.16812777854E+02 -0.12693792342E+01  0.25997302473E+02  0.51100000000E-03 0. -1.
        -11    1    3    3    0    0  0.52444383033E+01 -0.11174747971E+02 -0.88764202790E+00  0.12376066983E+02  0.51100000000E-03 0.  1.
         12    1    3    3    0    0  0.92807492288E+01  0.14585892311E+01  0.60144607429E+00  0.94139006885E+01  0.00000000000E+00 0. -1.
</event>
<event>
 7    1  0.2459936E-009  0.4778727E+02  0.7816164E-02  0.1312668E+00
        -11   -1    0    0    0    0  0.00000000000E+00  0.00000000000E+00  0.45593999997E+02  0.45594000000E+02  0.51100000000E-03 0. -1.
         11   -1    0    0    0    0 -0.00000000000E+00 -0.00000000000E+00 -0.45593999997E+02  0.45594000000E+02  0.51100000000E-03 0.  1.
    9900012    2    1    2    0    0 -0.14874429533E+02  0.23751545249E+02  0.33139685590E+02  0.47787270551E+02  0.19999997752E+02 0.  0.
         12    1    1    2    0    0  0.14874429533E+02 -0.23751545249E+02 -0.33139685590E+02  0.43400729449E+02  0.00000000000E+00 0. -1.
         11    1    3    3    0    0 -0.93513230894E+01  0.81153197553E+01  0.14155538475E+02  0.18806512916E+02  0.51100000000E-03 0. -1.
        -11    1    3    3    0    0 -0.43218306196E+01  0.11028637313E+02  0.20757674051E+02  0.23899583535E+02  0.51100000000E-03 0.  1.
        -12    1    3    3    0    0 -0.12012758235E+01  0.46075881807E+01 -0.17735269361E+01  0.50811741005E+01  0.00000000000E+00 0.  1.
</event>
<event>
 7    1  0.2459936E-009  0.4778727E+02  0.7816164E-02  0.1312668E+00
        -11   -1    0    0    0    0  0.00000000000E+00  0.00000000000E+00  0.45593999997E+02  0.45594000000E+02  0.51100000000E-03 0.  1.
         11   -1    0    0    0    0 -0.00000000000E+00 -0.00000000000E+00 -0.45593999997E+02  0.45594000000E+02  0.51100000000E-03 0. -1.
    9900012    2    1    2    0    0 -0.16009877168E+01 -0.41698086223E+02  0.11930189905E+02  0.47787274344E+02  0.20000015043E+02 0.  0.
         12    1    1    2    0    0  0.16009877168E+01  0.41698086223E+02 -0.11930189905E+02  0.43400725656E+02  0.00000000000E+00 0. -1.
         11    1    3    3    0    0  0.52757132108E+01 -0.21041845665E+02  0.16986004462E+01  0.21759541875E+02  0.51100000000E-03 0. -1.
        -11    1    3    3    0    0 -0.35801626594E+01 -0.17548290785E+02  0.40472081539E+01  0.18361371633E+02  0.51100000000E-03 0.  1.
         12    1    3    3    0    0 -0.32965382682E+01 -0.31079497732E+01  0.61843813046E+01  0.76663608360E+01  0.00000000000E+00 0. -1.
</event>
<event>
 7    1  0.2459936E-009  0.4778727E+02  0.7816164E-02  0.1312668E+00
        -11   -1    0    0    0    0  0.00000000000E+00  0.00000000000E+00  0.45593999997E+02  0.45594000000E+02  0.51100000000E-03 0. -1.
         11   -1    0    0    0    0 -0.00000000000E+00 -0.00000000000E+00 -0.45593999997E+02  0.45594000000E+02  0.51100000000E-03 0.  1.
    9900012    2    1    2    0    0 -0.69735049733E+01  0.28508023873E+02 -0.31973211744E+02  0.47787268832E+02  0.19999989911E+02 0.  0.
         12    1    1    2    0    0  0.69735049733E+01 -0.28508023873E+02  0.31973211744E+02  0.43400731168E+02  0.00000000000E+00 0. -1.
         11    1    3    3    0    0  0.92682468310E-01 -0.98922277245E+00  0.48834625031E+00  0.11070835808E+01  0.51100000000E-03 0. -1.
        -11    1    3    3    0    0  0.55838586931E+00  0.16904140770E+02 -0.94832189942E+01  0.19390544415E+02  0.51100000000E-03 0.  1.
        -12    1    3    3    0    0 -0.76245733109E+01  0.12593105875E+02 -0.22978339000E+02  0.27289640836E+02  0.00000000000E+00 0.  1.
</event>
<event>
 7    1  0.2459936E-009  0.4778728E+02  0.7816164E-02  0.1312668E+00
        -11   -1    0    0    0    0  0.00000000000E+00  0.00000000000E+00  0.45593999997E+02  0.45594000000E+02  0.51100000000E-03 0. -1.
         11   -1    0    0    0    0 -0.00000000000E+00 -0.00000000000E+00 -0.45593999997E+02  0.45594000000E+02  0.51100000000E-03 0.  1.
    9900012    2    1    2    0    0 -0.19844406189E+02 -0.31201751872E+02 -0.22721642110E+02  0.47787276538E+02  0.20000025046E+02 0.  0.
         12    1    1    2    0    0  0.19844406189E+02  0.31201751872E+02  0.22721642110E+02  0.43400723462E+02  0.00000000000E+00 0. -1.
         11    1    3    3    0    0 -0.11223424317E+02 -0.75354401703E+01  0.72286337151E-01  0.13518629278E+02  0.51100000000E-03 0. -1.
        -11    1    3    3    0    0 -0.55307576998E+01 -0.87243902492E+01 -0.90770611561E+01  0.13751265594E+02  0.51100000000E-03 0.  1.
        -12    1    3    3    0    0 -0.30902241716E+01 -0.14941921452E+02 -0.13716867291E+02  0.20517381666E+02  0.00000000000E+00 0.  1.
</event>
<event>
 7    1  0.2459936E-009  0.4778726E+02  0.7816164E-02  0.1312668E+00
        -11   -1    0    0    0    0  0.00000000000E+00  0.00000000000E+00  0.45593999997E+02  0.45594000000E+02  0.51100000000E-03 0.  1.
         11   -1    0    0    0    0 -0.00000000000E+00 -0.00000000000E+00 -0.45593999997E+02  0.45594000000E+02  0.51100000000E-03 0. -1.
    9900012    2    1    2    0    0  0.58630815074E+01  0.30792055365E+02  0.30018294915E+02  0.47787257749E+02  0.19999939379E+02 0.  0.
         12    1    1    2    0    0 -0.58630815074E+01 -0.30792055365E+02 -0.30018294915E+02  0.43400742251E+02  0.00000000000E+00 0. -1.
         11    1    3    3    0    0  0.44426455666E+00  0.13155714430E+02  0.24846545151E+02  0.28117983558E+02  0.51100000000E-03 0. -1.
        -11    1    3    3    0    0  0.28581989836E+01  0.31198739389E+01  0.13499532796E+01  0.44413161273E+01  0.51100000000E-03 0.  1.
         12    1    3    3    0    0  0.25606179671E+01  0.14516466996E+02  0.38217964849E+01  0.15227958063E+02  0.00000000000E+00 0. -1.
</event>
<event>
 7    1  0.2459936E-009  0.4778730E+02  0.7816164E-02  0.1312668E+00
        -11   -1    0    0    0    0  0.00000000000E+00  0.00000000000E+00  0.45593999997E+02  0.45594000000E+02  0.51100000000E-03 0.  1.
         11   -1    0    0    0    0 -0.00000000000E+00 -0.00000000000E+00 -0.45593999997E+02  0.45594000000E+02  0.51100000000E-03 0. -1.
    9900012    2    1    2    0    0 -0.39489215898E+02  0.11960757483E+02  0.13459667292E+02  0.47787302592E+02  0.20000143840E+02 0.  0.
         12    1    1    2    0    0  0.39489215898E+02 -0.11960757483E+02 -0.13459667292E+02  0.43400697408E+02  0.00000000000E+00 0. -1.
         11    1    3    3    0    0 -0.12893671852E+01  0.14395422631E+01  0.23613556092E+01  0.30513521986E+01  0.51100000000E-03 0. -1.
        -11    1    3    3    0    0 -0.31280710937E+02  0.13724151418E+02  0.13518261726E+02  0.36736611292E+02  0.51100000000E-03 0.  1.
         12    1    3    3    0    0 -0.69191377762E+01 -0.32029361978E+01 -0.24199500434E+01  0.79993391019E+01  0.00000000000E+00 0. -1.
</event>
<event>
 7    1  0.2459936E-009  0.4778727E+02  0.7816164E-02  0.1312668E+00
        -11   -1    0    0    0    0  0.00000000000E+00  0.00000000000E+00  0.45593999997E+02  0.45594000000E+02  0.51100000000E-03 0. -1.
         11   -1    0    0    0    0 -0.00000000000E+00 -0.00000000000E+00 -0.45593999997E+02  0.45594000000E+02  0.51100000000E-03 0.  1.
    9900012    2    1    2    0    0 -0.30600061262E+02  0.11613530989E+02 -0.28502374090E+02  0.47787272125E+02  0.20000004928E+02 0.  0.
         12    1    1    2    0    0  0.30600061262E+02 -0.11613530989E+02  0.28502374090E+02  0.43400727875E+02  0.00000000000E+00 0. -1.
         11    1    3    3    0    0 -0.52408595014E+01  0.25757608723E+01 -0.12871353370E+02  0.14134103800E+02  0.51100000000E-03 0. -1.
        -11    1    3    3    0    0 -0.19236045689E+02  0.10531324022E+02 -0.16286675695E+02  0.27316479364E+02  0.51100000000E-03 0.  1.
        -12    1    3    3    0    0 -0.61231560717E+01 -0.14935539051E+01  0.65565497508E+00  0.63366889613E+01  0.00000000000E+00 0.  1.
</event>
<event>
 7    1  0.2459936E-009  0.4778727E+02  0.7816164E-02  0.1312668E+00
        -11   -1    0    0    0    0  0.00000000000E+00  0.00000000000E+00  0.45593999997E+02  0.45594000000E+02  0.51100000000E-03 0.  1.
         11   -1    0    0    0    0 -0.00000000000E+00 -0.00000000000E+00 -0.45593999997E+02  0.45594000000E+02  0.51100000000E-03 0. -1.
    9900012    2    1    2    0    0 -0.14432797226E+02 -0.29829320947E+02  0.28027296044E+02  0.47787270197E+02  0.19999996137E+02 0.  0.
         12    1    1    2    0    0  0.14432797226E+02  0.29829320947E+02 -0.28027296044E+02  0.43400729803E+02  0.00000000000E+00 0. -1.
         11    1    3    3    0    0 -0.16405567888E+01 -0.65867729714E+01  0.92632417513E+01  0.11484104352E+02  0.51100000000E-03 0.  1.
        -11    1    3    3    0    0  0.30094855263E+01 -0.93409597985E+01  0.80143918395E+01  0.12670477888E+02  0.51100000000E-03 0. -1.
         12    1    3    3    0    0 -0.15801725963E+02 -0.13901588177E+02  0.10749662453E+02  0.23632687958E+02  0.00000000000E+00 0. -1.
</event>
<event>
 7    1  0.2459936E-009  0.4778727E+02  0.7816164E-02  0.1312668E+00
        -11   -1    0    0    0    0  0.00000000000E+00  0.00000000000E+00  0.45593999997E+02  0.45594000000E+02  0.51100000000E-03 0.  1.
         11   -1    0    0    0    0 -0.00000000000E+00 -0.00000000000E+00 -0.45593999997E+02  0.45594000000E+02  0.51100000000E-03 0. -1.
    9900012    2    1    2    0    0 -0.62757275854E+01  0.24697039569E+02  0.35132537147E+02  0.47787266290E+02  0.19999978323E+02 0.  0.
         12    1    1    2    0    0  0.62757275854E+01 -0.24697039569E+02 -0.35132537147E+02  0.43400733710E+02  0.00000000000E+00 0. -1.
         11    1    3    3    0    0  0.38307628498E+01  0.71334839935E+01  0.17399033223E+02  0.19190823204E+02  0.51100000000E-03 0. -1.
        -11    1    3    3    0    0 -0.56357755205E+01  0.89872389392E+01  0.15309611491E+02  0.18625698208E+02  0.51100000000E-03 0.  1.
         12    1    3    3    0    0 -0.44707149147E+01  0.85763166361E+01  0.24238924326E+01  0.99707448777E+01  0.00000000000E+00 0. -1.
</event>
<event>
 7    1  0.2459936E-009  0.4778727E+02  0.7816164E-02  0.1312668E+00
        -11   -1    0    0    0    0  0.00000000000E+00  0.00000000000E+00  0.45593999997E+02  0.45594000000E+02  0.51100000000E-03 0. -1.
         11   -1    0    0    0    0 -0.00000000000E+00 -0.00000000000E+00 -0.45593999997E+02  0.45594000000E+02  0.51100000000E-03 0.  1.
    9900012    2    1    2    0    0 -0.20464984433E+01 -0.19345497920E+02  0.38796737528E+02  0.47787270877E+02  0.19999999236E+02 0.  0.
         12    1    1    2    0    0  0.20464984433E+01  0.19345497920E+02 -0.38796737528E+02  0.43400729123E+02  0.00000000000E+00 0. -1.
         11    1    3    3    0    0 -0.29925310238E+01 -0.94904898567E+01  0.38208608264E+01  0.10659437948E+02  0.51100000000E-03 0.  1.
        -11    1    3    3    0    0  0.59053200217E+00  0.15930232469E+00 -0.12529167347E+00  0.62434248678E+00  0.51100000000E-03 0. -1.
        -12    1    3    3    0    0  0.35550057836E+00 -0.10014310388E+02  0.35101168375E+02  0.36503490442E+02  0.00000000000E+00 0.  1.
</event>
<event>
 7    1  0.2459936E-009  0.4778727E+02  0.7816164E-02  0.1312668E+00
        -11   -1    0    0    0    0  0.00000000000E+00  0.00000000000E+00  0.45593999997E+02  0.45594000000E+02  0.51100000000E-03 0.  1.
         11   -1    0    0    0    0 -0.00000000000E+00 -0.00000000000E+00 -0.45593999997E+02  0.45594000000E+02  0.51100000000E-03 0. -1.
    9900012    2    1    2    0    0 -0.13454902409E+01 -0.62410002796E+01  0.42928577588E+02  0.47787271871E+02  0.20000003767E+02 0.  0.
         12    1    1    2    0    0  0.13454902409E+01  0.62410002796E+01 -0.42928577588E+02  0.43400728129E+02  0.00000000000E+00 0. -1.
         11    1    3    3    0    0 -0.60615806008E+01 -0.17695329945E+01  0.93179959329E+01  0.11256067469E+02  0.51100000000E-03 0. -1.
        -11    1    3    3    0    0  0.48764668683E+01  0.15043055605E+01  0.27549385887E+02  0.28018057166E+02  0.51100000000E-03 0.  1.
         12    1    3    3    0    0 -0.16037650838E+00 -0.59757728455E+01  0.60611957679E+01  0.85131472361E+01  0.00000000000E+00 0. -1.
</event>
<event>
 7    1  0.2459936E-009  0.4778727E+02  0.7816164E-02  0.1312668E+00
        -11   -1    0    0    0    0  0.00000000000E+00  0.00000000000E+00  0.45593999997E+02  0.45594000000E+02  0.51100000000E-03 0. -1.
         11   -1    0    0    0    0 -0.00000000000E+00 -0.00000000000E+00 -0.45593999997E+02  0.45594000000E+02  0.51100000000E-03 0.  1.
    9900012    2    1    2    0    0  0.14054396626E+02 -0.12884967966E+02 -0.38988137701E+02  0.47787270221E+02  0.19999996244E+02 0.  0.
         12    1    1    2    0    0 -0.14054396626E+02  0.12884967966E+02  0.38988137701E+02  0.43400729779E+02  0.00000000000E+00 0. -1.
         11    1    3    3    0    0  0.28570562425E+01 -0.24627817530E+01 -0.23777060525E+01  0.44588732511E+01  0.51100000000E-03 0. -1.
        -11    1    3    3    0    0 -0.13612677448E+01 -0.10271335298E+02 -0.13408542731E+02  0.16945276542E+02  0.51100000000E-03 0.  1.
         12    1    3    3    0    0  0.12558608128E+02 -0.15085091471E+00 -0.23201888918E+02  0.26383120427E+02  0.00000000000E+00 0. -1.
</event>
<event>
 7    1  0.2459936E-009  0.4778727E+02  0.7816164E-02  0.1312668E+00
        -11   -1    0    0    0    0  0.00000000000E+00  0.00000000000E+00  0.45593999997E+02  0.45594000000E+02  0.51100000000E-03 0. -1.
         11   -1    0    0    0    0 -0.00000000000E+00 -0.00000000000E+00 -0.45593999997E+02  0.45594000000E+02  0.51100000000E-03 0.  1.
    9900012    2    1    2    0    0 -0.19906927982E+02  0.22004294319E+02 -0.31672521581E+02  0.47787269897E+02  0.19999994769E+02 0.  0.
         12    1    1    2    0    0  0.19906927982E+02 -0.22004294319E+02  0.31672521581E+02  0.43400730103E+02  0.00000000000E+00 0. -1.
         11    1    3    3    0    0 -0.28678815555E+01  0.35380852249E+01 -0.82401219698E+01  0.94150094006E+01  0.51100000000E-03 0. -1.
        -11    1    3    3    0    0 -0.46697038857E+01  0.16933405822E+02 -0.16551935730E+02  0.24135304924E+02  0.51100000000E-03 0.  1.
         12    1    3    3    0    0 -0.12369342540E+02  0.15328032727E+01 -0.68804638810E+01  0.14236955572E+02  0.00000000000E+00 0. -1.
</event>
<event>
 7    1  0.2459936E-009  0.4778727E+02  0.7816164E-02  0.1312668E+00
        -11   -1    0    0    0    0  0.00000000000E+00  0.00000000000E+00  0.45593999997E+02  0.45594000000E+02  0.51100000000E-03 0.  1.
         11   -1    0    0    0    0 -0.00000000000E+00 -0.00000000000E+00 -0.45593999997E+02  0.45594000000E+02  0.51100000000E-03 0. -1.
    9900012    2    1    2    0    0  0.28935496242E+02 -0.60252810100E+01  0.31781384045E+02  0.47787270446E+02  0.19999997271E+02 0.  0.
         12    1    1    2    0    0 -0.28935496242E+02  0.60252810100E+01 -0.31781384045E+02  0.43400729554E+02  0.00000000000E+00 0. -1.
         11    1    3    3    0    0  0.24153225485E+01 -0.17400519660E+01  0.16687929454E+02  0.16951358458E+02  0.51100000000E-03 0. -1.
        -11    1    3    3    0    0  0.48651935791E+01 -0.89798212914E+00  0.22852899133E+01  0.54496817077E+01  0.51100000000E-03 0.  1.
         12    1    3    3    0    0  0.21654980114E+02 -0.33872469148E+01  0.12808164678E+02  0.25386230280E+02  0.00000000000E+00 0. -1.
</event>
<event>
 7    1  0.2459936E-009  0.4778727E+02  0.7816164E-02  0.1312668E+00
        -11   -1    0    0    0    0  0.00000000000E+00  0.00000000000E+00  0.45593999997E+02  0.45594000000E+02  0.51100000000E-03 0.  1.
         11   -1    0    0    0    0 -0.00000000000E+00 -0.00000000000E+00 -0.45593999997E+02  0.45594000000E+02  0.51100000000E-03 0. -1.
    9900012    2    1    2    0    0 -0.15315805538E+02 -0.13369856304E+02  0.38344443904E+02  0.47787270338E+02  0.19999996778E+02 0.  0.
         12    1    1    2    0    0  0.15315805538E+02  0.13369856304E+02 -0.38344443904E+02  0.43400729662E+02  0.00000000000E+00 0. -1.
         11    1    3    3    0    0  0.17892751565E+01 -0.17264131442E+01  0.46035684311E+00  0.25286234623E+01  0.51100000000E-03 0. -1.
        -11    1    3    3    0    0  0.18693854003E+01  0.83942440041E+00  0.31705243264E+01  0.37751105765E+01  0.51100000000E-03 0.  1.
         12    1    3    3    0    0 -0.18974466095E+02 -0.12482867560E+02  0.34713562735E+02  0.41483536299E+02  0.00000000000E+00 0. -1.
</event>
<event>
 7    1  0.2459936E-009  0.4778727E+02  0.7816164E-02  0.1312668E+00
        -11   -1    0    0    0    0  0.00000000000E+00  0.00000000000E+00  0.45593999997E+02  0.45594000000E+02  0.51100000000E-03 0. -1.
         11   -1    0    0    0    0 -0.00000000000E+00 -0.00000000000E+00 -0.45593999997E+02  0.45594000000E+02  0.51100000000E-03 0.  1.
    9900012    2    1    2    0    0 -0.87614239707E+01  0.34619117884E+02 -0.24665306468E+02  0.47787271709E+02  0.20000003029E+02 0.  0.
         12    1    1    2    0    0  0.87614239707E+01 -0.34619117884E+02  0.24665306468E+02  0.43400728291E+02  0.00000000000E+00 0. -1.
         11    1    3    3    0    0  0.40836993601E+01  0.93876558559E+01 -0.27102203288E+01  0.10590088641E+02  0.51100000000E-03 0. -1.
        -11    1    3    3    0    0 -0.14458979502E+01  0.11826715310E+02 -0.55660545295E+01  0.13150771049E+02  0.51100000000E-03 0.  1.
        -12    1    3    3    0    0 -0.11399225381E+02  0.13404746718E+02 -0.16389031610E+02  0.24046412019E+02  0.00000000000E+00 0.  1.
</event>
<event>
 7    1  0.2459936E-009  0.4778727E+02  0.7816164E-02  0.1312668E+00
        -11   -1    0    0    0    0  0.00000000000E+00  0.00000000000E+00  0.45593999997E+02  0.45594000000E+02  0.51100000000E-03 0. -1.
         11   -1    0    0    0    0 -0.00000000000E+00 -0.00000000000E+00 -0.45593999997E+02  0.45594000000E+02  0.51100000000E-03 0.  1.
    9900012    2    1    2    0    0 -0.29097782633E+02  0.11375924734E+02 -0.30125252158E+02  0.47787269185E+02  0.19999991521E+02 0.  0.
         12    1    1    2    0    0  0.29097782633E+02 -0.11375924734E+02  0.30125252158E+02  0.43400730815E+02  0.00000000000E+00 0. -1.
         11    1    3    3    0    0  0.17704530560E-01 -0.20138352424E+01 -0.13584630795E+01  0.24292525668E+01  0.51100000000E-03 0. -1.
        -11    1    3    3    0    0 -0.10877828652E+02 -0.79056606588E+00 -0.43431980782E+01  0.11739485538E+02  0.51100000000E-03 0.  1.
        -12    1    3    3    0    0 -0.18237658512E+02  0.14180326043E+02 -0.24423591000E+02  0.33618531081E+02  0.00000000000E+00 0.  1.
</event>
<event>
 7    1  0.2459936E-009  0.4778727E+02  0.7816164E-02  0.1312668E+00
        -11   -1    0    0    0    0  0.00000000000E+00  0.00000000000E+00  0.45593999997E+02  0.45594000000E+02  0.51100000000E-03 0. -1.
         11   -1    0    0    0    0 -0.00000000000E+00 -0.00000000000E+00 -0.45593999997E+02  0.45594000000E+02  0.51100000000E-03 0.  1.
    9900012    2    1    2    0    0 -0.43127897778E+02 -0.20098534525E+01  0.44236032939E+01  0.47787270239E+02  0.19999996329E+02 0.  0.
         12    1    1    2    0    0  0.43127897778E+02  0.20098534525E+01 -0.44236032939E+01  0.43400729761E+02  0.00000000000E+00 0. -1.
         11    1    3    3    0    0 -0.27863635239E+01  0.52805795585E+00  0.23147098079E+01  0.36606759824E+01  0.51100000000E-03 0. -1.
        -11    1    3    3    0    0 -0.32197700042E+02 -0.92293297643E+01  0.78545911879E+00  0.33503572379E+02  0.51100000000E-03 0.  1.
        -12    1    3    3    0    0 -0.81438342123E+01  0.66914183559E+01  0.13234343672E+01  0.10623021878E+02  0.00000000000E+00 0.  1.
</event>
<event>
 7    1  0.2459936E-009  0.4778725E+02  0.7816164E-02  0.1312668E+00
        -11   -1    0    0    0    0  0.00000000000E+00  0.00000000000E+00  0.45593999997E+02  0.45594000000E+02  0.51100000000E-03 0. -1.
         11   -1    0    0    0    0 -0.00000000000E+00 -0.00000000000E+00 -0.45593999997E+02  0.45594000000E+02  0.51100000000E-03 0.  1.
    9900012    2    1    2    0    0 -0.36037117517E+02  0.77826775126E+01 -0.22899365957E+02  0.47787252662E+02  0.19999916188E+02 0.  0.
         12    1    1    2    0    0  0.36037117517E+02 -0.77826775126E+01  0.22899365957E+02  0.43400747338E+02  0.00000000000E+00 0. -1.
         11    1    3    3    0    0 -0.88334317564E+01  0.97883335035E+01 -0.91746690788E+01  0.16062862209E+02  0.51100000000E-03 0. -1.
        -11    1    3    3    0    0  0.39387110817E+00  0.36366191328E+00 -0.12218122731E+01  0.13342450783E+01  0.51100000000E-03 0.  1.
        -12    1    3    3    0    0 -0.27597556869E+02 -0.23693179042E+01 -0.12502884606E+02  0.30390145375E+02  0.00000000000E+00 0.  1.
</event>
<event>
 7    1  0.2459936E-009  0.4778727E+02  0.7816164E-02  0.1312668E+00
        -11   -1    0    0    0    0  0.00000000000E+00  0.00000000000E+00  0.45593999997E+02  0.45594000000E+02  0.51100000000E-03 0.  1.
         11   -1    0    0    0    0 -0.00000000000E+00 -0.00000000000E+00 -0.45593999997E+02  0.45594000000E+02  0.51100000000E-03 0. -1.
    9900012    2    1    2    0    0 -0.53135474581E+01  0.15658224715E+02  0.40127414225E+02  0.47787272354E+02  0.20000005972E+02 0.  0.
         12    1    1    2    0    0  0.53135474581E+01 -0.15658224715E+02 -0.40127414225E+02  0.43400727646E+02  0.00000000000E+00 0. -1.
         11    1    3    3    0    0 -0.23128026048E+01  0.25963533134E+01  0.99771464863E-01  0.34785141976E+01  0.51100000000E-03 0. -1.
        -11    1    3    3    0    0 -0.55243557753E+01  0.11023942931E+02  0.16712481158E+02  0.20769035875E+02  0.51100000000E-03 0.  1.
         12    1    3    3    0    0  0.25236109221E+01  0.20379284699E+01  0.23315161602E+02  0.23539722281E+02  0.00000000000E+00 0. -1.
</event>
<event>
 7    1  0.2459936E-009  0.4778727E+02  0.7816164E-02  0.1312668E+00
        -11   -1    0    0    0    0  0.00000000000E+00  0.00000000000E+00  0.45593999997E+02  0.45594000000E+02  0.51100000000E-03 0. -1.
         11   -1    0    0    0    0 -0.00000000000E+00 -0.00000000000E+00 -0.45593999997E+02  0.45594000000E+02  0.51100000000E-03 0.  1.
    9900012    2    1    2    0    0 -0.37906052781E+01 -0.31962831115E+02 -0.29114121720E+02  0.47787270228E+02  0.19999996277E+02 0.  0.
         12    1    1    2    0    0  0.37906052781E+01  0.31962831115E+02  0.29114121720E+02  0.43400729772E+02  0.00000000000E+00 0. -1.
         11    1    3    3    0    0  0.29440325487E+00 -0.14367266948E+02 -0.17679697305E+02  0.22783255472E+02  0.51100000000E-03 0. -1.
        -11    1    3    3    0    0 -0.59935705117E+01 -0.12841600680E+02 -0.13412917631E+02  0.19512456410E+02  0.51100000000E-03 0.  1.
         12    1    3    3    0    0  0.19085619787E+01 -0.47539634871E+01  0.19784932167E+01  0.54915583464E+01  0.00000000000E+00 0. -1.
</event>
<event>
 7    1  0.2459936E-009  0.4778727E+02  0.7816164E-02  0.1312668E+00
        -11   -1    0    0    0    0  0.00000000000E+00  0.00000000000E+00  0.45593999997E+02  0.45594000000E+02  0.51100000000E-03 0. -1.
         11   -1    0    0    0    0 -0.00000000000E+00 -0.00000000000E+00 -0.45593999997E+02  0.45594000000E+02  0.51100000000E-03 0.  1.
    9900012    2    1    2    0    0  0.13678300341E+02  0.26995102627E+02 -0.31109354625E+02  0.47787269461E+02  0.19999992782E+02 0.  0.
         12    1    1    2    0    0 -0.13678300341E+02 -0.26995102627E+02  0.31109354625E+02  0.43400730539E+02  0.00000000000E+00 0. -1.
         11    1    3    3    0    0  0.18693072340E+01  0.53618117784E+00 -0.16246727838E+00  0.19514598812E+01  0.51100000000E-03 0. -1.
        -11    1    3    3    0    0  0.14455169235E+02  0.23789673114E+02 -0.31499142769E+02  0.42036846455E+02  0.51100000000E-03 0.  1.
        -12    1    3    3    0    0 -0.26461761275E+01  0.26692483354E+01  0.55225542170E+00  0.37989631249E+01  0.00000000000E+00 0.  1.
</event>
<event>
 7    1  0.2459936E-009  0.4778729E+02  0.7816164E-02  0.1312668E+00
        -11   -1    0    0    0    0  0.00000000000E+00  0.00000000000E+00  0.45593999997E+02  0.45594000000E+02  0.51100000000E-03 0.  1.
         11   -1    0    0    0    0 -0.00000000000E+00 -0.00000000000E+00 -0.45593999997E+02  0.45594000000E+02  0.51100000000E-03 0. -1.
    9900012    2    1    2    0    0  0.23560644656E+02  0.20386855318E+02  0.30214138689E+02  0.47787285454E+02  0.20000065700E+02 0.  0.
         12    1    1    2    0    0 -0.23560644656E+02 -0.20386855318E+02 -0.30214138689E+02  0.43400714546E+02  0.00000000000E+00 0. -1.
         11    1    3    3    0    0  0.13137335568E+02  0.18947608050E+01  0.85053804030E+01  0.15764555192E+02  0.51100000000E-03 0. -1.
        -11    1    3    3    0    0  0.29428412509E+01  0.36774028804E+01  0.16500956090E-01  0.47099765515E+01  0.51100000000E-03 0.  1.
        -12    1    3    3    0    0  0.74804678376E+01  0.14814691632E+02  0.21692257329E+02  0.27312753711E+02  0.00000000000E+00 0.  1.
</event>
<event>
 7    1  0.2459936E-009  0.4778727E+02  0.7816164E-02  0.1312668E+00
        -11   -1    0    0    0    0  0.00000000000E+00  0.00000000000E+00  0.45593999997E+02  0.45594000000E+02  0.51100000000E-03 0.  1.
         11   -1    0    0    0    0 -0.00000000000E+00 -0.00000000000E+00 -0.45593999997E+02  0.45594000000E+02  0.51100000000E-03 0. -1.
    9900012    2    1    2    0    0 -0.42817762954E+02 -0.50766962999E+01  0.49486900945E+01  0.47787271857E+02  0.20000003703E+02 0.  0.
         12    1    1    2    0    0  0.42817762954E+02  0.50766962999E+01 -0.49486900945E+01  0.43400728143E+02  0.00000000000E+00 0. -1.
         11    1    3    3    0    0 -0.29522996867E+01 -0.54838861238E-01 -0.33768551384E+01  0.44857810499E+01  0.51100000000E-03 0. -1.
        -11    1    3    3    0    0 -0.81233414380E+01  0.20631380674E+01  0.67131651427E+01  0.10738333264E+02  0.51100000000E-03 0.  1.
         12    1    3    3    0    0 -0.31742121830E+02 -0.70849955061E+01  0.16123800902E+01  0.32563157542E+02  0.00000000000E+00 0. -1.
</event>
<event>
 7    1  0.2459936E-009  0.4778727E+02  0.7816164E-02  0.1312668E+00
        -11   -1    0    0    0    0  0.00000000000E+00  0.00000000000E+00  0.45593999997E+02  0.45594000000E+02  0.51100000000E-03 0. -1.
         11   -1    0    0    0    0 -0.00000000000E+00 -0.00000000000E+00 -0.45593999997E+02  0.45594000000E+02  0.51100000000E-03 0.  1.
    9900012    2    1    2    0    0 -0.58391777535E+01  0.17864962943E+01 -0.42969009217E+02  0.47787270525E+02  0.19999997633E+02 0.  0.
         12    1    1    2    0    0  0.58391777535E+01 -0.17864962943E+01  0.42969009217E+02  0.43400729475E+02  0.00000000000E+00 0. -1.
         11    1    3    3    0    0 -0.22903025117E+01  0.67373230369E+01 -0.83205538483E+01  0.10948453037E+02  0.51100000000E-03 0. -1.
        -11    1    3    3    0    0 -0.43218805812E+01 -0.21425352358E+01 -0.46527695382E+01  0.67020424970E+01  0.51100000000E-03 0.  1.
         12    1    3    3    0    0  0.77300533946E+00 -0.28082915069E+01 -0.29995685830E+02  0.30136774991E+02  0.00000000000E+00 0. -1.
</event>
<event>
 7    1  0.2459936E-009  0.4778727E+02  0.7816164E-02  0.1312668E+00
        -11   -1    0    0    0    0  0.00000000000E+00  0.00000000000E+00  0.45593999997E+02  0.45594000000E+02  0.51100000000E-03 0.  1.
         11   -1    0    0    0    0 -0.00000000000E+00 -0.00000000000E+00 -0.45593999997E+02  0.45594000000E+02  0.51100000000E-03 0. -1.
    9900012    2    1    2    0    0 -0.10463287585E+02  0.42117700030E+02  0.49222412893E+00  0.47787270427E+02  0.19999997185E+02 0.  0.
         12    1    1    2    0    0  0.10463287585E+02 -0.42117700030E+02 -0.49222412893E+00  0.43400729573E+02  0.00000000000E+00 0. -1.
         11    1    3    3    0    0 -0.21339830607E+01  0.17914002156E+02  0.60246579968E+01  0.19020038412E+02  0.51100000000E-03 0. -1.
        -11    1    3    3    0    0 -0.40142020559E+01  0.23426751137E+02 -0.38857684724E+01  0.24083722384E+02  0.51100000000E-03 0.  1.
         12    1    3    3    0    0 -0.43151024682E+01  0.77694673662E+00 -0.16466653955E+01  0.46835096314E+01  0.00000000000E+00 0. -1.
</event>
<event>
 7    1  0.2459936E-009  0.4778727E+02  0.7816164E-02  0.1312668E+00
        -11   -1    0    0    0    0  0.00000000000E+00  0.00000000000E+00  0.45593999997E+02  0.45594000000E+02  0.51100000000E-03 0.  1.
         11   -1    0    0    0    0 -0.00000000000E+00 -0.00000000000E+00 -0.45593999997E+02  0.45594000000E+02  0.51100000000E-03 0. -1.
    9900012    2    1    2    0    0  0.32078263046E+02  0.23020504175E+02  0.18018451019E+02  0.47787272476E+02  0.20000006527E+02 0.  0.
         12    1    1    2    0    0 -0.32078263046E+02 -0.23020504175E+02 -0.18018451019E+02  0.43400727524E+02  0.00000000000E+00 0. -1.
         11    1    3    3    0    0 -0.67400839389E-01  0.25991269754E+01  0.34759767375E+01  0.43407854644E+01  0.51100000000E-03 0.  1.
        -11    1    3    3    0    0 -0.79466926907E+00 -0.12702097984E+01  0.59192508811E+00  0.16109958877E+01  0.51100000000E-03 0. -1.
        -12    1    3    3    0    0  0.32940333154E+02  0.21691586998E+02  0.13950549193E+02  0.41835491124E+02  0.00000000000E+00 0.  1.
</event>
<event>
 7    1  0.2459936E-009  0.4778727E+02  0.7816164E-02  0.1312668E+00
        -11   -1    0    0    0    0  0.00000000000E+00  0.00000000000E+00  0.45593999997E+02  0.45594000000E+02  0.51100000000E-03 0.  1.
         11   -1    0    0    0    0 -0.00000000000E+00 -0.00000000000E+00 -0.45593999997E+02  0.45594000000E+02  0.51100000000E-03 0. -1.
    9900012    2    1    2    0    0  0.89008285983E+01 -0.10649874717E+02  0.41121509336E+02  0.47787272917E+02  0.20000008538E+02 0.  0.
         12    1    1    2    0    0 -0.89008285983E+01  0.10649874717E+02 -0.41121509336E+02  0.43400727083E+02  0.00000000000E+00 0. -1.
         11    1    3    3    0    0  0.38686493005E+01 -0.25971922868E+01  0.12572477256E+02  0.13408170635E+02  0.51100000000E-03 0.  1.
        -11    1    3    3    0    0  0.27051185193E+01 -0.64852840210E+01  0.30278508962E+02  0.31083189673E+02  0.51100000000E-03 0. -1.
         12    1    3    3    0    0  0.23270607785E+01 -0.15673984089E+01 -0.17294768812E+01  0.32959126083E+01  0.00000000000E+00 0. -1.
</event>
<event>
 7    1  0.2459936E-009  0.4778727E+02  0.7816164E-02  0.1312668E+00
        -11   -1    0    0    0    0  0.00000000000E+00  0.00000000000E+00  0.45593999997E+02  0.45594000000E+02  0.51100000000E-03 0.  1.
         11   -1    0    0    0    0 -0.00000000000E+00 -0.00000000000E+00 -0.45593999997E+02  0.45594000000E+02  0.51100000000E-03 0. -1.
    9900012    2    1    2    0    0  0.36157429151E+02 -0.20482259236E+02 -0.12519618048E+02  0.47787268874E+02  0.19999990105E+02 0.  0.
         12    1    1    2    0    0 -0.36157429151E+02  0.20482259236E+02  0.12519618048E+02  0.43400731126E+02  0.00000000000E+00 0. -1.
         11    1    3    3    0    0 -0.11572562131E+00  0.14087071660E+00 -0.15922500742E+00  0.24205338736E+00  0.51100000000E-03 0. -1.
        -11    1    3    3    0    0  0.23811331023E+02 -0.17622916002E+02 -0.16707661638E+02  0.34010183933E+02  0.51100000000E-03 0.  1.
        -12    1    3    3    0    0  0.12461823749E+02 -0.30002139501E+01  0.43472685974E+01  0.13535031553E+02  0.00000000000E+00 0.  1.
</event>
<event>
 7    1  0.2459936E-009  0.4778727E+02  0.7816164E-02  0.1312668E+00
        -11   -1    0    0    0    0  0.00000000000E+00  0.00000000000E+00  0.45593999997E+02  0.45594000000E+02  0.51100000000E-03 0.  1.
         11   -1    0    0    0    0 -0.00000000000E+00 -0.00000000000E+00 -0.45593999997E+02  0.45594000000E+02  0.51100000000E-03 0. -1.
    9900012    2    1    2    0    0 -0.17256625261E+02  0.16417586053E+02  0.36280783220E+02  0.47787268690E+02  0.19999989266E+02 0.  0.
         12    1    1    2    0    0  0.17256625261E+02 -0.16417586053E+02 -0.36280783220E+02  0.43400731310E+02  0.00000000000E+00 0. -1.
         11    1    3    3    0    0  0.19978495930E+01  0.24029922756E+01  0.34285984199E+01  0.46390798936E+01  0.51100000000E-03 0. -1.
        -11    1    3    3    0    0 -0.64490194510E+01  0.12026116062E+02  0.23472337371E+02  0.27150836844E+02  0.51100000000E-03 0.  1.
        -12    1    3    3    0    0 -0.12805455403E+02  0.19884777155E+01  0.93798474285E+01  0.15997351952E+02  0.00000000000E+00 0.  1.
</event>
<event>
 7    1  0.2459936E-009  0.4778727E+02  0.7816164E-02  0.1312668E+00
        -11   -1    0    0    0    0  0.00000000000E+00  0.00000000000E+00  0.45593999997E+02  0.45594000000E+02  0.51100000000E-03 0.  1.
         11   -1    0    0    0    0 -0.00000000000E+00 -0.00000000000E+00 -0.45593999997E+02  0.45594000000E+02  0.51100000000E-03 0. -1.
    9900012    2    1    2    0    0  0.88977474680E+01  0.42374618764E+02 -0.29741099603E+01  0.47787267800E+02  0.19999985209E+02 0.  0.
         12    1    1    2    0    0 -0.88977474680E+01 -0.42374618764E+02  0.29741099603E+01  0.43400732200E+02  0.00000000000E+00 0. -1.
         11    1    3    3    0    0  0.13416371413E+01  0.13496859799E+02 -0.54583328704E+00  0.13574356298E+02  0.51100000000E-03 0. -1.
        -11    1    3    3    0    0  0.51946928622E+01  0.29937962797E+02  0.38798509693E+00  0.30387776869E+02  0.51100000000E-03 0.  1.
         12    1    3    3    0    0  0.23614174645E+01 -0.10602038320E+01 -0.28162617702E+01  0.38251346336E+01  0.00000000000E+00 0. -1.
</event>
<event>
 7    1  0.2459936E-009  0.4778727E+02  0.7816164E-02  0.1312668E+00
        -11   -1    0    0    0    0  0.00000000000E+00  0.00000000000E+00  0.45593999997E+02  0.45594000000E+02  0.51100000000E-03 0. -1.
         11   -1    0    0    0    0 -0.00000000000E+00 -0.00000000000E+00 -0.45593999997E+02  0.45594000000E+02  0.51100000000E-03 0.  1.
    9900012    2    1    2    0    0  0.23834019458E+01  0.42813025724E+02  0.67072480544E+01  0.47787274742E+02  0.20000016857E+02 0.  0.
         12    1    1    2    0    0 -0.23834019458E+01 -0.42813025724E+02 -0.67072480544E+01  0.43400725258E+02  0.00000000000E+00 0. -1.
         11    1    3    3    0    0 -0.31548994802E+01  0.21571597831E+02  0.94719756253E+01  0.23769845313E+02  0.51100000000E-03 0. -1.
        -11    1    3    3    0    0 -0.59425573219E-03  0.11563428956E+02 -0.50776702214E+01  0.12629157720E+02  0.51100000000E-03 0.  1.
        -12    1    3    3    0    0  0.55388956818E+01  0.96779989369E+01  0.23129426505E+01  0.11388271708E+02  0.00000000000E+00 0.  1.
</event>
<event>
 7    1  0.2459936E-009  0.4778725E+02  0.7816164E-02  0.1312668E+00
        -11   -1    0    0    0    0  0.00000000000E+00  0.00000000000E+00  0.45593999997E+02  0.45594000000E+02  0.51100000000E-03 0.  1.
         11   -1    0    0    0    0 -0.00000000000E+00 -0.00000000000E+00 -0.45593999997E+02  0.45594000000E+02  0.51100000000E-03 0. -1.
    9900012    2    1    2    0    0  0.32439569919E+01 -0.30785672159E+02  0.30419475378E+02  0.47787247131E+02  0.19999890970E+02 0.  0.
         12    1    1    2    0    0 -0.32439569919E+01  0.30785672159E+02 -0.30419475378E+02  0.43400752869E+02  0.00000000000E+00 0. -1.
         11    1    3    3    0    0 -0.32596648113E+01 -0.76310421011E+01  0.39917294375E+01  0.92082638100E+01  0.51100000000E-03 0. -1.
        -11    1    3    3    0    0  0.49855921626E+01 -0.16458746912E+02  0.81038109958E+01  0.19011002921E+02  0.51100000000E-03 0.  1.
        -12    1    3    3    0    0  0.15180296406E+01 -0.66958831462E+01  0.18323934945E+02  0.19567980401E+02  0.00000000000E+00 0.  1.
</event>
<event>
 7    1  0.2459936E-009  0.4778727E+02  0.7816164E-02  0.1312668E+00
        -11   -1    0    0    0    0  0.00000000000E+00  0.00000000000E+00  0.45593999997E+02  0.45594000000E+02  0.51100000000E-03 0.  1.
         11   -1    0    0    0    0 -0.00000000000E+00 -0.00000000000E+00 -0.45593999997E+02  0.45594000000E+02  0.51100000000E-03 0. -1.
    9900012    2    1    2    0    0  0.67188692696E+01 -0.23296875093E+02  0.35996325481E+02  0.47787273721E+02  0.20000012206E+02 0.  0.
         12    1    1    2    0    0 -0.67188692696E+01  0.23296875093E+02 -0.35996325481E+02  0.43400726279E+02  0.00000000000E+00 0. -1.
         11    1    3    3    0    0  0.84326433097E+01 -0.11952973504E+02  0.11205937828E+02  0.18427047828E+02  0.51100000000E-03 0. -1.
        -11    1    3    3    0    0  0.96072419439E+00  0.19431664836E+01  0.37827680303E+01  0.43598418770E+01  0.51100000000E-03 0.  1.
        -12    1    3    3    0    0 -0.26744982345E+01 -0.13287068072E+02  0.21007619623E+02  0.25000384017E+02  0.00000000000E+00 0.  1.
</event>
<event>
 7    1  0.2459936E-009  0.4778727E+02  0.7816164E-02  0.1312668E+00
        -11   -1    0    0    0    0  0.00000000000E+00  0.00000000000E+00  0.45593999997E+02  0.45594000000E+02  0.51100000000E-03 0. -1.
         11   -1    0    0    0    0 -0.00000000000E+00 -0.00000000000E+00 -0.45593999997E+02  0.45594000000E+02  0.51100000000E-03 0.  1.
    9900012    2    1    2    0    0 -0.22374137535E+02 -0.24263684752E+02 -0.28183236806E+02  0.47787271146E+02  0.20000000463E+02 0.  0.
         12    1    1    2    0    0  0.22374137535E+02  0.24263684752E+02  0.28183236806E+02  0.43400728854E+02  0.00000000000E+00 0. -1.
         11    1    3    3    0    0 -0.82805726133E+01 -0.13864236126E+02 -0.63531344961E+01  0.17353594565E+02  0.51100000000E-03 0. -1.
        -11    1    3    3    0    0 -0.14147393006E+02 -0.10189917997E+02 -0.13371374277E+02  0.21972182595E+02  0.51100000000E-03 0.  1.
         12    1    3    3    0    0  0.53828083545E-01 -0.20953062914E+00 -0.84587280323E+01  0.84614939858E+01  0.00000000000E+00 0. -1.
</event>
<event>
 7    1  0.2459936E-009  0.4778727E+02  0.7816164E-02  0.1312668E+00
        -11   -1    0    0    0    0  0.00000000000E+00  0.00000000000E+00  0.45593999997E+02  0.45594000000E+02  0.51100000000E-03 0.  1.
         11   -1    0    0    0    0 -0.00000000000E+00 -0.00000000000E+00 -0.45593999997E+02  0.45594000000E+02  0.51100000000E-03 0. -1.
    9900012    2    1    2    0    0  0.26330922490E+02 -0.80529341345E+01  0.33547816624E+02  0.47787271577E+02  0.20000002429E+02 0.  0.
         12    1    1    2    0    0 -0.26330922490E+02  0.80529341345E+01 -0.33547816624E+02  0.43400728423E+02  0.00000000000E+00 0. -1.
         11    1    3    3    0    0  0.71800808692E+00  0.45210711320E-01 -0.83424320661E+00  0.11016086466E+01  0.51100000000E-03 0. -1.
        -11    1    3    3    0    0  0.19399606049E+01  0.15512653929E+01 -0.12902701381E+01  0.27990478306E+01  0.51100000000E-03 0.  1.
        -12    1    3    3    0    0  0.23672953798E+02 -0.96494102387E+01  0.35672329969E+02  0.43886615100E+02  0.00000000000E+00 0.  1.
</event>
<event>
 7    1  0.2459936E-009  0.4778727E+02  0.7816164E-02  0.1312668E+00
        -11   -1    0    0    0    0  0.00000000000E+00  0.00000000000E+00  0.45593999997E+02  0.45594000000E+02  0.51100000000E-03 0.  1.
         11   -1    0    0    0    0 -0.00000000000E+00 -0.00000000000E+00 -0.45593999997E+02  0.45594000000E+02  0.51100000000E-03 0. -1.
    9900012    2    1    2    0    0  0.40292083266E+02 -0.14824770765E+01  0.16061554810E+02  0.47787271261E+02  0.20000000986E+02 0.  0.
         12    1    1    2    0    0 -0.40292083266E+02  0.14824770765E+01 -0.16061554810E+02  0.43400728739E+02  0.00000000000E+00 0. -1.
         11    1    3    3    0    0  0.27005852329E+01  0.18087087579E+00  0.48956968382E+01  0.55940792510E+01  0.51100000000E-03 0. -1.
        -11    1    3    3    0    0  0.34370475250E+02 -0.37374261997E+01  0.14130245896E+02  0.37349187044E+02  0.51100000000E-03 0.  1.
         12    1    3    3    0    0  0.32210227830E+01  0.20740782473E+01 -0.29643879239E+01  0.48440049658E+01  0.00000000000E+00 0. -1.
</event>
<event>
 7    1  0.2459936E-009  0.4778727E+02  0.7816164E-02  0.1312668E+00
        -11   -1    0    0    0    0  0.00000000000E+00  0.00000000000E+00  0.45593999997E+02  0.45594000000E+02  0.51100000000E-03 0. -1.
         11   -1    0    0    0    0 -0.00000000000E+00 -0.00000000000E+00 -0.45593999997E+02  0.45594000000E+02  0.51100000000E-03 0.  1.
    9900012    2    1    2    0    0 -0.94235295100E+01  0.31410627921E+02 -0.28428734998E+02  0.47787269264E+02  0.19999991883E+02 0.  0.
         12    1    1    2    0    0  0.94235295100E+01 -0.31410627921E+02  0.28428734998E+02  0.43400730736E+02  0.00000000000E+00 0. -1.
         11    1    3    3    0    0 -0.72285061740E+01  0.22890463960E+01 -0.47441802354E+01  0.89441758300E+01  0.51100000000E-03 0. -1.
        -11    1    3    3    0    0 -0.45625381858E+01  0.14512164792E+02 -0.76689214842E+01  0.17036197893E+02  0.51100000000E-03 0.  1.
        -12    1    3    3    0    0  0.23675148499E+01  0.14609416733E+02 -0.16015633279E+02  0.21806895541E+02  0.00000000000E+00 0.  1.
</event>
<event>
 7    1  0.2459936E-009  0.4778725E+02  0.7816164E-02  0.1312668E+00
        -11   -1    0    0    0    0  0.00000000000E+00  0.00000000000E+00  0.45593999997E+02  0.45594000000E+02  0.51100000000E-03 0.  1.
         11   -1    0    0    0    0 -0.00000000000E+00 -0.00000000000E+00 -0.45593999997E+02  0.45594000000E+02  0.51100000000E-03 0. -1.
    9900012    2    1    2    0    0 -0.20125827368E+02  0.19237429203E+02  0.33294107385E+02  0.47787248899E+02  0.19999899029E+02 0.  0.
         12    1    1    2    0    0  0.20125827368E+02 -0.19237429203E+02 -0.33294107385E+02  0.43400751101E+02  0.00000000000E+00 0. -1.
         11    1    3    3    0    0 -0.74454294824E+01  0.84531749688E+01  0.19294173836E+02  0.22341793382E+02  0.51100000000E-03 0. -1.
        -11    1    3    3    0    0 -0.31946942672E+01 -0.28474552430E+01  0.49100165279E+01  0.65132430775E+01  0.51100000000E-03 0.  1.
         12    1    3    3    0    0 -0.94857036183E+01  0.13631709478E+02  0.90899170207E+01  0.18932212440E+02  0.00000000000E+00 0. -1.
</event>
<event>
 7    1  0.2459936E-009  0.4778727E+02  0.7816164E-02  0.1312668E+00
        -11   -1    0    0    0    0  0.00000000000E+00  0.00000000000E+00  0.45593999997E+02  0.45594000000E+02  0.51100000000E-03 0.  1.
         11   -1    0    0    0    0 -0.00000000000E+00 -0.00000000000E+00 -0.45593999997E+02  0.45594000000E+02  0.51100000000E-03 0. -1.
    9900012    2    1    2    0    0  0.40187890543E+01  0.14799435490E+02  0.40601096936E+02  0.47787273869E+02  0.20000012876E+02 0.  0.
         12    1    1    2    0    0 -0.40187890543E+01 -0.14799435490E+02 -0.40601096936E+02  0.43400726131E+02  0.00000000000E+00 0. -1.
         11    1    3    3    0    0  0.39609588615E-01 -0.17357731251E+01  0.11666256149E+02  0.11794745018E+02  0.51100000000E-03 0. -1.
        -11    1    3    3    0    0  0.79217052229E+01  0.82841225962E+01  0.20819640678E+02  0.23766311010E+02  0.51100000000E-03 0.  1.
         12    1    3    3    0    0 -0.39425257572E+01  0.82510860192E+01  0.81152001100E+01  0.12226217840E+02  0.00000000000E+00 0. -1.
</event>
<event>
 7    1  0.2459936E-009  0.4778727E+02  0.7816164E-02  0.1312668E+00
        -11   -1    0    0    0    0  0.00000000000E+00  0.00000000000E+00  0.45593999997E+02  0.45594000000E+02  0.51100000000E-03 0. -1.
         11   -1    0    0    0    0 -0.00000000000E+00 -0.00000000000E+00 -0.45593999997E+02  0.45594000000E+02  0.51100000000E-03 0.  1.
    9900012    2    1    2    0    0 -0.27752331238E+02 -0.30542698853E+02 -0.13437811273E+02  0.47787272884E+02  0.20000008387E+02 0.  0.
         12    1    1    2    0    0  0.27752331238E+02  0.30542698853E+02  0.13437811273E+02  0.43400727116E+02  0.00000000000E+00 0. -1.
         11    1    3    3    0    0 -0.64491401296E+01 -0.51064841166E+00 -0.29797837966E+01  0.71225895535E+01  0.51100000000E-03 0. -1.
        -11    1    3    3    0    0 -0.15438067442E+02 -0.19642584339E+02 -0.13437254226E+02  0.28367672574E+02  0.51100000000E-03 0.  1.
        -12    1    3    3    0    0 -0.58651236662E+01 -0.10389466102E+02  0.29792267500E+01  0.12297010756E+02  0.00000000000E+00 0.  1.
</event>
<event>
 7    1  0.2459936E-009  0.4778727E+02  0.7816164E-02  0.1312668E+00
        -11   -1    0    0    0    0  0.00000000000E+00  0.00000000000E+00  0.45593999997E+02  0.45594000000E+02  0.51100000000E-03 0.  1.
         11   -1    0    0    0    0 -0.00000000000E+00 -0.00000000000E+00 -0.45593999997E+02  0.45594000000E+02  0.51100000000E-03 0. -1.
    9900012    2    1    2    0    0  0.19560697207E+02  0.35114947680E+02 -0.16368963724E+02  0.47787269600E+02  0.19999993416E+02 0.  0.
         12    1    1    2    0    0 -0.19560697207E+02 -0.35114947680E+02  0.16368963724E+02  0.43400730400E+02  0.00000000000E+00 0. -1.
         11    1    3    3    0    0  0.21107095782E+01  0.28022749598E+01 -0.43851834065E+01  0.56158413122E+01  0.51100000000E-03 0. -1.
        -11    1    3    3    0    0  0.15181369040E+02  0.10578398283E+02 -0.41993430848E+01  0.18973954748E+02  0.51100000000E-03 0.  1.
         12    1    3    3    0    0  0.22686185889E+01  0.21734274437E+02 -0.77844372330E+01  0.23197473540E+02  0.00000000000E+00 0. -1.
</event>
<event>
 7    1  0.2459936E-009  0.4778727E+02  0.7816164E-02  0.1312668E+00
        -11   -1    0    0    0    0  0.00000000000E+00  0.00000000000E+00  0.45593999997E+02  0.45594000000E+02  0.51100000000E-03 0. -1.
         11   -1    0    0    0    0 -0.00000000000E+00 -0.00000000000E+00 -0.45593999997E+02  0.45594000000E+02  0.51100000000E-03 0.  1.
    9900012    2    1    2    0    0  0.30636257505E+02  0.11655311127E+02 -0.28446385406E+02  0.47787269660E+02  0.19999993687E+02 0.  0.
         12    1    1    2    0    0 -0.30636257505E+02 -0.11655311127E+02  0.28446385406E+02  0.43400730340E+02  0.00000000000E+00 0. -1.
         11    1    3    3    0    0  0.15451466993E+02  0.87555334699E+01 -0.35820203640E+01  0.18117341657E+02  0.51100000000E-03 0. -1.
        -11    1    3    3    0    0  0.83627610051E+01  0.21411821565E+01 -0.94671622369E+01  0.12812009746E+02  0.51100000000E-03 0.  1.
         12    1    3    3    0    0  0.68220295073E+01  0.75859550091E+00 -0.15397202805E+02  0.16857918257E+02  0.00000000000E+00 0. -1.
</event>
<event>
 7    1  0.2459936E-009  0.4778727E+02  0.7816164E-02  0.1312668E+00
        -11   -1    0    0    0    0  0.00000000000E+00  0.00000000000E+00  0.45593999997E+02  0.45594000000E+02  0.51100000000E-03 0.  1.
         11   -1    0    0    0    0 -0.00000000000E+00 -0.00000000000E+00 -0.45593999997E+02  0.45594000000E+02  0.51100000000E-03 0. -1.
    9900012    2    1    2    0    0  0.24930092183E+02 -0.34777480475E+02  0.72553920383E+01  0.47787270075E+02  0.19999995580E+02 0.  0.
         12    1    1    2    0    0 -0.24930092183E+02  0.34777480475E+02 -0.72553920383E+01  0.43400729925E+02  0.00000000000E+00 0. -1.
         11    1    3    3    0    0 -0.50130194172E+00 -0.91832110566E+01 -0.15138281914E+01  0.93206408042E+01  0.51100000000E-03 0. -1.
        -11    1    3    3    0    0  0.67350136331E+01 -0.40084260531E+01 -0.17556851340E+01  0.80318315851E+01  0.51100000000E-03 0.  1.
        -12    1    3    3    0    0  0.18696380491E+02 -0.21585843365E+02  0.10524905364E+02  0.30434797686E+02  0.00000000000E+00 0.  1.
</event>
<event>
 7    1  0.2459936E-009  0.4778727E+02  0.7816164E-02  0.1312668E+00
        -11   -1    0    0    0    0  0.00000000000E+00  0.00000000000E+00  0.45593999997E+02  0.45594000000E+02  0.51100000000E-03 0.  1.
         11   -1    0    0    0    0 -0.00000000000E+00 -0.00000000000E+00 -0.45593999997E+02  0.45594000000E+02  0.51100000000E-03 0. -1.
    9900012    2    1    2    0    0  0.33779623424E+02  0.17982799026E+02  0.20473869524E+02  0.47787270136E+02  0.19999995858E+02 0.  0.
         12    1    1    2    0    0 -0.33779623424E+02 -0.17982799026E+02 -0.20473869524E+02  0.43400729864E+02  0.00000000000E+00 0. -1.
         11    1    3    3    0    0  0.12920758635E+02  0.77065226337E+01  0.86207235191E+01  0.17339358957E+02  0.51100000000E-03 0.  1.
        -11    1    3    3    0    0  0.55341121198E+01  0.11394274883E+02  0.48882074454E+01  0.13577572292E+02  0.51100000000E-03 0. -1.
         12    1    3    3    0    0  0.15324752669E+02 -0.11179984912E+01  0.69649385596E+01  0.16870338886E+02  0.00000000000E+00 0. -1.
</event>
<event>
 7    1  0.2459936E-009  0.4778728E+02  0.7816164E-02  0.1312668E+00
        -11   -1    0    0    0    0  0.00000000000E+00  0.00000000000E+00  0.45593999997E+02  0.45594000000E+02  0.51100000000E-03 0.  1.
         11   -1    0    0    0    0 -0.00000000000E+00 -0.00000000000E+00 -0.45593999997E+02  0.45594000000E+02  0.51100000000E-03 0. -1.
    9900012    2    1    2    0    0 -0.12143490735E+02 -0.40595225220E+01  0.41469006122E+02  0.47787279279E+02  0.20000037547E+02 0.  0.
         12    1    1    2    0    0  0.12143490735E+02  0.40595225220E+01 -0.41469006122E+02  0.43400720721E+02  0.00000000000E+00 0. -1.
         11    1    3    3    0    0  0.40731453149E+01  0.35889053539E+00  0.10862578825E+02  0.11606676275E+02  0.51100000000E-03 0. -1.
        -11    1    3    3    0    0 -0.38333800032E+01  0.16389105964E+01  0.13949132040E+02  0.14558815718E+02  0.51100000000E-03 0.  1.
         12    1    3    3    0    0 -0.12383256046E+02 -0.60573236538E+01  0.16657295257E+02  0.21621787286E+02  0.00000000000E+00 0. -1.
</event>
<event>
 7    1  0.2459936E-009  0.4778727E+02  0.7816164E-02  0.1312668E+00
        -11   -1    0    0    0    0  0.00000000000E+00  0.00000000000E+00  0.45593999997E+02  0.45594000000E+02  0.51100000000E-03 0.  1.
         11   -1    0    0    0    0 -0.00000000000E+00 -0.00000000000E+00 -0.45593999997E+02  0.45594000000E+02  0.51100000000E-03 0. -1.
    9900012    2    1    2    0    0 -0.13733093537E+02  0.24457209881E+02  0.33119032748E+02  0.47787270704E+02  0.19999998448E+02 0.  0.
         12    1    1    2    0    0  0.13733093537E+02 -0.24457209881E+02 -0.33119032748E+02  0.43400729296E+02  0.00000000000E+00 0. -1.
         11    1    3    3    0    0 -0.12048576830E+02  0.80885327125E+01  0.17024305673E+02  0.22370059208E+02  0.51100000000E-03 0. -1.
        -11    1    3    3    0    0  0.10102182669E+01 -0.93327070426E+00  0.37456211818E+01  0.39901395280E+01  0.51100000000E-03 0.  1.
         12    1    3    3    0    0 -0.26947349744E+01  0.17301947872E+02  0.12349105893E+02  0.21427071968E+02  0.00000000000E+00 0. -1.
</event>
<event>
 7    1  0.2459936E-009  0.4778727E+02  0.7816164E-02  0.1312668E+00
        -11   -1    0    0    0    0  0.00000000000E+00  0.00000000000E+00  0.45593999997E+02  0.45594000000E+02  0.51100000000E-03 0. -1.
         11   -1    0    0    0    0 -0.00000000000E+00 -0.00000000000E+00 -0.45593999997E+02  0.45594000000E+02  0.51100000000E-03 0.  1.
    9900012    2    1    2    0    0 -0.42228966515E+02  0.46728152619E+01 -0.88601773314E+01  0.47787267774E+02  0.19999985089E+02 0.  0.
         12    1    1    2    0    0  0.42228966515E+02 -0.46728152619E+01  0.88601773314E+01  0.43400732226E+02  0.00000000000E+00 0. -1.
         11    1    3    3    0    0 -0.26138148778E+02  0.32192587658E+01  0.38060720553E+00  0.26338399926E+02  0.51100000000E-03 0. -1.
        -11    1    3    3    0    0 -0.13869430757E+02  0.46391531582E+01 -0.44604938878E+01  0.15289828564E+02  0.51100000000E-03 0.  1.
         12    1    3    3    0    0 -0.22213869801E+01 -0.31855966621E+01 -0.47802906490E+01  0.61590392837E+01  0.00000000000E+00 0. -1.
</event>
<event>
 7    1  0.2459936E-009  0.4778727E+02  0.7816164E-02  0.1312668E+00
        -11   -1    0    0    0    0  0.00000000000E+00  0.00000000000E+00  0.45593999997E+02  0.45594000000E+02  0.51100000000E-03 0. -1.
         11   -1    0    0    0    0 -0.00000000000E+00 -0.00000000000E+00 -0.45593999997E+02  0.45594000000E+02  0.51100000000E-03 0.  1.
    9900012    2    1    2    0    0  0.23002178325E+02  0.23828650151E+02 -0.28048501435E+02  0.47787271798E+02  0.20000003437E+02 0.  0.
         12    1    1    2    0    0 -0.23002178325E+02 -0.23828650151E+02  0.28048501435E+02  0.43400728202E+02  0.00000000000E+00 0. -1.
         11    1    3    3    0    0  0.12167984199E+02  0.59687367438E+01 -0.15441337220E+02  0.20545572594E+02  0.51100000000E-03 0. -1.
        -11    1    3    3    0    0  0.11663523043E+02  0.16804495409E+02 -0.14390034188E+02  0.25010036383E+02  0.51100000000E-03 0.  1.
         12    1    3    3    0    0 -0.82932891650E+00  0.10554179986E+01  0.17828699740E+01  0.22316628212E+01  0.00000000000E+00 0. -1.
</event>
<event>
 7    1  0.2459936E-009  0.4778727E+02  0.7816164E-02  0.1312668E+00
        -11   -1    0    0    0    0  0.00000000000E+00  0.00000000000E+00  0.45593999997E+02  0.45594000000E+02  0.51100000000E-03 0.  1.
         11   -1    0    0    0    0 -0.00000000000E+00 -0.00000000000E+00 -0.45593999997E+02  0.45594000000E+02  0.51100000000E-03 0. -1.
    9900012    2    1    2    0    0 -0.30229631943E+02 -0.22732742570E+02  0.21284161825E+02  0.47787265251E+02  0.19999973585E+02 0.  0.
         12    1    1    2    0    0  0.30229631943E+02  0.22732742570E+02 -0.21284161825E+02  0.43400734749E+02  0.00000000000E+00 0. -1.
         11    1    3    3    0    0 -0.21646944090E+01 -0.39770605218E+01  0.10572975468E+02  0.11501770419E+02  0.51100000000E-03 0. -1.
        -11    1    3    3    0    0 -0.18816413854E+02 -0.12032493232E+02  0.10894282551E+02  0.24850024472E+02  0.51100000000E-03 0.  1.
        -12    1    3    3    0    0 -0.92485236802E+01 -0.67231888164E+01 -0.18309619429E+00  0.11435470359E+02  0.00000000000E+00 0.  1.
</event>
<event>
 7    1  0.2459936E-009  0.4778727E+02  0.7816164E-02  0.1312668E+00
        -11   -1    0    0    0    0  0.00000000000E+00  0.00000000000E+00  0.45593999997E+02  0.45594000000E+02  0.51100000000E-03 0.  1.
         11   -1    0    0    0    0 -0.00000000000E+00 -0.00000000000E+00 -0.45593999997E+02  0.45594000000E+02  0.51100000000E-03 0. -1.
    9900012    2    1    2    0    0  0.40767907041E+02  0.56294635051E+01  0.13780792901E+02  0.47787270088E+02  0.19999995640E+02 0.  0.
         12    1    1    2    0    0 -0.40767907041E+02 -0.56294635051E+01 -0.13780792901E+02  0.43400729912E+02  0.00000000000E+00 0. -1.
         11    1    3    3    0    0  0.36775904156E+01 -0.12976077148E+01 -0.10542621207E+01  0.40397928074E+01  0.51100000000E-03 0. -1.
        -11    1    3    3    0    0  0.57981978369E+01 -0.50103750706E+01  0.26801266728E+01  0.81182532448E+01  0.51100000000E-03 0.  1.
         12    1    3    3    0    0  0.31292118789E+02  0.11937446291E+02  0.12154928349E+02  0.35629224036E+02  0.00000000000E+00 0. -1.
</event>
<event>
 7    1  0.2459936E-009  0.4778727E+02  0.7816164E-02  0.1312668E+00
        -11   -1    0    0    0    0  0.00000000000E+00  0.00000000000E+00  0.45593999997E+02  0.45594000000E+02  0.51100000000E-03 0.  1.
         11   -1    0    0    0    0 -0.00000000000E+00 -0.00000000000E+00 -0.45593999997E+02  0.45594000000E+02  0.51100000000E-03 0. -1.
    9900012    2    1    2    0    0  0.36282626550E+02 -0.21296036703E+02 -0.10661763907E+02  0.47787269842E+02  0.19999994518E+02 0.  0.
         12    1    1    2    0    0 -0.36282626550E+02  0.21296036703E+02  0.10661763907E+02  0.43400730158E+02  0.00000000000E+00 0. -1.
         11    1    3    3    0    0  0.32852596323E+01 -0.19756897862E+01 -0.52250250678E+01  0.64805222168E+01  0.51100000000E-03 0. -1.
        -11    1    3    3    0    0  0.97482679478E+01 -0.11073495152E+02 -0.75041601842E+01  0.16551841082E+02  0.51100000000E-03 0.  1.
        -12    1    3    3    0    0  0.23249098970E+02 -0.82468517643E+01  0.20674213452E+01  0.24754906543E+02  0.00000000000E+00 0.  1.
</event>
<event>
 7    1  0.2459936E-009  0.4778727E+02  0.7816164E-02  0.1312668E+00
        -11   -1    0    0    0    0  0.00000000000E+00  0.00000000000E+00  0.45593999997E+02  0.45594000000E+02  0.51100000000E-03 0.  1.
         11   -1    0    0    0    0 -0.00000000000E+00 -0.00000000000E+00 -0.45593999997E+02  0.45594000000E+02  0.51100000000E-03 0. -1.
    9900012    2    1    2    0    0 -0.13566763526E+02  0.27818285432E+02  0.30425467766E+02  0.47787272290E+02  0.20000005680E+02 0.  0.
         12    1    1    2    0    0  0.13566763526E+02 -0.27818285432E+02 -0.30425467766E+02  0.43400727710E+02  0.00000000000E+00 0. -1.
         11    1    3    3    0    0 -0.78922183048E+01  0.16333380052E+02  0.27516440914E+02  0.32957866049E+02  0.51100000000E-03 0.  1.
        -11    1    3    3    0    0 -0.22671343295E+01  0.77409273637E+01  0.48451258895E+01  0.94094154794E+01  0.51100000000E-03 0. -1.
        -12    1    3    3    0    0 -0.34074108919E+01  0.37439780163E+01 -0.19360990371E+01  0.54199907615E+01  0.00000000000E+00 0.  1.
</event>
<event>
 7    1  0.2459936E-009  0.4778727E+02  0.7816164E-02  0.1312668E+00
        -11   -1    0    0    0    0  0.00000000000E+00  0.00000000000E+00  0.45593999997E+02  0.45594000000E+02  0.51100000000E-03 0.  1.
         11   -1    0    0    0    0 -0.00000000000E+00 -0.00000000000E+00 -0.45593999997E+02  0.45594000000E+02  0.51100000000E-03 0. -1.
    9900012    2    1    2    0    0 -0.34527045218E+02  0.17536327656E+02  0.19595493786E+02  0.47787274017E+02  0.20000013553E+02 0.  0.
         12    1    1    2    0    0  0.34527045218E+02 -0.17536327656E+02 -0.19595493786E+02  0.43400725983E+02  0.00000000000E+00 0. -1.
         11    1    3    3    0    0 -0.23243450980E+02  0.15675560604E+02  0.12674593845E+02  0.30767296649E+02  0.51100000000E-03 0. -1.
        -11    1    3    3    0    0 -0.83189489755E+01  0.24605417292E+01 -0.81536226520E+00  0.87134375274E+01  0.51100000000E-03 0.  1.
        -12    1    3    3    0    0 -0.29646452622E+01 -0.59977467681E+00  0.77362622065E+01  0.83065398405E+01  0.00000000000E+00 0.  1.
</event>
<event>
 7    1  0.2459936E-009  0.4778727E+02  0.7816164E-02  0.1312668E+00
        -11   -1    0    0    0    0  0.00000000000E+00  0.00000000000E+00  0.45593999997E+02  0.45594000000E+02  0.51100000000E-03 0.  1.
         11   -1    0    0    0    0 -0.00000000000E+00 -0.00000000000E+00 -0.45593999997E+02  0.45594000000E+02  0.51100000000E-03 0. -1.
    9900012    2    1    2    0    0 -0.29529415357E+02  0.31519151479E+02 -0.42637820452E+01  0.47787272833E+02  0.20000008156E+02 0.  0.
         12    1    1    2    0    0  0.29529415357E+02 -0.31519151479E+02  0.42637820452E+01  0.43400727167E+02  0.00000000000E+00 0. -1.
         11    1    3    3    0    0  0.11166785985E+01  0.15945956197E+01  0.90784242060E+00  0.21479954387E+01  0.51100000000E-03 0. -1.
        -11    1    3    3    0    0 -0.99853589203E+01  0.15312968747E+02  0.40172380883E+01  0.18717174112E+02  0.51100000000E-03 0.  1.
         12    1    3    3    0    0 -0.20660735035E+02  0.14611587112E+02 -0.91888625541E+01  0.26922103282E+02  0.00000000000E+00 0. -1.
</event>
<event>
 7    1  0.2459936E-009  0.4778727E+02  0.7816164E-02  0.1312668E+00
        -11   -1    0    0    0    0  0.00000000000E+00  0.00000000000E+00  0.45593999997E+02  0.45594000000E+02  0.51100000000E-03 0.  1.
         11   -1    0    0    0    0 -0.00000000000E+00 -0.00000000000E+00 -0.45593999997E+02  0.45594000000E+02  0.51100000000E-03 0. -1.
    9900012    2    1    2    0    0 -0.24171770602E+02 -0.30538253613E+02  0.19151087383E+02  0.47787267567E+02  0.19999984146E+02 0.  0.
         12    1    1    2    0    0  0.24171770602E+02  0.30538253613E+02 -0.19151087383E+02  0.43400732433E+02  0.00000000000E+00 0. -1.
         11    1    3    3    0    0  0.43923820162E+00  0.47440894159E+00  0.10432495133E+01  0.12273401524E+01  0.51100000000E-03 0. -1.
        -11    1    3    3    0    0 -0.31102534345E+01 -0.21135877181E+01  0.84785323763E+01  0.92750439883E+01  0.51100000000E-03 0.  1.
        -12    1    3    3    0    0 -0.21500755369E+02 -0.28899074836E+02  0.96293054930E+01  0.37284883426E+02  0.00000000000E+00 0.  1.
</event>
<event>
 7    1  0.2459936E-009  0.4778727E+02  0.7816164E-02  0.1312668E+00
        -11   -1    0    0    0    0  0.00000000000E+00  0.00000000000E+00  0.45593999997E+02  0.45594000000E+02  0.51100000000E-03 0. -1.
         11   -1    0    0    0    0 -0.00000000000E+00 -0.00000000000E+00 -0.45593999997E+02  0.45594000000E+02  0.51100000000E-03 0.  1.
    9900012    2    1    2    0    0 -0.19673794154E+02  0.22361376838E+02 -0.31567923065E+02  0.47787272850E+02  0.20000008231E+02 0.  0.
         12    1    1    2    0    0  0.19673794154E+02 -0.22361376838E+02  0.31567923065E+02  0.43400727150E+02  0.00000000000E+00 0. -1.
         11    1    3    3    0    0 -0.60618982158E+01  0.39774281907E+00 -0.11512469339E+01  0.61830558054E+01  0.51100000000E-03 0. -1.
        -11    1    3    3    0    0  0.17437255351E+01  0.41628631413E+01 -0.76268488369E+01  0.88622137030E+01  0.51100000000E-03 0.  1.
        -12    1    3    3    0    0 -0.15355621474E+02  0.17800770878E+02 -0.22789827295E+02  0.32742003341E+02  0.00000000000E+00 0.  1.
</event>
<event>
 7    1  0.2459936E-009  0.4778727E+02  0.7816164E-02  0.1312668E+00
        -11   -1    0    0    0    0  0.00000000000E+00  0.00000000000E+00  0.45593999997E+02  0.45594000000E+02  0.51100000000E-03 0. -1.
         11   -1    0    0    0    0 -0.00000000000E+00 -0.00000000000E+00 -0.45593999997E+02  0.45594000000E+02  0.51100000000E-03 0.  1.
    9900012    2    1    2    0    0 -0.14896480781E+02 -0.33761977457E+02 -0.22843966483E+02  0.47787273437E+02  0.20000010910E+02 0.  0.
         12    1    1    2    0    0  0.14896480781E+02  0.33761977457E+02  0.22843966483E+02  0.43400726563E+02  0.00000000000E+00 0. -1.
         11    1    3    3    0    0 -0.57637712231E+01 -0.20799282043E+02 -0.12585902890E+02  0.24984718210E+02  0.51100000000E-03 0. -1.
        -11    1    3    3    0    0  0.26510860665E+01 -0.56867622616E+01 -0.48687750548E+01  0.79418192593E+01  0.51100000000E-03 0.  1.
         12    1    3    3    0    0 -0.11783795624E+02 -0.72759331529E+01 -0.53892885383E+01  0.14860735968E+02  0.00000000000E+00 0. -1.
</event>
<event>
 7    1  0.2459936E-009  0.4778728E+02  0.7816164E-02  0.1312668E+00
        -11   -1    0    0    0    0  0.00000000000E+00  0.00000000000E+00  0.45593999997E+02  0.45594000000E+02  0.51100000000E-03 0.  1.
         11   -1    0    0    0    0 -0.00000000000E+00 -0.00000000000E+00 -0.45593999997E+02  0.45594000000E+02  0.51100000000E-03 0. -1.
    9900012    2    1    2    0    0  0.13970663396E+02 -0.22243650108E+02  0.34549435943E+02  0.47787275008E+02  0.20000018071E+02 0.  0.
         12    1    1    2    0    0 -0.13970663396E+02  0.22243650108E+02 -0.34549435943E+02  0.43400724992E+02  0.00000000000E+00 0. -1.
         11    1    3    3    0    0  0.25073991658E+01 -0.87119235258E+01  0.16448404777E+02  0.18781232176E+02  0.51100000000E-03 0. -1.
        -11    1    3    3    0    0  0.11887795704E+02 -0.15100887398E+02  0.19102070645E+02  0.27096966438E+02  0.51100000000E-03 0.  1.
         12    1    3    3    0    0 -0.42453147369E+00  0.15691608161E+01 -0.10010394791E+01  0.19090763939E+01  0.00000000000E+00 0. -1.
</event>
<event>
 7    1  0.2459936E-009  0.4778728E+02  0.7816164E-02  0.1312668E+00
        -11   -1    0    0    0    0  0.00000000000E+00  0.00000000000E+00  0.45593999997E+02  0.45594000000E+02  0.51100000000E-03 0.  1.
         11   -1    0    0    0    0 -0.00000000000E+00 -0.00000000000E+00 -0.45593999997E+02  0.45594000000E+02  0.51100000000E-03 0. -1.
    9900012    2    1    2    0    0  0.24558939709E+01 -0.28859212910E+02  0.32322394580E+02  0.47787276776E+02  0.20000026133E+02 0.  0.
         12    1    1    2    0    0 -0.24558939709E+01  0.28859212910E+02 -0.32322394580E+02  0.43400723224E+02  0.00000000000E+00 0. -1.
         11    1    3    3    0    0 -0.49375871480E+01 -0.67122824469E+01  0.93649883253E+01  0.12535450095E+02  0.51100000000E-03 0. -1.
        -11    1    3    3    0    0  0.27306626526E+01 -0.21422329315E+02  0.21064211403E+02  0.30167428032E+02  0.51100000000E-03 0.  1.
         12    1    3    3    0    0  0.46628184663E+01 -0.72460114871E+00  0.18931948514E+01  0.50843986488E+01  0.00000000000E+00 0. -1.
</event>
<event>
 7    1  0.2459936E-009  0.4778727E+02  0.7816164E-02  0.1312668E+00
        -11   -1    0    0    0    0  0.00000000000E+00  0.00000000000E+00  0.45593999997E+02  0.45594000000E+02  0.51100000000E-03 0.  1.
         11   -1    0    0    0    0 -0.00000000000E+00 -0.00000000000E+00 -0.45593999997E+02  0.45594000000E+02  0.51100000000E-03 0. -1.
    9900012    2    1    2    0    0  0.13069654729E+02  0.21842672201E+02  0.35152596851E+02  0.47787271101E+02  0.20000000258E+02 0.  0.
         12    1    1    2    0    0 -0.13069654729E+02 -0.21842672201E+02 -0.35152596851E+02  0.43400728899E+02  0.00000000000E+00 0. -1.
         11    1    3    3    0    0  0.28326848025E+01  0.69595782704E+01  0.16332308373E+01  0.76894262544E+01  0.51100000000E-03 0. -1.
        -11    1    3    3    0    0 -0.11417105183E+01 -0.10803305963E+01  0.66741571106E+01  0.68567478080E+01  0.51100000000E-03 0.  1.
        -12    1    3    3    0    0  0.11378680445E+02  0.15963424527E+02  0.26845208903E+02  0.33241097039E+02  0.00000000000E+00 0.  1.
</event>
<event>
 7    1  0.2459936E-009  0.4778726E+02  0.7816164E-02  0.1312668E+00
        -11   -1    0    0    0    0  0.00000000000E+00  0.00000000000E+00  0.45593999997E+02  0.45594000000E+02  0.51100000000E-03 0.  1.
         11   -1    0    0    0    0 -0.00000000000E+00 -0.00000000000E+00 -0.45593999997E+02  0.45594000000E+02  0.51100000000E-03 0. -1.
    9900012    2    1    2    0    0 -0.34926807293E+02 -0.97522936421E+01  0.23846071419E+02  0.47787260132E+02  0.19999950246E+02 0.  0.
         12    1    1    2    0    0  0.34926807293E+02  0.97522936421E+01 -0.23846071419E+02  0.43400739868E+02  0.00000000000E+00 0. -1.
         11    1    3    3    0    0 -0.11010635443E+02 -0.25425051966E+01  0.10054839558E+02  0.15126077625E+02  0.51100000000E-03 0. -1.
        -11    1    3    3    0    0 -0.25410312036E+02 -0.41095081863E+01  0.13827663098E+02  0.29219450411E+02  0.51100000000E-03 0.  1.
         12    1    3    3    0    0  0.14941401863E+01 -0.31002802592E+01 -0.36431236622E-01  0.34417320955E+01  0.00000000000E+00 0. -1.
</event>
<event>
 7    1  0.2459936E-009  0.4778727E+02  0.7816164E-02  0.1312668E+00
        -11   -1    0    0    0    0  0.00000000000E+00  0.00000000000E+00  0.45593999997E+02  0.45594000000E+02  0.51100000000E-03 0.  1.
         11   -1    0    0    0    0 -0.00000000000E+00 -0.00000000000E+00 -0.45593999997E+02  0.45594000000E+02  0.51100000000E-03 0. -1.
    9900012    2    1    2    0    0  0.20502988667E+02  0.33453460064E+02 -0.18550387396E+02  0.47787269510E+02  0.19999993005E+02 0.  0.
         12    1    1    2    0    0 -0.20502988667E+02 -0.33453460064E+02  0.18550387396E+02  0.43400730490E+02  0.00000000000E+00 0. -1.
         11    1    3    3    0    0  0.12498052363E+02  0.73158205968E+01 -0.90698051251E+01  0.17087536661E+02  0.51100000000E-03 0. -1.
        -11    1    3    3    0    0  0.88814631131E+01  0.12333622161E+02 -0.66068574309E+01  0.16572543197E+02  0.51100000000E-03 0.  1.
         12    1    3    3    0    0 -0.87652680881E+00  0.13804017306E+02 -0.28737248402E+01  0.14127189652E+02  0.00000000000E+00 0. -1.
</event>
<event>
 7    1  0.2459936E-009  0.4778727E+02  0.7816164E-02  0.1312668E+00
        -11   -1    0    0    0    0  0.00000000000E+00  0.00000000000E+00  0.45593999997E+02  0.45594000000E+02  0.51100000000E-03 0.  1.
         11   -1    0    0    0    0 -0.00000000000E+00 -0.00000000000E+00 -0.45593999997E+02  0.45594000000E+02  0.51100000000E-03 0. -1.
    9900012    2    1    2    0    0 -0.75934875035E+01 -0.14652826482E+02  0.40140462184E+02  0.47787273270E+02  0.20000010148E+02 0.  0.
         12    1    1    2    0    0  0.75934875035E+01  0.14652826482E+02 -0.40140462184E+02  0.43400726730E+02  0.00000000000E+00 0. -1.
         11    1    3    3    0    0  0.26717794025E+00 -0.77271833253E+01  0.17430598415E+02  0.19068468936E+02  0.51100000000E-03 0. -1.
        -11    1    3    3    0    0  0.16313274431E+00 -0.83236888315E+01  0.64443150538E+01  0.10528038983E+02  0.51100000000E-03 0.  1.
         12    1    3    3    0    0 -0.80237981880E+01  0.13980456753E+01  0.16265548714E+02  0.18190765351E+02  0.00000000000E+00 0. -1.
</event>
<event>
 7    1  0.2459936E-009  0.4778727E+02  0.7816164E-02  0.1312668E+00
        -11   -1    0    0    0    0  0.00000000000E+00  0.00000000000E+00  0.45593999997E+02  0.45594000000E+02  0.51100000000E-03 0.  1.
         11   -1    0    0    0    0 -0.00000000000E+00 -0.00000000000E+00 -0.45593999997E+02  0.45594000000E+02  0.51100000000E-03 0. -1.
    9900012    2    1    2    0    0 -0.30200142976E+02 -0.25850356694E+02  0.17416475805E+02  0.47787271821E+02  0.20000003541E+02 0.  0.
         12    1    1    2    0    0  0.30200142976E+02  0.25850356694E+02 -0.17416475805E+02  0.43400728179E+02  0.00000000000E+00 0. -1.
         11    1    3    3    0    0 -0.17128135231E+02 -0.17744542275E+02  0.18074089547E+02  0.30576371764E+02  0.51100000000E-03 0. -1.
        -11    1    3    3    0    0 -0.55895022326E+01  0.70715065508E+00 -0.57370713548E-01  0.56343490233E+01  0.51100000000E-03 0.  1.
        -12    1    3    3    0    0 -0.74825055121E+01 -0.88129650748E+01 -0.60024302847E+00  0.11576551034E+02  0.00000000000E+00 0.  1.
</event>
<event>
 7    1  0.2459936E-009  0.4778727E+02  0.7816164E-02  0.1312668E+00
        -11   -1    0    0    0    0  0.00000000000E+00  0.00000000000E+00  0.45593999997E+02  0.45594000000E+02  0.51100000000E-03 0.  1.
         11   -1    0    0    0    0 -0.00000000000E+00 -0.00000000000E+00 -0.45593999997E+02  0.45594000000E+02  0.51100000000E-03 0. -1.
    9900012    2    1    2    0    0 -0.11166077028E+02  0.13671458183E+02  0.39648877313E+02  0.47787268241E+02  0.19999987219E+02 0.  0.
         12    1    1    2    0    0  0.11166077028E+02 -0.13671458183E+02 -0.39648877313E+02  0.43400731759E+02  0.00000000000E+00 0. -1.
         11    1    3    3    0    0 -0.15712141028E+01  0.53670944322E+01  0.21023057046E+02  0.21754156941E+02  0.51100000000E-03 0. -1.
        -11    1    3    3    0    0 -0.46038163507E+01  0.11381609411E+02  0.13464129082E+02  0.18221386609E+02  0.51100000000E-03 0.  1.
         12    1    3    3    0    0 -0.49910465742E+01 -0.30772456599E+01  0.51616911845E+01  0.78117246905E+01  0.00000000000E+00 0. -1.
</event>
<event>
 7    1  0.2459936E-009  0.4778727E+02  0.7816164E-02  0.1312668E+00
        -11   -1    0    0    0    0  0.00000000000E+00  0.00000000000E+00  0.45593999997E+02  0.45594000000E+02  0.51100000000E-03 0.  1.
         11   -1    0    0    0    0 -0.00000000000E+00 -0.00000000000E+00 -0.45593999997E+02  0.45594000000E+02  0.51100000000E-03 0. -1.
    9900012    2    1    2    0    0 -0.20857146401E+02  0.37685640898E+02 -0.53286971029E+01  0.47787273063E+02  0.20000009204E+02 0.  0.
         12    1    1    2    0    0  0.20857146401E+02 -0.37685640898E+02  0.53286971029E+01  0.43400726937E+02  0.00000000000E+00 0. -1.
         11    1    3    3    0    0 -0.44985039572E+01  0.24286960605E+02 -0.49769108619E+01  0.25196480613E+02  0.51100000000E-03 0. -1.
        -11    1    3    3    0    0 -0.88993493985E+00  0.23306452208E+01 -0.23980984577E+01  0.34604577467E+01  0.51100000000E-03 0.  1.
        -12    1    3    3    0    0 -0.15468707504E+02  0.11068035072E+02  0.20463122166E+01  0.19130334704E+02  0.00000000000E+00 0.  1.
</event>
<event>
 7    1  0.2459936E-009  0.4778727E+02  0.7816164E-02  0.1312668E+00
        -11   -1    0    0    0    0  0.00000000000E+00  0.00000000000E+00  0.45593999997E+02  0.45594000000E+02  0.51100000000E-03 0. -1.
         11   -1    0    0    0    0 -0.00000000000E+00 -0.00000000000E+00 -0.45593999997E+02  0.45594000000E+02  0.51100000000E-03 0.  1.
    9900012    2    1    2    0    0  0.23267012698E+02  0.34616047176E+02 -0.11999946756E+02  0.47787270466E+02  0.19999997363E+02 0.  0.
         12    1    1    2    0    0 -0.23267012698E+02 -0.34616047176E+02  0.11999946756E+02  0.43400729534E+02  0.00000000000E+00 0. -1.
         11    1    3    3    0    0  0.67896455544E+01  0.80469236248E+01  0.74095850967E+00  0.10554680779E+02  0.51100000000E-03 0. -1.
        -11    1    3    3    0    0  0.13167111850E+02  0.65740911091E+01 -0.52575049045E+01  0.15627951448E+02  0.51100000000E-03 0.  1.
         12    1    3    3    0    0  0.33102552930E+01  0.19995032442E+02 -0.74834003609E+01  0.21604638238E+02  0.00000000000E+00 0. -1.
</event>
<event>
 7    1  0.2459936E-009  0.4778729E+02  0.7816164E-02  0.1312668E+00
        -11   -1    0    0    0    0  0.00000000000E+00  0.00000000000E+00  0.45593999997E+02  0.45594000000E+02  0.51100000000E-03 0.  1.
         11   -1    0    0    0    0 -0.00000000000E+00 -0.00000000000E+00 -0.45593999997E+02  0.45594000000E+02  0.51100000000E-03 0. -1.
    9900012    2    1    2    0    0  0.37932697741E+02 -0.16373857871E+02  0.13290181249E+02  0.47787289209E+02  0.20000082820E+02 0.  0.
         12    1    1    2    0    0 -0.37932697741E+02  0.16373857871E+02 -0.13290181249E+02  0.43400710791E+02  0.00000000000E+00 0. -1.
         11    1    3    3    0    0  0.18275176894E+02 -0.85315842226E+01  0.37449830746E+00  0.20172016981E+02  0.51100000000E-03 0. -1.
        -11    1    3    3    0    0  0.18116804809E+02 -0.77937520798E+01  0.61242419597E+01  0.20651090233E+02  0.51100000000E-03 0.  1.
        -12    1    3    3    0    0  0.15407160391E+01 -0.48521568461E-01  0.67914409818E+01  0.69641819954E+01  0.00000000000E+00 0.  1.
</event>
<event>
 7    1  0.2459936E-009  0.4778728E+02  0.7816164E-02  0.1312668E+00
        -11   -1    0    0    0    0  0.00000000000E+00  0.00000000000E+00  0.45593999997E+02  0.45594000000E+02  0.51100000000E-03 0. -1.
         11   -1    0    0    0    0 -0.00000000000E+00 -0.00000000000E+00 -0.45593999997E+02  0.45594000000E+02  0.51100000000E-03 0.  1.
    9900012    2    1    2    0    0 -0.41125229640E+02 -0.18383068462E+01 -0.13746220664E+02  0.47787280334E+02  0.20000042353E+02 0.  0.
         12    1    1    2    0    0  0.41125229640E+02  0.18383068462E+01  0.13746220664E+02  0.43400719666E+02  0.00000000000E+00 0. -1.
         11    1    3    3    0    0 -0.42596240845E+01  0.14064942976E+01  0.10283821591E+00  0.44870033999E+01  0.51100000000E-03 0. -1.
        -11    1    3    3    0    0 -0.23205631618E+02 -0.96856848825E+01 -0.12655313777E+02  0.28150857846E+02  0.51100000000E-03 0.  1.
        -12    1    3    3    0    0 -0.13659973938E+02  0.64408837386E+01 -0.11937451027E+01  0.15149419087E+02  0.00000000000E+00 0.  1.
</event>
<event>
 7    1  0.2459936E-009  0.4778727E+02  0.7816164E-02  0.1312668E+00
        -11   -1    0    0    0    0  0.00000000000E+00  0.00000000000E+00  0.45593999997E+02  0.45594000000E+02  0.51100000000E-03 0. -1.
         11   -1    0    0    0    0 -0.00000000000E+00 -0.00000000000E+00 -0.45593999997E+02  0.45594000000E+02  0.51100000000E-03 0.  1.
    9900012    2    1    2    0    0 -0.39053237291E+02  0.16870647556E+02 -0.85935465358E+01  0.47787272657E+02  0.20000007353E+02 0.  0.
         12    1    1    2    0    0  0.39053237291E+02 -0.16870647556E+02  0.85935465358E+01  0.43400727343E+02  0.00000000000E+00 0. -1.
         11    1    3    3    0    0 -0.43604771902E+01 -0.30066576862E+01  0.15686504608E+01  0.55239855446E+01  0.51100000000E-03 0. -1.
        -11    1    3    3    0    0 -0.11932432194E+02  0.21132882801E+01 -0.37837469493E+01  0.12695104043E+02  0.51100000000E-03 0.  1.
        -12    1    3    3    0    0 -0.22760327906E+02  0.17764016962E+02 -0.63784500474E+01  0.29568183069E+02  0.00000000000E+00 0.  1.
</event>
<event>
 7    1  0.2459936E-009  0.4778727E+02  0.7816164E-02  0.1312668E+00
        -11   -1    0    0    0    0  0.00000000000E+00  0.00000000000E+00  0.45593999997E+02  0.45594000000E+02  0.51100000000E-03 0.  1.
         11   -1    0    0    0    0 -0.00000000000E+00 -0.00000000000E+00 -0.45593999997E+02  0.45594000000E+02  0.51100000000E-03 0. -1.
    9900012    2    1    2    0    0 -0.14940866975E+02  0.19945940693E+02  0.35532426313E+02  0.47787269870E+02  0.19999994646E+02 0.  0.
         12    1    1    2    0    0  0.14940866975E+02 -0.19945940693E+02 -0.35532426313E+02  0.43400730130E+02  0.00000000000E+00 0. -1.
         11    1    3    3    0    0 -0.34578137508E+01  0.11447745435E+02  0.80398687493E+01  0.14409956324E+02  0.51100000000E-03 0. -1.
        -11    1    3    3    0    0 -0.57347866481E+01  0.10256487205E+02  0.12167147197E+02  0.16915164169E+02  0.51100000000E-03 0.  1.
         12    1    3    3    0    0 -0.57482665763E+01 -0.17582919477E+01  0.15325410367E+02  0.16462149377E+02  0.00000000000E+00 0. -1.
</event>
<event>
 7    1  0.2459936E-009  0.4778727E+02  0.7816164E-02  0.1312668E+00
        -11   -1    0    0    0    0  0.00000000000E+00  0.00000000000E+00  0.45593999997E+02  0.45594000000E+02  0.51100000000E-03 0.  1.
         11   -1    0    0    0    0 -0.00000000000E+00 -0.00000000000E+00 -0.45593999997E+02  0.45594000000E+02  0.51100000000E-03 0. -1.
    9900012    2    1    2    0    0 -0.34587006052E+01  0.27039789898E+02  0.33771440283E+02  0.47787273895E+02  0.20000012997E+02 0.  0.
         12    1    1    2    0    0  0.34587006052E+01 -0.27039789898E+02 -0.33771440283E+02  0.43400726105E+02  0.00000000000E+00 0. -1.
         11    1    3    3    0    0  0.39444796090E+01  0.48513387268E+01  0.23752014576E+01  0.66884967708E+01  0.51100000000E-03 0. -1.
        -11    1    3    3    0    0  0.24430009830E+01  0.88324161028E+01  0.16129127624E+02  0.18550703118E+02  0.51100000000E-03 0.  1.
         12    1    3    3    0    0 -0.98461811972E+01  0.13356035069E+02  0.15267111202E+02  0.22548074006E+02  0.00000000000E+00 0. -1.
</event>
<event>
 7    1  0.2459936E-009  0.4778727E+02  0.7816164E-02  0.1312668E+00
        -11   -1    0    0    0    0  0.00000000000E+00  0.00000000000E+00  0.45593999997E+02  0.45594000000E+02  0.51100000000E-03 0. -1.
         11   -1    0    0    0    0 -0.00000000000E+00 -0.00000000000E+00 -0.45593999997E+02  0.45594000000E+02  0.51100000000E-03 0.  1.
    9900012    2    1    2    0    0  0.43221737911E+02 -0.38401124551E+01 -0.87059964330E+00  0.47787273792E+02  0.20000012525E+02 0.  0.
         12    1    1    2    0    0 -0.43221737911E+02  0.38401124551E+01  0.87059964330E+00  0.43400726208E+02  0.00000000000E+00 0. -1.
         11    1    3    3    0    0  0.21714079427E+02  0.80625345971E+00  0.71219858065E+00  0.21740711052E+02  0.51100000000E-03 0. -1.
        -11    1    3    3    0    0  0.19393919680E+02 -0.32402791327E+01 -0.63355844657E+01  0.20658246784E+02  0.51100000000E-03 0.  1.
        -12    1    3    3    0    0  0.21137388040E+01 -0.14060867822E+01  0.47527862417E+01  0.53883159549E+01  0.00000000000E+00 0.  1.
</event>
<event>
 7    1  0.2459936E-009  0.4778727E+02  0.7816164E-02  0.1312668E+00
        -11   -1    0    0    0    0  0.00000000000E+00  0.00000000000E+00  0.45593999997E+02  0.45594000000E+02  0.51100000000E-03 0.  1.
         11   -1    0    0    0    0 -0.00000000000E+00 -0.00000000000E+00 -0.45593999997E+02  0.45594000000E+02  0.51100000000E-03 0. -1.
    9900012    2    1    2    0    0  0.26154076670E+00 -0.35710233276E+02  0.24664429928E+02  0.47787271114E+02  0.20000000316E+02 0.  0.
         12    1    1    2    0    0 -0.26154076670E+00  0.35710233276E+02 -0.24664429928E+02  0.43400728886E+02  0.00000000000E+00 0. -1.
         11    1    3    3    0    0 -0.42413140352E+01 -0.53323037290E+01  0.18970596848E+01  0.70725556564E+01  0.51100000000E-03 0. -1.
        -11    1    3    3    0    0 -0.41690817312E+01 -0.96440362725E+01  0.33894323660E+01  0.11039788500E+02  0.51100000000E-03 0.  1.
         12    1    3    3    0    0  0.86719365331E+01 -0.20733893275E+02  0.19377937877E+02  0.29674926957E+02  0.00000000000E+00 0. -1.
</event>
<event>
 7    1  0.2459936E-009  0.4778727E+02  0.7816164E-02  0.1312668E+00
        -11   -1    0    0    0    0  0.00000000000E+00  0.00000000000E+00  0.45593999997E+02  0.45594000000E+02  0.51100000000E-03 0.  1.
         11   -1    0    0    0    0 -0.00000000000E+00 -0.00000000000E+00 -0.45593999997E+02  0.45594000000E+02  0.51100000000E-03 0. -1.
    9900012    2    1    2    0    0  0.12523804689E+02 -0.22152995375E+02  0.35157108649E+02  0.47787272166E+02  0.20000005115E+02 0.  0.
         12    1    1    2    0    0 -0.12523804689E+02  0.22152995375E+02 -0.35157108649E+02  0.43400727834E+02  0.00000000000E+00 0. -1.
         11    1    3    3    0    0 -0.11590390899E+01 -0.44956165144E+01  0.13807213371E+01  0.48435865975E+01  0.51100000000E-03 0. -1.
        -11    1    3    3    0    0  0.68421546741E+01 -0.65175802440E+00  0.39280069517E+01  0.79163822533E+01  0.51100000000E-03 0.  1.
        -12    1    3    3    0    0  0.68406891047E+01 -0.17005620836E+02  0.29848380360E+02  0.35027303315E+02  0.00000000000E+00 0.  1.
</event>
<event>
 7    1  0.2459936E-009  0.4778727E+02  0.7816164E-02  0.1312668E+00
        -11   -1    0    0    0    0  0.00000000000E+00  0.00000000000E+00  0.45593999997E+02  0.45594000000E+02  0.51100000000E-03 0.  1.
         11   -1    0    0    0    0 -0.00000000000E+00 -0.00000000000E+00 -0.45593999997E+02  0.45594000000E+02  0.51100000000E-03 0. -1.
    9900012    2    1    2    0    0  0.38683805781E+02 -0.76047737276E+01 -0.18148109540E+02  0.47787270824E+02  0.19999998993E+02 0.  0.
         12    1    1    2    0    0 -0.38683805781E+02  0.76047737276E+01  0.18148109540E+02  0.43400729176E+02  0.00000000000E+00 0. -1.
         11    1    3    3    0    0  0.19542444783E+02 -0.25129371253E+01 -0.17260500293E+02  0.26194405351E+02  0.51100000000E-03 0. -1.
        -11    1    3    3    0    0  0.73652102435E+01 -0.42135711730E+01 -0.39998235394E+01  0.93807831532E+01  0.51100000000E-03 0.  1.
        -12    1    3    3    0    0  0.11776150755E+02 -0.87826542931E+00  0.31122142925E+01  0.12212082319E+02  0.00000000000E+00 0.  1.
</event>
<event>
 7    1  0.2459936E-009  0.4778727E+02  0.7816164E-02  0.1312668E+00
        -11   -1    0    0    0    0  0.00000000000E+00  0.00000000000E+00  0.45593999997E+02  0.45594000000E+02  0.51100000000E-03 0.  1.
         11   -1    0    0    0    0 -0.00000000000E+00 -0.00000000000E+00 -0.45593999997E+02  0.45594000000E+02  0.51100000000E-03 0. -1.
    9900012    2    1    2    0    0  0.52407047663E+01 -0.10164990658E+02  0.41866828149E+02  0.47787270504E+02  0.19999997537E+02 0.  0.
         12    1    1    2    0    0 -0.52407047663E+01  0.10164990658E+02 -0.41866828149E+02  0.43400729496E+02  0.00000000000E+00 0. -1.
         11    1    3    3    0    0 -0.30862956045E+01 -0.71928499913E+00  0.62107541410E+01  0.69725216908E+01  0.51100000000E-03 0. -1.
        -11    1    3    3    0    0 -0.37187218162E+01 -0.22136760353E+01  0.16502726566E+02  0.17060751388E+02  0.51100000000E-03 0.  1.
         12    1    3    3    0    0  0.12045722187E+02 -0.72320296235E+01  0.19153347441E+02  0.23753997425E+02  0.00000000000E+00 0. -1.
</event>
<event>
 7    1  0.2459936E-009  0.4778727E+02  0.7816164E-02  0.1312668E+00
        -11   -1    0    0    0    0  0.00000000000E+00  0.00000000000E+00  0.45593999997E+02  0.45594000000E+02  0.51100000000E-03 0.  1.
         11   -1    0    0    0    0 -0.00000000000E+00 -0.00000000000E+00 -0.45593999997E+02  0.45594000000E+02  0.51100000000E-03 0. -1.
    9900012    2    1    2    0    0  0.25174512917E+01  0.43061850364E+02  0.47919468477E+01  0.47787271062E+02  0.20000000079E+02 0.  0.
         12    1    1    2    0    0 -0.25174512917E+01 -0.43061850364E+02 -0.47919468477E+01  0.43400728938E+02  0.00000000000E+00 0. -1.
         11    1    3    3    0    0  0.73470835585E+00  0.10821048776E+02 -0.28930472619E+01  0.11225177758E+02  0.51100000000E-03 0. -1.
        -11    1    3    3    0    0  0.37165336834E+01  0.69189744482E+01 -0.37589349950E+01  0.87071477874E+01  0.51100000000E-03 0.  1.
        -12    1    3    3    0    0 -0.19337907476E+01  0.25321827140E+02  0.11443929105E+02  0.27854945516E+02  0.00000000000E+00 0.  1.
</event>
<event>
 7    1  0.2459936E-009  0.4778727E+02  0.7816164E-02  0.1312668E+00
        -11   -1    0    0    0    0  0.00000000000E+00  0.00000000000E+00  0.45593999997E+02  0.45594000000E+02  0.51100000000E-03 0.  1.
         11   -1    0    0    0    0 -0.00000000000E+00 -0.00000000000E+00 -0.45593999997E+02  0.45594000000E+02  0.51100000000E-03 0. -1.
    9900012    2    1    2    0    0 -0.10747981068E+01  0.13936814695E+02  0.41088113889E+02  0.47787273073E+02  0.20000009250E+02 0.  0.
         12    1    1    2    0    0  0.10747981068E+01 -0.13936814695E+02 -0.41088113889E+02  0.43400726927E+02  0.00000000000E+00 0. -1.
         11    1    3    3    0    0 -0.37295932689E+00  0.71588401270E+01  0.87576044344E+01  0.11317408109E+02  0.51100000000E-03 0. -1.
        -11    1    3    3    0    0  0.22389869071E+01 -0.30726043907E+01  0.17080638344E+01  0.41679062412E+01  0.51100000000E-03 0.  1.
        -12    1    3    3    0    0 -0.29408256870E+01  0.98505789587E+01  0.30622445620E+02  0.32301958722E+02  0.00000000000E+00 0.  1.
</event>
<event>
 7    1  0.2459936E-009  0.4778727E+02  0.7816164E-02  0.1312668E+00
        -11   -1    0    0    0    0  0.00000000000E+00  0.00000000000E+00  0.45593999997E+02  0.45594000000E+02  0.51100000000E-03 0.  1.
         11   -1    0    0    0    0 -0.00000000000E+00 -0.00000000000E+00 -0.45593999997E+02  0.45594000000E+02  0.51100000000E-03 0. -1.
    9900012    2    1    2    0    0 -0.40709766984E+02 -0.10919542468E+02 -0.10349002882E+02  0.47787269635E+02  0.19999993572E+02 0.  0.
         12    1    1    2    0    0  0.40709766984E+02  0.10919542468E+02  0.10349002882E+02  0.43400730365E+02  0.00000000000E+00 0. -1.
         11    1    3    3    0    0  0.11981283055E+01  0.20890699902E+01 -0.10394311520E+01  0.26230025241E+01  0.51100000000E-03 0. -1.
        -11    1    3    3    0    0 -0.85058340755E+01 -0.17600410340E+01  0.92475168913E-01  0.86865130909E+01  0.51100000000E-03 0.  1.
         12    1    3    3    0    0 -0.33402061214E+02 -0.11248571424E+02 -0.94020468985E+01  0.36477754020E+02  0.00000000000E+00 0. -1.
</event>
<event>
 7    1  0.2459936E-009  0.4778727E+02  0.7816164E-02  0.1312668E+00
        -11   -1    0    0    0    0  0.00000000000E+00  0.00000000000E+00  0.45593999997E+02  0.45594000000E+02  0.51100000000E-03 0.  1.
         11   -1    0    0    0    0 -0.00000000000E+00 -0.00000000000E+00 -0.45593999997E+02  0.45594000000E+02  0.51100000000E-03 0. -1.
    9900012    2    1    2    0    0 -0.36787604689E+02  0.89679833384E+01  0.21210159089E+02  0.47787269217E+02  0.19999991669E+02 0.  0.
         12    1    1    2    0    0  0.36787604689E+02 -0.89679833384E+01 -0.21210159089E+02  0.43400730783E+02  0.00000000000E+00 0. -1.
         11    1    3    3    0    0 -0.90530836725E+01  0.13147487092E+01  0.96144245003E+01  0.13271173531E+02  0.51100000000E-03 0.  1.
        -11    1    3    3    0    0 -0.12337148094E+02 -0.35025279051E+01  0.12915350707E+01  0.12889568958E+02  0.51100000000E-03 0. -1.
        -12    1    3    3    0    0 -0.15397372922E+02  0.11155762534E+02  0.10304199518E+02  0.21626526728E+02  0.00000000000E+00 0.  1.
</event>
<event>
 7    1  0.2459936E-009  0.4778728E+02  0.7816164E-02  0.1312668E+00
        -11   -1    0    0    0    0  0.00000000000E+00  0.00000000000E+00  0.45593999997E+02  0.45594000000E+02  0.51100000000E-03 0.  1.
         11   -1    0    0    0    0 -0.00000000000E+00 -0.00000000000E+00 -0.45593999997E+02  0.45594000000E+02  0.51100000000E-03 0. -1.
    9900012    2    1    2    0    0 -0.24203666579E+02  0.35556390433E+02 -0.57920689841E+01  0.47787280655E+02  0.20000043820E+02 0.  0.
         12    1    1    2    0    0  0.24203666579E+02 -0.35556390433E+02  0.57920689841E+01  0.43400719345E+02  0.00000000000E+00 0. -1.
         11    1    3    3    0    0 -0.49043928900E+01  0.53006980645E+01 -0.46427701333E+01  0.85852072987E+01  0.51100000000E-03 0. -1.
        -11    1    3    3    0    0  0.20339187762E+01  0.14919327555E+01 -0.22408104640E+01  0.33740066289E+01  0.51100000000E-03 0.  1.
        -12    1    3    3    0    0 -0.21333192465E+02  0.28763759613E+02  0.10915116133E+01  0.35828066728E+02  0.00000000000E+00 0.  1.
</event>
<event>
 7    1  0.2459936E-009  0.4778727E+02  0.7816164E-02  0.1312668E+00
        -11   -1    0    0    0    0  0.00000000000E+00  0.00000000000E+00  0.45593999997E+02  0.45594000000E+02  0.51100000000E-03 0.  1.
         11   -1    0    0    0    0 -0.00000000000E+00 -0.00000000000E+00 -0.45593999997E+02  0.45594000000E+02  0.51100000000E-03 0. -1.
    9900012    2    1    2    0    0  0.28335258422E+01  0.30155962948E+02  0.31083960543E+02  0.47787267598E+02  0.19999984285E+02 0.  0.
         12    1    1    2    0    0 -0.28335258422E+01 -0.30155962948E+02 -0.31083960543E+02  0.43400732402E+02  0.00000000000E+00 0. -1.
         11    1    3    3    0    0 -0.35964870290E+01  0.68708167007E+01  0.15015360210E+01  0.78992057682E+01  0.51100000000E-03 0. -1.
        -11    1    3    3    0    0  0.32329058926E+01  0.87255434612E+01  0.36876792159E+01  0.10009284064E+02  0.51100000000E-03 0.  1.
        -12    1    3    3    0    0  0.31971069785E+01  0.14559602786E+02  0.25894745306E+02  0.29878777766E+02  0.00000000000E+00 0.  1.
</event>
<event>
 7    1  0.2459936E-009  0.4778727E+02  0.7816164E-02  0.1312668E+00
        -11   -1    0    0    0    0  0.00000000000E+00  0.00000000000E+00  0.45593999997E+02  0.45594000000E+02  0.51100000000E-03 0.  1.
         11   -1    0    0    0    0 -0.00000000000E+00 -0.00000000000E+00 -0.45593999997E+02  0.45594000000E+02  0.51100000000E-03 0. -1.
    9900012    2    1    2    0    0 -0.84248945994E+01  0.99554133323E+01  0.41394855999E+02  0.47787271817E+02  0.20000003521E+02 0.  0.
         12    1    1    2    0    0  0.84248945994E+01 -0.99554133323E+01 -0.41394855999E+02  0.43400728183E+02  0.00000000000E+00 0. -1.
         11    1    3    3    0    0 -0.63692593255E+01  0.13249645465E+02  0.19451148814E+02  0.24381709533E+02  0.51100000000E-03 0.  1.
        -11    1    3    3    0    0  0.66477457477E+00 -0.88792814126E+00 -0.53540579419E-01  0.11104992004E+01  0.51100000000E-03 0. -1.
        -12    1    3    3    0    0 -0.27204098487E+01 -0.24063039920E+01  0.21997247765E+02  0.22295063083E+02  0.00000000000E+00 0.  1.
</event>
<event>
 7    1  0.2459936E-009  0.4778727E+02  0.7816164E-02  0.1312668E+00
        -11   -1    0    0    0    0  0.00000000000E+00  0.00000000000E+00  0.45593999997E+02  0.45594000000E+02  0.51100000000E-03 0.  1.
         11   -1    0    0    0    0 -0.00000000000E+00 -0.00000000000E+00 -0.45593999997E+02  0.45594000000E+02  0.51100000000E-03 0. -1.
    9900012    2    1    2    0    0 -0.28052762894E+02  0.32443956173E+02  0.66374318503E+01  0.47787270747E+02  0.19999998644E+02 0.  0.
         12    1    1    2    0    0  0.28052762894E+02 -0.32443956173E+02 -0.66374318503E+01  0.43400729253E+02  0.00000000000E+00 0. -1.
         11    1    3    3    0    0 -0.32209517918E+01  0.10022848571E+02  0.41351868467E+01  0.11310693809E+02  0.51100000000E-03 0. -1.
        -11    1    3    3    0    0  0.18519622782E+01  0.14258749786E+01 -0.50229156140E+00  0.23906444337E+01  0.51100000000E-03 0.  1.
        -12    1    3    3    0    0 -0.26683773381E+02  0.20995232623E+02  0.30045365650E+01  0.34085932504E+02  0.00000000000E+00 0.  1.
</event>
<event>
 7    1  0.2459936E-009  0.4778726E+02  0.7816164E-02  0.1312668E+00
        -11   -1    0    0    0    0  0.00000000000E+00  0.00000000000E+00  0.45593999997E+02  0.45594000000E+02  0.51100000000E-03 0.  1.
         11   -1    0    0    0    0 -0.00000000000E+00 -0.00000000000E+00 -0.45593999997E+02  0.45594000000E+02  0.51100000000E-03 0. -1.
    9900012    2    1    2    0    0  0.30006915006E+02  0.29682793818E+02  0.10106470214E+02  0.47787263403E+02  0.19999965158E+02 0.  0.
         12    1    1    2    0    0 -0.30006915006E+02 -0.29682793818E+02 -0.10106470214E+02  0.43400736597E+02  0.00000000000E+00 0. -1.
         11    1    3    3    0    0  0.42752211097E+01  0.75535197055E+00  0.27078580387E+01  0.51166949836E+01  0.51100000000E-03 0. -1.
        -11    1    3    3    0    0  0.12668162220E+02  0.18622661832E+02  0.11845379675E+02  0.25447964312E+02  0.51100000000E-03 0.  1.
         12    1    3    3    0    0  0.13063531676E+02  0.10304780016E+02 -0.44467674993E+01  0.17222604107E+02  0.00000000000E+00 0. -1.
</event>
<event>
 7    1  0.2459936E-009  0.4778727E+02  0.7816164E-02  0.1312668E+00
        -11   -1    0    0    0    0  0.00000000000E+00  0.00000000000E+00  0.45593999997E+02  0.45594000000E+02  0.51100000000E-03 0.  1.
         11   -1    0    0    0    0 -0.00000000000E+00 -0.00000000000E+00 -0.45593999997E+02  0.45594000000E+02  0.51100000000E-03 0. -1.
    9900012    2    1    2    0    0 -0.58160568223E+01  0.39447582972E+01  0.42827982411E+02  0.47787265993E+02  0.19999976966E+02 0.  0.
         12    1    1    2    0    0  0.58160568223E+01 -0.39447582972E+01 -0.42827982411E+02  0.43400734007E+02  0.00000000000E+00 0. -1.
         11    1    3    3    0    0 -0.58940539644E+01 -0.86718007913E+00  0.72394461180E+01  0.93755775172E+01  0.51100000000E-03 0. -1.
        -11    1    3    3    0    0 -0.61905839234E+01  0.46690054470E+01  0.14942630368E+02  0.16834641183E+02  0.51100000000E-03 0.  1.
         12    1    3    3    0    0  0.62685810655E+01  0.14293292935E+00  0.20645905925E+02  0.21577047293E+02  0.00000000000E+00 0. -1.
</event>
<event>
 7    1  0.2459936E-009  0.4778727E+02  0.7816164E-02  0.1312668E+00
        -11   -1    0    0    0    0  0.00000000000E+00  0.00000000000E+00  0.45593999997E+02  0.45594000000E+02  0.51100000000E-03 0.  1.
         11   -1    0    0    0    0 -0.00000000000E+00 -0.00000000000E+00 -0.45593999997E+02  0.45594000000E+02  0.51100000000E-03 0. -1.
    9900012    2    1    2    0    0 -0.40041402125E+02  0.15692822270E+02  0.58347577370E+01  0.47787274744E+02  0.20000016868E+02 0.  0.
         12    1    1    2    0    0  0.40041402125E+02 -0.15692822270E+02 -0.58347577370E+01  0.43400725256E+02  0.00000000000E+00 0. -1.
         11    1    3    3    0    0 -0.68984963678E+01  0.13491049510E+01  0.35065336704E+01  0.78552603362E+01  0.51100000000E-03 0. -1.
        -11    1    3    3    0    0 -0.26014316289E+02  0.29471192000E+01  0.36107077803E+01  0.26428533340E+02  0.51100000000E-03 0.  1.
         12    1    3    3    0    0 -0.71285894681E+01  0.11396598119E+02 -0.12824837137E+01  0.13503481068E+02  0.00000000000E+00 0. -1.
</event>
<event>
 7    1  0.2459936E-009  0.4778727E+02  0.7816164E-02  0.1312668E+00
        -11   -1    0    0    0    0  0.00000000000E+00  0.00000000000E+00  0.45593999997E+02  0.45594000000E+02  0.51100000000E-03 0.  1.
         11   -1    0    0    0    0 -0.00000000000E+00 -0.00000000000E+00 -0.45593999997E+02  0.45594000000E+02  0.51100000000E-03 0. -1.
    9900012    2    1    2    0    0 -0.13115583776E+01  0.77890441333E+01  0.42675917158E+02  0.47787270753E+02  0.19999998672E+02 0.  0.
         12    1    1    2    0    0  0.13115583776E+01 -0.77890441333E+01 -0.42675917158E+02  0.43400729247E+02  0.00000000000E+00 0. -1.
         11    1    3    3    0    0  0.34363101864E+01 -0.49968979669E+01  0.18809214692E+02  0.19762686421E+02  0.51100000000E-03 0. -1.
        -11    1    3    3    0    0  0.88953198681E+00  0.33471916626E+00  0.96564673994E+00  0.13549088395E+01  0.51100000000E-03 0.  1.
        -12    1    3    3    0    0 -0.56374005508E+01  0.12451222934E+02  0.22901055726E+02  0.26669675493E+02  0.00000000000E+00 0.  1.
</event>
<event>
 7    1  0.2459936E-009  0.4778727E+02  0.7816164E-02  0.1312668E+00
        -11   -1    0    0    0    0  0.00000000000E+00  0.00000000000E+00  0.45593999997E+02  0.45594000000E+02  0.51100000000E-03 0. -1.
         11   -1    0    0    0    0 -0.00000000000E+00 -0.00000000000E+00 -0.45593999997E+02  0.45594000000E+02  0.51100000000E-03 0.  1.
    9900012    2    1    2    0    0 -0.38808668456E+02 -0.17355630394E+02  0.87345740928E+01  0.47787269150E+02  0.19999991363E+02 0.  0.
         12    1    1    2    0    0  0.38808668456E+02  0.17355630394E+02 -0.87345740928E+01  0.43400730850E+02  0.00000000000E+00 0. -1.
         11    1    3    3    0    0 -0.12646408219E+02 -0.52523065735E+01  0.15810052503E+01  0.13784699600E+02  0.51100000000E-03 0. -1.
        -11    1    3    3    0    0 -0.27506559383E+02 -0.13598595357E+02  0.50582148682E+01  0.31098523160E+02  0.51100000000E-03 0.  1.
         12    1    3    3    0    0  0.13442991462E+01  0.14952715367E+01  0.20953539743E+01  0.29040463909E+01  0.00000000000E+00 0. -1.
</event>
<event>
 7    1  0.2459936E-009  0.4778727E+02  0.7816164E-02  0.1312668E+00
        -11   -1    0    0    0    0  0.00000000000E+00  0.00000000000E+00  0.45593999997E+02  0.45594000000E+02  0.51100000000E-03 0. -1.
         11   -1    0    0    0    0 -0.00000000000E+00 -0.00000000000E+00 -0.45593999997E+02  0.45594000000E+02  0.51100000000E-03 0.  1.
    9900012    2    1    2    0    0 -0.42245782766E+02 -0.68112986495E+00  0.99223610768E+01  0.47787270182E+02  0.19999996069E+02 0.  0.
         12    1    1    2    0    0  0.42245782766E+02  0.68112986495E+00 -0.99223610768E+01  0.43400729818E+02  0.00000000000E+00 0. -1.
         11    1    3    3    0    0 -0.11160950462E+02  0.63003874377E+01  0.58921434541E+01  0.14105993472E+02  0.51100000000E-03 0. -1.
        -11    1    3    3    0    0 -0.15512832576E+02  0.93485909424E+00 -0.78583374821E+00  0.15560831308E+02  0.51100000000E-03 0.  1.
        -12    1    3    3    0    0 -0.15571999728E+02 -0.79163763969E+01  0.48160513710E+01  0.18120445402E+02  0.00000000000E+00 0.  1.
</event>
<event>
 7    1  0.2459936E-009  0.4778727E+02  0.7816164E-02  0.1312668E+00
        -11   -1    0    0    0    0  0.00000000000E+00  0.00000000000E+00  0.45593999997E+02  0.45594000000E+02  0.51100000000E-03 0. -1.
         11   -1    0    0    0    0 -0.00000000000E+00 -0.00000000000E+00 -0.45593999997E+02  0.45594000000E+02  0.51100000000E-03 0.  1.
    9900012    2    1    2    0    0  0.62563455382E+01 -0.36583067798E+02  0.22498006958E+02  0.47787273899E+02  0.20000013015E+02 0.  0.
         12    1    1    2    0    0 -0.62563455382E+01  0.36583067798E+02 -0.22498006958E+02  0.43400726101E+02  0.00000000000E+00 0. -1.
         11    1    3    3    0    0  0.64299960617E+01 -0.61551027164E+01  0.57532774887E+01  0.10598600895E+02  0.51100000000E-03 0.  1.
        -11    1    3    3    0    0  0.44867121134E+01 -0.54767748109E+01  0.71243755647E+01  0.10044021872E+02  0.51100000000E-03 0. -1.
        -12    1    3    3    0    0 -0.46603626369E+01 -0.24951190271E+02  0.96203539047E+01  0.27144651132E+02  0.00000000000E+00 0.  1.
</event>
<event>
 7    1  0.2459936E-009  0.4778728E+02  0.7816164E-02  0.1312668E+00
        -11   -1    0    0    0    0  0.00000000000E+00  0.00000000000E+00  0.45593999997E+02  0.45594000000E+02  0.51100000000E-03 0.  1.
         11   -1    0    0    0    0 -0.00000000000E+00 -0.00000000000E+00 -0.45593999997E+02  0.45594000000E+02  0.51100000000E-03 0. -1.
    9900012    2    1    2    0    0  0.30475969599E+02  0.26871697097E+02 -0.15256137974E+02  0.47787279111E+02  0.20000036777E+02 0.  0.
         12    1    1    2    0    0 -0.30475969599E+02 -0.26871697097E+02  0.15256137974E+02  0.43400720889E+02  0.00000000000E+00 0. -1.
         11    1    3    3    0    0  0.20477599227E+02  0.18365772356E+02 -0.13947961739E+02  0.30841194874E+02  0.51100000000E-03 0. -1.
        -11    1    3    3    0    0  0.10458629757E+02  0.24080819471E+01 -0.21806848097E+00  0.10734493429E+02  0.51100000000E-03 0.  1.
         12    1    3    3    0    0 -0.46025938520E+00  0.60978427941E+01 -0.10901077531E+01  0.62115908073E+01  0.00000000000E+00 0. -1.
</event>
<event>
 7    1  0.2459936E-009  0.4778727E+02  0.7816164E-02  0.1312668E+00
        -11   -1    0    0    0    0  0.00000000000E+00  0.00000000000E+00  0.45593999997E+02  0.45594000000E+02  0.51100000000E-03 0. -1.
         11   -1    0    0    0    0 -0.00000000000E+00 -0.00000000000E+00 -0.45593999997E+02  0.45594000000E+02  0.51100000000E-03 0.  1.
    9900012    2    1    2    0    0 -0.75802653991E+01 -0.20218871481E+02 -0.37647845409E+02  0.47787268999E+02  0.19999990675E+02 0.  0.
         12    1    1    2    0    0  0.75802653991E+01  0.20218871481E+02  0.37647845409E+02  0.43400731001E+02  0.00000000000E+00 0. -1.
         11    1    3    3    0    0  0.20440150617E+01 -0.72080008964E+01 -0.32469982069E+01  0.81655539991E+01  0.51100000000E-03 0. -1.
        -11    1    3    3    0    0 -0.56798305148E+01 -0.39243239650E+01 -0.48026176494E+01  0.84098709744E+01  0.51100000000E-03 0.  1.
        -12    1    3    3    0    0 -0.39444499460E+01 -0.90865466199E+01 -0.29598229552E+02  0.31211844026E+02  0.00000000000E+00 0.  1.
</event>
<event>
 7    1  0.2459936E-009  0.4778725E+02  0.7816164E-02  0.1312668E+00
        -11   -1    0    0    0    0  0.00000000000E+00  0.00000000000E+00  0.45593999997E+02  0.45594000000E+02  0.51100000000E-03 0.  1.
         11   -1    0    0    0    0 -0.00000000000E+00 -0.00000000000E+00 -0.45593999997E+02  0.45594000000E+02  0.51100000000E-03 0. -1.
    9900012    2    1    2    0    0  0.28127774989E+02 -0.21828159936E+02  0.24819042993E+02  0.47787249003E+02  0.19999899506E+02 0.  0.
         12    1    1    2    0    0 -0.28127774989E+02  0.21828159936E+02 -0.24819042993E+02  0.43400750997E+02  0.00000000000E+00 0. -1.
         11    1    3    3    0    0  0.12382834892E+02 -0.71890923305E+01  0.91421312481E+01  0.16988119746E+02  0.51100000000E-03 0.  1.
        -11    1    3    3    0    0  0.17734048749E+02 -0.11106964466E+02  0.85591135080E+01  0.22607953667E+02  0.51100000000E-03 0. -1.
         12    1    3    3    0    0 -0.19891086524E+01 -0.35321031389E+01  0.71177982366E+01  0.81911755903E+01  0.00000000000E+00 0. -1.
</event>
<event>
 7    1  0.2459936E-009  0.4778727E+02  0.7816164E-02  0.1312668E+00
        -11   -1    0    0    0    0  0.00000000000E+00  0.00000000000E+00  0.45593999997E+02  0.45594000000E+02  0.51100000000E-03 0. -1.
         11   -1    0    0    0    0 -0.00000000000E+00 -0.00000000000E+00 -0.45593999997E+02  0.45594000000E+02  0.51100000000E-03 0.  1.
    9900012    2    1    2    0    0 -0.31786937808E+01 -0.18873822861E+01 -0.43243001937E+02  0.47787268180E+02  0.19999986938E+02 0.  0.
         12    1    1    2    0    0  0.31786937808E+01  0.18873822861E+01  0.43243001937E+02  0.43400731820E+02  0.00000000000E+00 0. -1.
         11    1    3    3    0    0  0.27759757048E+01  0.58369502574E+01 -0.13192528590E+02  0.14690773985E+02  0.51100000000E-03 0. -1.
        -11    1    3    3    0    0  0.82318638357E+00  0.11095606765E+01 -0.10558164293E+02  0.10648173281E+02  0.51100000000E-03 0.  1.
         12    1    3    3    0    0 -0.67778558692E+01 -0.88338932200E+01 -0.19492309053E+02  0.22448320913E+02  0.00000000000E+00 0. -1.
</event>
<event>
 7    1  0.2459936E-009  0.4778728E+02  0.7816164E-02  0.1312668E+00
        -11   -1    0    0    0    0  0.00000000000E+00  0.00000000000E+00  0.45593999997E+02  0.45594000000E+02  0.51100000000E-03 0.  1.
         11   -1    0    0    0    0 -0.00000000000E+00 -0.00000000000E+00 -0.45593999997E+02  0.45594000000E+02  0.51100000000E-03 0. -1.
    9900012    2    1    2    0    0 -0.27013312960E+02 -0.33551269406E+02  0.53118592144E+01  0.47787278760E+02  0.20000035179E+02 0.  0.
         12    1    1    2    0    0  0.27013312960E+02  0.33551269406E+02 -0.53118592144E+01  0.43400721240E+02  0.00000000000E+00 0. -1.
         11    1    3    3    0    0 -0.85392214089E+01 -0.19508140905E+02  0.41600893093E+01  0.21697746591E+02  0.51100000000E-03 0. -1.
        -11    1    3    3    0    0 -0.17918139384E+01 -0.75453040783E+01  0.24673549815E+01  0.81381847908E+01  0.51100000000E-03 0.  1.
        -12    1    3    3    0    0 -0.16682277613E+02 -0.64978244230E+01 -0.13155850764E+01  0.17951347378E+02  0.00000000000E+00 0.  1.
</event>
<event>
 7    1  0.2459936E-009  0.4778727E+02  0.7816164E-02  0.1312668E+00
        -11   -1    0    0    0    0  0.00000000000E+00  0.00000000000E+00  0.45593999997E+02  0.45594000000E+02  0.51100000000E-03 0. -1.
         11   -1    0    0    0    0 -0.00000000000E+00 -0.00000000000E+00 -0.45593999997E+02  0.45594000000E+02  0.51100000000E-03 0.  1.
    9900012    2    1    2    0    0  0.52233256150E+01 -0.42530368370E+02 -0.68926041942E+01  0.47787270090E+02  0.19999995648E+02 0.  0.
         12    1    1    2    0    0 -0.52233256150E+01  0.42530368370E+02  0.68926041942E+01  0.43400729910E+02  0.00000000000E+00 0. -1.
         11    1    3    3    0    0  0.46629123493E+01 -0.14038313939E+02 -0.63922443075E+01  0.16114521320E+02  0.51100000000E-03 0. -1.
        -11    1    3    3    0    0 -0.21068827334E+01 -0.25019977025E+02 -0.47695733835E+01  0.25557524053E+02  0.51100000000E-03 0.  1.
         12    1    3    3    0    0  0.26672959990E+01 -0.34720774058E+01  0.42692134968E+01  0.61152247171E+01  0.00000000000E+00 0. -1.
</event>
<event>
 7    1  0.2459936E-009  0.4778727E+02  0.7816164E-02  0.1312668E+00
        -11   -1    0    0    0    0  0.00000000000E+00  0.00000000000E+00  0.45593999997E+02  0.45594000000E+02  0.51100000000E-03 0.  1.
         11   -1    0    0    0    0 -0.00000000000E+00 -0.00000000000E+00 -0.45593999997E+02  0.45594000000E+02  0.51100000000E-03 0. -1.
    9900012    2    1    2    0    0  0.10793917863E+02  0.21992077591E+02  0.35825455188E+02  0.47787269833E+02  0.19999994476E+02 0.  0.
         12    1    1    2    0    0 -0.10793917863E+02 -0.21992077591E+02 -0.35825455188E+02  0.43400730167E+02  0.00000000000E+00 0. -1.
         11    1    3    3    0    0  0.21496681474E+01 -0.28830675286E+01  0.37428217169E+01  0.51905554793E+01  0.51100000000E-03 0. -1.
        -11    1    3    3    0    0 -0.10066400457E+01  0.58020273355E+01  0.11511827112E+02  0.12930545584E+02  0.51100000000E-03 0.  1.
        -12    1    3    3    0    0  0.96508897613E+01  0.19073117784E+02  0.20570806359E+02  0.29666168770E+02  0.00000000000E+00 0.  1.
</event>
<event>
 7    1  0.2459936E-009  0.4778727E+02  0.7816164E-02  0.1312668E+00
        -11   -1    0    0    0    0  0.00000000000E+00  0.00000000000E+00  0.45593999997E+02  0.45594000000E+02  0.51100000000E-03 0.  1.
         11   -1    0    0    0    0 -0.00000000000E+00 -0.00000000000E+00 -0.45593999997E+02  0.45594000000E+02  0.51100000000E-03 0. -1.
    9900012    2    1    2    0    0 -0.37710444165E+02 -0.16489187609E+02  0.13771423416E+02  0.47787274084E+02  0.20000013860E+02 0.  0.
         12    1    1    2    0    0  0.37710444165E+02  0.16489187609E+02 -0.13771423416E+02  0.43400725916E+02  0.00000000000E+00 0. -1.
         11    1    3    3    0    0 -0.84950625543E+01 -0.60094571126E+01 -0.29638034896E+01  0.10819602302E+02  0.51100000000E-03 0. -1.
        -11    1    3    3    0    0 -0.72564064368E+01 -0.63292529917E-01 -0.34021021133E+00  0.72646530247E+01  0.51100000000E-03 0.  1.
        -12    1    3    3    0    0 -0.21958975174E+02 -0.10416437967E+02  0.17075437116E+02  0.29703018758E+02  0.00000000000E+00 0.  1.
</event>
<event>
 7    1  0.2459936E-009  0.4778726E+02  0.7816164E-02  0.1312668E+00
        -11   -1    0    0    0    0  0.00000000000E+00  0.00000000000E+00  0.45593999997E+02  0.45594000000E+02  0.51100000000E-03 0. -1.
         11   -1    0    0    0    0 -0.00000000000E+00 -0.00000000000E+00 -0.45593999997E+02  0.45594000000E+02  0.51100000000E-03 0.  1.
    9900012    2    1    2    0    0  0.23552197472E+02 -0.74112596539E+01 -0.35693021345E+02  0.47787256364E+02  0.19999933065E+02 0.  0.
         12    1    1    2    0    0 -0.23552197472E+02  0.74112596539E+01  0.35693021345E+02  0.43400743636E+02  0.00000000000E+00 0. -1.
         11    1    3    3    0    0  0.29400012570E+01 -0.50630214703E+01 -0.31990207827E+01  0.66716960384E+01  0.51100000000E-03 0. -1.
        -11    1    3    3    0    0  0.60773826743E+01 -0.74164001064E+01 -0.15114426504E+02  0.17899258631E+02  0.51100000000E-03 0.  1.
         12    1    3    3    0    0  0.14534813541E+02  0.50681619227E+01 -0.17379574058E+02  0.23216301695E+02  0.00000000000E+00 0. -1.
</event>
<event>
 7    1  0.2459936E-009  0.4778728E+02  0.7816164E-02  0.1312668E+00
        -11   -1    0    0    0    0  0.00000000000E+00  0.00000000000E+00  0.45593999997E+02  0.45594000000E+02  0.51100000000E-03 0.  1.
         11   -1    0    0    0    0 -0.00000000000E+00 -0.00000000000E+00 -0.45593999997E+02  0.45594000000E+02  0.51100000000E-03 0. -1.
    9900012    2    1    2    0    0 -0.13812858048E+02 -0.47258343223E+01  0.40871671975E+02  0.47787284251E+02  0.20000060215E+02 0.  0.
         12    1    1    2    0    0  0.13812858048E+02  0.47258343223E+01 -0.40871671975E+02  0.43400715749E+02  0.00000000000E+00 0. -1.
         11    1    3    3    0    0 -0.55386784189E+01  0.36971480783E+01  0.27112345676E+02  0.27918186740E+02  0.51100000000E-03 0. -1.
        -11    1    3    3    0    0 -0.23206853215E+00  0.11948652949E+01 -0.49286384286E-01  0.12181905784E+01  0.51100000000E-03 0.  1.
        -12    1    3    3    0    0 -0.80421110966E+01 -0.96178476954E+01  0.13808612683E+02  0.18650906933E+02  0.00000000000E+00 0.  1.
</event>
<event>
 7    1  0.2459936E-009  0.4778732E+02  0.7816164E-02  0.1312668E+00
        -11   -1    0    0    0    0  0.00000000000E+00  0.00000000000E+00  0.45593999997E+02  0.45594000000E+02  0.51100000000E-03 0. -1.
         11   -1    0    0    0    0 -0.00000000000E+00 -0.00000000000E+00 -0.45593999997E+02  0.45594000000E+02  0.51100000000E-03 0.  1.
    9900012    2    1    2    0    0  0.41815241351E+02 -0.11274531686E+02  0.28266158540E+01  0.47787317619E+02  0.20000212349E+02 0.  0.
         12    1    1    2    0    0 -0.41815241351E+02  0.11274531686E+02 -0.28266158540E+01  0.43400682381E+02  0.00000000000E+00 0. -1.
         11    1    3    3    0    0  0.12840831981E+02 -0.10318917658E+02 -0.16954780671E+01  0.16560243770E+02  0.51100000000E-03 0. -1.
        -11    1    3    3    0    0  0.17475167450E+02 -0.52406465542E+01  0.29074150986E+00  0.18246380040E+02  0.51100000000E-03 0.  1.
         12    1    3    3    0    0  0.11499241921E+02  0.42850325263E+01  0.42313524112E+01  0.12980693808E+02  0.00000000000E+00 0. -1.
</event>
<event>
 7    1  0.2459936E-009  0.4778728E+02  0.7816164E-02  0.1312668E+00
        -11   -1    0    0    0    0  0.00000000000E+00  0.00000000000E+00  0.45593999997E+02  0.45594000000E+02  0.51100000000E-03 0.  1.
         11   -1    0    0    0    0 -0.00000000000E+00 -0.00000000000E+00 -0.45593999997E+02  0.45594000000E+02  0.51100000000E-03 0. -1.
    9900012    2    1    2    0    0  0.39083721364E+02  0.26633313975E+01 -0.18681335257E+02  0.47787275389E+02  0.20000019807E+02 0.  0.
         12    1    1    2    0    0 -0.39083721364E+02 -0.26633313975E+01  0.18681335257E+02  0.43400724611E+02  0.00000000000E+00 0. -1.
         11    1    3    3    0    0  0.41745719872E+01  0.91579360375E+00 -0.42800000481E+00  0.42952198391E+01  0.51100000000E-03 0. -1.
        -11    1    3    3    0    0  0.36141631302E+02 -0.13113897683E+01 -0.17031482112E+02  0.39975100244E+02  0.51100000000E-03 0.  1.
         12    1    3    3    0    0 -0.12324819253E+01  0.30589275620E+01 -0.12218531397E+01  0.35169553055E+01  0.00000000000E+00 0. -1.
</event>
<event>
 7    1  0.2459936E-009  0.4778727E+02  0.7816164E-02  0.1312668E+00
        -11   -1    0    0    0    0  0.00000000000E+00  0.00000000000E+00  0.45593999997E+02  0.45594000000E+02  0.51100000000E-03 0.  1.
         11   -1    0    0    0    0 -0.00000000000E+00 -0.00000000000E+00 -0.45593999997E+02  0.45594000000E+02  0.51100000000E-03 0. -1.
    9900012    2    1    2    0    0  0.36588250236E+02 -0.21040490280E+02  0.10110460705E+02  0.47787266110E+02  0.19999977502E+02 0.  0.
         12    1    1    2    0    0 -0.36588250236E+02  0.21040490280E+02 -0.10110460705E+02  0.43400733890E+02  0.00000000000E+00 0. -1.
         11    1    3    3    0    0  0.33289055350E+01  0.20883619768E+01  0.33369540210E-01  0.39298831528E+01  0.51100000000E-03 0.  1.
        -11    1    3    3    0    0  0.83019900323E+01 -0.22127501773E+00 -0.63044018255E+00  0.83288328243E+01  0.51100000000E-03 0. -1.
         12    1    3    3    0    0  0.24957354668E+02 -0.22907577239E+02  0.10707531348E+02  0.35528550133E+02  0.00000000000E+00 0. -1.
</event>
<event>
 7    1  0.2459936E-009  0.4778727E+02  0.7816164E-02  0.1312668E+00
        -11   -1    0    0    0    0  0.00000000000E+00  0.00000000000E+00  0.45593999997E+02  0.45594000000E+02  0.51100000000E-03 0. -1.
         11   -1    0    0    0    0 -0.00000000000E+00 -0.00000000000E+00 -0.45593999997E+02  0.45594000000E+02  0.51100000000E-03 0.  1.
    9900012    2    1    2    0    0 -0.12914445845E+02 -0.13663248952E+02 -0.39117210602E+02  0.47787269030E+02  0.19999990816E+02 0.  0.
         12    1    1    2    0    0  0.12914445845E+02  0.13663248952E+02  0.39117210602E+02  0.43400730970E+02  0.00000000000E+00 0. -1.
         11    1    3    3    0    0 -0.15276570342E+01 -0.82607639904E+01 -0.13016146572E+02  0.15491740689E+02  0.51100000000E-03 0.  1.
        -11    1    3    3    0    0 -0.11719831905E+02 -0.83411173134E+01 -0.25500012204E+02  0.29277624914E+02  0.51100000000E-03 0. -1.
         12    1    3    3    0    0  0.33304309491E+00  0.29386323513E+01 -0.60105182560E+00  0.30179034273E+01  0.00000000000E+00 0. -1.
</event>
<event>
 7    1  0.2459936E-009  0.4778727E+02  0.7816164E-02  0.1312668E+00
        -11   -1    0    0    0    0  0.00000000000E+00  0.00000000000E+00  0.45593999997E+02  0.45594000000E+02  0.51100000000E-03 0. -1.
         11   -1    0    0    0    0 -0.00000000000E+00 -0.00000000000E+00 -0.45593999997E+02  0.45594000000E+02  0.51100000000E-03 0.  1.
    9900012    2    1    2    0    0  0.39842478817E+02  0.11852634851E+02 -0.12478593049E+02  0.47787270102E+02  0.19999995705E+02 0.  0.
         12    1    1    2    0    0 -0.39842478817E+02 -0.11852634851E+02  0.12478593049E+02  0.43400729898E+02  0.00000000000E+00 0. -1.
         11    1    3    3    0    0  0.17421948279E+01  0.25342661364E+00  0.18481098781E+01  0.25524455429E+01  0.51100000000E-03 0. -1.
        -11    1    3    3    0    0  0.30267514625E+02  0.31902400583E+01 -0.59433098716E+01  0.31010046851E+02  0.51100000000E-03 0.  1.
         12    1    3    3    0    0  0.78327693637E+01  0.84089681790E+01 -0.83833930553E+01  0.14224777709E+02  0.00000000000E+00 0. -1.
</event>
<event>
 7    1  0.2459936E-009  0.4778727E+02  0.7816164E-02  0.1312668E+00
        -11   -1    0    0    0    0  0.00000000000E+00  0.00000000000E+00  0.45593999997E+02  0.45594000000E+02  0.51100000000E-03 0.  1.
         11   -1    0    0    0    0 -0.00000000000E+00 -0.00000000000E+00 -0.45593999997E+02  0.45594000000E+02  0.51100000000E-03 0. -1.
    9900012    2    1    2    0    0 -0.17085774266E+02  0.39887312556E+02  0.83764171825E+00  0.47787273867E+02  0.20000012871E+02 0.  0.
         12    1    1    2    0    0  0.17085774266E+02 -0.39887312556E+02 -0.83764171825E+00  0.43400726133E+02  0.00000000000E+00 0. -1.
         11    1    3    3    0    0 -0.62800871270E+01  0.31202067343E+01 -0.19322299948E+01  0.72738364981E+01  0.51100000000E-03 0. -1.
        -11    1    3    3    0    0  0.19512377895E+01  0.15425458722E+02  0.71147342851E+00  0.15564649061E+02  0.51100000000E-03 0.  1.
         12    1    3    3    0    0 -0.12756924928E+02  0.21341647099E+02  0.20583982845E+01  0.24948788308E+02  0.00000000000E+00 0. -1.
</event>
<event>
 7    1  0.2459936E-009  0.4778727E+02  0.7816164E-02  0.1312668E+00
        -11   -1    0    0    0    0  0.00000000000E+00  0.00000000000E+00  0.45593999997E+02  0.45594000000E+02  0.51100000000E-03 0. -1.
         11   -1    0    0    0    0 -0.00000000000E+00 -0.00000000000E+00 -0.45593999997E+02  0.45594000000E+02  0.51100000000E-03 0.  1.
    9900012    2    1    2    0    0 -0.38654135590E+02  0.19700596861E+02  0.11693985562E+01  0.47787271805E+02  0.20000003466E+02 0.  0.
         12    1    1    2    0    0  0.38654135590E+02 -0.19700596861E+02 -0.11693985562E+01  0.43400728195E+02  0.00000000000E+00 0. -1.
         11    1    3    3    0    0 -0.64959029450E+01  0.34782568751E+01  0.37240315619E+01  0.82561151455E+01  0.51100000000E-03 0. -1.
        -11    1    3    3    0    0 -0.94005213278E+01  0.97099520585E+01  0.54077693460E+01  0.14556680246E+02  0.51100000000E-03 0.  1.
         12    1    3    3    0    0 -0.22757711317E+02  0.65123879272E+01 -0.79624023516E+01  0.24974476414E+02  0.00000000000E+00 0. -1.
</event>
<event>
 7    1  0.2459936E-009  0.4778727E+02  0.7816164E-02  0.1312668E+00
        -11   -1    0    0    0    0  0.00000000000E+00  0.00000000000E+00  0.45593999997E+02  0.45594000000E+02  0.51100000000E-03 0. -1.
         11   -1    0    0    0    0 -0.00000000000E+00 -0.00000000000E+00 -0.45593999997E+02  0.45594000000E+02  0.51100000000E-03 0.  1.
    9900012    2    1    2    0    0 -0.40949782081E+02 -0.17656996563E+01 -0.14269576823E+02  0.47787272236E+02  0.20000005431E+02 0.  0.
         12    1    1    2    0    0  0.40949782081E+02  0.17656996563E+01  0.14269576823E+02  0.43400727764E+02  0.00000000000E+00 0. -1.
         11    1    3    3    0    0 -0.73349916271E+01 -0.72617030683E+01 -0.55625529855E+01  0.11725034311E+02  0.51100000000E-03 0. -1.
        -11    1    3    3    0    0 -0.13106762511E+02  0.47980401934E+01 -0.65853941634E+01  0.15432946244E+02  0.51100000000E-03 0.  1.
        -12    1    3    3    0    0 -0.20508027943E+02  0.69796321850E+00 -0.21216296738E+01  0.20629291681E+02  0.00000000000E+00 0.  1.
</event>
<event>
 7    1  0.2459936E-009  0.4778727E+02  0.7816164E-02  0.1312668E+00
        -11   -1    0    0    0    0  0.00000000000E+00  0.00000000000E+00  0.45593999997E+02  0.45594000000E+02  0.51100000000E-03 0.  1.
         11   -1    0    0    0    0 -0.00000000000E+00 -0.00000000000E+00 -0.45593999997E+02  0.45594000000E+02  0.51100000000E-03 0. -1.
    9900012    2    1    2    0    0 -0.11818240889E+02 -0.38175703805E+02  0.16928334721E+02  0.47787266191E+02  0.19999977873E+02 0.  0.
         12    1    1    2    0    0  0.11818240889E+02  0.38175703805E+02 -0.16928334721E+02  0.43400733809E+02  0.00000000000E+00 0. -1.
         11    1    3    3    0    0 -0.43538521039E+01 -0.18933908340E+02  0.27105477399E+01  0.19616217334E+02  0.51100000000E-03 0. -1.
        -11    1    3    3    0    0 -0.89386268707E+01 -0.20048559950E+02  0.11027534056E+02  0.24565225706E+02  0.51100000000E-03 0.  1.
         12    1    3    3    0    0  0.14742380861E+01  0.80676448519E+00  0.31902529257E+01  0.36058231513E+01  0.00000000000E+00 0. -1.
</event>
<event>
 7    1  0.2459936E-009  0.4778728E+02  0.7816164E-02  0.1312668E+00
        -11   -1    0    0    0    0  0.00000000000E+00  0.00000000000E+00  0.45593999997E+02  0.45594000000E+02  0.51100000000E-03 0.  1.
         11   -1    0    0    0    0 -0.00000000000E+00 -0.00000000000E+00 -0.45593999997E+02  0.45594000000E+02  0.51100000000E-03 0. -1.
    9900012    2    1    2    0    0  0.26425100139E+02 -0.33379789791E+02  0.84336398677E+01  0.47787279208E+02  0.20000037221E+02 0.  0.
         12    1    1    2    0    0 -0.26425100139E+02  0.33379789791E+02 -0.84336398677E+01  0.43400720792E+02  0.00000000000E+00 0. -1.
         11    1    3    3    0    0 -0.91027962508E+00 -0.90289575663E+00  0.20938231574E+00  0.12991039059E+01  0.51100000000E-03 0.  1.
        -11    1    3    3    0    0  0.18139049756E+02 -0.29974070057E+02  0.19742638241E+01  0.35090849516E+02  0.51100000000E-03 0. -1.
        -12    1    3    3    0    0  0.91963300084E+01 -0.25028239773E+01  0.62499937278E+01  0.11397325786E+02  0.00000000000E+00 0.  1.
</event>
<event>
 7    1  0.3015362E-009  0.4778727E+02  0.7816164E-02  0.1312668E+00
        -11   -1    0    0    0    0  0.00000000000E+00  0.00000000000E+00  0.45593999997E+02  0.45594000000E+02  0.51100000000E-03 0. -1.
         11   -1    0    0    0    0 -0.00000000000E+00 -0.00000000000E+00 -0.45593999997E+02  0.45594000000E+02  0.51100000000E-03 0.  1.
    9900012    2    1    2    0    0 -0.12765614341E+02 -0.48227781362E+01 -0.41199556433E+02  0.47787267877E+02  0.19999985560E+02 0.  0.
         12    1    1    2    0    0  0.12765614341E+02  0.48227781362E+01  0.41199556433E+02  0.43400732123E+02  0.00000000000E+00 0. -1.
         11    1    3    3    0    0  0.12322792799E+01 -0.11841502801E+01  0.10801421344E+01  0.20217396967E+01  0.51100000000E-03 0. -1.
        -11    1    3    3    0    0  0.33592248196E+00 -0.19431800315E+01 -0.12699392397E+02  0.12851589788E+02  0.51100000000E-03 0.  1.
        -12    1    3    3    0    0 -0.14333816103E+02 -0.16954478246E+01 -0.29580306171E+02  0.32913938393E+02  0.00000000000E+00 0.  1.
</event>
<event>
 7    1  0.2459936E-009  0.4778727E+02  0.7816164E-02  0.1312668E+00
        -11   -1    0    0    0    0  0.00000000000E+00  0.00000000000E+00  0.45593999997E+02  0.45594000000E+02  0.51100000000E-03 0.  1.
         11   -1    0    0    0    0 -0.00000000000E+00 -0.00000000000E+00 -0.45593999997E+02  0.45594000000E+02  0.51100000000E-03 0. -1.
    9900012    2    1    2    0    0  0.32652820959E+02  0.19784159232E+02  0.20639856527E+02  0.47787270161E+02  0.19999995971E+02 0.  0.
         12    1    1    2    0    0 -0.32652820959E+02 -0.19784159232E+02 -0.20639856527E+02  0.43400729839E+02  0.00000000000E+00 0. -1.
         11    1    3    3    0    0  0.58836637728E+01  0.17856773905E+01  0.90685416820E+01  0.10956486281E+02  0.51100000000E-03 0. -1.
        -11    1    3    3    0    0  0.10272299927E+02  0.94783137287E+01  0.11754498816E+02  0.18262716655E+02  0.51100000000E-03 0.  1.
         12    1    3    3    0    0  0.16496857259E+02  0.85201681129E+01 -0.18318397018E+00  0.18568067225E+02  0.00000000000E+00 0. -1.
</event>
<event>
 7    1  0.2459936E-009  0.4778732E+02  0.7816164E-02  0.1312668E+00
        -11   -1    0    0    0    0  0.00000000000E+00  0.00000000000E+00  0.45593999997E+02  0.45594000000E+02  0.51100000000E-03 0.  1.
         11   -1    0    0    0    0 -0.00000000000E+00 -0.00000000000E+00 -0.45593999997E+02  0.45594000000E+02  0.51100000000E-03 0. -1.
    9900012    2    1    2    0    0  0.18070568911E+01 -0.41853566405E+02  0.11341613846E+02  0.47787323968E+02  0.20000241298E+02 0.  0.
         12    1    1    2    0    0 -0.18070568911E+01  0.41853566405E+02 -0.11341613846E+02  0.43400676032E+02  0.00000000000E+00 0. -1.
         11    1    3    3    0    0 -0.17094521907E+01 -0.25830741920E+02  0.55567188739E+01  0.26476906538E+02  0.51100000000E-03 0. -1.
        -11    1    3    3    0    0  0.40857631009E+01 -0.16203079819E+02  0.83474474740E+01  0.18679216668E+02  0.51100000000E-03 0.  1.
         12    1    3    3    0    0 -0.56925401911E+00  0.18025533464E+00 -0.25625525017E+01  0.26312007616E+01  0.00000000000E+00 0. -1.
</event>
<event>
 7    1  0.2459936E-009  0.4778727E+02  0.7816164E-02  0.1312668E+00
        -11   -1    0    0    0    0  0.00000000000E+00  0.00000000000E+00  0.45593999997E+02  0.45594000000E+02  0.51100000000E-03 0. -1.
         11   -1    0    0    0    0 -0.00000000000E+00 -0.00000000000E+00 -0.45593999997E+02  0.45594000000E+02  0.51100000000E-03 0.  1.
    9900012    2    1    2    0    0  0.22258133610E+02  0.19722033773E+02 -0.31610767531E+02  0.47787265538E+02  0.19999974893E+02 0.  0.
         12    1    1    2    0    0 -0.22258133610E+02 -0.19722033773E+02  0.31610767531E+02  0.43400734462E+02  0.00000000000E+00 0. -1.
         11    1    3    3    0    0  0.12620113794E+02  0.68668478308E+01 -0.13103701594E+02  0.19445510203E+02  0.51100000000E-03 0. -1.
        -11    1    3    3    0    0  0.97941298579E+01  0.19983071890E+01 -0.55380707557E+01  0.11427529884E+02  0.51100000000E-03 0.  1.
        -12    1    3    3    0    0 -0.15611004171E+00  0.10856878754E+02 -0.12968995181E+02  0.16914225451E+02  0.00000000000E+00 0.  1.
</event>
<event>
 7    1  0.2459936E-009  0.4778726E+02  0.7816164E-02  0.1312668E+00
        -11   -1    0    0    0    0  0.00000000000E+00  0.00000000000E+00  0.45593999997E+02  0.45594000000E+02  0.51100000000E-03 0.  1.
         11   -1    0    0    0    0 -0.00000000000E+00 -0.00000000000E+00 -0.45593999997E+02  0.45594000000E+02  0.51100000000E-03 0. -1.
    9900012    2    1    2    0    0  0.22341218518E+02 -0.28872558381E+02  0.23470618596E+02  0.47787255657E+02  0.19999929840E+02 0.  0.
         12    1    1    2    0    0 -0.22341218518E+02  0.28872558381E+02 -0.23470618596E+02  0.43400744343E+02  0.00000000000E+00 0. -1.
         11    1    3    3    0    0  0.41707702403E+01 -0.33536288673E+01 -0.18893197189E+00  0.53551700746E+01  0.51100000000E-03 0. -1.
        -11    1    3    3    0    0  0.15375215631E+02 -0.27691861343E+02  0.21569103413E+02  0.38320525344E+02  0.51100000000E-03 0.  1.
        -12    1    3    3    0    0  0.27952326466E+01  0.21729318296E+01  0.20904471540E+01  0.41115602377E+01  0.00000000000E+00 0.  1.
</event>
<event>
 7    1  0.2459936E-009  0.4778727E+02  0.7816164E-02  0.1312668E+00
        -11   -1    0    0    0    0  0.00000000000E+00  0.00000000000E+00  0.45593999997E+02  0.45594000000E+02  0.51100000000E-03 0.  1.
         11   -1    0    0    0    0 -0.00000000000E+00 -0.00000000000E+00 -0.45593999997E+02  0.45594000000E+02  0.51100000000E-03 0. -1.
    9900012    2    1    2    0    0 -0.37988666967E+01  0.22416818486E+02  0.36968607685E+02  0.47787273124E+02  0.20000009482E+02 0.  0.
         12    1    1    2    0    0  0.37988666967E+01 -0.22416818486E+02 -0.36968607685E+02  0.43400726876E+02  0.00000000000E+00 0. -1.
         11    1    3    3    0    0  0.13437617806E+01  0.11399685609E+01 -0.14716986596E+01  0.22958922554E+01  0.51100000000E-03 0. -1.
        -11    1    3    3    0    0  0.59351140479E+00  0.74143856144E+01  0.53600323960E+01  0.91681687034E+01  0.51100000000E-03 0.  1.
        -12    1    3    3    0    0 -0.57361398821E+01  0.13862464311E+02  0.33080273948E+02  0.36323212165E+02  0.00000000000E+00 0.  1.
</event>
<event>
 7    1  0.2459936E-009  0.4778727E+02  0.7816164E-02  0.1312668E+00
        -11   -1    0    0    0    0  0.00000000000E+00  0.00000000000E+00  0.45593999997E+02  0.45594000000E+02  0.51100000000E-03 0.  1.
         11   -1    0    0    0    0 -0.00000000000E+00 -0.00000000000E+00 -0.45593999997E+02  0.45594000000E+02  0.51100000000E-03 0. -1.
    9900012    2    1    2    0    0 -0.39310795344E+02 -0.18306897790E+02 -0.17725903577E+01  0.47787271736E+02  0.20000003155E+02 0.  0.
         12    1    1    2    0    0  0.39310795344E+02  0.18306897790E+02  0.17725903577E+01  0.43400728264E+02  0.00000000000E+00 0. -1.
         11    1    3    3    0    0 -0.20169594510E+02 -0.17422888141E+02  0.28618148936E+01  0.26805961251E+02  0.51100000000E-03 0. -1.
        -11    1    3    3    0    0 -0.11512989314E+02 -0.39388744879E+01 -0.36594797106E+01  0.12706511999E+02  0.51100000000E-03 0.  1.
         12    1    3    3    0    0 -0.76282115197E+01  0.30548648388E+01 -0.97492554073E+00  0.82747984859E+01  0.00000000000E+00 0. -1.
</event>
<event>
 7    1  0.2459936E-009  0.4778727E+02  0.7816164E-02  0.1312668E+00
        -11   -1    0    0    0    0  0.00000000000E+00  0.00000000000E+00  0.45593999997E+02  0.45594000000E+02  0.51100000000E-03 0.  1.
         11   -1    0    0    0    0 -0.00000000000E+00 -0.00000000000E+00 -0.45593999997E+02  0.45594000000E+02  0.51100000000E-03 0. -1.
    9900012    2    1    2    0    0 -0.26408946457E+02 -0.33716767375E+02  0.70263990847E+01  0.47787272595E+02  0.20000007069E+02 0.  0.
         12    1    1    2    0    0  0.26408946457E+02  0.33716767375E+02 -0.70263990847E+01  0.43400727405E+02  0.00000000000E+00 0. -1.
         11    1    3    3    0    0 -0.11171628930E+02 -0.10953998574E+02  0.30151886351E+00  0.15648843139E+02  0.51100000000E-03 0. -1.
        -11    1    3    3    0    0 -0.13493061811E+02 -0.23249123294E+02  0.97652001497E+01  0.28599713027E+02  0.51100000000E-03 0.  1.
         12    1    3    3    0    0 -0.17442557163E+01  0.48635449307E+00 -0.30403199286E+01  0.35387164290E+01  0.00000000000E+00 0. -1.
</event>
<event>
 7    1  0.2459936E-009  0.4778727E+02  0.7816164E-02  0.1312668E+00
        -11   -1    0    0    0    0  0.00000000000E+00  0.00000000000E+00  0.45593999997E+02  0.45594000000E+02  0.51100000000E-03 0.  1.
         11   -1    0    0    0    0 -0.00000000000E+00 -0.00000000000E+00 -0.45593999997E+02  0.45594000000E+02  0.51100000000E-03 0. -1.
    9900012    2    1    2    0    0 -0.90401816874E+01 -0.19994613059E+02  0.37444811199E+02  0.47787270489E+02  0.19999997468E+02 0.  0.
         12    1    1    2    0    0  0.90401816874E+01  0.19994613059E+02 -0.37444811199E+02  0.43400729511E+02  0.00000000000E+00 0. -1.
         11    1    3    3    0    0  0.29479586755E+01 -0.21692711047E+01  0.86621446444E+01  0.94036667093E+01  0.51100000000E-03 0. -1.
        -11    1    3    3    0    0  0.90760519356E+00 -0.82378888655E+01  0.15329131827E+02  0.17426096608E+02  0.51100000000E-03 0.  1.
         12    1    3    3    0    0 -0.12895745556E+02 -0.95874530888E+01  0.13453534728E+02  0.20957507172E+02  0.00000000000E+00 0. -1.
</event>
<event>
 7    1  0.2459936E-009  0.4778727E+02  0.7816164E-02  0.1312668E+00
        -11   -1    0    0    0    0  0.00000000000E+00  0.00000000000E+00  0.45593999997E+02  0.45594000000E+02  0.51100000000E-03 0.  1.
         11   -1    0    0    0    0 -0.00000000000E+00 -0.00000000000E+00 -0.45593999997E+02  0.45594000000E+02  0.51100000000E-03 0. -1.
    9900012    2    1    2    0    0  0.29367933644E+02  0.31836691886E+02 -0.27519350999E+01  0.47787267016E+02  0.19999981633E+02 0.  0.
         12    1    1    2    0    0 -0.29367933644E+02 -0.31836691886E+02  0.27519350999E+01  0.43400732984E+02  0.00000000000E+00 0. -1.
         11    1    3    3    0    0  0.14413755804E+02  0.20063235312E+02 -0.58588361455E+01  0.25389283739E+02  0.51100000000E-03 0. -1.
        -11    1    3    3    0    0  0.14688379033E+02  0.11522557836E+02 -0.59497078078E+00  0.18678110402E+02  0.51100000000E-03 0.  1.
         12    1    3    3    0    0  0.26579880669E+00  0.25089873806E+00  0.37018718264E+01  0.37198728744E+01  0.00000000000E+00 0. -1.
</event>
<event>
 7    1  0.2459936E-009  0.4778727E+02  0.7816164E-02  0.1312668E+00
        -11   -1    0    0    0    0  0.00000000000E+00  0.00000000000E+00  0.45593999997E+02  0.45594000000E+02  0.51100000000E-03 0. -1.
         11   -1    0    0    0    0 -0.00000000000E+00 -0.00000000000E+00 -0.45593999997E+02  0.45594000000E+02  0.51100000000E-03 0.  1.
    9900012    2    1    2    0    0 -0.36351961019E+02 -0.23547884260E+02 -0.27668275226E+01  0.47787271232E+02  0.20000000857E+02 0.  0.
         12    1    1    2    0    0  0.36351961019E+02  0.23547884260E+02  0.27668275226E+01  0.43400728768E+02  0.00000000000E+00 0. -1.
         11    1    3    3    0    0 -0.13893811796E+01 -0.46409187898E+01 -0.54110880575E+01  0.72628081004E+01  0.51100000000E-03 0. -1.
        -11    1    3    3    0    0 -0.11906171791E+02 -0.70227623615E+01 -0.25874632504E+01  0.14063110760E+02  0.51100000000E-03 0.  1.
         12    1    3    3    0    0 -0.23056408048E+02 -0.11884203108E+02  0.52317237853E+01  0.26461352372E+02  0.00000000000E+00 0. -1.
</event>
<event>
 7    1  0.2459936E-009  0.4778727E+02  0.7816164E-02  0.1312668E+00
        -11   -1    0    0    0    0  0.00000000000E+00  0.00000000000E+00  0.45593999997E+02  0.45594000000E+02  0.51100000000E-03 0.  1.
         11   -1    0    0    0    0 -0.00000000000E+00 -0.00000000000E+00 -0.45593999997E+02  0.45594000000E+02  0.51100000000E-03 0. -1.
    9900012    2    1    2    0    0  0.99964524892E+00  0.12623517680E+02  0.41512297452E+02  0.47787270409E+02  0.19999997103E+02 0.  0.
         12    1    1    2    0    0 -0.99964524892E+00 -0.12623517680E+02 -0.41512297452E+02  0.43400729591E+02  0.00000000000E+00 0. -1.
         11    1    3    3    0    0  0.13047325141E+01 -0.29219017244E+01  0.46563959650E+01  0.56499433860E+01  0.51100000000E-03 0. -1.
        -11    1    3    3    0    0 -0.62158485282E+00  0.13105033120E+02  0.37384988115E+02  0.39620267508E+02  0.51100000000E-03 0.  1.
         12    1    3    3    0    0  0.31649758765E+00  0.24403862848E+01 -0.52908662750E+00  0.25170595149E+01  0.00000000000E+00 0. -1.
</event>
<event>
 7    1  0.2459936E-009  0.4778728E+02  0.7816164E-02  0.1312668E+00
        -11   -1    0    0    0    0  0.00000000000E+00  0.00000000000E+00  0.45593999997E+02  0.45594000000E+02  0.51100000000E-03 0.  1.
         11   -1    0    0    0    0 -0.00000000000E+00 -0.00000000000E+00 -0.45593999997E+02  0.45594000000E+02  0.51100000000E-03 0. -1.
    9900012    2    1    2    0    0  0.16395675162E+01  0.26341918924E+02  0.34453414458E+02  0.47787278323E+02  0.20000033187E+02 0.  0.
         12    1    1    2    0    0 -0.16395675162E+01 -0.26341918924E+02 -0.34453414458E+02  0.43400721677E+02  0.00000000000E+00 0. -1.
         11    1    3    3    0    0 -0.45459850627E+01  0.72040664352E+01  0.67804623988E+01  0.10887571997E+02  0.51100000000E-03 0. -1.
        -11    1    3    3    0    0 -0.22226114075E+01  0.21860762527E+00 -0.12758250561E+00  0.22369774964E+01  0.51100000000E-03 0.  1.
        -12    1    3    3    0    0  0.84081639863E+01  0.18919244864E+02  0.27800534565E+02  0.34662728830E+02  0.00000000000E+00 0.  1.
</event>
<event>
 7    1  0.2459936E-009  0.4778726E+02  0.7816164E-02  0.1312668E+00
        -11   -1    0    0    0    0  0.00000000000E+00  0.00000000000E+00  0.45593999997E+02  0.45594000000E+02  0.51100000000E-03 0.  1.
         11   -1    0    0    0    0 -0.00000000000E+00 -0.00000000000E+00 -0.45593999997E+02  0.45594000000E+02  0.51100000000E-03 0. -1.
    9900012    2    1    2    0    0  0.28940592247E+02 -0.63014373622E+01  0.31723154010E+02  0.47787257002E+02  0.19999935976E+02 0.  0.
         12    1    1    2    0    0 -0.28940592247E+02  0.63014373622E+01 -0.31723154010E+02  0.43400742998E+02  0.00000000000E+00 0. -1.
         11    1    3    3    0    0  0.15846069267E+01  0.64465036969E+00 -0.17703271958E+01  0.24618309960E+01  0.51100000000E-03 0. -1.
        -11    1    3    3    0    0  0.65947472347E+01 -0.71459382101E+01  0.94707272306E+01  0.13573864539E+02  0.51100000000E-03 0.  1.
        -12    1    3    3    0    0  0.20761238085E+02  0.19985047821E+00  0.24022753975E+02  0.31751561467E+02  0.00000000000E+00 0.  1.
</event>
<event>
 7    1  0.2459936E-009  0.4778727E+02  0.7816164E-02  0.1312668E+00
        -11   -1    0    0    0    0  0.00000000000E+00  0.00000000000E+00  0.45593999997E+02  0.45594000000E+02  0.51100000000E-03 0.  1.
         11   -1    0    0    0    0 -0.00000000000E+00 -0.00000000000E+00 -0.45593999997E+02  0.45594000000E+02  0.51100000000E-03 0. -1.
    9900012    2    1    2    0    0  0.36390753216E+02  0.22572986880E+02  0.70566708735E+01  0.47787271203E+02  0.20000000722E+02 0.  0.
         12    1    1    2    0    0 -0.36390753216E+02 -0.22572986880E+02 -0.70566708735E+01  0.43400728797E+02  0.00000000000E+00 0. -1.
         11    1    3    3    0    0  0.20525998860E+01  0.12833191766E+01  0.30049882722E+01  0.38587600571E+01  0.51100000000E-03 0. -1.
        -11    1    3    3    0    0  0.35649116066E+02  0.18613599076E+02  0.55431002545E+01  0.40596200654E+02  0.51100000000E-03 0.  1.
         12    1    3    3    0    0 -0.13109627362E+01  0.26760686277E+01 -0.14914176532E+01  0.33323104916E+01  0.00000000000E+00 0. -1.
</event>
<event>
 7    1  0.2459936E-009  0.4778727E+02  0.7816164E-02  0.1312668E+00
        -11   -1    0    0    0    0  0.00000000000E+00  0.00000000000E+00  0.45593999997E+02  0.45594000000E+02  0.51100000000E-03 0.  1.
         11   -1    0    0    0    0 -0.00000000000E+00 -0.00000000000E+00 -0.45593999997E+02  0.45594000000E+02  0.51100000000E-03 0. -1.
    9900012    2    1    2    0    0 -0.13844411844E+02  0.40904480417E+02  0.43334701682E+01  0.47787271651E+02  0.20000002768E+02 0.  0.
         12    1    1    2    0    0  0.13844411844E+02 -0.40904480417E+02 -0.43334701682E+01  0.43400728349E+02  0.00000000000E+00 0. -1.
         11    1    3    3    0    0  0.96517079281E+00 -0.39409331709E+00 -0.13482714835E+01  0.17043181793E+01  0.51100000000E-03 0. -1.
        -11    1    3    3    0    0 -0.14052940242E+02  0.34505896203E+02  0.98871838327E-01  0.37257908934E+02  0.51100000000E-03 0.  1.
        -12    1    3    3    0    0 -0.75664239526E+00  0.67926775305E+01  0.55828698133E+01  0.88250445382E+01  0.00000000000E+00 0.  1.
</event>
<event>
 7    1  0.2459936E-009  0.4778723E+02  0.7816164E-02  0.1312668E+00
        -11   -1    0    0    0    0  0.00000000000E+00  0.00000000000E+00  0.45593999997E+02  0.45594000000E+02  0.51100000000E-03 0.  1.
         11   -1    0    0    0    0 -0.00000000000E+00 -0.00000000000E+00 -0.45593999997E+02  0.45594000000E+02  0.51100000000E-03 0. -1.
    9900012    2    1    2    0    0 -0.38405595933E+02  0.13591158106E+02 -0.14963880025E+02  0.47787227160E+02  0.19999799914E+02 0.  0.
         12    1    1    2    0    0  0.38405595933E+02 -0.13591158106E+02  0.14963880025E+02  0.43400772840E+02  0.00000000000E+00 0. -1.
         11    1    3    3    0    0 -0.44365911435E+01  0.31325426723E+01  0.21918066444E+01  0.58566356551E+01  0.51100000000E-03 0. -1.
        -11    1    3    3    0    0 -0.95242070000E+00  0.27791262908E+01 -0.52252200973E+01  0.59944618988E+01  0.51100000000E-03 0.  1.
        -12    1    3    3    0    0 -0.33016584090E+02  0.76794891429E+01 -0.11930466573E+02  0.35936129607E+02  0.00000000000E+00 0.  1.
</event>
<event>
 7    1  0.2459936E-009  0.4778727E+02  0.7816164E-02  0.1312668E+00
        -11   -1    0    0    0    0  0.00000000000E+00  0.00000000000E+00  0.45593999997E+02  0.45594000000E+02  0.51100000000E-03 0.  1.
         11   -1    0    0    0    0 -0.00000000000E+00 -0.00000000000E+00 -0.45593999997E+02  0.45594000000E+02  0.51100000000E-03 0. -1.
    9900012    2    1    2    0    0  0.10022742537E+02  0.13427588684E+02  0.40035832718E+02  0.47787269508E+02  0.19999992995E+02 0.  0.
         12    1    1    2    0    0 -0.10022742537E+02 -0.13427588684E+02 -0.40035832718E+02  0.43400730492E+02  0.00000000000E+00 0. -1.
         11    1    3    3    0    0  0.12580329747E+01  0.37866085977E+00 -0.11012734352E+01  0.17143029056E+01  0.51100000000E-03 0. -1.
        -11    1    3    3    0    0  0.18352685956E+01 -0.25571079726E+01  0.32946721110E+01  0.45565202273E+01  0.51100000000E-03 0.  1.
        -12    1    3    3    0    0  0.69294409671E+01  0.15606035797E+02  0.37842434042E+02  0.41516446375E+02  0.00000000000E+00 0.  1.
</event>
<event>
 7    1  0.2459936E-009  0.4778728E+02  0.7816164E-02  0.1312668E+00
        -11   -1    0    0    0    0  0.00000000000E+00  0.00000000000E+00  0.45593999997E+02  0.45594000000E+02  0.51100000000E-03 0.  1.
         11   -1    0    0    0    0 -0.00000000000E+00 -0.00000000000E+00 -0.45593999997E+02  0.45594000000E+02  0.51100000000E-03 0. -1.
    9900012    2    1    2    0    0 -0.37021937256E+02  0.22156705205E+02 -0.46988753132E+01  0.47787275893E+02  0.20000022108E+02 0.  0.
         12    1    1    2    0    0  0.37021937256E+02 -0.22156705205E+02  0.46988753132E+01  0.43400724107E+02  0.00000000000E+00 0. -1.
         11    1    3    3    0    0 -0.57571773106E+01  0.11122185426E+01 -0.85611395671E+00  0.59257954774E+01  0.51100000000E-03 0. -1.
        -11    1    3    3    0    0 -0.24495829678E+02  0.74431124235E+01 -0.65576909525E+01  0.26428183915E+02  0.51100000000E-03 0.  1.
         12    1    3    3    0    0 -0.67689302676E+01  0.13601374239E+02  0.27149295960E+01  0.15433296501E+02  0.00000000000E+00 0. -1.
</event>
<event>
 7    1  0.2459936E-009  0.4778726E+02  0.7816164E-02  0.1312668E+00
        -11   -1    0    0    0    0  0.00000000000E+00  0.00000000000E+00  0.45593999997E+02  0.45594000000E+02  0.51100000000E-03 0.  1.
         11   -1    0    0    0    0 -0.00000000000E+00 -0.00000000000E+00 -0.45593999997E+02  0.45594000000E+02  0.51100000000E-03 0. -1.
    9900012    2    1    2    0    0  0.22017198574E+02  0.19720445746E+01  0.37349411548E+02  0.47787256506E+02  0.19999933712E+02 0.  0.
         12    1    1    2    0    0 -0.22017198574E+02 -0.19720445746E+01 -0.37349411548E+02  0.43400743494E+02  0.00000000000E+00 0. -1.
         11    1    3    3    0    0  0.42947566460E+01  0.64242713864E+00  0.13672206245E+02  0.14345273477E+02  0.51100000000E-03 0. -1.
        -11    1    3    3    0    0  0.31352844351E+01  0.76536663712E+00  0.17150150600E+02  0.17451173612E+02  0.51100000000E-03 0.  1.
         12    1    3    3    0    0  0.14587157493E+02  0.56425079881E+00  0.65270547036E+01  0.15990809416E+02  0.00000000000E+00 0. -1.
</event>
<event>
 7    1  0.2459936E-009  0.4778730E+02  0.7816164E-02  0.1312668E+00
        -11   -1    0    0    0    0  0.00000000000E+00  0.00000000000E+00  0.45593999997E+02  0.45594000000E+02  0.51100000000E-03 0.  1.
         11   -1    0    0    0    0 -0.00000000000E+00 -0.00000000000E+00 -0.45593999997E+02  0.45594000000E+02  0.51100000000E-03 0. -1.
    9900012    2    1    2    0    0  0.11235000277E+02 -0.61809259641E+01  0.41463140719E+02  0.47787295913E+02  0.20000113384E+02 0.  0.
         12    1    1    2    0    0 -0.11235000277E+02  0.61809259641E+01 -0.41463140719E+02  0.43400704087E+02  0.00000000000E+00 0. -1.
         11    1    3    3    0    0 -0.10196177413E+01 -0.33672649621E+01  0.51695914044E+01  0.62532207072E+01  0.51100000000E-03 0. -1.
        -11    1    3    3    0    0 -0.33862969227E+01 -0.20169714020E+01  0.38573731200E+01  0.55149350071E+01  0.51100000000E-03 0.  1.
        -12    1    3    3    0    0  0.15640914941E+02 -0.79668960000E+00  0.32436176195E+02  0.36019140198E+02  0.00000000000E+00 0.  1.
</event>
<event>
 7    1  0.2459936E-009  0.4778727E+02  0.7816164E-02  0.1312668E+00
        -11   -1    0    0    0    0  0.00000000000E+00  0.00000000000E+00  0.45593999997E+02  0.45594000000E+02  0.51100000000E-03 0.  1.
         11   -1    0    0    0    0 -0.00000000000E+00 -0.00000000000E+00 -0.45593999997E+02  0.45594000000E+02  0.51100000000E-03 0. -1.
    9900012    2    1    2    0    0 -0.28791975864E+02  0.83014985028E+01  0.31396349981E+02  0.47787267936E+02  0.19999985828E+02 0.  0.
         12    1    1    2    0    0  0.28791975864E+02 -0.83014985028E+01 -0.31396349981E+02  0.43400732064E+02  0.00000000000E+00 0. -1.
         11    1    3    3    0    0 -0.33092052055E+01 -0.37657794771E+01  0.19465931818E+01  0.53778396628E+01  0.51100000000E-03 0. -1.
        -11    1    3    3    0    0 -0.54173063906E+01  0.53869047638E+00  0.67823899778E+00  0.54861101300E+01  0.51100000000E-03 0.  1.
        -12    1    3    3    0    0 -0.20065464268E+02  0.11528587504E+02  0.28771517801E+02  0.36923318143E+02  0.00000000000E+00 0.  1.
</event>
<event>
 7    1  0.2459936E-009  0.4778727E+02  0.7816164E-02  0.1312668E+00
        -11   -1    0    0    0    0  0.00000000000E+00  0.00000000000E+00  0.45593999997E+02  0.45594000000E+02  0.51100000000E-03 0.  1.
         11   -1    0    0    0    0 -0.00000000000E+00 -0.00000000000E+00 -0.45593999997E+02  0.45594000000E+02  0.51100000000E-03 0. -1.
    9900012    2    1    2    0    0 -0.26432890556E+02 -0.63637574791E+01  0.33829397710E+02  0.47787271183E+02  0.20000000634E+02 0.  0.
         12    1    1    2    0    0  0.26432890556E+02  0.63637574791E+01 -0.33829397710E+02  0.43400728817E+02  0.00000000000E+00 0. -1.
         11    1    3    3    0    0 -0.13111109078E+02 -0.37622540651E+01  0.31609129960E+01  0.14001682332E+02  0.51100000000E-03 0. -1.
        -11    1    3    3    0    0 -0.32320562542E+01  0.87901025364E+00  0.53859393801E+01  0.63424908296E+01  0.51100000000E-03 0.  1.
        -12    1    3    3    0    0 -0.10089725224E+02 -0.34805136677E+01  0.25282545334E+02  0.27443098022E+02  0.00000000000E+00 0.  1.
</event>
<event>
 7    1  0.2459936E-009  0.4778727E+02  0.7816164E-02  0.1312668E+00
        -11   -1    0    0    0    0  0.00000000000E+00  0.00000000000E+00  0.45593999997E+02  0.45594000000E+02  0.51100000000E-03 0. -1.
         11   -1    0    0    0    0 -0.00000000000E+00 -0.00000000000E+00 -0.45593999997E+02  0.45594000000E+02  0.51100000000E-03 0.  1.
    9900012    2    1    2    0    0  0.20144006395E+01 -0.43211093128E+02  0.35166357026E+01  0.47787272979E+02  0.20000008820E+02 0.  0.
         12    1    1    2    0    0 -0.20144006395E+01  0.43211093128E+02 -0.35166357026E+01  0.43400727021E+02  0.00000000000E+00 0. -1.
         11    1    3    3    0    0 -0.49063649805E+01 -0.59673847522E+01  0.25165133414E+01  0.81249577083E+01  0.51100000000E-03 0.  1.
        -11    1    3    3    0    0 -0.67627357805E+00 -0.52917301549E+00  0.19789738937E+01  0.21572454579E+01  0.51100000000E-03 0. -1.
        -12    1    3    3    0    0  0.75970391980E+01 -0.36714535361E+02 -0.97885153244E+00  0.37505069813E+02  0.00000000000E+00 0.  1.
</event>
<event>
 7    1  0.2499504E-009  0.4778727E+02  0.7816164E-02  0.1312668E+00
        -11   -1    0    0    0    0  0.00000000000E+00  0.00000000000E+00  0.45593999997E+02  0.45594000000E+02  0.51100000000E-03 0.  1.
         11   -1    0    0    0    0 -0.00000000000E+00 -0.00000000000E+00 -0.45593999997E+02  0.45594000000E+02  0.51100000000E-03 0. -1.
    9900012    2    1    2    0    0  0.50020101889E+00  0.42763177054E+02  0.73948502462E+01  0.47787270479E+02  0.19999997422E+02 0.  0.
         12    1    1    2    0    0 -0.50020101889E+00 -0.42763177054E+02 -0.73948502462E+01  0.43400729521E+02  0.00000000000E+00 0. -1.
         11    1    3    3    0    0  0.11847321244E+01 -0.70090309794E+00  0.91766019020E+00  0.16543747596E+01  0.51100000000E-03 0. -1.
        -11    1    3    3    0    0  0.16018629824E+01  0.77317061427E+01 -0.39654509419E+01  0.88357255687E+01  0.51100000000E-03 0.  1.
        -12    1    3    3    0    0 -0.22863940879E+01  0.35732374009E+02  0.10442640998E+02  0.37297170151E+02  0.00000000000E+00 0.  1.
</event>
<event>
 7    1  0.2459936E-009  0.4778727E+02  0.7816164E-02  0.1312668E+00
        -11   -1    0    0    0    0  0.00000000000E+00  0.00000000000E+00  0.45593999997E+02  0.45594000000E+02  0.51100000000E-03 0.  1.
         11   -1    0    0    0    0 -0.00000000000E+00 -0.00000000000E+00 -0.45593999997E+02  0.45594000000E+02  0.51100000000E-03 0. -1.
    9900012    2    1    2    0    0  0.16045551374E+02  0.40305646839E+02  0.12722021330E+01  0.47787269772E+02  0.19999994200E+02 0.  0.
         12    1    1    2    0    0 -0.16045551374E+02 -0.40305646839E+02 -0.12722021330E+01  0.43400730228E+02  0.00000000000E+00 0. -1.
         11    1    3    3    0    0 -0.80368986603E+00  0.14797251893E+02  0.33086547290E+01  0.15183931551E+02  0.51100000000E-03 0. -1.
        -11    1    3    3    0    0 -0.36522339050E+00  0.75777346113E+01 -0.15433969730E+01  0.77419328621E+01  0.51100000000E-03 0.  1.
         12    1    3    3    0    0  0.17214464630E+02  0.17930660335E+02 -0.49305562294E+00  0.24861405359E+02  0.00000000000E+00 0. -1.
</event>
<event>
 7    1  0.2459936E-009  0.4778727E+02  0.7816164E-02  0.1312668E+00
        -11   -1    0    0    0    0  0.00000000000E+00  0.00000000000E+00  0.45593999997E+02  0.45594000000E+02  0.51100000000E-03 0. -1.
         11   -1    0    0    0    0 -0.00000000000E+00 -0.00000000000E+00 -0.45593999997E+02  0.45594000000E+02  0.51100000000E-03 0.  1.
    9900012    2    1    2    0    0 -0.38015528447E+02  0.10168068785E+01 -0.20914329355E+02  0.47787268765E+02  0.19999989608E+02 0.  0.
         12    1    1    2    0    0  0.38015528447E+02 -0.10168068785E+01  0.20914329355E+02  0.43400731235E+02  0.00000000000E+00 0. -1.
         11    1    3    3    0    0 -0.45937673544E+01 -0.17254605848E+01 -0.68906063962E+01  0.84593362331E+01  0.51100000000E-03 0. -1.
        -11    1    3    3    0    0 -0.49382180702E+01 -0.53806520630E+00 -0.89135926088E+01  0.10204295435E+02  0.51100000000E-03 0.  1.
         12    1    3    3    0    0 -0.28483543023E+02  0.32803326696E+01 -0.51101303502E+01  0.29123637097E+02  0.00000000000E+00 0. -1.
</event>
<event>
 7    1  0.2459936E-009  0.4778727E+02  0.7816164E-02  0.1312668E+00
        -11   -1    0    0    0    0  0.00000000000E+00  0.00000000000E+00  0.45593999997E+02  0.45594000000E+02  0.51100000000E-03 0.  1.
         11   -1    0    0    0    0 -0.00000000000E+00 -0.00000000000E+00 -0.45593999997E+02  0.45594000000E+02  0.51100000000E-03 0. -1.
    9900012    2    1    2    0    0 -0.93388426405E+01  0.27530528150E-01  0.42384061721E+02  0.47787269272E+02  0.19999991918E+02 0.  0.
         12    1    1    2    0    0  0.93388426405E+01 -0.27530528150E-01 -0.42384061721E+02  0.43400730728E+02  0.00000000000E+00 0. -1.
         11    1    3    3    0    0 -0.80093915524E+01 -0.66026134165E+01  0.27907561143E+02  0.29775439983E+02  0.51100000000E-03 0. -1.
        -11    1    3    3    0    0 -0.42084137985E+01  0.24663316157E+01  0.10489091115E+02  0.11567824818E+02  0.51100000000E-03 0.  1.
        -12    1    3    3    0    0  0.28789627104E+01  0.41638123289E+01  0.39874094626E+01  0.64440044709E+01  0.00000000000E+00 0.  1.
</event>
<event>
 7    1  0.2459936E-009  0.4778727E+02  0.7816164E-02  0.1312668E+00
        -11   -1    0    0    0    0  0.00000000000E+00  0.00000000000E+00  0.45593999997E+02  0.45594000000E+02  0.51100000000E-03 0.  1.
         11   -1    0    0    0    0 -0.00000000000E+00 -0.00000000000E+00 -0.45593999997E+02  0.45594000000E+02  0.51100000000E-03 0. -1.
    9900012    2    1    2    0    0  0.35246534302E+02 -0.15484953899E+02  0.20037999957E+02  0.47787269363E+02  0.19999992334E+02 0.  0.
         12    1    1    2    0    0 -0.35246534302E+02  0.15484953899E+02 -0.20037999957E+02  0.43400730637E+02  0.00000000000E+00 0. -1.
         11    1    3    3    0    0  0.11503070455E+02 -0.26569413421E+00  0.95403025751E-01  0.11506534025E+02  0.51100000000E-03 0. -1.
        -11    1    3    3    0    0  0.65832977453E+00 -0.98458888455E-01 -0.12965349533E+01  0.14574276624E+01  0.51100000000E-03 0.  1.
        -12    1    3    3    0    0  0.23085134072E+02 -0.15120800876E+02  0.21239131885E+02  0.34823307676E+02  0.00000000000E+00 0.  1.
</event>
<event>
 7    1  0.2459936E-009  0.4778727E+02  0.7816164E-02  0.1312668E+00
        -11   -1    0    0    0    0  0.00000000000E+00  0.00000000000E+00  0.45593999997E+02  0.45594000000E+02  0.51100000000E-03 0.  1.
         11   -1    0    0    0    0 -0.00000000000E+00 -0.00000000000E+00 -0.45593999997E+02  0.45594000000E+02  0.51100000000E-03 0. -1.
    9900012    2    1    2    0    0 -0.15026473632E+02  0.30547149081E+02  0.26920251635E+02  0.47787272185E+02  0.20000005199E+02 0.  0.
         12    1    1    2    0    0  0.15026473632E+02 -0.30547149081E+02 -0.26920251635E+02  0.43400727815E+02  0.00000000000E+00 0. -1.
         11    1    3    3    0    0 -0.91766494238E+01  0.10623383323E+02  0.11016308144E+02  0.17844500925E+02  0.51100000000E-03 0.  1.
        -11    1    3    3    0    0 -0.32973102703E+01 -0.15656406954E+01  0.14965064638E+01  0.39449990701E+01  0.51100000000E-03 0. -1.
        -12    1    3    3    0    0 -0.25525139378E+01  0.21489406453E+02  0.14407437028E+02  0.25997772189E+02  0.00000000000E+00 0.  1.
</event>
<event>
 7    1  0.2459936E-009  0.4778726E+02  0.7816164E-02  0.1312668E+00
        -11   -1    0    0    0    0  0.00000000000E+00  0.00000000000E+00  0.45593999997E+02  0.45594000000E+02  0.51100000000E-03 0.  1.
         11   -1    0    0    0    0 -0.00000000000E+00 -0.00000000000E+00 -0.45593999997E+02  0.45594000000E+02  0.51100000000E-03 0. -1.
    9900012    2    1    2    0    0  0.26220826757E+02 -0.31502909687E+01  0.34440787509E+02  0.47787263448E+02  0.19999965366E+02 0.  0.
         12    1    1    2    0    0 -0.26220826757E+02  0.31502909687E+01 -0.34440787509E+02  0.43400736552E+02  0.00000000000E+00 0. -1.
         11    1    3    3    0    0  0.66125898095E+01 -0.13955848066E+01  0.26277697596E+01  0.72511499165E+01  0.51100000000E-03 0. -1.
        -11    1    3    3    0    0  0.22124226633E+02 -0.27276343160E+01  0.29548993543E+02  0.37014381161E+02  0.51100000000E-03 0.  1.
         12    1    3    3    0    0 -0.25159896848E+01  0.97292815386E+00  0.22640242058E+01  0.35217323707E+01  0.00000000000E+00 0. -1.
</event>
<event>
 7    1  0.2459936E-009  0.4778728E+02  0.7816164E-02  0.1312668E+00
        -11   -1    0    0    0    0  0.00000000000E+00  0.00000000000E+00  0.45593999997E+02  0.45594000000E+02  0.51100000000E-03 0.  1.
         11   -1    0    0    0    0 -0.00000000000E+00 -0.00000000000E+00 -0.45593999997E+02  0.45594000000E+02  0.51100000000E-03 0. -1.
    9900012    2    1    2    0    0 -0.36049962192E+02  0.54759592067E+01  0.23537987588E+02  0.47787276930E+02  0.20000026834E+02 0.  0.
         12    1    1    2    0    0  0.36049962192E+02 -0.54759592067E+01 -0.23537987588E+02  0.43400723070E+02  0.00000000000E+00 0. -1.
         11    1    3    3    0    0 -0.20984738627E+02  0.68114786238E+01  0.94949259183E+01  0.24018932423E+02  0.51100000000E-03 0. -1.
        -11    1    3    3    0    0 -0.10782476411E+02  0.45083500177E+01  0.10465527369E+02  0.15688029857E+02  0.51100000000E-03 0.  1.
        -12    1    3    3    0    0 -0.42827471544E+01 -0.58438694348E+01  0.35775343011E+01  0.80803146495E+01  0.00000000000E+00 0.  1.
</event>
<event>
 7    1  0.2459936E-009  0.4778727E+02  0.7816164E-02  0.1312668E+00
        -11   -1    0    0    0    0  0.00000000000E+00  0.00000000000E+00  0.45593999997E+02  0.45594000000E+02  0.51100000000E-03 0.  1.
         11   -1    0    0    0    0 -0.00000000000E+00 -0.00000000000E+00 -0.45593999997E+02  0.45594000000E+02  0.51100000000E-03 0. -1.
    9900012    2    1    2    0    0  0.16207202292E+02 -0.50955496045E+01  0.39937264128E+02  0.47787273071E+02  0.20000009239E+02 0.  0.
         12    1    1    2    0    0 -0.16207202292E+02  0.50955496045E+01 -0.39937264128E+02  0.43400726929E+02  0.00000000000E+00 0. -1.
         11    1    3    3    0    0  0.73764128785E+01  0.15505043460E+01  0.60603725274E+01  0.96717964264E+01  0.51100000000E-03 0. -1.
        -11    1    3    3    0    0 -0.24466802799E+01 -0.17318708046E+01  0.12523130636E+01  0.32486780613E+01  0.51100000000E-03 0.  1.
        -12    1    3    3    0    0  0.11277469694E+02 -0.49141831460E+01  0.32624578538E+02  0.34866798583E+02  0.00000000000E+00 0.  1.
</event>
<event>
 7    1  0.2459936E-009  0.4778727E+02  0.7816164E-02  0.1312668E+00
        -11   -1    0    0    0    0  0.00000000000E+00  0.00000000000E+00  0.45593999997E+02  0.45594000000E+02  0.51100000000E-03 0. -1.
         11   -1    0    0    0    0 -0.00000000000E+00 -0.00000000000E+00 -0.45593999997E+02  0.45594000000E+02  0.51100000000E-03 0.  1.
    9900012    2    1    2    0    0 -0.17051609964E+02  0.23638398026E+02 -0.32157302225E+02  0.47787270168E+02  0.19999996002E+02 0.  0.
         12    1    1    2    0    0  0.17051609964E+02 -0.23638398026E+02  0.32157302225E+02  0.43400729832E+02  0.00000000000E+00 0. -1.
         11    1    3    3    0    0  0.32040002914E+01  0.33016793409E+01 -0.85652510055E+01  0.97226657551E+01  0.51100000000E-03 0. -1.
        -11    1    3    3    0    0 -0.47603182904E+01  0.24874478623E+01 -0.83874710358E+01  0.99598041011E+01  0.51100000000E-03 0.  1.
        -12    1    3    3    0    0 -0.15495291966E+02  0.17849270823E+02 -0.15204580184E+02  0.28104800312E+02  0.00000000000E+00 0.  1.
</event>
<event>
 7    1  0.2459936E-009  0.4778727E+02  0.7816164E-02  0.1312668E+00
        -11   -1    0    0    0    0  0.00000000000E+00  0.00000000000E+00  0.45593999997E+02  0.45594000000E+02  0.51100000000E-03 0.  1.
         11   -1    0    0    0    0 -0.00000000000E+00 -0.00000000000E+00 -0.45593999997E+02  0.45594000000E+02  0.51100000000E-03 0. -1.
    9900012    2    1    2    0    0 -0.23457195312E+02 -0.12514003590E+02  0.34304269318E+02  0.47787271997E+02  0.20000004344E+02 0.  0.
         12    1    1    2    0    0  0.23457195312E+02  0.12514003590E+02 -0.34304269318E+02  0.43400728003E+02  0.00000000000E+00 0. -1.
         11    1    3    3    0    0 -0.17434134578E+02 -0.43106374171E+01  0.14239110866E+02  0.22919051506E+02  0.51100000000E-03 0. -1.
        -11    1    3    3    0    0 -0.69773354022E+01 -0.14788694988E+01  0.14215880776E+02  0.15904764406E+02  0.51100000000E-03 0.  1.
         12    1    3    3    0    0  0.95427466822E+00 -0.67244966741E+01  0.58492776766E+01  0.89634560857E+01  0.00000000000E+00 0. -1.
</event>
<event>
 7    1  0.2459936E-009  0.4778727E+02  0.7816164E-02  0.1312668E+00
        -11   -1    0    0    0    0  0.00000000000E+00  0.00000000000E+00  0.45593999997E+02  0.45594000000E+02  0.51100000000E-03 0.  1.
         11   -1    0    0    0    0 -0.00000000000E+00 -0.00000000000E+00 -0.45593999997E+02  0.45594000000E+02  0.51100000000E-03 0. -1.
    9900012    2    1    2    0    0 -0.72600181979E+01 -0.17228495476E+02  0.39167521240E+02  0.47787266818E+02  0.19999980731E+02 0.  0.
         12    1    1    2    0    0  0.72600181979E+01  0.17228495476E+02 -0.39167521240E+02  0.43400733182E+02  0.00000000000E+00 0. -1.
         11    1    3    3    0    0  0.51557232670E+00  0.19961062366E+01  0.14447144999E+01  0.25174302729E+01  0.51100000000E-03 0. -1.
        -11    1    3    3    0    0 -0.92911069172E+00  0.21665511934E+01  0.55787128075E+01  0.60563378044E+01  0.51100000000E-03 0.  1.
         12    1    3    3    0    0 -0.68464798329E+01 -0.21391152906E+02  0.32144093933E+02  0.39213498741E+02  0.00000000000E+00 0. -1.
</event>
<event>
 7    1  0.2459936E-009  0.4778727E+02  0.7816164E-02  0.1312668E+00
        -11   -1    0    0    0    0  0.00000000000E+00  0.00000000000E+00  0.45593999997E+02  0.45594000000E+02  0.51100000000E-03 0. -1.
         11   -1    0    0    0    0 -0.00000000000E+00 -0.00000000000E+00 -0.45593999997E+02  0.45594000000E+02  0.51100000000E-03 0.  1.
    9900012    2    1    2    0    0 -0.20770986097E+01  0.55438741604E+01 -0.42995050171E+02  0.47787271682E+02  0.20000002907E+02 0.  0.
         12    1    1    2    0    0  0.20770986097E+01 -0.55438741604E+01  0.42995050171E+02  0.43400728318E+02  0.00000000000E+00 0. -1.
         11    1    3    3    0    0 -0.42487963101E+01  0.52876082413E+01 -0.16476317663E+02  0.17817971686E+02  0.51100000000E-03 0. -1.
        -11    1    3    3    0    0  0.92837640669E+00  0.30264804619E+01 -0.26738196722E+02  0.26924944400E+02  0.51100000000E-03 0.  1.
         12    1    3    3    0    0  0.12433212937E+01 -0.27702145427E+01  0.21946421469E+00  0.30443555958E+01  0.00000000000E+00 0. -1.
</event>
<event>
 7    1  0.2459936E-009  0.4778727E+02  0.7816164E-02  0.1312668E+00
        -11   -1    0    0    0    0  0.00000000000E+00  0.00000000000E+00  0.45593999997E+02  0.45594000000E+02  0.51100000000E-03 0. -1.
         11   -1    0    0    0    0 -0.00000000000E+00 -0.00000000000E+00 -0.45593999997E+02  0.45594000000E+02  0.51100000000E-03 0.  1.
    9900012    2    1    2    0    0  0.28368555001E+02 -0.51047604655E+01 -0.32446721334E+02  0.47787271693E+02  0.20000002958E+02 0.  0.
         12    1    1    2    0    0 -0.28368555001E+02  0.51047604655E+01  0.32446721334E+02  0.43400728307E+02  0.00000000000E+00 0. -1.
         11    1    3    3    0    0  0.67946063472E+01 -0.97349131920E-01 -0.15535134171E+02  0.16956312872E+02  0.51100000000E-03 0.  1.
        -11    1    3    3    0    0  0.75652039766E+00 -0.49030838902E+01 -0.32570747415E+01  0.59347359570E+01  0.51100000000E-03 0. -1.
         12    1    3    3    0    0  0.20817428256E+02 -0.10432744334E+00 -0.13654512422E+02  0.24896222864E+02  0.00000000000E+00 0. -1.
</event>
<event>
 7    1  0.2459936E-009  0.4778727E+02  0.7816164E-02  0.1312668E+00
        -11   -1    0    0    0    0  0.00000000000E+00  0.00000000000E+00  0.45593999997E+02  0.45594000000E+02  0.51100000000E-03 0.  1.
         11   -1    0    0    0    0 -0.00000000000E+00 -0.00000000000E+00 -0.45593999997E+02  0.45594000000E+02  0.51100000000E-03 0. -1.
    9900012    2    1    2    0    0 -0.23721779159E+02  0.66732921399E+00  0.36338067869E+02  0.47787270615E+02  0.19999998040E+02 0.  0.
         12    1    1    2    0    0  0.23721779159E+02 -0.66732921399E+00 -0.36338067869E+02  0.43400729385E+02  0.00000000000E+00 0. -1.
         11    1    3    3    0    0 -0.10421151734E+02  0.36820927549E+01  0.13861177025E+02  0.17728238471E+02  0.51100000000E-03 0. -1.
        -11    1    3    3    0    0 -0.12457675308E+02  0.23513375962E+01  0.20826985029E+02  0.24382078833E+02  0.51100000000E-03 0.  1.
         12    1    3    3    0    0 -0.84295211724E+00 -0.53661011371E+01  0.16499058144E+01  0.56769533098E+01  0.00000000000E+00 0. -1.
</event>
<event>
 7    1  0.2459936E-009  0.4778727E+02  0.7816164E-02  0.1312668E+00
        -11   -1    0    0    0    0  0.00000000000E+00  0.00000000000E+00  0.45593999997E+02  0.45594000000E+02  0.51100000000E-03 0. -1.
         11   -1    0    0    0    0 -0.00000000000E+00 -0.00000000000E+00 -0.45593999997E+02  0.45594000000E+02  0.51100000000E-03 0.  1.
    9900012    2    1    2    0    0 -0.34598929137E+02  0.18667874015E+02 -0.18386071648E+02  0.47787273643E+02  0.20000011846E+02 0.  0.
         12    1    1    2    0    0  0.34598929137E+02 -0.18667874015E+02  0.18386071648E+02  0.43400726357E+02  0.00000000000E+00 0. -1.
         11    1    3    3    0    0 -0.53808179415E+01 -0.18165906519E+01 -0.40441948989E+01  0.69719951203E+01  0.51100000000E-03 0. -1.
        -11    1    3    3    0    0 -0.14246943554E+02  0.25184754855E+01 -0.82250267478E+01  0.16642391194E+02  0.51100000000E-03 0.  1.
         12    1    3    3    0    0 -0.14971167642E+02  0.17965989182E+02 -0.61168500013E+01  0.24172887328E+02  0.00000000000E+00 0. -1.
</event>
<event>
 7    1  0.2459936E-009  0.4778727E+02  0.7816164E-02  0.1312668E+00
        -11   -1    0    0    0    0  0.00000000000E+00  0.00000000000E+00  0.45593999997E+02  0.45594000000E+02  0.51100000000E-03 0.  1.
         11   -1    0    0    0    0 -0.00000000000E+00 -0.00000000000E+00 -0.45593999997E+02  0.45594000000E+02  0.51100000000E-03 0. -1.
    9900012    2    1    2    0    0  0.50524250799E+01  0.40687459592E+02  0.14234720006E+02  0.47787267046E+02  0.19999981772E+02 0.  0.
         12    1    1    2    0    0 -0.50524250799E+01 -0.40687459592E+02 -0.14234720006E+02  0.43400732954E+02  0.00000000000E+00 0. -1.
         11    1    3    3    0    0 -0.38662860161E+01  0.13199486856E+02  0.97005356473E+01  0.16830775767E+02  0.51100000000E-03 0. -1.
        -11    1    3    3    0    0  0.12825531891E+01  0.17300277960E+02  0.54715685594E+01  0.18190179299E+02  0.51100000000E-03 0.  1.
        -12    1    3    3    0    0  0.76361579070E+01  0.10187694776E+02 -0.93738420088E+00  0.12766311980E+02  0.00000000000E+00 0.  1.
</event>
<event>
 7    1  0.2459936E-009  0.4778727E+02  0.7816164E-02  0.1312668E+00
        -11   -1    0    0    0    0  0.00000000000E+00  0.00000000000E+00  0.45593999997E+02  0.45594000000E+02  0.51100000000E-03 0.  1.
         11   -1    0    0    0    0 -0.00000000000E+00 -0.00000000000E+00 -0.45593999997E+02  0.45594000000E+02  0.51100000000E-03 0. -1.
    9900012    2    1    2    0    0  0.35497492174E+02  0.23573154750E+02 -0.82375965874E+01  0.47787267598E+02  0.19999984287E+02 0.  0.
         12    1    1    2    0    0 -0.35497492174E+02 -0.23573154750E+02  0.82375965874E+01  0.43400732402E+02  0.00000000000E+00 0. -1.
         11    1    3    3    0    0  0.19784063736E+01  0.58098707138E+01  0.42253338318E+01  0.74513177185E+01  0.51100000000E-03 0. -1.
        -11    1    3    3    0    0  0.11692580775E+02  0.51389980493E+01 -0.15665369460E+01  0.12867780865E+02  0.51100000000E-03 0.  1.
        -12    1    3    3    0    0  0.21826505025E+02  0.12624285986E+02 -0.10896393473E+02  0.27468169014E+02  0.00000000000E+00 0.  1.
</event>
<event>
 7    1  0.2459936E-009  0.4778727E+02  0.7816164E-02  0.1312668E+00
        -11   -1    0    0    0    0  0.00000000000E+00  0.00000000000E+00  0.45593999997E+02  0.45594000000E+02  0.51100000000E-03 0. -1.
         11   -1    0    0    0    0 -0.00000000000E+00 -0.00000000000E+00 -0.45593999997E+02  0.45594000000E+02  0.51100000000E-03 0.  1.
    9900012    2    1    2    0    0  0.10027036546E+02  0.39582668133E+02 -0.14706948860E+02  0.47787269325E+02  0.19999992159E+02 0.  0.
         12    1    1    2    0    0 -0.10027036546E+02 -0.39582668133E+02  0.14706948860E+02  0.43400730675E+02  0.00000000000E+00 0. -1.
         11    1    3    3    0    0 -0.33244284857E+01  0.12182531496E+02 -0.25402574842E+01  0.12880947433E+02  0.51100000000E-03 0. -1.
        -11    1    3    3    0    0  0.66646791514E+01  0.12736674747E+02  0.53734391583E+00  0.14385046769E+02  0.51100000000E-03 0.  1.
        -12    1    3    3    0    0  0.66867858806E+01  0.14663461889E+02 -0.12704035291E+02  0.20521275123E+02  0.00000000000E+00 0.  1.
</event>
<event>
 7    1  0.2459936E-009  0.4778727E+02  0.7816164E-02  0.1312668E+00
        -11   -1    0    0    0    0  0.00000000000E+00  0.00000000000E+00  0.45593999997E+02  0.45594000000E+02  0.51100000000E-03 0. -1.
         11   -1    0    0    0    0 -0.00000000000E+00 -0.00000000000E+00 -0.45593999997E+02  0.45594000000E+02  0.51100000000E-03 0.  1.
    9900012    2    1    2    0    0 -0.34237165475E+02  0.20053399825E+02 -0.17586965453E+02  0.47787266156E+02  0.19999977712E+02 0.  0.
         12    1    1    2    0    0  0.34237165475E+02 -0.20053399825E+02  0.17586965453E+02  0.43400733844E+02  0.00000000000E+00 0. -1.
         11    1    3    3    0    0 -0.64364000263E+01  0.28905053969E+01 -0.10298089808E+02  0.12483305680E+02  0.51100000000E-03 0. -1.
        -11    1    3    3    0    0 -0.72718404381E+01  0.11178609971E+01 -0.55027922479E+01  0.91874914613E+01  0.51100000000E-03 0.  1.
        -12    1    3    3    0    0 -0.20528925011E+02  0.16045033431E+02 -0.17860833976E+01  0.26116469015E+02  0.00000000000E+00 0.  1.
</event>
<event>
 7    1  0.2459936E-009  0.4778727E+02  0.7816164E-02  0.1312668E+00
        -11   -1    0    0    0    0  0.00000000000E+00  0.00000000000E+00  0.45593999997E+02  0.45594000000E+02  0.51100000000E-03 0.  1.
         11   -1    0    0    0    0 -0.00000000000E+00 -0.00000000000E+00 -0.45593999997E+02  0.45594000000E+02  0.51100000000E-03 0. -1.
    9900012    2    1    2    0    0  0.49998771980E+01  0.23484918757E+02  0.36153599572E+02  0.47787274856E+02  0.20000017379E+02 0.  0.
         12    1    1    2    0    0 -0.49998771980E+01 -0.23484918757E+02 -0.36153599572E+02  0.43400725144E+02  0.00000000000E+00 0. -1.
         11    1    3    3    0    0  0.37732312225E+01  0.12688053672E+02  0.71639851881E+01  0.15051467167E+02  0.51100000000E-03 0. -1.
        -11    1    3    3    0    0 -0.47485818167E+00 -0.15706323197E+01  0.64372356157E+00  0.17625993479E+01  0.51100000000E-03 0.  1.
        -12    1    3    3    0    0  0.17015041572E+01  0.12367497405E+02  0.28345890822E+02  0.30973208341E+02  0.00000000000E+00 0.  1.
</event>
<event>
 7    1  0.2459936E-009  0.4778728E+02  0.7816164E-02  0.1312668E+00
        -11   -1    0    0    0    0  0.00000000000E+00  0.00000000000E+00  0.45593999997E+02  0.45594000000E+02  0.51100000000E-03 0. -1.
         11   -1    0    0    0    0 -0.00000000000E+00 -0.00000000000E+00 -0.45593999997E+02  0.45594000000E+02  0.51100000000E-03 0.  1.
    9900012    2    1    2    0    0 -0.22002239045E+02  0.24067164506E+02 -0.28640809934E+02  0.47787275075E+02  0.20000018376E+02 0.  0.
         12    1    1    2    0    0  0.22002239045E+02 -0.24067164506E+02  0.28640809934E+02  0.43400724925E+02  0.00000000000E+00 0. -1.
         11    1    3    3    0    0 -0.39922413366E+01 -0.93421875954E+00 -0.44621249401E+01  0.60598114511E+01  0.51100000000E-03 0. -1.
        -11    1    3    3    0    0 -0.58121791871E+01  0.14534393790E+02 -0.19463230062E+02  0.24976936450E+02  0.51100000000E-03 0.  1.
         12    1    3    3    0    0 -0.12197818522E+02  0.10466989476E+02 -0.47154549322E+01  0.16750527173E+02  0.00000000000E+00 0. -1.
</event>
<event>
 7    1  0.2459936E-009  0.4778728E+02  0.7816164E-02  0.1312668E+00
        -11   -1    0    0    0    0  0.00000000000E+00  0.00000000000E+00  0.45593999997E+02  0.45594000000E+02  0.51100000000E-03 0.  1.
         11   -1    0    0    0    0 -0.00000000000E+00 -0.00000000000E+00 -0.45593999997E+02  0.45594000000E+02  0.51100000000E-03 0. -1.
    9900012    2    1    2    0    0 -0.91450219614E+01 -0.39233341195E+02  0.16147330570E+02  0.47787276820E+02  0.20000026332E+02 0.  0.
         12    1    1    2    0    0  0.91450219614E+01  0.39233341195E+02 -0.16147330570E+02  0.43400723180E+02  0.00000000000E+00 0. -1.
         11    1    3    3    0    0  0.27300326847E+00 -0.37838942143E+01  0.39679376964E+01  0.54897100136E+01  0.51100000000E-03 0. -1.
        -11    1    3    3    0    0  0.26854886064E+01 -0.22910335905E+02  0.74308287804E+01  0.24234532324E+02  0.51100000000E-03 0.  1.
         12    1    3    3    0    0 -0.12103513836E+02 -0.12539111076E+02  0.47485640931E+01  0.18063034482E+02  0.00000000000E+00 0. -1.
</event>
<event>
 7    1  0.2459936E-009  0.4778727E+02  0.7816164E-02  0.1312668E+00
        -11   -1    0    0    0    0  0.00000000000E+00  0.00000000000E+00  0.45593999997E+02  0.45594000000E+02  0.51100000000E-03 0. -1.
         11   -1    0    0    0    0 -0.00000000000E+00 -0.00000000000E+00 -0.45593999997E+02  0.45594000000E+02  0.51100000000E-03 0.  1.
    9900012    2    1    2    0    0  0.15354116922E+02 -0.37111916969E+02 -0.16449329870E+02  0.47787265666E+02  0.19999975477E+02 0.  0.
         12    1    1    2    0    0 -0.15354116922E+02  0.37111916969E+02  0.16449329870E+02  0.43400734334E+02  0.00000000000E+00 0. -1.
         11    1    3    3    0    0  0.14732347753E+02 -0.22656211162E+02 -0.16935026158E+02  0.31892649400E+02  0.51100000000E-03 0.  1.
        -11    1    3    3    0    0  0.27378883247E+01 -0.24688970247E+01 -0.28795723448E+00  0.36978919166E+01  0.51100000000E-03 0. -1.
        -12    1    3    3    0    0 -0.21161191560E+01 -0.11986808782E+02  0.77365352293E+00  0.12196724349E+02  0.00000000000E+00 0.  1.
</event>
<event>
 7    1  0.2459936E-009  0.4778727E+02  0.7816164E-02  0.1312668E+00
        -11   -1    0    0    0    0  0.00000000000E+00  0.00000000000E+00  0.45593999997E+02  0.45594000000E+02  0.51100000000E-03 0. -1.
         11   -1    0    0    0    0 -0.00000000000E+00 -0.00000000000E+00 -0.45593999997E+02  0.45594000000E+02  0.51100000000E-03 0.  1.
    9900012    2    1    2    0    0 -0.26291780189E+02  0.22049117889E+02 -0.26574461187E+02  0.47787270829E+02  0.19999999018E+02 0.  0.
         12    1    1    2    0    0  0.26291780189E+02 -0.22049117889E+02  0.26574461187E+02  0.43400729171E+02  0.00000000000E+00 0. -1.
         11    1    3    3    0    0 -0.14043953277E+02  0.56160877292E+01 -0.47013659172E+01  0.15839062686E+02  0.51100000000E-03 0. -1.
        -11    1    3    3    0    0 -0.26418622749E+00  0.56946461189E+01 -0.13308331429E+01  0.58540503839E+01  0.51100000000E-03 0.  1.
        -12    1    3    3    0    0 -0.11983640685E+02  0.10738384041E+02 -0.20542262127E+02  0.26094157759E+02  0.00000000000E+00 0.  1.
</event>
<event>
 7    1  0.2459936E-009  0.4778728E+02  0.7816164E-02  0.1312668E+00
        -11   -1    0    0    0    0  0.00000000000E+00  0.00000000000E+00  0.45593999997E+02  0.45594000000E+02  0.51100000000E-03 0.  1.
         11   -1    0    0    0    0 -0.00000000000E+00 -0.00000000000E+00 -0.45593999997E+02  0.45594000000E+02  0.51100000000E-03 0. -1.
    9900012    2    1    2    0    0  0.21058300733E+02 -0.13799725929E+02  0.35351638801E+02  0.47787276143E+02  0.20000023245E+02 0.  0.
         12    1    1    2    0    0 -0.21058300733E+02  0.13799725929E+02 -0.35351638801E+02  0.43400723857E+02  0.00000000000E+00 0. -1.
         11    1    3    3    0    0  0.68924976090E+00 -0.54411201633E+01  0.58850291579E+01  0.80445274762E+01  0.51100000000E-03 0. -1.
        -11    1    3    3    0    0  0.14753418827E+01  0.15912148150E+01  0.11888238931E+02  0.12084652391E+02  0.51100000000E-03 0.  1.
        -12    1    3    3    0    0  0.18893709089E+02 -0.99498205802E+01  0.17578370712E+02  0.27658096276E+02  0.00000000000E+00 0.  1.
</event>
<event>
 7    1  0.2459936E-009  0.4778727E+02  0.7816164E-02  0.1312668E+00
        -11   -1    0    0    0    0  0.00000000000E+00  0.00000000000E+00  0.45593999997E+02  0.45594000000E+02  0.51100000000E-03 0. -1.
         11   -1    0    0    0    0 -0.00000000000E+00 -0.00000000000E+00 -0.45593999997E+02  0.45594000000E+02  0.51100000000E-03 0.  1.
    9900012    2    1    2    0    0 -0.14310466672E+02 -0.21015185731E+02 -0.35173792100E+02  0.47787272605E+02  0.20000007117E+02 0.  0.
         12    1    1    2    0    0  0.14310466672E+02  0.21015185731E+02  0.35173792100E+02  0.43400727395E+02  0.00000000000E+00 0. -1.
         11    1    3    3    0    0 -0.17178989657E+01 -0.92338472252E+00  0.24376725789E+00  0.19655123859E+01  0.51100000000E-03 0.  1.
        -11    1    3    3    0    0  0.74761519114E+00 -0.36314499370E+01 -0.18047109248E+02  0.18424019909E+02  0.51100000000E-03 0. -1.
        -12    1    3    3    0    0 -0.13340182897E+02 -0.16460351071E+02 -0.17370450110E+02  0.27397740311E+02  0.00000000000E+00 0.  1.
</event>
<event>
 7    1  0.2459936E-009  0.4778727E+02  0.7816164E-02  0.1312668E+00
        -11   -1    0    0    0    0  0.00000000000E+00  0.00000000000E+00  0.45593999997E+02  0.45594000000E+02  0.51100000000E-03 0.  1.
         11   -1    0    0    0    0 -0.00000000000E+00 -0.00000000000E+00 -0.45593999997E+02  0.45594000000E+02  0.51100000000E-03 0. -1.
    9900012    2    1    2    0    0  0.14998374805E+02 -0.40718663159E+02 -0.81395990524E+00  0.47787270664E+02  0.19999998263E+02 0.  0.
         12    1    1    2    0    0 -0.14998374805E+02  0.40718663159E+02  0.81395990524E+00  0.43400729336E+02  0.00000000000E+00 0. -1.
         11    1    3    3    0    0  0.14108639174E+01 -0.37460670963E+01 -0.19226572294E+01  0.44407394391E+01  0.51100000000E-03 0. -1.
        -11    1    3    3    0    0  0.17838117110E+02 -0.28827054329E+02  0.27578109746E+01  0.34011806846E+02  0.51100000000E-03 0.  1.
        -12    1    3    3    0    0 -0.42506062223E+01 -0.81455417331E+01 -0.16491136505E+01  0.93347243781E+01  0.00000000000E+00 0.  1.
</event>
<event>
 7    1  0.2459936E-009  0.4778727E+02  0.7816164E-02  0.1312668E+00
        -11   -1    0    0    0    0  0.00000000000E+00  0.00000000000E+00  0.45593999997E+02  0.45594000000E+02  0.51100000000E-03 0. -1.
         11   -1    0    0    0    0 -0.00000000000E+00 -0.00000000000E+00 -0.45593999997E+02  0.45594000000E+02  0.51100000000E-03 0.  1.
    9900012    2    1    2    0    0  0.35717477998E+02 -0.24640776947E+02  0.84690293897E+00  0.47787269964E+02  0.19999995074E+02 0.  0.
         12    1    1    2    0    0 -0.35717477998E+02  0.24640776947E+02 -0.84690293897E+00  0.43400730036E+02  0.00000000000E+00 0. -1.
         11    1    3    3    0    0  0.19688083622E+01  0.33213592378E+00 -0.31330582278E+01  0.37151816589E+01  0.51100000000E-03 0. -1.
        -11    1    3    3    0    0  0.94325936242E+00 -0.27968602542E+00 -0.23305091498E+01  0.25296710569E+01  0.51100000000E-03 0.  1.
        -12    1    3    3    0    0  0.32805410273E+02 -0.24693226845E+02  0.63104703166E+01  0.41542417248E+02  0.00000000000E+00 0.  1.
</event>
<event>
 7    1  0.2459936E-009  0.4778727E+02  0.7816164E-02  0.1312668E+00
        -11   -1    0    0    0    0  0.00000000000E+00  0.00000000000E+00  0.45593999997E+02  0.45594000000E+02  0.51100000000E-03 0.  1.
         11   -1    0    0    0    0 -0.00000000000E+00 -0.00000000000E+00 -0.45593999997E+02  0.45594000000E+02  0.51100000000E-03 0. -1.
    9900012    2    1    2    0    0 -0.18464395149E+02 -0.18661161565E+01  0.39232725354E+02  0.47787274011E+02  0.20000013524E+02 0.  0.
         12    1    1    2    0    0  0.18464395149E+02  0.18661161565E+01 -0.39232725354E+02  0.43400725989E+02  0.00000000000E+00 0. -1.
         11    1    3    3    0    0 -0.26154810808E+01 -0.48834575452E+01  0.68992252282E+01  0.88480623805E+01  0.51100000000E-03 0. -1.
        -11    1    3    3    0    0 -0.98095690712E+00 -0.46718605950E+01  0.52075214432E+01  0.70644771721E+01  0.51100000000E-03 0.  1.
        -12    1    3    3    0    0 -0.14867957161E+02  0.76892019836E+01  0.27125978682E+02  0.31874734458E+02  0.00000000000E+00 0.  1.
</event>
<event>
 7    1  0.2459936E-009  0.4778727E+02  0.7816164E-02  0.1312668E+00
        -11   -1    0    0    0    0  0.00000000000E+00  0.00000000000E+00  0.45593999997E+02  0.45594000000E+02  0.51100000000E-03 0.  1.
         11   -1    0    0    0    0 -0.00000000000E+00 -0.00000000000E+00 -0.45593999997E+02  0.45594000000E+02  0.51100000000E-03 0. -1.
    9900012    2    1    2    0    0  0.23061380154E+02 -0.36765316568E+02  0.32808720528E+00  0.47787269612E+02  0.19999993471E+02 0.  0.
         12    1    1    2    0    0 -0.23061380154E+02  0.36765316568E+02 -0.32808720528E+00  0.43400730388E+02  0.00000000000E+00 0. -1.
         11    1    3    3    0    0  0.46768491893E+01 -0.35707842834E+01 -0.62035207873E+01  0.85502683676E+01  0.51100000000E-03 0. -1.
        -11    1    3    3    0    0  0.13879381654E+01 -0.65136346743E+01 -0.95632682338E+00  0.67281773368E+01  0.51100000000E-03 0.  1.
        -12    1    3    3    0    0  0.16996592799E+02 -0.26680897611E+02  0.74879348160E+01  0.32508823908E+02  0.00000000000E+00 0.  1.
</event>
<event>
 7    1  0.2459936E-009  0.4778728E+02  0.7816164E-02  0.1312668E+00
        -11   -1    0    0    0    0  0.00000000000E+00  0.00000000000E+00  0.45593999997E+02  0.45594000000E+02  0.51100000000E-03 0.  1.
         11   -1    0    0    0    0 -0.00000000000E+00 -0.00000000000E+00 -0.45593999997E+02  0.45594000000E+02  0.51100000000E-03 0. -1.
    9900012    2    1    2    0    0 -0.24712235719E+02  0.21212878474E+01  0.35615001381E+02  0.47787276737E+02  0.20000025954E+02 0.  0.
         12    1    1    2    0    0  0.24712235719E+02 -0.21212878474E+01 -0.35615001381E+02  0.43400723263E+02  0.00000000000E+00 0. -1.
         11    1    3    3    0    0 -0.15260600161E+02 -0.39956762825E+01  0.14772936474E+02  0.21612288138E+02  0.51100000000E-03 0. -1.
        -11    1    3    3    0    0 -0.88213062445E+01  0.20807488128E+01  0.20064422519E+02  0.22016494062E+02  0.51100000000E-03 0.  1.
        -12    1    3    3    0    0 -0.63032931343E+00  0.40362153171E+01  0.77764238774E+00  0.41584945368E+01  0.00000000000E+00 0.  1.
</event>
<event>
 7    1  0.2459936E-009  0.4778726E+02  0.7816164E-02  0.1312668E+00
        -11   -1    0    0    0    0  0.00000000000E+00  0.00000000000E+00  0.45593999997E+02  0.45594000000E+02  0.51100000000E-03 0. -1.
         11   -1    0    0    0    0 -0.00000000000E+00 -0.00000000000E+00 -0.45593999997E+02  0.45594000000E+02  0.51100000000E-03 0.  1.
    9900012    2    1    2    0    0  0.24751287759E+02 -0.35270906988E+02 -0.51923725652E+01  0.47787264311E+02  0.19999969299E+02 0.  0.
         12    1    1    2    0    0 -0.24751287759E+02  0.35270906988E+02  0.51923725652E+01  0.43400735689E+02  0.00000000000E+00 0. -1.
         11    1    3    3    0    0  0.13637619059E+02 -0.12876030266E+02 -0.49267103433E+01  0.19391990204E+02  0.51100000000E-03 0. -1.
        -11    1    3    3    0    0  0.91567835036E+01 -0.65389497308E+01 -0.40822163965E+01  0.11969504529E+02  0.51100000000E-03 0.  1.
         12    1    3    3    0    0  0.19568851963E+01 -0.15855926991E+02  0.38165541746E+01  0.16425769577E+02  0.00000000000E+00 0. -1.
</event>
<event>
 7    1  0.2459936E-009  0.4778727E+02  0.7816164E-02  0.1312668E+00
        -11   -1    0    0    0    0  0.00000000000E+00  0.00000000000E+00  0.45593999997E+02  0.45594000000E+02  0.51100000000E-03 0.  1.
         11   -1    0    0    0    0 -0.00000000000E+00 -0.00000000000E+00 -0.45593999997E+02  0.45594000000E+02  0.51100000000E-03 0. -1.
    9900012    2    1    2    0    0  0.17588126580E+02 -0.31672853090E+02  0.23897941495E+02  0.47787269278E+02  0.19999991947E+02 0.  0.
         12    1    1    2    0    0 -0.17588126580E+02  0.31672853090E+02 -0.23897941495E+02  0.43400730722E+02  0.00000000000E+00 0. -1.
         11    1    3    3    0    0  0.83521341473E+01 -0.62355765318E+01  0.19414364030E+01  0.10602345734E+02  0.51100000000E-03 0. -1.
        -11    1    3    3    0    0  0.95859034683E+01 -0.12583121598E+02  0.65596598319E+01  0.17124649831E+02  0.51100000000E-03 0.  1.
        -12    1    3    3    0    0 -0.34991103557E+00 -0.12854154960E+02  0.15396845261E+02  0.20060273713E+02  0.00000000000E+00 0.  1.
</event>
<event>
 7    1  0.2459936E-009  0.4778726E+02  0.7816164E-02  0.1312668E+00
        -11   -1    0    0    0    0  0.00000000000E+00  0.00000000000E+00  0.45593999997E+02  0.45594000000E+02  0.51100000000E-03 0.  1.
         11   -1    0    0    0    0 -0.00000000000E+00 -0.00000000000E+00 -0.45593999997E+02  0.45594000000E+02  0.51100000000E-03 0. -1.
    9900012    2    1    2    0    0 -0.15872006702E+02  0.12834947651E+02  0.38301019166E+02  0.47787256376E+02  0.19999933121E+02 0.  0.
         12    1    1    2    0    0  0.15872006702E+02 -0.12834947651E+02 -0.38301019166E+02  0.43400743624E+02  0.00000000000E+00 0. -1.
         11    1    3    3    0    0 -0.23924872297E+01  0.78241188877E+01  0.12022416752E+02  0.14542329124E+02  0.51100000000E-03 0.  1.
        -11    1    3    3    0    0  0.25998566839E+01  0.12637558330E+01  0.85204967342E+01  0.89975106802E+01  0.51100000000E-03 0. -1.
        -12    1    3    3    0    0 -0.16079376156E+02  0.37470729307E+01  0.17758105679E+02  0.24247416572E+02  0.00000000000E+00 0.  1.
</event>
<event>
 7    1  0.2459936E-009  0.4778727E+02  0.7816164E-02  0.1312668E+00
        -11   -1    0    0    0    0  0.00000000000E+00  0.00000000000E+00  0.45593999997E+02  0.45594000000E+02  0.51100000000E-03 0.  1.
         11   -1    0    0    0    0 -0.00000000000E+00 -0.00000000000E+00 -0.45593999997E+02  0.45594000000E+02  0.51100000000E-03 0. -1.
    9900012    2    1    2    0    0 -0.18103148479E+02 -0.16372615014E+02  0.35886445479E+02  0.47787268712E+02  0.19999989365E+02 0.  0.
         12    1    1    2    0    0  0.18103148479E+02  0.16372615014E+02 -0.35886445479E+02  0.43400731288E+02  0.00000000000E+00 0. -1.
         11    1    3    3    0    0 -0.90169606792E+01 -0.12072426030E+02  0.18697045864E+02  0.24013091730E+02  0.51100000000E-03 0. -1.
        -11    1    3    3    0    0 -0.95591776990E+00 -0.24023196756E+01  0.14892313392E+02  0.15115089051E+02  0.51100000000E-03 0.  1.
         12    1    3    3    0    0 -0.81302700302E+01 -0.18978693082E+01  0.22970862233E+01  0.86590879307E+01  0.00000000000E+00 0. -1.
</event>
<event>
 7    1  0.2459936E-009  0.4778727E+02  0.7816164E-02  0.1312668E+00
        -11   -1    0    0    0    0  0.00000000000E+00  0.00000000000E+00  0.45593999997E+02  0.45594000000E+02  0.51100000000E-03 0.  1.
         11   -1    0    0    0    0 -0.00000000000E+00 -0.00000000000E+00 -0.45593999997E+02  0.45594000000E+02  0.51100000000E-03 0. -1.
    9900012    2    1    2    0    0  0.23333843591E+02 -0.78730392252E+01  0.35737524873E+02  0.47787266280E+02  0.19999978277E+02 0.  0.
         12    1    1    2    0    0 -0.23333843591E+02  0.78730392252E+01 -0.35737524873E+02  0.43400733720E+02  0.00000000000E+00 0. -1.
         11    1    3    3    0    0 -0.29980417394E+00 -0.39897601063E+01  0.53613558299E+01  0.66897088759E+01  0.51100000000E-03 0. -1.
        -11    1    3    3    0    0  0.38767169742E+01 -0.54851658671E+01  0.13443435637E+02  0.15028038497E+02  0.51100000000E-03 0.  1.
         12    1    3    3    0    0  0.19756930791E+02  0.16018867481E+01  0.16932733407E+02  0.26069518907E+02  0.00000000000E+00 0. -1.
</event>
<event>
 7    1  0.2459936E-009  0.4778727E+02  0.7816164E-02  0.1312668E+00
        -11   -1    0    0    0    0  0.00000000000E+00  0.00000000000E+00  0.45593999997E+02  0.45594000000E+02  0.51100000000E-03 0. -1.
         11   -1    0    0    0    0 -0.00000000000E+00 -0.00000000000E+00 -0.45593999997E+02  0.45594000000E+02  0.51100000000E-03 0.  1.
    9900012    2    1    2    0    0  0.30138890495E+02  0.28975547754E+02  0.11648535036E+02  0.47787268941E+02  0.19999990411E+02 0.  0.
         12    1    1    2    0    0 -0.30138890495E+02 -0.28975547754E+02 -0.11648535036E+02  0.43400731059E+02  0.00000000000E+00 0. -1.
         11    1    3    3    0    0  0.20986279869E+01  0.50472124084E+01  0.75470891945E+01  0.93186451856E+01  0.51100000000E-03 0. -1.
        -11    1    3    3    0    0  0.32582585469E+01  0.33177828580E+01  0.41548890437E+01  0.62359470073E+01  0.51100000000E-03 0.  1.
        -12    1    3    3    0    0  0.24782003961E+02  0.20610552488E+02 -0.53443201946E-01  0.32232676748E+02  0.00000000000E+00 0.  1.
</event>
<event>
 7    1  0.2459936E-009  0.4778727E+02  0.7816164E-02  0.1312668E+00
        -11   -1    0    0    0    0  0.00000000000E+00  0.00000000000E+00  0.45593999997E+02  0.45594000000E+02  0.51100000000E-03 0.  1.
         11   -1    0    0    0    0 -0.00000000000E+00 -0.00000000000E+00 -0.45593999997E+02  0.45594000000E+02  0.51100000000E-03 0. -1.
    9900012    2    1    2    0    0  0.20318169818E+02  0.25138700107E+01  0.38268467959E+02  0.47787271813E+02  0.20000003506E+02 0.  0.
         12    1    1    2    0    0 -0.20318169818E+02 -0.25138700107E+01 -0.38268467959E+02  0.43400728187E+02  0.00000000000E+00 0. -1.
         11    1    3    3    0    0  0.12350426270E+02 -0.23707624703E+01  0.18170718148E+02  0.22098156982E+02  0.51100000000E-03 0. -1.
        -11    1    3    3    0    0  0.10807607775E+02  0.16293721244E+01  0.10464437602E+02  0.15131546317E+02  0.51100000000E-03 0.  1.
         12    1    3    3    0    0 -0.28398642272E+01  0.32552603566E+01  0.96333122090E+01  0.10557568514E+02  0.00000000000E+00 0. -1.
</event>
<event>
 7    1  0.2459936E-009  0.4778726E+02  0.7816164E-02  0.1312668E+00
        -11   -1    0    0    0    0  0.00000000000E+00  0.00000000000E+00  0.45593999997E+02  0.45594000000E+02  0.51100000000E-03 0. -1.
         11   -1    0    0    0    0 -0.00000000000E+00 -0.00000000000E+00 -0.45593999997E+02  0.45594000000E+02  0.51100000000E-03 0.  1.
    9900012    2    1    2    0    0  0.23003211237E+01  0.35910865084E+02 -0.24264010521E+02  0.47787263659E+02  0.19999966328E+02 0.  0.
         12    1    1    2    0    0 -0.23003211237E+01 -0.35910865084E+02  0.24264010521E+02  0.43400736341E+02  0.00000000000E+00 0. -1.
         11    1    3    3    0    0 -0.35665401211E+01  0.65641904249E+01 -0.24040663010E+00  0.74743962952E+01  0.51100000000E-03 0. -1.
        -11    1    3    3    0    0 -0.42506373518E+00  0.24028635618E+02 -0.19249428723E+02  0.30791175932E+02  0.51100000000E-03 0.  1.
         12    1    3    3    0    0  0.62919249799E+01  0.53180390415E+01 -0.47741751676E+01  0.95216914323E+01  0.00000000000E+00 0. -1.
</event>
<event>
 7    1  0.2459936E-009  0.4778727E+02  0.7816164E-02  0.1312668E+00
        -11   -1    0    0    0    0  0.00000000000E+00  0.00000000000E+00  0.45593999997E+02  0.45594000000E+02  0.51100000000E-03 0.  1.
         11   -1    0    0    0    0 -0.00000000000E+00 -0.00000000000E+00 -0.45593999997E+02  0.45594000000E+02  0.51100000000E-03 0. -1.
    9900012    2    1    2    0    0 -0.13352562505E+02  0.41254866294E+02 -0.18352918246E+01  0.47787271729E+02  0.20000003120E+02 0.  0.
         12    1    1    2    0    0  0.13352562505E+02 -0.41254866294E+02  0.18352918246E+01  0.43400728271E+02  0.00000000000E+00 0. -1.
         11    1    3    3    0    0 -0.17707937082E+01  0.13494735259E+01 -0.32575651098E+01  0.39456963720E+01  0.51100000000E-03 0. -1.
        -11    1    3    3    0    0 -0.54650242096E+01  0.27565619018E+01 -0.51664554017E+00  0.61426416146E+01  0.51100000000E-03 0.  1.
        -12    1    3    3    0    0 -0.61167445868E+01  0.37148830866E+02  0.19389188254E+01  0.37698933742E+02  0.00000000000E+00 0.  1.
</event>
<event>
 7    1  0.2459936E-009  0.4778727E+02  0.7816164E-02  0.1312668E+00
        -11   -1    0    0    0    0  0.00000000000E+00  0.00000000000E+00  0.45593999997E+02  0.45594000000E+02  0.51100000000E-03 0. -1.
         11   -1    0    0    0    0 -0.00000000000E+00 -0.00000000000E+00 -0.45593999997E+02  0.45594000000E+02  0.51100000000E-03 0.  1.
    9900012    2    1    2    0    0  0.32810719939E+02 -0.22829299400E+02 -0.16908664303E+02  0.47787272097E+02  0.20000004800E+02 0.  0.
         12    1    1    2    0    0 -0.32810719939E+02  0.22829299400E+02  0.16908664303E+02  0.43400727903E+02  0.00000000000E+00 0. -1.
         11    1    3    3    0    0  0.19861455717E+02 -0.15213439750E+02 -0.80303060548E+01  0.26275691957E+02  0.51100000000E-03 0. -1.
        -11    1    3    3    0    0  0.15160443622E+02 -0.58535938653E+01 -0.91853058489E+01  0.18667443740E+02  0.51100000000E-03 0.  1.
         12    1    3    3    0    0 -0.22111794007E+01 -0.17622657843E+01  0.30694760046E+00  0.28441364007E+01  0.00000000000E+00 0. -1.
</event>
<event>
 7    1  0.2459936E-009  0.4778727E+02  0.7816164E-02  0.1312668E+00
        -11   -1    0    0    0    0  0.00000000000E+00  0.00000000000E+00  0.45593999997E+02  0.45594000000E+02  0.51100000000E-03 0.  1.
         11   -1    0    0    0    0 -0.00000000000E+00 -0.00000000000E+00 -0.45593999997E+02  0.45594000000E+02  0.51100000000E-03 0. -1.
    9900012    2    1    2    0    0  0.41816042106E+02 -0.61093038259E+01  0.98852539994E+01  0.47787271696E+02  0.20000002972E+02 0.  0.
         12    1    1    2    0    0 -0.41816042106E+02  0.61093038259E+01 -0.98852539994E+01  0.43400728304E+02  0.00000000000E+00 0. -1.
         11    1    3    3    0    0  0.27384009672E+02 -0.26723540221E+01 -0.17205455816E+01  0.27567838855E+02  0.51100000000E-03 0. -1.
        -11    1    3    3    0    0  0.20723192574E+01 -0.28552862499E+01  0.44470018986E+00  0.35559703589E+01  0.51100000000E-03 0.  1.
        -12    1    3    3    0    0  0.12359713176E+02 -0.58166355383E+00  0.11161099391E+02  0.16663462483E+02  0.00000000000E+00 0.  1.
</event>
<event>
 7    1  0.2459936E-009  0.4778726E+02  0.7816164E-02  0.1312668E+00
        -11   -1    0    0    0    0  0.00000000000E+00  0.00000000000E+00  0.45593999997E+02  0.45594000000E+02  0.51100000000E-03 0.  1.
         11   -1    0    0    0    0 -0.00000000000E+00 -0.00000000000E+00 -0.45593999997E+02  0.45594000000E+02  0.51100000000E-03 0. -1.
    9900012    2    1    2    0    0  0.33748067312E+02  0.26985676550E+02  0.40577355006E+01  0.47787262638E+02  0.19999961673E+02 0.  0.
         12    1    1    2    0    0 -0.33748067312E+02 -0.26985676550E+02 -0.40577355006E+01  0.43400737362E+02  0.00000000000E+00 0. -1.
         11    1    3    3    0    0  0.55927451892E+01  0.48117226074E+01 -0.50843072623E-01  0.73779440552E+01  0.51100000000E-03 0. -1.
        -11    1    3    3    0    0  0.28459424556E+02  0.13472375888E+02  0.35014514672E+01  0.31681286602E+02  0.51100000000E-03 0.  1.
         12    1    3    3    0    0 -0.30410243329E+00  0.87015780553E+01  0.60712710600E+00  0.87280319812E+01  0.00000000000E+00 0. -1.
</event>
<event>
 7    1  0.2459936E-009  0.4778728E+02  0.7816164E-02  0.1312668E+00
        -11   -1    0    0    0    0  0.00000000000E+00  0.00000000000E+00  0.45593999997E+02  0.45594000000E+02  0.51100000000E-03 0.  1.
         11   -1    0    0    0    0 -0.00000000000E+00 -0.00000000000E+00 -0.45593999997E+02  0.45594000000E+02  0.51100000000E-03 0. -1.
    9900012    2    1    2    0    0 -0.71691288024E+01  0.35196786463E+02  0.24360051768E+02  0.47787282181E+02  0.20000050774E+02 0.  0.
         12    1    1    2    0    0  0.71691288024E+01 -0.35196786463E+02 -0.24360051768E+02  0.43400717819E+02  0.00000000000E+00 0. -1.
         11    1    3    3    0    0  0.37952208258E+01  0.19216419930E+01  0.71452190112E+00  0.43135775029E+01  0.51100000000E-03 0. -1.
        -11    1    3    3    0    0 -0.27856218989E+00  0.14681164224E+02  0.12609365265E+02  0.19354851395E+02  0.51100000000E-03 0.  1.
        -12    1    3    3    0    0 -0.10685787438E+02  0.18593980246E+02  0.11036164601E+02  0.24118853283E+02  0.00000000000E+00 0.  1.
</event>
<event>
 7    1  0.2459936E-009  0.4778728E+02  0.7816164E-02  0.1312668E+00
        -11   -1    0    0    0    0  0.00000000000E+00  0.00000000000E+00  0.45593999997E+02  0.45594000000E+02  0.51100000000E-03 0. -1.
         11   -1    0    0    0    0 -0.00000000000E+00 -0.00000000000E+00 -0.45593999997E+02  0.45594000000E+02  0.51100000000E-03 0.  1.
    9900012    2    1    2    0    0 -0.40486609775E+02 -0.17088999709E+00 -0.15634183820E+02  0.47787280211E+02  0.20000041794E+02 0.  0.
         12    1    1    2    0    0  0.40486609775E+02  0.17088999709E+00  0.15634183820E+02  0.43400719789E+02  0.00000000000E+00 0. -1.
         11    1    3    3    0    0 -0.19376803538E+02 -0.31596192282E+01 -0.52675198249E+01  0.20327087208E+02  0.51100000000E-03 0. -1.
        -11    1    3    3    0    0 -0.16350308397E+02 -0.13315070236E+01 -0.12568443860E+02  0.20665702915E+02  0.51100000000E-03 0.  1.
        -12    1    3    3    0    0 -0.47594978404E+01  0.43202362547E+01  0.22017798647E+01  0.67944900885E+01  0.00000000000E+00 0.  1.
</event>
<event>
 7    1  0.2459936E-009  0.4778727E+02  0.7816164E-02  0.1312668E+00
        -11   -1    0    0    0    0  0.00000000000E+00  0.00000000000E+00  0.45593999997E+02  0.45594000000E+02  0.51100000000E-03 0.  1.
         11   -1    0    0    0    0 -0.00000000000E+00 -0.00000000000E+00 -0.45593999997E+02  0.45594000000E+02  0.51100000000E-03 0. -1.
    9900012    2    1    2    0    0  0.18628894441E+02  0.30368865482E+02  0.24785470912E+02  0.47787271123E+02  0.20000000357E+02 0.  0.
         12    1    1    2    0    0 -0.18628894441E+02 -0.30368865482E+02 -0.24785470912E+02  0.43400728877E+02  0.00000000000E+00 0. -1.
         11    1    3    3    0    0  0.73895541052E+01  0.66698521111E+01  0.12887607532E+02  0.16284436288E+02  0.51100000000E-03 0. -1.
        -11    1    3    3    0    0  0.61356148839E+01  0.17748204236E+02  0.13956745122E+02  0.23397334427E+02  0.51100000000E-03 0.  1.
         12    1    3    3    0    0  0.51037254519E+01  0.59508091343E+01 -0.20588817416E+01  0.81055004082E+01  0.00000000000E+00 0. -1.
</event>
<event>
 7    1  0.2459936E-009  0.4778725E+02  0.7816164E-02  0.1312668E+00
        -11   -1    0    0    0    0  0.00000000000E+00  0.00000000000E+00  0.45593999997E+02  0.45594000000E+02  0.51100000000E-03 0.  1.
         11   -1    0    0    0    0 -0.00000000000E+00 -0.00000000000E+00 -0.45593999997E+02  0.45594000000E+02  0.51100000000E-03 0. -1.
    9900012    2    1    2    0    0 -0.19261933706E+02  0.38233431404E+02  0.71279410931E+01  0.47787252181E+02  0.19999913996E+02 0.  0.
         12    1    1    2    0    0  0.19261933706E+02 -0.38233431404E+02 -0.71279410931E+01  0.43400747819E+02  0.00000000000E+00 0. -1.
         11    1    3    3    0    0 -0.68166452031E+01  0.77314171309E+01 -0.11855829404E+01  0.10375310590E+02  0.51100000000E-03 0. -1.
        -11    1    3    3    0    0 -0.12919193872E+02  0.30131466506E+02  0.11060558241E+02  0.34599809147E+02  0.51100000000E-03 0.  1.
         12    1    3    3    0    0  0.47390536866E+00  0.37054776631E+00 -0.27470342078E+01  0.28121324443E+01  0.00000000000E+00 0. -1.
</event>
<event>
 7    1  0.2459936E-009  0.4778727E+02  0.7816164E-02  0.1312668E+00
        -11   -1    0    0    0    0  0.00000000000E+00  0.00000000000E+00  0.45593999997E+02  0.45594000000E+02  0.51100000000E-03 0.  1.
         11   -1    0    0    0    0 -0.00000000000E+00 -0.00000000000E+00 -0.45593999997E+02  0.45594000000E+02  0.51100000000E-03 0. -1.
    9900012    2    1    2    0    0 -0.18959723131E+02  0.24045359929E+01  0.38966274219E+02  0.47787269349E+02  0.19999992272E+02 0.  0.
         12    1    1    2    0    0  0.18959723131E+02 -0.24045359929E+01 -0.38966274219E+02  0.43400730651E+02  0.00000000000E+00 0. -1.
         11    1    3    3    0    0 -0.86464527627E+01 -0.11944438042E+01  0.84865897541E+01  0.12174154890E+02  0.51100000000E-03 0. -1.
        -11    1    3    3    0    0 -0.10230571708E+02 -0.22660963223E+01  0.26576100725E+02  0.28567270083E+02  0.51100000000E-03 0.  1.
         12    1    3    3    0    0 -0.82698660230E-01  0.58650761194E+01  0.39035837395E+01  0.70458443756E+01  0.00000000000E+00 0. -1.
</event>
<event>
 7    1  0.2459936E-009  0.4778727E+02  0.7816164E-02  0.1312668E+00
        -11   -1    0    0    0    0  0.00000000000E+00  0.00000000000E+00  0.45593999997E+02  0.45594000000E+02  0.51100000000E-03 0.  1.
         11   -1    0    0    0    0 -0.00000000000E+00 -0.00000000000E+00 -0.45593999997E+02  0.45594000000E+02  0.51100000000E-03 0. -1.
    9900012    2    1    2    0    0 -0.23776385303E+01  0.39208763242E+02 -0.18456521027E+02  0.47787269034E+02  0.19999990834E+02 0.  0.
         12    1    1    2    0    0  0.23776385303E+01 -0.39208763242E+02  0.18456521027E+02  0.43400730966E+02  0.00000000000E+00 0. -1.
         11    1    3    3    0    0  0.22638103228E+01  0.13146754491E+02 -0.64070327020E+01  0.14799056021E+02  0.51100000000E-03 0. -1.
        -11    1    3    3    0    0 -0.80046885427E+01  0.24197024492E+02 -0.13544452302E+02  0.28862141662E+02  0.51100000000E-03 0.  1.
        -12    1    3    3    0    0  0.33632396896E+01  0.18649842598E+01  0.14949639769E+01  0.41260713507E+01  0.00000000000E+00 0.  1.
</event>
<event>
 7    1  0.2459936E-009  0.4778727E+02  0.7816164E-02  0.1312668E+00
        -11   -1    0    0    0    0  0.00000000000E+00  0.00000000000E+00  0.45593999997E+02  0.45594000000E+02  0.51100000000E-03 0.  1.
         11   -1    0    0    0    0 -0.00000000000E+00 -0.00000000000E+00 -0.45593999997E+02  0.45594000000E+02  0.51100000000E-03 0. -1.
    9900012    2    1    2    0    0 -0.14344250625E+02 -0.16453515520E+02  0.37511964632E+02  0.47787272016E+02  0.20000004429E+02 0.  0.
         12    1    1    2    0    0  0.14344250625E+02  0.16453515520E+02 -0.37511964632E+02  0.43400727984E+02  0.00000000000E+00 0. -1.
         11    1    3    3    0    0 -0.96219449242E+00 -0.14169430920E+01  0.14327635640E+02  0.14429646193E+02  0.51100000000E-03 0. -1.
        -11    1    3    3    0    0 -0.27171966544E+01 -0.82036763191E+01  0.17411278772E+02  0.19438006368E+02  0.51100000000E-03 0.  1.
         12    1    3    3    0    0 -0.10664859478E+02 -0.68328961092E+01  0.57730502205E+01  0.13919619455E+02  0.00000000000E+00 0. -1.
</event>
<event>
 7    1  0.2459936E-009  0.4778729E+02  0.7816164E-02  0.1312668E+00
        -11   -1    0    0    0    0  0.00000000000E+00  0.00000000000E+00  0.45593999997E+02  0.45594000000E+02  0.51100000000E-03 0.  1.
         11   -1    0    0    0    0 -0.00000000000E+00 -0.00000000000E+00 -0.45593999997E+02  0.45594000000E+02  0.51100000000E-03 0. -1.
    9900012    2    1    2    0    0 -0.36632026586E+02  0.22792235721E+02  0.47148995483E+01  0.47787289652E+02  0.20000084838E+02 0.  0.
         12    1    1    2    0    0  0.36632026586E+02 -0.22792235721E+02 -0.47148995483E+01  0.43400710348E+02  0.00000000000E+00 0. -1.
         11    1    3    3    0    0 -0.17563292306E+01  0.49652933726E+01  0.24145489772E+01  0.57938655202E+01  0.51100000000E-03 0. -1.
        -11    1    3    3    0    0 -0.23800436120E+02  0.19447221623E+02  0.18664229017E+01  0.30791861312E+02  0.51100000000E-03 0.  1.
         12    1    3    3    0    0 -0.11075261236E+02 -0.16202792749E+01  0.43392766942E+00  0.11201562820E+02  0.00000000000E+00 0. -1.
</event>
<event>
 7    1  0.2459936E-009  0.4778729E+02  0.7816164E-02  0.1312668E+00
        -11   -1    0    0    0    0  0.00000000000E+00  0.00000000000E+00  0.45593999997E+02  0.45594000000E+02  0.51100000000E-03 0. -1.
         11   -1    0    0    0    0 -0.00000000000E+00 -0.00000000000E+00 -0.45593999997E+02  0.45594000000E+02  0.51100000000E-03 0.  1.
    9900012    2    1    2    0    0 -0.12205390429E+01  0.31592708272E+02 -0.29732694515E+02  0.47787285091E+02  0.20000064044E+02 0.  0.
         12    1    1    2    0    0  0.12205390429E+01 -0.31592708272E+02  0.29732694515E+02  0.43400714909E+02  0.00000000000E+00 0. -1.
         11    1    3    3    0    0 -0.50472155597E+00  0.77670341334E+01 -0.40708280909E+01  0.87836896965E+01  0.51100000000E-03 0. -1.
        -11    1    3    3    0    0  0.73248140821E+01  0.14236779278E+02 -0.96949755418E+01  0.18717140181E+02  0.51100000000E-03 0.  1.
         12    1    3    3    0    0 -0.80406315691E+01  0.95888948601E+01 -0.15966890882E+02  0.20286455213E+02  0.00000000000E+00 0. -1.
</event>
<event>
 7    1  0.2459936E-009  0.4778727E+02  0.7816164E-02  0.1312668E+00
        -11   -1    0    0    0    0  0.00000000000E+00  0.00000000000E+00  0.45593999997E+02  0.45594000000E+02  0.51100000000E-03 0.  1.
         11   -1    0    0    0    0 -0.00000000000E+00 -0.00000000000E+00 -0.45593999997E+02  0.45594000000E+02  0.51100000000E-03 0. -1.
    9900012    2    1    2    0    0  0.39377422410E+02  0.84942305580E+01  0.16152087419E+02  0.47787271015E+02  0.19999999868E+02 0.  0.
         12    1    1    2    0    0 -0.39377422410E+02 -0.84942305580E+01 -0.16152087419E+02  0.43400728985E+02  0.00000000000E+00 0. -1.
         11    1    3    3    0    0  0.18521900815E+02 -0.60821604658E+00  0.13637765588E+02  0.23009115304E+02  0.51100000000E-03 0. -1.
        -11    1    3    3    0    0  0.15940627586E+02  0.53832332920E+01  0.57960603623E+01  0.17795424258E+02  0.51100000000E-03 0.  1.
         12    1    3    3    0    0  0.49148940081E+01  0.37192133125E+01 -0.32817385311E+01  0.69827314542E+01  0.00000000000E+00 0. -1.
</event>
<event>
 7    1  0.2459936E-009  0.4778728E+02  0.7816164E-02  0.1312668E+00
        -11   -1    0    0    0    0  0.00000000000E+00  0.00000000000E+00  0.45593999997E+02  0.45594000000E+02  0.51100000000E-03 0. -1.
         11   -1    0    0    0    0 -0.00000000000E+00 -0.00000000000E+00 -0.45593999997E+02  0.45594000000E+02  0.51100000000E-03 0.  1.
    9900012    2    1    2    0    0  0.28043348739E+02 -0.23419864277E+02  0.23424407357E+02  0.47787282134E+02  0.20000050561E+02 0.  0.
         12    1    1    2    0    0 -0.28043348739E+02  0.23419864277E+02 -0.23424407357E+02  0.43400717866E+02  0.00000000000E+00 0. -1.
         11    1    3    3    0    0  0.11790717682E+02 -0.62177663817E+01  0.48471151545E+01  0.14183658478E+02  0.51100000000E-03 0. -1.
        -11    1    3    3    0    0  0.14802275192E+02 -0.17371841573E+02  0.20842920753E+02  0.30908179763E+02  0.51100000000E-03 0.  1.
         12    1    3    3    0    0  0.14503558653E+01  0.16974367776E+00 -0.22656285504E+01  0.26954438931E+01  0.00000000000E+00 0. -1.
</event>
<event>
 7    1  0.2459936E-009  0.4778727E+02  0.7816164E-02  0.1312668E+00
        -11   -1    0    0    0    0  0.00000000000E+00  0.00000000000E+00  0.45593999997E+02  0.45594000000E+02  0.51100000000E-03 0.  1.
         11   -1    0    0    0    0 -0.00000000000E+00 -0.00000000000E+00 -0.45593999997E+02  0.45594000000E+02  0.51100000000E-03 0. -1.
    9900012    2    1    2    0    0 -0.16697466805E+02  0.31635066793E+02  0.24577232382E+02  0.47787271892E+02  0.20000003865E+02 0.  0.
         12    1    1    2    0    0  0.16697466805E+02 -0.31635066793E+02 -0.24577232382E+02  0.43400728108E+02  0.00000000000E+00 0. -1.
         11    1    3    3    0    0  0.23839207550E+00  0.77585186299E+00  0.10235749879E-02  0.81165152854E+00  0.51100000000E-03 0.  1.
        -11    1    3    3    0    0 -0.27475569637E+01 -0.15323774505E+01 -0.10358406683E+01  0.33121316506E+01  0.51100000000E-03 0. -1.
        -12    1    3    3    0    0 -0.14188301917E+02  0.32391592381E+02  0.25612049475E+02  0.43663488713E+02  0.00000000000E+00 0.  1.
</event>
<event>
 7    1  0.2459936E-009  0.4778727E+02  0.7816164E-02  0.1312668E+00
        -11   -1    0    0    0    0  0.00000000000E+00  0.00000000000E+00  0.45593999997E+02  0.45594000000E+02  0.51100000000E-03 0. -1.
         11   -1    0    0    0    0 -0.00000000000E+00 -0.00000000000E+00 -0.45593999997E+02  0.45594000000E+02  0.51100000000E-03 0.  1.
    9900012    2    1    2    0    0 -0.31928336571E+02 -0.14984728922E+02 -0.25291547257E+02  0.47787272590E+02  0.20000007047E+02 0.  0.
         12    1    1    2    0    0  0.31928336571E+02  0.14984728922E+02  0.25291547257E+02  0.43400727410E+02  0.00000000000E+00 0. -1.
         11    1    3    3    0    0 -0.53977239595E+01 -0.13554907099E+01  0.10116148328E+01  0.56565133995E+01  0.51100000000E-03 0. -1.
        -11    1    3    3    0    0 -0.39087256808E+01 -0.47162156534E+01  0.24562175671E+00  0.61303472043E+01  0.51100000000E-03 0.  1.
        -12    1    3    3    0    0 -0.22621886931E+02 -0.89130225586E+01 -0.26548783847E+02  0.36000411986E+02  0.00000000000E+00 0.  1.
</event>
<event>
 7    1  0.2459936E-009  0.4778728E+02  0.7816164E-02  0.1312668E+00
        -11   -1    0    0    0    0  0.00000000000E+00  0.00000000000E+00  0.45593999997E+02  0.45594000000E+02  0.51100000000E-03 0.  1.
         11   -1    0    0    0    0 -0.00000000000E+00 -0.00000000000E+00 -0.45593999997E+02  0.45594000000E+02  0.51100000000E-03 0. -1.
    9900012    2    1    2    0    0 -0.37883431879E+02  0.66009548152E+01  0.20122012005E+02  0.47787281313E+02  0.20000046820E+02 0.  0.
         12    1    1    2    0    0  0.37883431879E+02 -0.66009548152E+01 -0.20122012005E+02  0.43400718687E+02  0.00000000000E+00 0. -1.
         11    1    3    3    0    0 -0.10870381752E+02  0.95747934446E+00 -0.33845548323E+00  0.10917715810E+02  0.51100000000E-03 0. -1.
        -11    1    3    3    0    0 -0.11362904283E+02 -0.42693585565E+01  0.77024629551E+01  0.14376054816E+02  0.51100000000E-03 0.  1.
        -12    1    3    3    0    0 -0.15650145844E+02  0.99128340273E+01  0.12758004533E+02  0.22493510688E+02  0.00000000000E+00 0.  1.
</event>
<event>
 7    1  0.2459936E-009  0.4778727E+02  0.7816164E-02  0.1312668E+00
        -11   -1    0    0    0    0  0.00000000000E+00  0.00000000000E+00  0.45593999997E+02  0.45594000000E+02  0.51100000000E-03 0. -1.
         11   -1    0    0    0    0 -0.00000000000E+00 -0.00000000000E+00 -0.45593999997E+02  0.45594000000E+02  0.51100000000E-03 0.  1.
    9900012    2    1    2    0    0 -0.85371301789E+01 -0.41720918589E+02 -0.83729129074E+01  0.47787270626E+02  0.19999998094E+02 0.  0.
         12    1    1    2    0    0  0.85371301789E+01  0.41720918589E+02  0.83729129074E+01  0.43400729374E+02  0.00000000000E+00 0. -1.
         11    1    3    3    0    0 -0.75255551632E+01 -0.13464907776E+02  0.11069566275E+01  0.15464898162E+02  0.51100000000E-03 0.  1.
        -11    1    3    3    0    0 -0.55013631767E+01 -0.88279767164E+01 -0.39259136773E+00  0.10409240988E+02  0.51100000000E-03 0. -1.
         12    1    3    3    0    0  0.44897881610E+01 -0.19428034097E+02 -0.90872781672E+01  0.21913131476E+02  0.00000000000E+00 0. -1.
</event>
<event>
 7    1  0.2459936E-009  0.4778728E+02  0.7816164E-02  0.1312668E+00
        -11   -1    0    0    0    0  0.00000000000E+00  0.00000000000E+00  0.45593999997E+02  0.45594000000E+02  0.51100000000E-03 0.  1.
         11   -1    0    0    0    0 -0.00000000000E+00 -0.00000000000E+00 -0.45593999997E+02  0.45594000000E+02  0.51100000000E-03 0. -1.
    9900012    2    1    2    0    0 -0.39821982387E+02 -0.13290279146E+02 -0.11009131841E+02  0.47787276677E+02  0.20000025683E+02 0.  0.
         12    1    1    2    0    0  0.39821982387E+02  0.13290279146E+02  0.11009131841E+02  0.43400723323E+02  0.00000000000E+00 0. -1.
         11    1    3    3    0    0 -0.18720978452E+02 -0.14573107425E+02 -0.88808820579E+01  0.25332204022E+02  0.51100000000E-03 0. -1.
        -11    1    3    3    0    0 -0.83109881892E+01 -0.29013596648E+01  0.16296996784E+00  0.88043723261E+01  0.51100000000E-03 0.  1.
         12    1    3    3    0    0 -0.12790015747E+02  0.41841879437E+01 -0.22912197504E+01  0.13650700330E+02  0.00000000000E+00 0. -1.
</event>
<event>
 7    1  0.2459936E-009  0.4778727E+02  0.7816164E-02  0.1312668E+00
        -11   -1    0    0    0    0  0.00000000000E+00  0.00000000000E+00  0.45593999997E+02  0.45594000000E+02  0.51100000000E-03 0. -1.
         11   -1    0    0    0    0 -0.00000000000E+00 -0.00000000000E+00 -0.45593999997E+02  0.45594000000E+02  0.51100000000E-03 0.  1.
    9900012    2    1    2    0    0 -0.33607326780E+02 -0.27025886918E+02 -0.48756965297E+01  0.47787269665E+02  0.19999993709E+02 0.  0.
         12    1    1    2    0    0  0.33607326780E+02  0.27025886918E+02  0.48756965297E+01  0.43400730335E+02  0.00000000000E+00 0. -1.
         11    1    3    3    0    0 -0.14809773208E+02 -0.14262726023E+02 -0.60527446315E+01  0.21433395762E+02  0.51100000000E-03 0. -1.
        -11    1    3    3    0    0 -0.36244324498E+01 -0.99898529300E+00 -0.49359892102E+01  0.62047136874E+01  0.51100000000E-03 0.  1.
         12    1    3    3    0    0 -0.15173121123E+02 -0.11764175602E+02  0.61130373120E+01  0.20149160215E+02  0.00000000000E+00 0. -1.
</event>
<event>
 7    1  0.2459936E-009  0.4778727E+02  0.7816164E-02  0.1312668E+00
        -11   -1    0    0    0    0  0.00000000000E+00  0.00000000000E+00  0.45593999997E+02  0.45594000000E+02  0.51100000000E-03 0. -1.
         11   -1    0    0    0    0 -0.00000000000E+00 -0.00000000000E+00 -0.45593999997E+02  0.45594000000E+02  0.51100000000E-03 0.  1.
    9900012    2    1    2    0    0 -0.31863403956E+02  0.23744434402E+02 -0.17451319747E+02  0.47787271462E+02  0.20000001904E+02 0.  0.
         12    1    1    2    0    0  0.31863403956E+02 -0.23744434402E+02  0.17451319747E+02  0.43400728538E+02  0.00000000000E+00 0. -1.
         11    1    3    3    0    0 -0.32646926673E+01  0.42326476139E+01 -0.19759714955E+01  0.56989461875E+01  0.51100000000E-03 0. -1.
        -11    1    3    3    0    0 -0.28133143130E+01  0.63728865377E+01  0.31788848894E+01  0.76572664605E+01  0.51100000000E-03 0.  1.
        -12    1    3    3    0    0 -0.25785396975E+02  0.13138900250E+02 -0.18654233141E+02  0.34431058814E+02  0.00000000000E+00 0.  1.
</event>
<event>
 7    1  0.2459936E-009  0.4778727E+02  0.7816164E-02  0.1312668E+00
        -11   -1    0    0    0    0  0.00000000000E+00  0.00000000000E+00  0.45593999997E+02  0.45594000000E+02  0.51100000000E-03 0.  1.
         11   -1    0    0    0    0 -0.00000000000E+00 -0.00000000000E+00 -0.45593999997E+02  0.45594000000E+02  0.51100000000E-03 0. -1.
    9900012    2    1    2    0    0  0.38560018907E+02 -0.17458599107E+02 -0.95888172197E+01  0.47787272396E+02  0.20000006163E+02 0.  0.
         12    1    1    2    0    0 -0.38560018907E+02  0.17458599107E+02  0.95888172197E+01  0.43400727604E+02  0.00000000000E+00 0. -1.
         11    1    3    3    0    0  0.18541776198E+01 -0.46837076795E+01 -0.13859204782E+01  0.52245447750E+01  0.51100000000E-03 0. -1.
        -11    1    3    3    0    0  0.24022783474E+02 -0.13943828255E+02 -0.71003669696E+00  0.27785403085E+02  0.51100000000E-03 0.  1.
        -12    1    3    3    0    0  0.12683057813E+02  0.11689368271E+01 -0.74928600446E+01  0.14777324536E+02  0.00000000000E+00 0.  1.
</event>
<event>
 7    1  0.2459936E-009  0.4778726E+02  0.7816164E-02  0.1312668E+00
        -11   -1    0    0    0    0  0.00000000000E+00  0.00000000000E+00  0.45593999997E+02  0.45594000000E+02  0.51100000000E-03 0.  1.
         11   -1    0    0    0    0 -0.00000000000E+00 -0.00000000000E+00 -0.45593999997E+02  0.45594000000E+02  0.51100000000E-03 0. -1.
    9900012    2    1    2    0    0 -0.13544181102E+02  0.94780567064E+01  0.40129110549E+02  0.47787263668E+02  0.19999966369E+02 0.  0.
         12    1    1    2    0    0  0.13544181102E+02 -0.94780567064E+01 -0.40129110549E+02  0.43400736332E+02  0.00000000000E+00 0. -1.
         11    1    3    3    0    0 -0.10150385346E+02  0.55431515050E+01  0.14710871110E+02  0.18712738452E+02  0.51100000000E-03 0.  1.
        -11    1    3    3    0    0 -0.17321214452E+01 -0.47540768519E+01  0.11751447947E+02  0.12794452724E+02  0.51100000000E-03 0. -1.
         12    1    3    3    0    0 -0.16616743106E+01  0.86889820533E+01  0.13666791493E+02  0.16280072492E+02  0.00000000000E+00 0. -1.
</event>
<event>
 7    1  0.2459936E-009  0.4778727E+02  0.7816164E-02  0.1312668E+00
        -11   -1    0    0    0    0  0.00000000000E+00  0.00000000000E+00  0.45593999997E+02  0.45594000000E+02  0.51100000000E-03 0.  1.
         11   -1    0    0    0    0 -0.00000000000E+00 -0.00000000000E+00 -0.45593999997E+02  0.45594000000E+02  0.51100000000E-03 0. -1.
    9900012    2    1    2    0    0  0.35080668664E+02  0.16040779693E+02  0.19891292774E+02  0.47787268955E+02  0.19999990471E+02 0.  0.
         12    1    1    2    0    0 -0.35080668664E+02 -0.16040779693E+02 -0.19891292774E+02  0.43400731045E+02  0.00000000000E+00 0. -1.
         11    1    3    3    0    0  0.42880322162E+01  0.33100378240E+01 -0.22007231938E+01  0.58469439471E+01  0.51100000000E-03 0. -1.
        -11    1    3    3    0    0  0.73912965897E+01  0.85487460661E+01  0.10764904305E+02  0.15607545916E+02  0.51100000000E-03 0.  1.
        -12    1    3    3    0    0  0.23401339858E+02  0.41819958032E+01  0.11327111663E+02  0.26332779091E+02  0.00000000000E+00 0.  1.
</event>
<event>
 7    1  0.2459936E-009  0.4778727E+02  0.7816164E-02  0.1312668E+00
        -11   -1    0    0    0    0  0.00000000000E+00  0.00000000000E+00  0.45593999997E+02  0.45594000000E+02  0.51100000000E-03 0. -1.
         11   -1    0    0    0    0 -0.00000000000E+00 -0.00000000000E+00 -0.45593999997E+02  0.45594000000E+02  0.51100000000E-03 0.  1.
    9900012    2    1    2    0    0  0.11105996152E+02 -0.38526475016E+02  0.16612968162E+02  0.47787272600E+02  0.20000007091E+02 0.  0.
         12    1    1    2    0    0 -0.11105996152E+02  0.38526475016E+02 -0.16612968162E+02  0.43400727400E+02  0.00000000000E+00 0. -1.
         11    1    3    3    0    0  0.20145082149E+01 -0.28154503833E+01  0.64179272299E+01  0.72921049360E+01  0.51100000000E-03 0. -1.
        -11    1    3    3    0    0  0.20672351607E+01 -0.61703364986E+01  0.76219574381E+01  0.10022013229E+02  0.51100000000E-03 0.  1.
        -12    1    3    3    0    0  0.70242527766E+01 -0.29540688134E+02  0.25730834941E+01  0.30473154435E+02  0.00000000000E+00 0.  1.
</event>
<event>
 7    1  0.2459936E-009  0.4778727E+02  0.7816164E-02  0.1312668E+00
        -11   -1    0    0    0    0  0.00000000000E+00  0.00000000000E+00  0.45593999997E+02  0.45594000000E+02  0.51100000000E-03 0.  1.
         11   -1    0    0    0    0 -0.00000000000E+00 -0.00000000000E+00 -0.45593999997E+02  0.45594000000E+02  0.51100000000E-03 0. -1.
    9900012    2    1    2    0    0  0.37722450707E+02  0.87477478502E+00  0.21444687605E+02  0.47787272532E+02  0.20000006784E+02 0.  0.
         12    1    1    2    0    0 -0.37722450707E+02 -0.87477478502E+00 -0.21444687605E+02  0.43400727468E+02  0.00000000000E+00 0. -1.
         11    1    3    3    0    0  0.27126092845E+02  0.29019772395E+01  0.13802427255E+02  0.30573736823E+02  0.51100000000E-03 0.  1.
        -11    1    3    3    0    0  0.11013095068E+02 -0.22577582135E+01  0.18399525759E+01  0.11391714571E+02  0.51100000000E-03 0. -1.
         12    1    3    3    0    0 -0.41673720621E+00  0.23055575902E+00  0.58023077744E+01  0.58218211382E+01  0.00000000000E+00 0. -1.
</event>
<event>
 7    1  0.2459936E-009  0.4778722E+02  0.7816164E-02  0.1312668E+00
        -11   -1    0    0    0    0  0.00000000000E+00  0.00000000000E+00  0.45593999997E+02  0.45594000000E+02  0.51100000000E-03 0. -1.
         11   -1    0    0    0    0 -0.00000000000E+00 -0.00000000000E+00 -0.45593999997E+02  0.45594000000E+02  0.51100000000E-03 0.  1.
    9900012    2    1    2    0    0 -0.19286152714E+02 -0.26895694633E+02 -0.28076574357E+02  0.47787215400E+02  0.19999746292E+02 0.  0.
         12    1    1    2    0    0  0.19286152714E+02  0.26895694633E+02  0.28076574357E+02  0.43400784600E+02  0.00000000000E+00 0. -1.
         11    1    3    3    0    0 -0.79894961122E+01 -0.52404655378E+01 -0.14329712247E+02  0.17223100201E+02  0.51100000000E-03 0. -1.
        -11    1    3    3    0    0 -0.10040066394E+02 -0.62195089802E+01 -0.58195698475E+01  0.13166344163E+02  0.51100000000E-03 0.  1.
         12    1    3    3    0    0 -0.12565902083E+01 -0.15435720115E+02 -0.79272922622E+01  0.17397771036E+02  0.00000000000E+00 0. -1.
</event>
<event>
 7    1  0.2459936E-009  0.4778723E+02  0.7816164E-02  0.1312668E+00
        -11   -1    0    0    0    0  0.00000000000E+00  0.00000000000E+00  0.45593999997E+02  0.45594000000E+02  0.51100000000E-03 0.  1.
         11   -1    0    0    0    0 -0.00000000000E+00 -0.00000000000E+00 -0.45593999997E+02  0.45594000000E+02  0.51100000000E-03 0. -1.
    9900012    2    1    2    0    0 -0.26362733784E+02  0.23841775219E+02  0.24903876889E+02  0.47787227400E+02  0.19999801006E+02 0.  0.
         12    1    1    2    0    0  0.26362733784E+02 -0.23841775219E+02 -0.24903876889E+02  0.43400772600E+02  0.00000000000E+00 0. -1.
         11    1    3    3    0    0 -0.75946646091E-01  0.38123200172E+01  0.85202885226E+00  0.39071095752E+01  0.51100000000E-03 0. -1.
        -11    1    3    3    0    0 -0.62366813725E+01  0.14432327791E+02  0.83233602480E+01  0.17789508315E+02  0.51100000000E-03 0.  1.
        -12    1    3    3    0    0 -0.20050105766E+02  0.55971274115E+01  0.15728487789E+02  0.26090609510E+02  0.00000000000E+00 0.  1.
</event>
<event>
 7    1  0.2459936E-009  0.4778727E+02  0.7816164E-02  0.1312668E+00
        -11   -1    0    0    0    0  0.00000000000E+00  0.00000000000E+00  0.45593999997E+02  0.45594000000E+02  0.51100000000E-03 0. -1.
         11   -1    0    0    0    0 -0.00000000000E+00 -0.00000000000E+00 -0.45593999997E+02  0.45594000000E+02  0.51100000000E-03 0.  1.
    9900012    2    1    2    0    0 -0.13164397631E+02  0.39697100869E+02 -0.11595792016E+02  0.47787267577E+02  0.19999984191E+02 0.  0.
         12    1    1    2    0    0  0.13164397631E+02 -0.39697100869E+02  0.11595792016E+02  0.43400732423E+02  0.00000000000E+00 0. -1.
         11    1    3    3    0    0 -0.41964416980E+01  0.11649070536E+02 -0.33784057063E+01  0.12834507885E+02  0.51100000000E-03 0. -1.
        -11    1    3    3    0    0 -0.12311752181E+01  0.25875897246E+02 -0.56228715698E+01  0.26508386139E+02  0.51100000000E-03 0.  1.
         12    1    3    3    0    0 -0.77367807148E+01  0.21721330864E+01 -0.25945147399E+01  0.84443735534E+01  0.00000000000E+00 0. -1.
</event>
<event>
 7    1  0.2459936E-009  0.4778727E+02  0.7816164E-02  0.1312668E+00
        -11   -1    0    0    0    0  0.00000000000E+00  0.00000000000E+00  0.45593999997E+02  0.45594000000E+02  0.51100000000E-03 0.  1.
         11   -1    0    0    0    0 -0.00000000000E+00 -0.00000000000E+00 -0.45593999997E+02  0.45594000000E+02  0.51100000000E-03 0. -1.
    9900012    2    1    2    0    0 -0.33495254450E+02 -0.27591751942E+02 -0.62141935213E+00  0.47787274109E+02  0.20000013971E+02 0.  0.
         12    1    1    2    0    0  0.33495254450E+02  0.27591751942E+02  0.62141935213E+00  0.43400725891E+02  0.00000000000E+00 0. -1.
         11    1    3    3    0    0 -0.19150865634E+02 -0.14673525378E+02 -0.39810482273E+01  0.24452336224E+02  0.51100000000E-03 0. -1.
        -11    1    3    3    0    0 -0.76057285827E+01 -0.12638531352E+02 -0.17769014435E+01  0.14857219155E+02  0.51100000000E-03 0.  1.
         12    1    3    3    0    0 -0.67386602334E+01 -0.27969521157E+00  0.51365303186E+01  0.84777187301E+01  0.00000000000E+00 0. -1.
</event>
<event>
 7    1  0.2459936E-009  0.4778727E+02  0.7816164E-02  0.1312668E+00
        -11   -1    0    0    0    0  0.00000000000E+00  0.00000000000E+00  0.45593999997E+02  0.45594000000E+02  0.51100000000E-03 0. -1.
         11   -1    0    0    0    0 -0.00000000000E+00 -0.00000000000E+00 -0.45593999997E+02  0.45594000000E+02  0.51100000000E-03 0.  1.
    9900012    2    1    2    0    0 -0.29176436987E+02 -0.69838098870E+01 -0.31362162776E+02  0.47787270400E+02  0.19999997062E+02 0.  0.
         12    1    1    2    0    0  0.29176436987E+02  0.69838098870E+01  0.31362162776E+02  0.43400729600E+02  0.00000000000E+00 0. -1.
         11    1    3    3    0    0 -0.74894614876E+01 -0.19557883435E+01 -0.18163703352E+02  0.19744296927E+02  0.51100000000E-03 0. -1.
        -11    1    3    3    0    0 -0.15765157254E+02 -0.56949903575E+01 -0.14238836253E+02  0.21993579893E+02  0.51100000000E-03 0.  1.
        -12    1    3    3    0    0 -0.59218182464E+01  0.66696881401E+00  0.10403768289E+01  0.60493935802E+01  0.00000000000E+00 0.  1.
</event>
<event>
 7    1  0.2459936E-009  0.4778727E+02  0.7816164E-02  0.1312668E+00
        -11   -1    0    0    0    0  0.00000000000E+00  0.00000000000E+00  0.45593999997E+02  0.45594000000E+02  0.51100000000E-03 0. -1.
         11   -1    0    0    0    0 -0.00000000000E+00 -0.00000000000E+00 -0.45593999997E+02  0.45594000000E+02  0.51100000000E-03 0.  1.
    9900012    2    1    2    0    0 -0.41125818425E+02  0.13693077190E+02 -0.21886254962E+01  0.47787269757E+02  0.19999994128E+02 0.  0.
         12    1    1    2    0    0  0.41125818425E+02 -0.13693077190E+02  0.21886254962E+01  0.43400730243E+02  0.00000000000E+00 0. -1.
         11    1    3    3    0    0 -0.50492320281E+01 -0.52868344176E+00 -0.21356557695E+01  0.55077469152E+01  0.51100000000E-03 0. -1.
        -11    1    3    3    0    0 -0.71070643853E+01  0.10914512951E+02 -0.13414504329E+01  0.13093374151E+02  0.51100000000E-03 0.  1.
         12    1    3    3    0    0 -0.28969522012E+02  0.33072476808E+01  0.12884807061E+01  0.29186148690E+02  0.00000000000E+00 0. -1.
</event>
<event>
 7    1  0.2459936E-009  0.4778727E+02  0.7816164E-02  0.1312668E+00
        -11   -1    0    0    0    0  0.00000000000E+00  0.00000000000E+00  0.45593999997E+02  0.45594000000E+02  0.51100000000E-03 0.  1.
         11   -1    0    0    0    0 -0.00000000000E+00 -0.00000000000E+00 -0.45593999997E+02  0.45594000000E+02  0.51100000000E-03 0. -1.
    9900012    2    1    2    0    0  0.12841197432E+01  0.36367345757E+02  0.23651441403E+02  0.47787268654E+02  0.19999989101E+02 0.  0.
         12    1    1    2    0    0 -0.12841197432E+01 -0.36367345757E+02 -0.23651441403E+02  0.43400731346E+02  0.00000000000E+00 0. -1.
         11    1    3    3    0    0  0.33102992012E+00  0.20656424929E+01  0.58914390693E+01  0.62518408717E+01  0.51100000000E-03 0.  1.
        -11    1    3    3    0    0  0.11887153462E+01  0.28032706648E+01 -0.26209585797E+01  0.40175607938E+01  0.51100000000E-03 0. -1.
        -12    1    3    3    0    0 -0.23562552308E+00  0.31498432599E+02  0.20380960914E+02  0.37517866988E+02  0.00000000000E+00 0.  1.
</event>
<event>
 7    1  0.2459936E-009  0.4778727E+02  0.7816164E-02  0.1312668E+00
        -11   -1    0    0    0    0  0.00000000000E+00  0.00000000000E+00  0.45593999997E+02  0.45594000000E+02  0.51100000000E-03 0.  1.
         11   -1    0    0    0    0 -0.00000000000E+00 -0.00000000000E+00 -0.45593999997E+02  0.45594000000E+02  0.51100000000E-03 0. -1.
    9900012    2    1    2    0    0  0.42409792746E+02 -0.36785824547E+01  0.84558261183E+01  0.47787268613E+02  0.19999988913E+02 0.  0.
         12    1    1    2    0    0 -0.42409792746E+02  0.36785824547E+01 -0.84558261183E+01  0.43400731387E+02  0.00000000000E+00 0. -1.
         11    1    3    3    0    0 -0.14762303555E+01 -0.16944702095E+01  0.18812308545E+01  0.29307874612E+01  0.51100000000E-03 0. -1.
        -11    1    3    3    0    0  0.18521794152E+02 -0.26470760413E+01  0.53242426574E+01  0.19452800063E+02  0.51100000000E-03 0.  1.
         12    1    3    3    0    0  0.25364228949E+02  0.66296379598E+00  0.12503526064E+01  0.25403681088E+02  0.00000000000E+00 0. -1.
</event>
<event>
 7    1  0.2459936E-009  0.4778727E+02  0.7816164E-02  0.1312668E+00
        -11   -1    0    0    0    0  0.00000000000E+00  0.00000000000E+00  0.45593999997E+02  0.45594000000E+02  0.51100000000E-03 0. -1.
         11   -1    0    0    0    0 -0.00000000000E+00 -0.00000000000E+00 -0.45593999997E+02  0.45594000000E+02  0.51100000000E-03 0.  1.
    9900012    2    1    2    0    0  0.20455879401E+02  0.37640144523E+00 -0.38275824387E+02  0.47787269446E+02  0.19999992712E+02 0.  0.
         12    1    1    2    0    0 -0.20455879401E+02 -0.37640144523E+00  0.38275824387E+02  0.43400730554E+02  0.00000000000E+00 0. -1.
         11    1    3    3    0    0 -0.10803497103E+01 -0.23151302861E+01 -0.45571564439E+00  0.25951224919E+01  0.51100000000E-03 0. -1.
        -11    1    3    3    0    0  0.39538244837E+01 -0.23081214596E+01 -0.16427546518E+02  0.17053575508E+02  0.51100000000E-03 0.  1.
         12    1    3    3    0    0  0.17582404628E+02  0.49996531909E+01 -0.21392562224E+02  0.28138571446E+02  0.00000000000E+00 0. -1.
</event>
<event>
 7    1  0.2459936E-009  0.4778727E+02  0.7816164E-02  0.1312668E+00
        -11   -1    0    0    0    0  0.00000000000E+00  0.00000000000E+00  0.45593999997E+02  0.45594000000E+02  0.51100000000E-03 0. -1.
         11   -1    0    0    0    0 -0.00000000000E+00 -0.00000000000E+00 -0.45593999997E+02  0.45594000000E+02  0.51100000000E-03 0.  1.
    9900012    2    1    2    0    0  0.26322634024E+02 -0.29313211285E+02 -0.18206534304E+02  0.47787270638E+02  0.19999998147E+02 0.  0.
         12    1    1    2    0    0 -0.26322634024E+02  0.29313211285E+02  0.18206534304E+02  0.43400729362E+02  0.00000000000E+00 0. -1.
         11    1    3    3    0    0  0.22563391033E+01 -0.11534218983E+02 -0.42692916706E-01  0.11752918644E+02  0.51100000000E-03 0. -1.
        -11    1    3    3    0    0 -0.15876959454E+00  0.29499492728E+00  0.43250491602E+00  0.54707454225E+00  0.51100000000E-03 0.  1.
        -12    1    3    3    0    0  0.24225064516E+02 -0.18073987229E+02 -0.18596346303E+02  0.35487277452E+02  0.00000000000E+00 0.  1.
</event>
<event>
 7    1  0.2459936E-009  0.4778727E+02  0.7816164E-02  0.1312668E+00
        -11   -1    0    0    0    0  0.00000000000E+00  0.00000000000E+00  0.45593999997E+02  0.45594000000E+02  0.51100000000E-03 0.  1.
         11   -1    0    0    0    0 -0.00000000000E+00 -0.00000000000E+00 -0.45593999997E+02  0.45594000000E+02  0.51100000000E-03 0. -1.
    9900012    2    1    2    0    0 -0.39643003329E+02 -0.32526157500E+01  0.17363077208E+02  0.47787266455E+02  0.19999979074E+02 0.  0.
         12    1    1    2    0    0  0.39643003329E+02  0.32526157500E+01 -0.17363077208E+02  0.43400733545E+02  0.00000000000E+00 0. -1.
         11    1    3    3    0    0 -0.10777958044E+02  0.67130139911E+01  0.25697778974E+01  0.12955025864E+02  0.51100000000E-03 0. -1.
        -11    1    3    3    0    0 -0.14421353245E+02 -0.12854097310E+01  0.48668811641E+01  0.15274627332E+02  0.51100000000E-03 0.  1.
        -12    1    3    3    0    0 -0.14443692040E+02 -0.86802200101E+01  0.99264181465E+01  0.19557613259E+02  0.00000000000E+00 0.  1.
</event>
<event>
 7    1  0.2459936E-009  0.4778727E+02  0.7816164E-02  0.1312668E+00
        -11   -1    0    0    0    0  0.00000000000E+00  0.00000000000E+00  0.45593999997E+02  0.45594000000E+02  0.51100000000E-03 0. -1.
         11   -1    0    0    0    0 -0.00000000000E+00 -0.00000000000E+00 -0.45593999997E+02  0.45594000000E+02  0.51100000000E-03 0.  1.
    9900012    2    1    2    0    0  0.34211226844E+01 -0.37803012421E+02 -0.21044036085E+02  0.47787270936E+02  0.19999999504E+02 0.  0.
         12    1    1    2    0    0 -0.34211226844E+01  0.37803012421E+02  0.21044036085E+02  0.43400729064E+02  0.00000000000E+00 0. -1.
         11    1    3    3    0    0 -0.10676516438E+01 -0.20102279544E+01  0.77980813854E+00  0.24060335524E+01  0.51100000000E-03 0. -1.
        -11    1    3    3    0    0  0.44701891950E+01 -0.69617714506E+00 -0.38980343639E+01  0.59717607303E+01  0.51100000000E-03 0.  1.
         12    1    3    3    0    0  0.18585133149E-01 -0.35096607322E+02 -0.17925809860E+02  0.39409476653E+02  0.00000000000E+00 0. -1.
</event>
<event>
 7    1  0.2459936E-009  0.4778727E+02  0.7816164E-02  0.1312668E+00
        -11   -1    0    0    0    0  0.00000000000E+00  0.00000000000E+00  0.45593999997E+02  0.45594000000E+02  0.51100000000E-03 0.  1.
         11   -1    0    0    0    0 -0.00000000000E+00 -0.00000000000E+00 -0.45593999997E+02  0.45594000000E+02  0.51100000000E-03 0. -1.
    9900012    2    1    2    0    0  0.40111496023E+01 -0.43125213740E+02 -0.27838670715E+01  0.47787270776E+02  0.19999998777E+02 0.  0.
         12    1    1    2    0    0 -0.40111496023E+01  0.43125213740E+02  0.27838670715E+01  0.43400729224E+02  0.00000000000E+00 0. -1.
         11    1    3    3    0    0  0.67067134624E+00 -0.16545399237E+01 -0.44110041724E+01  0.47585985840E+01  0.51100000000E-03 0. -1.
        -11    1    3    3    0    0  0.67303639662E+01 -0.26288925699E+02  0.34966099057E+01  0.27361134747E+02  0.51100000000E-03 0.  1.
         12    1    3    3    0    0 -0.33898857102E+01 -0.15181748118E+02 -0.18694728049E+01  0.15667537445E+02  0.00000000000E+00 0. -1.
</event>
<event>
 7    1  0.2459936E-009  0.4778727E+02  0.7816164E-02  0.1312668E+00
        -11   -1    0    0    0    0  0.00000000000E+00  0.00000000000E+00  0.45593999997E+02  0.45594000000E+02  0.51100000000E-03 0. -1.
         11   -1    0    0    0    0 -0.00000000000E+00 -0.00000000000E+00 -0.45593999997E+02  0.45594000000E+02  0.51100000000E-03 0.  1.
    9900012    2    1    2    0    0 -0.15532521326E+02 -0.12023910915E+02 -0.38701288032E+02  0.47787270193E+02  0.19999996117E+02 0.  0.
         12    1    1    2    0    0  0.15532521326E+02  0.12023910915E+02  0.38701288032E+02  0.43400729807E+02  0.00000000000E+00 0. -1.
         11    1    3    3    0    0  0.93125300614E+00 -0.21186951897E+01 -0.89053828071E+01  0.92011925678E+01  0.51100000000E-03 0. -1.
        -11    1    3    3    0    0  0.12717826463E+01 -0.61811327969E+01 -0.63453265479E+01  0.89491342047E+01  0.51100000000E-03 0.  1.
         12    1    3    3    0    0 -0.17735556979E+02 -0.37240829285E+01 -0.23450578677E+02  0.29636943420E+02  0.00000000000E+00 0. -1.
</event>
<event>
 7    1  0.2459936E-009  0.4778727E+02  0.7816164E-02  0.1312668E+00
        -11   -1    0    0    0    0  0.00000000000E+00  0.00000000000E+00  0.45593999997E+02  0.45594000000E+02  0.51100000000E-03 0.  1.
         11   -1    0    0    0    0 -0.00000000000E+00 -0.00000000000E+00 -0.45593999997E+02  0.45594000000E+02  0.51100000000E-03 0. -1.
    9900012    2    1    2    0    0  0.28925835082E+02  0.15944528451E+02  0.28154779677E+02  0.47787267963E+02  0.19999985951E+02 0.  0.
         12    1    1    2    0    0 -0.28925835082E+02 -0.15944528451E+02 -0.28154779677E+02  0.43400732037E+02  0.00000000000E+00 0. -1.
         11    1    3    3    0    0 -0.42886790749E+00  0.31230844076E+01  0.23147070214E+01  0.39109401370E+01  0.51100000000E-03 0. -1.
        -11    1    3    3    0    0 -0.13003703228E+00  0.39281043166E+01  0.43707747887E+00  0.39544848129E+01  0.51100000000E-03 0.  1.
        -12    1    3    3    0    0  0.29484740022E+02  0.88933397264E+01  0.25402995177E+02  0.39921843013E+02  0.00000000000E+00 0.  1.
</event>
<event>
 7    1  0.2459936E-009  0.4778728E+02  0.7816164E-02  0.1312668E+00
        -11   -1    0    0    0    0  0.00000000000E+00  0.00000000000E+00  0.45593999997E+02  0.45594000000E+02  0.51100000000E-03 0.  1.
         11   -1    0    0    0    0 -0.00000000000E+00 -0.00000000000E+00 -0.45593999997E+02  0.45594000000E+02  0.51100000000E-03 0. -1.
    9900012    2    1    2    0    0  0.31588177622E+02  0.23001980190E+02  0.18886993301E+02  0.47787279107E+02  0.20000036759E+02 0.  0.
         12    1    1    2    0    0 -0.31588177622E+02 -0.23001980190E+02 -0.18886993301E+02  0.43400720893E+02  0.00000000000E+00 0. -1.
         11    1    3    3    0    0  0.16022310677E+02  0.48634403954E+01  0.78464434285E+01  0.18491461993E+02  0.51100000000E-03 0. -1.
        -11    1    3    3    0    0  0.15505416723E+02  0.15335604670E+02  0.13430290250E+02  0.25611938912E+02  0.51100000000E-03 0.  1.
         12    1    3    3    0    0  0.60450221699E-01  0.28029351242E+01 -0.23897403768E+01  0.36838782022E+01  0.00000000000E+00 0. -1.
</event>
<event>
 7    1  0.2459936E-009  0.4778727E+02  0.7816164E-02  0.1312668E+00
        -11   -1    0    0    0    0  0.00000000000E+00  0.00000000000E+00  0.45593999997E+02  0.45594000000E+02  0.51100000000E-03 0.  1.
         11   -1    0    0    0    0 -0.00000000000E+00 -0.00000000000E+00 -0.45593999997E+02  0.45594000000E+02  0.51100000000E-03 0. -1.
    9900012    2    1    2    0    0 -0.12528848493E+00 -0.38427580157E+02 -0.20172475330E+02  0.47787269881E+02  0.19999994696E+02 0.  0.
         12    1    1    2    0    0  0.12528848493E+00  0.38427580157E+02  0.20172475330E+02  0.43400730119E+02  0.00000000000E+00 0. -1.
         11    1    3    3    0    0 -0.18229063048E+01 -0.44144187381E+01 -0.11351277575E+02  0.12315095738E+02  0.51100000000E-03 0. -1.
        -11    1    3    3    0    0  0.24548537026E+01 -0.89698030895E+01 -0.26094318011E+01  0.96588202567E+01  0.51100000000E-03 0.  1.
         12    1    3    3    0    0 -0.75723588276E+00 -0.25043358329E+02 -0.62117659534E+01  0.25813353886E+02  0.00000000000E+00 0. -1.
</event>
<event>
 7    1  0.2459936E-009  0.4778727E+02  0.7816164E-02  0.1312668E+00
        -11   -1    0    0    0    0  0.00000000000E+00  0.00000000000E+00  0.45593999997E+02  0.45594000000E+02  0.51100000000E-03 0. -1.
         11   -1    0    0    0    0 -0.00000000000E+00 -0.00000000000E+00 -0.45593999997E+02  0.45594000000E+02  0.51100000000E-03 0.  1.
    9900012    2    1    2    0    0 -0.13047999687E+02 -0.35133164244E+02 -0.21886842255E+02  0.47787269712E+02  0.19999993925E+02 0.  0.
         12    1    1    2    0    0  0.13047999687E+02  0.35133164244E+02  0.21886842255E+02  0.43400730288E+02  0.00000000000E+00 0. -1.
         11    1    3    3    0    0 -0.60192857509E+01 -0.23355544329E+02 -0.11894644673E+02  0.26892300460E+02  0.51100000000E-03 0. -1.
        -11    1    3    3    0    0 -0.25020701882E+00 -0.49376110312E+01  0.21554495306E+01  0.53933819805E+01  0.51100000000E-03 0.  1.
        -12    1    3    3    0    0 -0.67785069175E+01 -0.68400088835E+01 -0.12147647113E+02  0.15501587271E+02  0.00000000000E+00 0.  1.
</event>
<event>
 7    1  0.2459936E-009  0.4778728E+02  0.7816164E-02  0.1312668E+00
        -11   -1    0    0    0    0  0.00000000000E+00  0.00000000000E+00  0.45593999997E+02  0.45594000000E+02  0.51100000000E-03 0. -1.
         11   -1    0    0    0    0 -0.00000000000E+00 -0.00000000000E+00 -0.45593999997E+02  0.45594000000E+02  0.51100000000E-03 0.  1.
    9900012    2    1    2    0    0 -0.38646106011E+02 -0.10413631756E+02 -0.16782658901E+02  0.47787275629E+02  0.20000020903E+02 0.  0.
         12    1    1    2    0    0  0.38646106011E+02  0.10413631756E+02  0.16782658901E+02  0.43400724371E+02  0.00000000000E+00 0. -1.
         11    1    3    3    0    0 -0.36910695278E+01  0.14525575782E+01 -0.73684937689E+00  0.40344596965E+01  0.51100000000E-03 0. -1.
        -11    1    3    3    0    0 -0.11348126260E+02  0.36033478848E+01 -0.82055180806E+01  0.14460104178E+02  0.51100000000E-03 0.  1.
         12    1    3    3    0    0 -0.23606910223E+02 -0.15469537219E+02 -0.78402914434E+01  0.29292711755E+02  0.00000000000E+00 0. -1.
</event>
<event>
 7    1  0.2459936E-009  0.4778727E+02  0.7816164E-02  0.1312668E+00
        -11   -1    0    0    0    0  0.00000000000E+00  0.00000000000E+00  0.45593999997E+02  0.45594000000E+02  0.51100000000E-03 0. -1.
         11   -1    0    0    0    0 -0.00000000000E+00 -0.00000000000E+00 -0.45593999997E+02  0.45594000000E+02  0.51100000000E-03 0.  1.
    9900012    2    1    2    0    0  0.14788548484E+02  0.40534283622E+02  0.46790998054E+01  0.47787270859E+02  0.19999999153E+02 0.  0.
         12    1    1    2    0    0 -0.14788548484E+02 -0.40534283622E+02 -0.46790998054E+01  0.43400729141E+02  0.00000000000E+00 0. -1.
         11    1    3    3    0    0 -0.24055190884E+01  0.45154636914E+01  0.12399182565E+01  0.52643453512E+01  0.51100000000E-03 0. -1.
        -11    1    3    3    0    0  0.82449763439E+01  0.41756484697E+01 -0.21756279125E+00  0.92446205375E+01  0.51100000000E-03 0.  1.
         12    1    3    3    0    0  0.89490912284E+01  0.31843171461E+02  0.36567443401E+01  0.33278304970E+02  0.00000000000E+00 0. -1.
</event>
<event>
 7    1  0.2459936E-009  0.4778727E+02  0.7816164E-02  0.1312668E+00
        -11   -1    0    0    0    0  0.00000000000E+00  0.00000000000E+00  0.45593999997E+02  0.45594000000E+02  0.51100000000E-03 0.  1.
         11   -1    0    0    0    0 -0.00000000000E+00 -0.00000000000E+00 -0.45593999997E+02  0.45594000000E+02  0.51100000000E-03 0. -1.
    9900012    2    1    2    0    0  0.31121594053E+02 -0.28242406135E+02 -0.10836786557E+02  0.47787273467E+02  0.20000011046E+02 0.  0.
         12    1    1    2    0    0 -0.31121594053E+02  0.28242406135E+02  0.10836786557E+02  0.43400726533E+02  0.00000000000E+00 0. -1.
         11    1    3    3    0    0  0.11757460106E+01  0.13751455716E+01  0.82356548071E-01  0.18111286224E+01  0.51100000000E-03 0. -1.
        -11    1    3    3    0    0  0.70119918605E+01 -0.10830703120E+02 -0.99854612778E+01  0.16315072697E+02  0.51100000000E-03 0.  1.
        -12    1    3    3    0    0  0.22933856182E+02 -0.18786848587E+02 -0.93368182729E+00  0.29661072148E+02  0.00000000000E+00 0.  1.
</event>
<event>
 7    1  0.2459936E-009  0.4778727E+02  0.7816164E-02  0.1312668E+00
        -11   -1    0    0    0    0  0.00000000000E+00  0.00000000000E+00  0.45593999997E+02  0.45594000000E+02  0.51100000000E-03 0.  1.
         11   -1    0    0    0    0 -0.00000000000E+00 -0.00000000000E+00 -0.45593999997E+02  0.45594000000E+02  0.51100000000E-03 0. -1.
    9900012    2    1    2    0    0  0.35119247249E+02 -0.47028584710E+01  0.25062822575E+02  0.47787268663E+02  0.19999989142E+02 0.  0.
         12    1    1    2    0    0 -0.35119247249E+02  0.47028584710E+01 -0.25062822575E+02  0.43400731337E+02  0.00000000000E+00 0. -1.
         11    1    3    3    0    0  0.17875212739E+01 -0.24372111360E+01  0.27176190726E+01  0.40645644429E+01  0.51100000000E-03 0.  1.
        -11    1    3    3    0    0  0.25771459904E+02 -0.43791276153E+01  0.24236876279E+02  0.35647876182E+02  0.51100000000E-03 0. -1.
         12    1    3    3    0    0  0.75602660706E+01  0.21134802803E+01 -0.18916727758E+01  0.80748280381E+01  0.00000000000E+00 0. -1.
</event>
<event>
 7    1  0.2459936E-009  0.4778727E+02  0.7816164E-02  0.1312668E+00
        -11   -1    0    0    0    0  0.00000000000E+00  0.00000000000E+00  0.45593999997E+02  0.45594000000E+02  0.51100000000E-03 0. -1.
         11   -1    0    0    0    0 -0.00000000000E+00 -0.00000000000E+00 -0.45593999997E+02  0.45594000000E+02  0.51100000000E-03 0.  1.
    9900012    2    1    2    0    0 -0.40045319014E+02 -0.15305550235E+02 -0.67628347782E+01  0.47787269854E+02  0.19999994573E+02 0.  0.
         12    1    1    2    0    0  0.40045319014E+02  0.15305550235E+02  0.67628347782E+01  0.43400730146E+02  0.00000000000E+00 0. -1.
         11    1    3    3    0    0 -0.39568456700E+01 -0.50351263691E+01  0.16303208019E+01  0.66081064903E+01  0.51100000000E-03 0. -1.
        -11    1    3    3    0    0 -0.11232793659E+02 -0.86178880217E+01 -0.80079407697E+01  0.16265631343E+02  0.51100000000E-03 0.  1.
        -12    1    3    3    0    0 -0.24855679685E+02 -0.16525358445E+01 -0.38521481031E+00  0.24913532021E+02  0.00000000000E+00 0.  1.
</event>
<event>
 7    1  0.2459936E-009  0.4778727E+02  0.7816164E-02  0.1312668E+00
        -11   -1    0    0    0    0  0.00000000000E+00  0.00000000000E+00  0.45593999997E+02  0.45594000000E+02  0.51100000000E-03 0. -1.
         11   -1    0    0    0    0 -0.00000000000E+00 -0.00000000000E+00 -0.45593999997E+02  0.45594000000E+02  0.51100000000E-03 0.  1.
    9900012    2    1    2    0    0  0.97224920222E+01  0.14244152563E+02 -0.39827132726E+02  0.47787271498E+02  0.20000002067E+02 0.  0.
         12    1    1    2    0    0 -0.97224920222E+01 -0.14244152563E+02  0.39827132726E+02  0.43400728502E+02  0.00000000000E+00 0. -1.
         11    1    3    3    0    0  0.55073465017E+01  0.77182916589E+01 -0.65032102384E+01  0.11497592587E+02  0.51100000000E-03 0. -1.
        -11    1    3    3    0    0  0.81623329524E+01  0.58906211907E+01 -0.20180017035E+02  0.22551190324E+02  0.51100000000E-03 0.  1.
        -12    1    3    3    0    0 -0.39471874319E+01  0.63523971328E+00 -0.13143905452E+02  0.13738488587E+02  0.00000000000E+00 0.  1.
</event>
<event>
 7    1  0.2459936E-009  0.4778727E+02  0.7816164E-02  0.1312668E+00
        -11   -1    0    0    0    0  0.00000000000E+00  0.00000000000E+00  0.45593999997E+02  0.45594000000E+02  0.51100000000E-03 0.  1.
         11   -1    0    0    0    0 -0.00000000000E+00 -0.00000000000E+00 -0.45593999997E+02  0.45594000000E+02  0.51100000000E-03 0. -1.
    9900012    2    1    2    0    0 -0.22939450623E+02  0.18506546038E+02  0.31857697279E+02  0.47787268242E+02  0.19999987223E+02 0.  0.
         12    1    1    2    0    0  0.22939450623E+02 -0.18506546038E+02 -0.31857697279E+02  0.43400731758E+02  0.00000000000E+00 0. -1.
         11    1    3    3    0    0 -0.13576696603E+02  0.89481015244E+01  0.75176604917E+01  0.17913973068E+02  0.51100000000E-03 0.  1.
        -11    1    3    3    0    0 -0.16209364709E+01 -0.22537892096E+01  0.19189661813E+01  0.33748233006E+01  0.51100000000E-03 0. -1.
        -12    1    3    3    0    0 -0.77418175492E+01  0.11812233724E+02  0.22421070606E+02  0.26498471874E+02  0.00000000000E+00 0.  1.
</event>
<event>
 7    1  0.2459936E-009  0.4778727E+02  0.7816164E-02  0.1312668E+00
        -11   -1    0    0    0    0  0.00000000000E+00  0.00000000000E+00  0.45593999997E+02  0.45594000000E+02  0.51100000000E-03 0.  1.
         11   -1    0    0    0    0 -0.00000000000E+00 -0.00000000000E+00 -0.45593999997E+02  0.45594000000E+02  0.51100000000E-03 0. -1.
    9900012    2    1    2    0    0  0.14990574208E+02 -0.22576085795E+02  0.33900238674E+02  0.47787272505E+02  0.20000006662E+02 0.  0.
         12    1    1    2    0    0 -0.14990574208E+02  0.22576085795E+02 -0.33900238674E+02  0.43400727495E+02  0.00000000000E+00 0. -1.
         11    1    3    3    0    0  0.68626581709E+01 -0.41092710780E+01  0.99846631176E+00  0.80609627961E+01  0.51100000000E-03 0. -1.
        -11    1    3    3    0    0  0.47193032867E+01 -0.10570664052E+02  0.10123361612E+02  0.15378335820E+02  0.51100000000E-03 0.  1.
         12    1    3    3    0    0  0.34086127505E+01 -0.78961506653E+01  0.22778410750E+02  0.24347973890E+02  0.00000000000E+00 0. -1.
</event>
<event>
 7    1  0.2459936E-009  0.4778727E+02  0.7816164E-02  0.1312668E+00
        -11   -1    0    0    0    0  0.00000000000E+00  0.00000000000E+00  0.45593999997E+02  0.45594000000E+02  0.51100000000E-03 0.  1.
         11   -1    0    0    0    0 -0.00000000000E+00 -0.00000000000E+00 -0.45593999997E+02  0.45594000000E+02  0.51100000000E-03 0. -1.
    9900012    2    1    2    0    0  0.28618355688E+02 -0.67024989051E+01  0.31932575262E+02  0.47787272625E+02  0.20000007206E+02 0.  0.
         12    1    1    2    0    0 -0.28618355688E+02  0.67024989051E+01 -0.31932575262E+02  0.43400727375E+02  0.00000000000E+00 0. -1.
         11    1    3    3    0    0  0.29055695811E+01  0.19157520361E+01  0.27369469584E+01  0.44275635928E+01  0.51100000000E-03 0. -1.
        -11    1    3    3    0    0  0.46199207852E+01 -0.98773249157E+01  0.91720018529E+01  0.14248888862E+02  0.51100000000E-03 0.  1.
        -12    1    3    3    0    0  0.21092865321E+02  0.12590739745E+01  0.20023626451E+02  0.29110820170E+02  0.00000000000E+00 0.  1.
</event>
<event>
 7    1  0.2459936E-009  0.4778727E+02  0.7816164E-02  0.1312668E+00
        -11   -1    0    0    0    0  0.00000000000E+00  0.00000000000E+00  0.45593999997E+02  0.45594000000E+02  0.51100000000E-03 0.  1.
         11   -1    0    0    0    0 -0.00000000000E+00 -0.00000000000E+00 -0.45593999997E+02  0.45594000000E+02  0.51100000000E-03 0. -1.
    9900012    2    1    2    0    0 -0.24303139806E+02 -0.21005979500E+02  0.29184404412E+02  0.47787271433E+02  0.20000001773E+02 0.  0.
         12    1    1    2    0    0  0.24303139806E+02  0.21005979500E+02 -0.29184404412E+02  0.43400728567E+02  0.00000000000E+00 0. -1.
         11    1    3    3    0    0 -0.27255722129E+01 -0.76283205289E+01  0.28595134686E+01  0.85905084551E+01  0.51100000000E-03 0. -1.
        -11    1    3    3    0    0 -0.44678177548E+01 -0.74504692253E+01  0.20739117642E+01  0.89315170847E+01  0.51100000000E-03 0.  1.
        -12    1    3    3    0    0 -0.17109749839E+02 -0.59271897462E+01  0.24250979179E+02  0.30265245893E+02  0.00000000000E+00 0.  1.
</event>
<event>
 7    1  0.2459936E-009  0.4778726E+02  0.7816164E-02  0.1312668E+00
        -11   -1    0    0    0    0  0.00000000000E+00  0.00000000000E+00  0.45593999997E+02  0.45594000000E+02  0.51100000000E-03 0. -1.
         11   -1    0    0    0    0 -0.00000000000E+00 -0.00000000000E+00 -0.45593999997E+02  0.45594000000E+02  0.51100000000E-03 0.  1.
    9900012    2    1    2    0    0 -0.79252585756E+01  0.42061648804E+02 -0.71855269069E+01  0.47787264747E+02  0.19999971285E+02 0.  0.
         12    1    1    2    0    0  0.79252585756E+01 -0.42061648804E+02  0.71855269069E+01  0.43400735253E+02  0.00000000000E+00 0. -1.
         11    1    3    3    0    0 -0.11035347960E+02  0.22313960036E+02 -0.89323942587E+01  0.26447672574E+02  0.51100000000E-03 0. -1.
        -11    1    3    3    0    0  0.18149029286E+01  0.82432014854E+01 -0.28126544379E+01  0.88969246719E+01  0.51100000000E-03 0.  1.
        -12    1    3    3    0    0  0.12951864563E+01  0.11504487282E+02  0.45595217897E+01  0.12442667501E+02  0.00000000000E+00 0.  1.
</event>
<event>
 7    1  0.2459936E-009  0.4778732E+02  0.7816164E-02  0.1312668E+00
        -11   -1    0    0    0    0  0.00000000000E+00  0.00000000000E+00  0.45593999997E+02  0.45594000000E+02  0.51100000000E-03 0.  1.
         11   -1    0    0    0    0 -0.00000000000E+00 -0.00000000000E+00 -0.45593999997E+02  0.45594000000E+02  0.51100000000E-03 0. -1.
    9900012    2    1    2    0    0 -0.30604385789E+02 -0.30458345603E+01  0.30622111005E+02  0.47787317747E+02  0.20000212932E+02 0.  0.
         12    1    1    2    0    0  0.30604385789E+02  0.30458345603E+01 -0.30622111005E+02  0.43400682253E+02  0.00000000000E+00 0. -1.
         11    1    3    3    0    0 -0.14338396092E+02 -0.52671005564E+01  0.85488360177E+01  0.17504700748E+02  0.51100000000E-03 0. -1.
        -11    1    3    3    0    0 -0.10478331538E+02 -0.40713972866E+01  0.79335408758E+01  0.13759098037E+02  0.51100000000E-03 0.  1.
         12    1    3    3    0    0 -0.57876581588E+01  0.62926632827E+01  0.14139734111E+02  0.16523518962E+02  0.00000000000E+00 0. -1.
</event>
<event>
 7    1  0.2466637E-009  0.4778727E+02  0.7816164E-02  0.1312668E+00
        -11   -1    0    0    0    0  0.00000000000E+00  0.00000000000E+00  0.45593999997E+02  0.45594000000E+02  0.51100000000E-03 0. -1.
         11   -1    0    0    0    0 -0.00000000000E+00 -0.00000000000E+00 -0.45593999997E+02  0.45594000000E+02  0.51100000000E-03 0.  1.
    9900012    2    1    2    0    0  0.34775284092E+02  0.12318177437E+02 -0.22859691545E+02  0.47787269861E+02  0.19999994606E+02 0.  0.
         12    1    1    2    0    0 -0.34775284092E+02 -0.12318177437E+02  0.22859691545E+02  0.43400730139E+02  0.00000000000E+00 0. -1.
         11    1    3    3    0    0  0.48437807979E+01 -0.84631308430E+00  0.83409790776E+00  0.49874019124E+01  0.51100000000E-03 0. -1.
        -11    1    3    3    0    0  0.26653020648E+02  0.72272701332E+01 -0.13979615633E+02  0.30952327809E+02  0.51100000000E-03 0.  1.
        -12    1    3    3    0    0  0.32784826458E+01  0.59372203877E+01 -0.97141738189E+01  0.11847540140E+02  0.00000000000E+00 0.  1.
</event>
<event>
 7    1  0.2459936E-009  0.4778727E+02  0.7816164E-02  0.1312668E+00
        -11   -1    0    0    0    0  0.00000000000E+00  0.00000000000E+00  0.45593999997E+02  0.45594000000E+02  0.51100000000E-03 0. -1.
         11   -1    0    0    0    0 -0.00000000000E+00 -0.00000000000E+00 -0.45593999997E+02  0.45594000000E+02  0.51100000000E-03 0.  1.
    9900012    2    1    2    0    0 -0.24395934350E+02  0.16734151591E+02 -0.31755787234E+02  0.47787268841E+02  0.19999989953E+02 0.  0.
         12    1    1    2    0    0  0.24395934350E+02 -0.16734151591E+02  0.31755787234E+02  0.43400731159E+02  0.00000000000E+00 0. -1.
         11    1    3    3    0    0 -0.46378340171E+01  0.38987476159E+01 -0.89242426604E+01  0.10786651226E+02  0.51100000000E-03 0.  1.
        -11    1    3    3    0    0  0.97739181525E+00  0.12296469310E+01 -0.97492364937E+01  0.98749652560E+01  0.51100000000E-03 0. -1.
         12    1    3    3    0    0 -0.20735492149E+02  0.11605757044E+02 -0.13082308080E+02  0.27125652359E+02  0.00000000000E+00 0. -1.
</event>
<event>
 7    1  0.2459936E-009  0.4778728E+02  0.7816164E-02  0.1312668E+00
        -11   -1    0    0    0    0  0.00000000000E+00  0.00000000000E+00  0.45593999997E+02  0.45594000000E+02  0.51100000000E-03 0.  1.
         11   -1    0    0    0    0 -0.00000000000E+00 -0.00000000000E+00 -0.45593999997E+02  0.45594000000E+02  0.51100000000E-03 0. -1.
    9900012    2    1    2    0    0  0.20038260784E+02 -0.30012030483E+02  0.24111594272E+02  0.47787275958E+02  0.20000022405E+02 0.  0.
         12    1    1    2    0    0 -0.20038260784E+02  0.30012030483E+02 -0.24111594272E+02  0.43400724042E+02  0.00000000000E+00 0. -1.
         11    1    3    3    0    0  0.82847921021E+01 -0.86461607346E+01  0.31116705370E+01  0.12372403542E+02  0.51100000000E-03 0. -1.
        -11    1    3    3    0    0 -0.10659375535E+00 -0.58873488323E+01 -0.10480948637E+01  0.59808646203E+01  0.51100000000E-03 0.  1.
        -12    1    3    3    0    0  0.11860062437E+02 -0.15478520917E+02  0.22048018599E+02  0.29434007796E+02  0.00000000000E+00 0.  1.
</event>
<event>
 7    1  0.2459936E-009  0.4778727E+02  0.7816164E-02  0.1312668E+00
        -11   -1    0    0    0    0  0.00000000000E+00  0.00000000000E+00  0.45593999997E+02  0.45594000000E+02  0.51100000000E-03 0.  1.
         11   -1    0    0    0    0 -0.00000000000E+00 -0.00000000000E+00 -0.45593999997E+02  0.45594000000E+02  0.51100000000E-03 0. -1.
    9900012    2    1    2    0    0 -0.15392838220E+02  0.39669232381E+02  0.85461134319E+01  0.47787268198E+02  0.19999987022E+02 0.  0.
         12    1    1    2    0    0  0.15392838220E+02 -0.39669232381E+02 -0.85461134319E+01  0.43400731802E+02  0.00000000000E+00 0. -1.
         11    1    3    3    0    0 -0.29087722505E+01  0.23066045558E+02 -0.20694802656E+01  0.23340654715E+02  0.51100000000E-03 0.  1.
        -11    1    3    3    0    0 -0.59075640567E+01  0.11070193327E+02  0.28588162210E+01  0.12869394851E+02  0.51100000000E-03 0. -1.
        -12    1    3    3    0    0 -0.65765019129E+01  0.55329934959E+01  0.77567774765E+01  0.11577218632E+02  0.00000000000E+00 0.  1.
</event>
<event>
 7    1  0.2459936E-009  0.4778727E+02  0.7816164E-02  0.1312668E+00
        -11   -1    0    0    0    0  0.00000000000E+00  0.00000000000E+00  0.45593999997E+02  0.45594000000E+02  0.51100000000E-03 0.  1.
         11   -1    0    0    0    0 -0.00000000000E+00 -0.00000000000E+00 -0.45593999997E+02  0.45594000000E+02  0.51100000000E-03 0. -1.
    9900012    2    1    2    0    0  0.24231395663E+01 -0.29838866823E+01  0.43230175606E+02  0.47787271112E+02  0.20000000307E+02 0.  0.
         12    1    1    2    0    0 -0.24231395663E+01  0.29838866823E+01 -0.43230175606E+02  0.43400728888E+02  0.00000000000E+00 0. -1.
         11    1    3    3    0    0  0.54632931593E+01  0.45315192953E+01  0.11844435474E+02  0.13808435510E+02  0.51100000000E-03 0. -1.
        -11    1    3    3    0    0 -0.31391644631E+01  0.77614069405E+00  0.17574524037E+02  0.17869545133E+02  0.51100000000E-03 0.  1.
        -12    1    3    3    0    0  0.99010870189E-01 -0.82915466716E+01  0.13811216096E+02  0.16109290469E+02  0.00000000000E+00 0.  1.
</event>
<event>
 7    1  0.2580131E-009  0.4778727E+02  0.7816164E-02  0.1312668E+00
        -11   -1    0    0    0    0  0.00000000000E+00  0.00000000000E+00  0.45593999997E+02  0.45594000000E+02  0.51100000000E-03 0. -1.
         11   -1    0    0    0    0 -0.00000000000E+00 -0.00000000000E+00 -0.45593999997E+02  0.45594000000E+02  0.51100000000E-03 0.  1.
    9900012    2    1    2    0    0 -0.14607579814E+02  0.77934618816E+00 -0.40861162364E+02  0.47787270073E+02  0.19999995569E+02 0.  0.
         12    1    1    2    0    0  0.14607579814E+02 -0.77934618816E+00  0.40861162364E+02  0.43400729927E+02  0.00000000000E+00 0. -1.
         11    1    3    3    0    0  0.47044673123E+00 -0.30391400864E+01 -0.10036063820E+01  0.32349526461E+01  0.51100000000E-03 0. -1.
        -11    1    3    3    0    0 -0.20825404396E+00 -0.27404382077E+01 -0.11908584074E+02  0.12221609805E+02  0.51100000000E-03 0.  1.
        -12    1    3    3    0    0 -0.14869772501E+02  0.65589244822E+01 -0.27948971908E+02  0.32330707622E+02  0.00000000000E+00 0.  1.
</event>
<event>
 7    1  0.2459936E-009  0.4778727E+02  0.7816164E-02  0.1312668E+00
        -11   -1    0    0    0    0  0.00000000000E+00  0.00000000000E+00  0.45593999997E+02  0.45594000000E+02  0.51100000000E-03 0.  1.
         11   -1    0    0    0    0 -0.00000000000E+00 -0.00000000000E+00 -0.45593999997E+02  0.45594000000E+02  0.51100000000E-03 0. -1.
    9900012    2    1    2    0    0  0.43169774312E+01 -0.71344093672E+01  0.42592103310E+02  0.47787270103E+02  0.19999995709E+02 0.  0.
         12    1    1    2    0    0 -0.43169774312E+01  0.71344093672E+01 -0.42592103310E+02  0.43400729897E+02  0.00000000000E+00 0. -1.
         11    1    3    3    0    0  0.28296079259E+01 -0.30226742751E+01  0.13347855796E+02  0.13975281586E+02  0.51100000000E-03 0. -1.
        -11    1    3    3    0    0  0.62237591460E+01  0.31421917209E+01  0.19821682762E+02  0.21012083535E+02  0.51100000000E-03 0.  1.
         12    1    3    3    0    0 -0.47363896407E+01 -0.72539268131E+01  0.94225647522E+01  0.12799904982E+02  0.00000000000E+00 0. -1.
</event>
<event>
 7    1  0.2459936E-009  0.4778727E+02  0.7816164E-02  0.1312668E+00
        -11   -1    0    0    0    0  0.00000000000E+00  0.00000000000E+00  0.45593999997E+02  0.45594000000E+02  0.51100000000E-03 0.  1.
         11   -1    0    0    0    0 -0.00000000000E+00 -0.00000000000E+00 -0.45593999997E+02  0.45594000000E+02  0.51100000000E-03 0. -1.
    9900012    2    1    2    0    0 -0.19771630001E+02 -0.24010176845E+02  0.30269083263E+02  0.47787270207E+02  0.19999996181E+02 0.  0.
         12    1    1    2    0    0  0.19771630001E+02  0.24010176845E+02 -0.30269083263E+02  0.43400729793E+02  0.00000000000E+00 0. -1.
         11    1    3    3    0    0 -0.72711575488E+01 -0.64354335287E+01  0.21203650326E+01  0.99388372023E+01  0.51100000000E-03 0. -1.
        -11    1    3    3    0    0 -0.17944641017E+01 -0.50491222856E+01  0.14963031233E+00  0.53606088049E+01  0.51100000000E-03 0.  1.
        -12    1    3    3    0    0 -0.10706008350E+02 -0.12525621030E+02  0.27999087918E+02  0.32487824200E+02  0.00000000000E+00 0.  1.
</event>
<event>
 7    1  0.2459936E-009  0.4778727E+02  0.7816164E-02  0.1312668E+00
        -11   -1    0    0    0    0  0.00000000000E+00  0.00000000000E+00  0.45593999997E+02  0.45594000000E+02  0.51100000000E-03 0. -1.
         11   -1    0    0    0    0 -0.00000000000E+00 -0.00000000000E+00 -0.45593999997E+02  0.45594000000E+02  0.51100000000E-03 0.  1.
    9900012    2    1    2    0    0  0.27852163165E+02  0.33235398172E+02  0.18133975178E+01  0.47787273103E+02  0.20000009386E+02 0.  0.
         12    1    1    2    0    0 -0.27852163165E+02 -0.33235398172E+02 -0.18133975178E+01  0.43400726897E+02  0.00000000000E+00 0. -1.
         11    1    3    3    0    0  0.19259540809E+02  0.21767087183E+02  0.92972210733E+01  0.30515148968E+02  0.51100000000E-03 0. -1.
        -11    1    3    3    0    0  0.32275550112E+01  0.10339240395E+01 -0.63513583828E-01  0.33897115669E+01  0.51100000000E-03 0.  1.
        -12    1    3    3    0    0  0.53650673448E+01  0.10434386950E+02 -0.74203099716E+01  0.13882412568E+02  0.00000000000E+00 0.  1.
</event>
<event>
 7    1  0.2459936E-009  0.4778727E+02  0.7816164E-02  0.1312668E+00
        -11   -1    0    0    0    0  0.00000000000E+00  0.00000000000E+00  0.45593999997E+02  0.45594000000E+02  0.51100000000E-03 0.  1.
         11   -1    0    0    0    0 -0.00000000000E+00 -0.00000000000E+00 -0.45593999997E+02  0.45594000000E+02  0.51100000000E-03 0. -1.
    9900012    2    1    2    0    0 -0.38785869675E+02 -0.15970948224E+02  0.11144876780E+02  0.47787272448E+02  0.20000006398E+02 0.  0.
         12    1    1    2    0    0  0.38785869675E+02  0.15970948224E+02 -0.11144876780E+02  0.43400727552E+02  0.00000000000E+00 0. -1.
         11    1    3    3    0    0 -0.19397035658E+02 -0.16731619031E+02  0.30652115666E+01  0.25798984281E+02  0.51100000000E-03 0. -1.
        -11    1    3    3    0    0 -0.24217434620E+01  0.23007908221E+01  0.65572749891E+00  0.34041825181E+01  0.51100000000E-03 0.  1.
        -12    1    3    3    0    0 -0.16967090555E+02 -0.15401200149E+01  0.74239377144E+01  0.18584105648E+02  0.00000000000E+00 0.  1.
</event>
<event>
 7    1  0.2459936E-009  0.4778727E+02  0.7816164E-02  0.1312668E+00
        -11   -1    0    0    0    0  0.00000000000E+00  0.00000000000E+00  0.45593999997E+02  0.45594000000E+02  0.51100000000E-03 0.  1.
         11   -1    0    0    0    0 -0.00000000000E+00 -0.00000000000E+00 -0.45593999997E+02  0.45594000000E+02  0.51100000000E-03 0. -1.
    9900012    2    1    2    0    0 -0.31932345028E+02 -0.25110662329E+02  0.15277531240E+02  0.47787274403E+02  0.20000015311E+02 0.  0.
         12    1    1    2    0    0  0.31932345028E+02  0.25110662329E+02 -0.15277531240E+02  0.43400725597E+02  0.00000000000E+00 0. -1.
         11    1    3    3    0    0 -0.13391336275E+01 -0.10441226871E+02  0.23904857679E+01  0.10794763541E+02  0.51100000000E-03 0. -1.
        -11    1    3    3    0    0 -0.64180137607E+01 -0.55098239605E+00  0.77216210019E+00  0.64877358765E+01  0.51100000000E-03 0.  1.
         12    1    3    3    0    0 -0.24175197640E+02 -0.14118453063E+02  0.12114883372E+02  0.30504774985E+02  0.00000000000E+00 0. -1.
</event>
<event>
 7    1  0.2459936E-009  0.4778727E+02  0.7816164E-02  0.1312668E+00
        -11   -1    0    0    0    0  0.00000000000E+00  0.00000000000E+00  0.45593999997E+02  0.45594000000E+02  0.51100000000E-03 0.  1.
         11   -1    0    0    0    0 -0.00000000000E+00 -0.00000000000E+00 -0.45593999997E+02  0.45594000000E+02  0.51100000000E-03 0. -1.
    9900012    2    1    2    0    0 -0.26625092564E+02 -0.17592085761E+02  0.29415064102E+02  0.47787273836E+02  0.20000012726E+02 0.  0.
         12    1    1    2    0    0  0.26625092564E+02  0.17592085761E+02 -0.29415064102E+02  0.43400726164E+02  0.00000000000E+00 0. -1.
         11    1    3    3    0    0 -0.75507196928E+01 -0.43183830888E+01  0.37713179604E+00  0.87065509264E+01  0.51100000000E-03 0. -1.
        -11    1    3    3    0    0 -0.39294598726E+01 -0.54461992586E+01  0.18090273371E+01  0.69551650895E+01  0.51100000000E-03 0.  1.
         12    1    3    3    0    0 -0.15144912999E+02 -0.78275034137E+01  0.27228904969E+02  0.32125557820E+02  0.00000000000E+00 0. -1.
</event>
<event>
 7    1  0.2459936E-009  0.4778728E+02  0.7816164E-02  0.1312668E+00
        -11   -1    0    0    0    0  0.00000000000E+00  0.00000000000E+00  0.45593999997E+02  0.45594000000E+02  0.51100000000E-03 0. -1.
         11   -1    0    0    0    0 -0.00000000000E+00 -0.00000000000E+00 -0.45593999997E+02  0.45594000000E+02  0.51100000000E-03 0.  1.
    9900012    2    1    2    0    0 -0.84566662832E+01 -0.25032870278E+02 -0.34430549379E+02  0.47787279620E+02  0.20000039100E+02 0.  0.
         12    1    1    2    0    0  0.84566662832E+01  0.25032870278E+02  0.34430549379E+02  0.43400720380E+02  0.00000000000E+00 0. -1.
         11    1    3    3    0    0 -0.20198678652E+01 -0.60287963654E+01 -0.12319956300E+02  0.13863894666E+02  0.51100000000E-03 0. -1.
        -11    1    3    3    0    0 -0.58952443383E+01  0.50832454544E+00 -0.31179399896E+01  0.66883368405E+01  0.51100000000E-03 0.  1.
        -12    1    3    3    0    0 -0.54155407969E+00 -0.19512398458E+02 -0.18992653089E+02  0.27235048114E+02  0.00000000000E+00 0.  1.
</event>
<event>
 7    1  0.2459936E-009  0.4778728E+02  0.7816164E-02  0.1312668E+00
        -11   -1    0    0    0    0  0.00000000000E+00  0.00000000000E+00  0.45593999997E+02  0.45594000000E+02  0.51100000000E-03 0.  1.
         11   -1    0    0    0    0 -0.00000000000E+00 -0.00000000000E+00 -0.45593999997E+02  0.45594000000E+02  0.51100000000E-03 0. -1.
    9900012    2    1    2    0    0  0.33155505098E+02 -0.25836228694E+02 -0.10808508045E+02  0.47787284826E+02  0.20000062837E+02 0.  0.
         12    1    1    2    0    0 -0.33155505098E+02  0.25836228694E+02  0.10808508045E+02  0.43400715174E+02  0.00000000000E+00 0. -1.
         11    1    3    3    0    0  0.16730789225E+02 -0.47591702034E+01 -0.21673936642E+01  0.17529021783E+02  0.51100000000E-03 0. -1.
        -11    1    3    3    0    0  0.13927954995E+02 -0.96737260139E+01 -0.74566391686E+01  0.18524858253E+02  0.51100000000E-03 0.  1.
         12    1    3    3    0    0  0.24967608782E+01 -0.11403332477E+02 -0.11844752123E+01  0.11733404791E+02  0.00000000000E+00 0. -1.
</event>
<event>
 7    1  0.2459936E-009  0.4778727E+02  0.7816164E-02  0.1312668E+00
        -11   -1    0    0    0    0  0.00000000000E+00  0.00000000000E+00  0.45593999997E+02  0.45594000000E+02  0.51100000000E-03 0.  1.
         11   -1    0    0    0    0 -0.00000000000E+00 -0.00000000000E+00 -0.45593999997E+02  0.45594000000E+02  0.51100000000E-03 0. -1.
    9900012    2    1    2    0    0 -0.25619023485E+02  0.60050683404E+00  0.35027535435E+02  0.47787271764E+02  0.20000003279E+02 0.  0.
         12    1    1    2    0    0  0.25619023485E+02 -0.60050683404E+00 -0.35027535435E+02  0.43400728236E+02  0.00000000000E+00 0. -1.
         11    1    3    3    0    0  0.24732928589E+01 -0.21066585588E+01  0.75904583324E+01  0.82565274666E+01  0.51100000000E-03 0.  1.
        -11    1    3    3    0    0 -0.25290409572E+01 -0.11721386862E+00  0.12400500057E+01  0.28191331171E+01  0.51100000000E-03 0. -1.
        -12    1    3    3    0    0 -0.25563275386E+02  0.28243792614E+01  0.26197027097E+02  0.36711611180E+02  0.00000000000E+00 0.  1.
</event>
<event>
 7    1  0.2459936E-009  0.4778727E+02  0.7816164E-02  0.1312668E+00
        -11   -1    0    0    0    0  0.00000000000E+00  0.00000000000E+00  0.45593999997E+02  0.45594000000E+02  0.51100000000E-03 0.  1.
         11   -1    0    0    0    0 -0.00000000000E+00 -0.00000000000E+00 -0.45593999997E+02  0.45594000000E+02  0.51100000000E-03 0. -1.
    9900012    2    1    2    0    0 -0.17219903755E+02  0.37983520928E+02 -0.12014578631E+02  0.47787273657E+02  0.20000011912E+02 0.  0.
         12    1    1    2    0    0  0.17219903755E+02 -0.37983520928E+02  0.12014578631E+02  0.43400726343E+02  0.00000000000E+00 0. -1.
         11    1    3    3    0    0 -0.16521803485E+01  0.33972220551E+01  0.17438183781E+01  0.41607355591E+01  0.51100000000E-03 0. -1.
        -11    1    3    3    0    0  0.87568082226E+00  0.15959465860E+02 -0.89515072593E+01  0.18319411833E+02  0.51100000000E-03 0.  1.
        -12    1    3    3    0    0 -0.16443404229E+02  0.18626833013E+02 -0.48068897502E+01  0.25307126265E+02  0.00000000000E+00 0.  1.
</event>
<event>
 7    1  0.2751787E-009  0.4778727E+02  0.7816164E-02  0.1312668E+00
        -11   -1    0    0    0    0  0.00000000000E+00  0.00000000000E+00  0.45593999997E+02  0.45594000000E+02  0.51100000000E-03 0.  1.
         11   -1    0    0    0    0 -0.00000000000E+00 -0.00000000000E+00 -0.45593999997E+02  0.45594000000E+02  0.51100000000E-03 0. -1.
    9900012    2    1    2    0    0 -0.25300144512E+02  0.35080720966E+02  0.35873475106E+01  0.47787270075E+02  0.19999995581E+02 0.  0.
         12    1    1    2    0    0  0.25300144512E+02 -0.35080720966E+02 -0.35873475106E+01  0.43400729925E+02  0.00000000000E+00 0. -1.
         11    1    3    3    0    0 -0.11177974383E+01 -0.40470173949E+00 -0.20561032543E+01  0.23750400974E+01  0.51100000000E-03 0. -1.
        -11    1    3    3    0    0 -0.41191765431E+01  0.52161370410E+01  0.62055981888E+01  0.90931375315E+01  0.51100000000E-03 0.  1.
        -12    1    3    3    0    0 -0.20063170531E+02  0.30269285665E+02 -0.56214742389E+00  0.36319092446E+02  0.00000000000E+00 0.  1.
</event>
<event>
 7    1  0.2459936E-009  0.4778727E+02  0.7816164E-02  0.1312668E+00
        -11   -1    0    0    0    0  0.00000000000E+00  0.00000000000E+00  0.45593999997E+02  0.45594000000E+02  0.51100000000E-03 0. -1.
         11   -1    0    0    0    0 -0.00000000000E+00 -0.00000000000E+00 -0.45593999997E+02  0.45594000000E+02  0.51100000000E-03 0.  1.
    9900012    2    1    2    0    0  0.30520329495E+02  0.28188033600E+02 -0.12552599647E+02  0.47787268340E+02  0.19999987669E+02 0.  0.
         12    1    1    2    0    0 -0.30520329495E+02 -0.28188033600E+02  0.12552599647E+02  0.43400731660E+02  0.00000000000E+00 0. -1.
         11    1    3    3    0    0  0.17981772375E+01 -0.18842688374E+01  0.12375204279E+01  0.28836378933E+01  0.51100000000E-03 0. -1.
        -11    1    3    3    0    0  0.55592374890E+00  0.47052375171E+01 -0.63514074742E+00  0.47803467800E+01  0.51100000000E-03 0.  1.
         12    1    3    3    0    0  0.28166228509E+02  0.25367064920E+02 -0.13154979327E+02  0.40123283667E+02  0.00000000000E+00 0. -1.
</event>
<event>
 7    1  0.2459936E-009  0.4778727E+02  0.7816164E-02  0.1312668E+00
        -11   -1    0    0    0    0  0.00000000000E+00  0.00000000000E+00  0.45593999997E+02  0.45594000000E+02  0.51100000000E-03 0. -1.
         11   -1    0    0    0    0 -0.00000000000E+00 -0.00000000000E+00 -0.45593999997E+02  0.45594000000E+02  0.51100000000E-03 0.  1.
    9900012    2    1    2    0    0  0.30608855167E+02  0.19845385535E+02 -0.23513443548E+02  0.47787269947E+02  0.19999994998E+02 0.  0.
         12    1    1    2    0    0 -0.30608855167E+02 -0.19845385535E+02  0.23513443548E+02  0.43400730053E+02  0.00000000000E+00 0. -1.
         11    1    3    3    0    0  0.26043314595E+01  0.15874717762E+01  0.12944792225E+01  0.33133496208E+01  0.51100000000E-03 0. -1.
        -11    1    3    3    0    0  0.13362223092E+02  0.87483511268E+00 -0.48980854966E+01  0.14258526720E+02  0.51100000000E-03 0.  1.
        -12    1    3    3    0    0  0.14642300615E+02  0.17383078646E+02 -0.19909837274E+02  0.30215393606E+02  0.00000000000E+00 0.  1.
</event>
<event>
 7    1  0.2459936E-009  0.4778727E+02  0.7816164E-02  0.1312668E+00
        -11   -1    0    0    0    0  0.00000000000E+00  0.00000000000E+00  0.45593999997E+02  0.45594000000E+02  0.51100000000E-03 0.  1.
         11   -1    0    0    0    0 -0.00000000000E+00 -0.00000000000E+00 -0.45593999997E+02  0.45594000000E+02  0.51100000000E-03 0. -1.
    9900012    2    1    2    0    0  0.15898944096E+02 -0.80028917155E+00  0.40375814439E+02  0.47787270999E+02  0.19999999795E+02 0.  0.
         12    1    1    2    0    0 -0.15898944096E+02  0.80028917155E+00 -0.40375814439E+02  0.43400729001E+02  0.00000000000E+00 0. -1.
         11    1    3    3    0    0 -0.39962909617E+00 -0.43816742373E+01  0.37043170056E+01  0.57515856314E+01  0.51100000000E-03 0. -1.
        -11    1    3    3    0    0  0.54502208309E+01  0.66775063153E+01  0.10847903097E+02  0.13855359958E+02  0.51100000000E-03 0.  1.
        -12    1    3    3    0    0  0.10848352361E+02 -0.30961212496E+01  0.25823594337E+02  0.28180325410E+02  0.00000000000E+00 0.  1.
</event>
<event>
 7    1  0.2459936E-009  0.4778728E+02  0.7816164E-02  0.1312668E+00
        -11   -1    0    0    0    0  0.00000000000E+00  0.00000000000E+00  0.45593999997E+02  0.45594000000E+02  0.51100000000E-03 0.  1.
         11   -1    0    0    0    0 -0.00000000000E+00 -0.00000000000E+00 -0.45593999997E+02  0.45594000000E+02  0.51100000000E-03 0. -1.
    9900012    2    1    2    0    0  0.34655185174E+02  0.18845979366E+02  0.18096115827E+02  0.47787283350E+02  0.20000056107E+02 0.  0.
         12    1    1    2    0    0 -0.34655185174E+02 -0.18845979366E+02 -0.18096115827E+02  0.43400716650E+02  0.00000000000E+00 0. -1.
         11    1    3    3    0    0  0.50817980172E+01  0.83652768644E+01  0.45240966329E+01  0.10782855777E+02  0.51100000000E-03 0. -1.
        -11    1    3    3    0    0  0.21777224828E+02  0.13625621487E+02  0.79479992101E+01  0.26890068312E+02  0.51100000000E-03 0.  1.
         12    1    3    3    0    0  0.77961623286E+01 -0.31449189854E+01  0.56240199843E+01  0.10114359261E+02  0.00000000000E+00 0. -1.
</event>
<event>
 7    1  0.2459936E-009  0.4778727E+02  0.7816164E-02  0.1312668E+00
        -11   -1    0    0    0    0  0.00000000000E+00  0.00000000000E+00  0.45593999997E+02  0.45594000000E+02  0.51100000000E-03 0. -1.
         11   -1    0    0    0    0 -0.00000000000E+00 -0.00000000000E+00 -0.45593999997E+02  0.45594000000E+02  0.51100000000E-03 0.  1.
    9900012    2    1    2    0    0  0.56837445335E+01 -0.40848972705E+02 -0.13515907405E+02  0.47787271020E+02  0.19999999890E+02 0.  0.
         12    1    1    2    0    0 -0.56837445335E+01  0.40848972705E+02  0.13515907405E+02  0.43400728980E+02  0.00000000000E+00 0. -1.
         11    1    3    3    0    0 -0.12452302483E+01 -0.16757668076E+02 -0.21287742772E+01  0.16938173393E+02  0.51100000000E-03 0. -1.
        -11    1    3    3    0    0  0.90373375737E+01 -0.23516394585E+02 -0.73249777847E+01  0.26236417143E+02  0.51100000000E-03 0.  1.
         12    1    3    3    0    0 -0.21083627919E+01 -0.57491004475E+00 -0.40621553427E+01  0.46126804843E+01  0.00000000000E+00 0. -1.
</event>
<event>
 7    1  0.2459936E-009  0.4778727E+02  0.7816164E-02  0.1312668E+00
        -11   -1    0    0    0    0  0.00000000000E+00  0.00000000000E+00  0.45593999997E+02  0.45594000000E+02  0.51100000000E-03 0.  1.
         11   -1    0    0    0    0 -0.00000000000E+00 -0.00000000000E+00 -0.45593999997E+02  0.45594000000E+02  0.51100000000E-03 0. -1.
    9900012    2    1    2    0    0  0.20421086421E+02 -0.13918929960E+02  0.35677248102E+02  0.47787269430E+02  0.19999992639E+02 0.  0.
         12    1    1    2    0    0 -0.20421086421E+02  0.13918929960E+02 -0.35677248102E+02  0.43400730570E+02  0.00000000000E+00 0. -1.
         11    1    3    3    0    0  0.10570719571E+02 -0.58290720316E+01  0.20574385675E+02  0.23854214285E+02  0.51100000000E-03 0. -1.
        -11    1    3    3    0    0  0.28523155543E+01 -0.99931557528E+01  0.12434640020E+02  0.16205528026E+02  0.51100000000E-03 0.  1.
         12    1    3    3    0    0  0.69980512960E+01  0.19032978243E+01  0.26682224067E+01  0.77275271181E+01  0.00000000000E+00 0. -1.
</event>
<event>
 7    1  0.2459936E-009  0.4778727E+02  0.7816164E-02  0.1312668E+00
        -11   -1    0    0    0    0  0.00000000000E+00  0.00000000000E+00  0.45593999997E+02  0.45594000000E+02  0.51100000000E-03 0.  1.
         11   -1    0    0    0    0 -0.00000000000E+00 -0.00000000000E+00 -0.45593999997E+02  0.45594000000E+02  0.51100000000E-03 0. -1.
    9900012    2    1    2    0    0  0.19850026395E+02 -0.40766361068E+01  0.38379430675E+02  0.47787271794E+02  0.20000003420E+02 0.  0.
         12    1    1    2    0    0 -0.19850026395E+02  0.40766361068E+01 -0.38379430675E+02  0.43400728206E+02  0.00000000000E+00 0. -1.
         11    1    3    3    0    0 -0.10672177189E+01 -0.68765802321E-01 -0.79230834150E+00  0.13309527281E+01  0.51100000000E-03 0. -1.
        -11    1    3    3    0    0  0.55105183538E+01  0.18906486204E+01  0.21523821918E+02  0.22298324488E+02  0.51100000000E-03 0.  1.
        -12    1    3    3    0    0  0.15406725760E+02 -0.58985189248E+01  0.17647917099E+02  0.24157994579E+02  0.00000000000E+00 0.  1.
</event>
<event>
 7    1  0.2459936E-009  0.4778727E+02  0.7816164E-02  0.1312668E+00
        -11   -1    0    0    0    0  0.00000000000E+00  0.00000000000E+00  0.45593999997E+02  0.45594000000E+02  0.51100000000E-03 0.  1.
         11   -1    0    0    0    0 -0.00000000000E+00 -0.00000000000E+00 -0.45593999997E+02  0.45594000000E+02  0.51100000000E-03 0. -1.
    9900012    2    1    2    0    0 -0.40339415207E+02 -0.49716950334E+01  0.15219626345E+02  0.47787271932E+02  0.20000004045E+02 0.  0.
         12    1    1    2    0    0  0.40339415207E+02  0.49716950334E+01 -0.15219626345E+02  0.43400728068E+02  0.00000000000E+00 0. -1.
         11    1    3    3    0    0 -0.53355755623E+01  0.32686171205E+01  0.58388634244E+01  0.85583030334E+01  0.51100000000E-03 0. -1.
        -11    1    3    3    0    0 -0.18997358452E+02 -0.16401780311E+00  0.96284560141E+01  0.21298678256E+02  0.51100000000E-03 0.  1.
         12    1    3    3    0    0 -0.16006481193E+02 -0.80762943508E+01 -0.24769309341E+00  0.17930290642E+02  0.00000000000E+00 0. -1.
</event>
<event>
 7    1  0.2459936E-009  0.4778728E+02  0.7816164E-02  0.1312668E+00
        -11   -1    0    0    0    0  0.00000000000E+00  0.00000000000E+00  0.45593999997E+02  0.45594000000E+02  0.51100000000E-03 0. -1.
         11   -1    0    0    0    0 -0.00000000000E+00 -0.00000000000E+00 -0.45593999997E+02  0.45594000000E+02  0.51100000000E-03 0.  1.
    9900012    2    1    2    0    0  0.16047644360E+00 -0.15789236076E+02 -0.40426440634E+02  0.47787276148E+02  0.20000023269E+02 0.  0.
         12    1    1    2    0    0 -0.16047644360E+00  0.15789236076E+02  0.40426440634E+02  0.43400723852E+02  0.00000000000E+00 0. -1.
         11    1    3    3    0    0 -0.41857299431E+01 -0.40492024375E+01 -0.66603322779E+01  0.88473952014E+01  0.51100000000E-03 0.  1.
        -11    1    3    3    0    0 -0.23691164292E+00  0.34586346136E+01 -0.72233618930E+01  0.80121930715E+01  0.51100000000E-03 0. -1.
        -12    1    3    3    0    0  0.45831180296E+01 -0.15198668252E+02 -0.26542746463E+02  0.30927687875E+02  0.00000000000E+00 0.  1.
</event>
<event>
 7    1  0.2459936E-009  0.4778727E+02  0.7816164E-02  0.1312668E+00
        -11   -1    0    0    0    0  0.00000000000E+00  0.00000000000E+00  0.45593999997E+02  0.45594000000E+02  0.51100000000E-03 0.  1.
         11   -1    0    0    0    0 -0.00000000000E+00 -0.00000000000E+00 -0.45593999997E+02  0.45594000000E+02  0.51100000000E-03 0. -1.
    9900012    2    1    2    0    0 -0.31535725952E+02  0.21884069128E+02  0.20253613060E+02  0.47787270341E+02  0.19999996794E+02 0.  0.
         12    1    1    2    0    0  0.31535725952E+02 -0.21884069128E+02 -0.20253613060E+02  0.43400729659E+02  0.00000000000E+00 0. -1.
         11    1    3    3    0    0 -0.51696078657E+00 -0.84994545154E+00  0.25719550572E+01  0.27576455180E+01  0.51100000000E-03 0. -1.
        -11    1    3    3    0    0 -0.49966984605E+01 -0.21034571521E+01  0.27771215541E+01  0.60912996875E+01  0.51100000000E-03 0.  1.
        -12    1    3    3    0    0 -0.26022066705E+02  0.24837471732E+02  0.14904536449E+02  0.38938325136E+02  0.00000000000E+00 0.  1.
</event>
<event>
 7    1  0.2459936E-009  0.4778727E+02  0.7816164E-02  0.1312668E+00
        -11   -1    0    0    0    0  0.00000000000E+00  0.00000000000E+00  0.45593999997E+02  0.45594000000E+02  0.51100000000E-03 0.  1.
         11   -1    0    0    0    0 -0.00000000000E+00 -0.00000000000E+00 -0.45593999997E+02  0.45594000000E+02  0.51100000000E-03 0. -1.
    9900012    2    1    2    0    0  0.26116126314E+02  0.32945675353E+02  0.10777451031E+02  0.47787273867E+02  0.20000012871E+02 0.  0.
         12    1    1    2    0    0 -0.26116126314E+02 -0.32945675353E+02 -0.10777451031E+02  0.43400726133E+02  0.00000000000E+00 0. -1.
         11    1    3    3    0    0  0.96463723774E+01  0.13410531655E+02  0.10653073740E+02  0.19656623303E+02  0.51100000000E-03 0.  1.
        -11    1    3    3    0    0  0.97824534731E+01  0.44821615439E+01  0.35028378314E+01  0.11316184922E+02  0.51100000000E-03 0. -1.
         12    1    3    3    0    0  0.66873004639E+01  0.15052982153E+02 -0.33784605398E+01  0.16814465642E+02  0.00000000000E+00 0. -1.
</event>
<event>
 7    1  0.2459936E-009  0.4778727E+02  0.7816164E-02  0.1312668E+00
        -11   -1    0    0    0    0  0.00000000000E+00  0.00000000000E+00  0.45593999997E+02  0.45594000000E+02  0.51100000000E-03 0.  1.
         11   -1    0    0    0    0 -0.00000000000E+00 -0.00000000000E+00 -0.45593999997E+02  0.45594000000E+02  0.51100000000E-03 0. -1.
    9900012    2    1    2    0    0  0.26678052688E+02 -0.33359283746E+02 -0.76852551805E+01  0.47787268964E+02  0.19999990513E+02 0.  0.
         12    1    1    2    0    0 -0.26678052688E+02  0.33359283746E+02  0.76852551805E+01  0.43400731036E+02  0.00000000000E+00 0. -1.
         11    1    3    3    0    0 -0.92233820468E+00 -0.15951498667E+01  0.88011424507E+00  0.20420118038E+01  0.51100000000E-03 0. -1.
        -11    1    3    3    0    0  0.20808599564E+02 -0.12733699679E+02 -0.19053762281E+01  0.24469887253E+02  0.51100000000E-03 0.  1.
        -12    1    3    3    0    0  0.67917913292E+01 -0.19030434200E+02 -0.66599931975E+01  0.21275369907E+02  0.00000000000E+00 0.  1.
</event>
<event>
 7    1  0.2459936E-009  0.4778725E+02  0.7816164E-02  0.1312668E+00
        -11   -1    0    0    0    0  0.00000000000E+00  0.00000000000E+00  0.45593999997E+02  0.45594000000E+02  0.51100000000E-03 0. -1.
         11   -1    0    0    0    0 -0.00000000000E+00 -0.00000000000E+00 -0.45593999997E+02  0.45594000000E+02  0.51100000000E-03 0.  1.
    9900012    2    1    2    0    0  0.71016016873E+01 -0.26635758553E+02 -0.33522058526E+02  0.47787253600E+02  0.19999920464E+02 0.  0.
         12    1    1    2    0    0 -0.71016016873E+01  0.26635758553E+02  0.33522058526E+02  0.43400746400E+02  0.00000000000E+00 0. -1.
         11    1    3    3    0    0  0.31756703447E+01 -0.42352817296E+00  0.41978412819E+00  0.32311727325E+01  0.51100000000E-03 0. -1.
        -11    1    3    3    0    0  0.30616497597E+01 -0.16623934002E+02 -0.12409672541E+02  0.20969712773E+02  0.51100000000E-03 0.  1.
         12    1    3    3    0    0  0.86428158291E+00 -0.95882963784E+01 -0.21532170114E+02  0.23586368095E+02  0.00000000000E+00 0. -1.
</event>
<event>
 7    1  0.2459936E-009  0.4778727E+02  0.7816164E-02  0.1312668E+00
        -11   -1    0    0    0    0  0.00000000000E+00  0.00000000000E+00  0.45593999997E+02  0.45594000000E+02  0.51100000000E-03 0. -1.
         11   -1    0    0    0    0 -0.00000000000E+00 -0.00000000000E+00 -0.45593999997E+02  0.45594000000E+02  0.51100000000E-03 0.  1.
    9900012    2    1    2    0    0  0.38282274814E+02  0.19204608475E+02 -0.70195172606E+01  0.47787272193E+02  0.20000005236E+02 0.  0.
         12    1    1    2    0    0 -0.38282274814E+02 -0.19204608475E+02  0.70195172606E+01  0.43400727807E+02  0.00000000000E+00 0. -1.
         11    1    3    3    0    0  0.48741982599E+01  0.21839215646E+01  0.43676320848E+01  0.68995313150E+01  0.51100000000E-03 0. -1.
        -11    1    3    3    0    0  0.10754342193E+02  0.96331599562E+01  0.93682697396E-01  0.14438227850E+02  0.51100000000E-03 0.  1.
        -12    1    3    3    0    0  0.22653734362E+02  0.73875269542E+01 -0.11480832043E+02  0.26449513028E+02  0.00000000000E+00 0.  1.
</event>
<event>
 7    1  0.2459936E-009  0.4778727E+02  0.7816164E-02  0.1312668E+00
        -11   -1    0    0    0    0  0.00000000000E+00  0.00000000000E+00  0.45593999997E+02  0.45594000000E+02  0.51100000000E-03 0.  1.
         11   -1    0    0    0    0 -0.00000000000E+00 -0.00000000000E+00 -0.45593999997E+02  0.45594000000E+02  0.51100000000E-03 0. -1.
    9900012    2    1    2    0    0 -0.40923381994E+02 -0.14166813327E+02 -0.28638281576E+01  0.47787270681E+02  0.19999998344E+02 0.  0.
         12    1    1    2    0    0  0.40923381994E+02  0.14166813327E+02  0.28638281576E+01  0.43400729319E+02  0.00000000000E+00 0. -1.
         11    1    3    3    0    0 -0.31703478121E+01 -0.34103564533E+01 -0.86347152536E-02  0.46563624438E+01  0.51100000000E-03 0. -1.
        -11    1    3    3    0    0 -0.69211645418E+01  0.36067870893E+00  0.60151493735E+01  0.91768529460E+01  0.51100000000E-03 0.  1.
         12    1    3    3    0    0 -0.30831869640E+02 -0.11117135583E+02 -0.88703428158E+01  0.33954055292E+02  0.00000000000E+00 0. -1.
</event>
<event>
 7    1  0.2459936E-009  0.4778727E+02  0.7816164E-02  0.1312668E+00
        -11   -1    0    0    0    0  0.00000000000E+00  0.00000000000E+00  0.45593999997E+02  0.45594000000E+02  0.51100000000E-03 0. -1.
         11   -1    0    0    0    0 -0.00000000000E+00 -0.00000000000E+00 -0.45593999997E+02  0.45594000000E+02  0.51100000000E-03 0.  1.
    9900012    2    1    2    0    0  0.67766684449E+01  0.41767429579E+02 -0.96530742807E+01  0.47787271297E+02  0.20000001153E+02 0.  0.
         12    1    1    2    0    0 -0.67766684449E+01 -0.41767429579E+02  0.96530742807E+01  0.43400728703E+02  0.00000000000E+00 0. -1.
         11    1    3    3    0    0  0.37630735807E+01  0.26479025642E+02 -0.52872774808E+01  0.27262700254E+02  0.51100000000E-03 0. -1.
        -11    1    3    3    0    0  0.68752980668E+01  0.10568052639E+02 -0.63429737882E+01  0.14113354556E+02  0.51100000000E-03 0.  1.
         12    1    3    3    0    0 -0.38617032025E+01  0.47203512980E+01  0.19771769882E+01  0.64112164870E+01  0.00000000000E+00 0. -1.
</event>
<event>
 7    1  0.2459936E-009  0.4778727E+02  0.7816164E-02  0.1312668E+00
        -11   -1    0    0    0    0  0.00000000000E+00  0.00000000000E+00  0.45593999997E+02  0.45594000000E+02  0.51100000000E-03 0. -1.
         11   -1    0    0    0    0 -0.00000000000E+00 -0.00000000000E+00 -0.45593999997E+02  0.45594000000E+02  0.51100000000E-03 0.  1.
    9900012    2    1    2    0    0  0.22463038744E+02  0.26976703764E+02 -0.25520432890E+02  0.47787272466E+02  0.20000006482E+02 0.  0.
         12    1    1    2    0    0 -0.22463038744E+02 -0.26976703764E+02  0.25520432890E+02  0.43400727534E+02  0.00000000000E+00 0. -1.
         11    1    3    3    0    0  0.32111223136E+00 -0.25362141123E+01 -0.37780051197E+00  0.25842268818E+01  0.51100000000E-03 0. -1.
        -11    1    3    3    0    0  0.27442752503E+01  0.74337238933E+01 -0.75789016049E+01  0.10964991900E+02  0.51100000000E-03 0.  1.
        -12    1    3    3    0    0  0.19397651262E+02  0.22079193983E+02 -0.17563730773E+02  0.34238053684E+02  0.00000000000E+00 0.  1.
</event>
<event>
 7    1  0.2459936E-009  0.4778727E+02  0.7816164E-02  0.1312668E+00
        -11   -1    0    0    0    0  0.00000000000E+00  0.00000000000E+00  0.45593999997E+02  0.45594000000E+02  0.51100000000E-03 0.  1.
         11   -1    0    0    0    0 -0.00000000000E+00 -0.00000000000E+00 -0.45593999997E+02  0.45594000000E+02  0.51100000000E-03 0. -1.
    9900012    2    1    2    0    0 -0.27408162542E+02 -0.24885871612E+02  0.22651919114E+02  0.47787269369E+02  0.19999992359E+02 0.  0.
         12    1    1    2    0    0  0.27408162542E+02  0.24885871612E+02 -0.22651919114E+02  0.43400730631E+02  0.00000000000E+00 0. -1.
         11    1    3    3    0    0 -0.96777650603E+01 -0.11051837969E+02  0.10760384579E+02  0.18209561654E+02  0.51100000000E-03 0. -1.
        -11    1    3    3    0    0 -0.14556906508E+02 -0.12882110050E+02  0.15364821411E+02  0.24777611339E+02  0.51100000000E-03 0.  1.
         12    1    3    3    0    0 -0.31734909736E+01 -0.95192359298E+00 -0.34732868769E+01  0.48000963756E+01  0.00000000000E+00 0. -1.
</event>
<event>
 7    1  0.2459936E-009  0.4778725E+02  0.7816164E-02  0.1312668E+00
        -11   -1    0    0    0    0  0.00000000000E+00  0.00000000000E+00  0.45593999997E+02  0.45594000000E+02  0.51100000000E-03 0.  1.
         11   -1    0    0    0    0 -0.00000000000E+00 -0.00000000000E+00 -0.45593999997E+02  0.45594000000E+02  0.51100000000E-03 0. -1.
    9900012    2    1    2    0    0  0.12696227588E+02 -0.24736621090E+01  0.41428395224E+02  0.47787249661E+02  0.19999902504E+02 0.  0.
         12    1    1    2    0    0 -0.12696227588E+02  0.24736621090E+01 -0.41428395224E+02  0.43400750339E+02  0.00000000000E+00 0. -1.
         11    1    3    3    0    0 -0.30886384519E+01  0.39600189831E-01  0.88232567928E+01  0.93483215795E+01  0.51100000000E-03 0. -1.
        -11    1    3    3    0    0 -0.16222257506E+01 -0.12510924326E+01  0.80933506621E+01  0.83486031084E+01  0.51100000000E-03 0.  1.
        -12    1    3    3    0    0  0.17407091790E+02 -0.12621698662E+01  0.24511787769E+02  0.30090324973E+02  0.00000000000E+00 0.  1.
</event>
<event>
 7    1  0.2459936E-009  0.4778727E+02  0.7816164E-02  0.1312668E+00
        -11   -1    0    0    0    0  0.00000000000E+00  0.00000000000E+00  0.45593999997E+02  0.45594000000E+02  0.51100000000E-03 0.  1.
         11   -1    0    0    0    0 -0.00000000000E+00 -0.00000000000E+00 -0.45593999997E+02  0.45594000000E+02  0.51100000000E-03 0. -1.
    9900012    2    1    2    0    0  0.12850747342E+02 -0.16202423669E+02  0.38157085192E+02  0.47787269703E+02  0.19999993883E+02 0.  0.
         12    1    1    2    0    0 -0.12850747342E+02  0.16202423669E+02 -0.38157085192E+02  0.43400730297E+02  0.00000000000E+00 0. -1.
         11    1    3    3    0    0  0.30389840839E+01  0.52604327883E+00 -0.77014095074E+00  0.31788776539E+01  0.51100000000E-03 0. -1.
        -11    1    3    3    0    0  0.24422152297E+01 -0.42935220039E+00  0.99840104433E+00  0.26731186743E+01  0.51100000000E-03 0.  1.
        -12    1    3    3    0    0  0.73695480288E+01 -0.16299114747E+02  0.37928825098E+02  0.41935273375E+02  0.00000000000E+00 0.  1.
</event>
<event>
 7    1  0.2459936E-009  0.4778727E+02  0.7816164E-02  0.1312668E+00
        -11   -1    0    0    0    0  0.00000000000E+00  0.00000000000E+00  0.45593999997E+02  0.45594000000E+02  0.51100000000E-03 0.  1.
         11   -1    0    0    0    0 -0.00000000000E+00 -0.00000000000E+00 -0.45593999997E+02  0.45594000000E+02  0.51100000000E-03 0. -1.
    9900012    2    1    2    0    0  0.28008263508E+02  0.36194936218E+01  0.32955419578E+02  0.47787271453E+02  0.20000001865E+02 0.  0.
         12    1    1    2    0    0 -0.28008263508E+02 -0.36194936218E+01 -0.32955419578E+02  0.43400728547E+02  0.00000000000E+00 0. -1.
         11    1    3    3    0    0  0.87371665096E+01  0.15715955831E+01  0.40328438756E+01  0.97504780026E+01  0.51100000000E-03 0. -1.
        -11    1    3    3    0    0  0.17650583627E+02  0.56652334307E+00  0.12912452941E+02  0.21876825462E+02  0.51100000000E-03 0.  1.
         12    1    3    3    0    0  0.16205133715E+01  0.14813746957E+01  0.16010122761E+02  0.16159967989E+02  0.00000000000E+00 0. -1.
</event>
<event>
 7    1  0.2459936E-009  0.4778727E+02  0.7816164E-02  0.1312668E+00
        -11   -1    0    0    0    0  0.00000000000E+00  0.00000000000E+00  0.45593999997E+02  0.45594000000E+02  0.51100000000E-03 0.  1.
         11   -1    0    0    0    0 -0.00000000000E+00 -0.00000000000E+00 -0.45593999997E+02  0.45594000000E+02  0.51100000000E-03 0. -1.
    9900012    2    1    2    0    0  0.10987617516E+02 -0.14754983119E+02  0.39308858774E+02  0.47787266785E+02  0.19999980577E+02 0.  0.
         12    1    1    2    0    0 -0.10987617516E+02  0.14754983119E+02 -0.39308858774E+02  0.43400733215E+02  0.00000000000E+00 0. -1.
         11    1    3    3    0    0  0.26986520289E+01 -0.13509174609E+02  0.18859957525E+02  0.23355481573E+02  0.51100000000E-03 0.  1.
        -11    1    3    3    0    0  0.13539605904E+01 -0.27771549409E+01  0.15427579443E+02  0.15733912627E+02  0.51100000000E-03 0. -1.
        -12    1    3    3    0    0  0.69350048964E+01  0.15313464313E+01  0.50213218065E+01  0.86978725842E+01  0.00000000000E+00 0.  1.
</event>
<event>
 7    1  0.2459936E-009  0.4778727E+02  0.7816164E-02  0.1312668E+00
        -11   -1    0    0    0    0  0.00000000000E+00  0.00000000000E+00  0.45593999997E+02  0.45594000000E+02  0.51100000000E-03 0.  1.
         11   -1    0    0    0    0 -0.00000000000E+00 -0.00000000000E+00 -0.45593999997E+02  0.45594000000E+02  0.51100000000E-03 0. -1.
    9900012    2    1    2    0    0 -0.39813844576E+02  0.83330786190E+01  0.15134086339E+02  0.47787274332E+02  0.20000014988E+02 0.  0.
         12    1    1    2    0    0  0.39813844576E+02 -0.83330786190E+01 -0.15134086339E+02  0.43400725668E+02  0.00000000000E+00 0. -1.
         11    1    3    3    0    0 -0.12766683425E+02  0.36804484669E+01 -0.24085140238E+01  0.13503142103E+02  0.51100000000E-03 0. -1.
        -11    1    3    3    0    0 -0.20377655422E+02  0.49861641951E+01  0.76120561933E+01  0.22317125120E+02  0.51100000000E-03 0.  1.
        -12    1    3    3    0    0 -0.66695057297E+01 -0.33353404296E+00  0.99305441699E+01  0.11967007109E+02  0.00000000000E+00 0.  1.
</event>
<event>
 7    1  0.2459936E-009  0.4778728E+02  0.7816164E-02  0.1312668E+00
        -11   -1    0    0    0    0  0.00000000000E+00  0.00000000000E+00  0.45593999997E+02  0.45594000000E+02  0.51100000000E-03 0.  1.
         11   -1    0    0    0    0 -0.00000000000E+00 -0.00000000000E+00 -0.45593999997E+02  0.45594000000E+02  0.51100000000E-03 0. -1.
    9900012    2    1    2    0    0 -0.21930075631E+02 -0.19011248285E+02  0.32268663524E+02  0.47787280834E+02  0.20000044636E+02 0.  0.
         12    1    1    2    0    0  0.21930075631E+02  0.19011248285E+02 -0.32268663524E+02  0.43400719166E+02  0.00000000000E+00 0. -1.
         11    1    3    3    0    0 -0.10478433689E+02 -0.50487222959E+01  0.14666601341E+02  0.18718877225E+02  0.51100000000E-03 0. -1.
        -11    1    3    3    0    0 -0.39766550777E+01 -0.60364260452E+01  0.16626554133E+02  0.18129934572E+02  0.51100000000E-03 0.  1.
         12    1    3    3    0    0 -0.74749868635E+01 -0.79260999434E+01  0.97550804997E+00  0.10938469037E+02  0.00000000000E+00 0. -1.
</event>
<event>
 7    1  0.2459936E-009  0.4778727E+02  0.7816164E-02  0.1312668E+00
        -11   -1    0    0    0    0  0.00000000000E+00  0.00000000000E+00  0.45593999997E+02  0.45594000000E+02  0.51100000000E-03 0.  1.
         11   -1    0    0    0    0 -0.00000000000E+00 -0.00000000000E+00 -0.45593999997E+02  0.45594000000E+02  0.51100000000E-03 0. -1.
    9900012    2    1    2    0    0  0.26417898052E+01 -0.21268415647E+02  0.37739880315E+02  0.47787272775E+02  0.20000007889E+02 0.  0.
         12    1    1    2    0    0 -0.26417898052E+01  0.21268415647E+02 -0.37739880315E+02  0.43400727225E+02  0.00000000000E+00 0. -1.
         11    1    3    3    0    0 -0.42254070741E+01 -0.13670629584E+02  0.29072622541E+02  0.32403048620E+02  0.51100000000E-03 0. -1.
        -11    1    3    3    0    0  0.54161417886E-01  0.14113870728E+01  0.10639916390E+01  0.17683397291E+01  0.51100000000E-03 0.  1.
        -12    1    3    3    0    0  0.68130354615E+01 -0.90091731356E+01  0.76032661344E+01  0.13615884426E+02  0.00000000000E+00 0.  1.
</event>
<event>
 7    1  0.2459936E-009  0.4778727E+02  0.7816164E-02  0.1312668E+00
        -11   -1    0    0    0    0  0.00000000000E+00  0.00000000000E+00  0.45593999997E+02  0.45594000000E+02  0.51100000000E-03 0. -1.
         11   -1    0    0    0    0 -0.00000000000E+00 -0.00000000000E+00 -0.45593999997E+02  0.45594000000E+02  0.51100000000E-03 0.  1.
    9900012    2    1    2    0    0 -0.10351862315E+02  0.40649677954E+02  0.11138472251E+02  0.47787274946E+02  0.20000017789E+02 0.  0.
         12    1    1    2    0    0  0.10351862315E+02 -0.40649677954E+02 -0.11138472251E+02  0.43400725054E+02  0.00000000000E+00 0. -1.
         11    1    3    3    0    0  0.43282398319E+01  0.14665413449E+02  0.30552964107E+01  0.15593038449E+02  0.51100000000E-03 0. -1.
        -11    1    3    3    0    0 -0.93934531969E+00  0.33305816502E+01  0.41583102420E+01  0.54098695075E+01  0.51100000000E-03 0.  1.
        -12    1    3    3    0    0 -0.13740756827E+02  0.22653682855E+02  0.39248655982E+01  0.26784366989E+02  0.00000000000E+00 0.  1.
</event>
<event>
 7    1  0.2459936E-009  0.4778729E+02  0.7816164E-02  0.1312668E+00
        -11   -1    0    0    0    0  0.00000000000E+00  0.00000000000E+00  0.45593999997E+02  0.45594000000E+02  0.51100000000E-03 0.  1.
         11   -1    0    0    0    0 -0.00000000000E+00 -0.00000000000E+00 -0.45593999997E+02  0.45594000000E+02  0.51100000000E-03 0. -1.
    9900012    2    1    2    0    0 -0.84773337746E+01 -0.16655020307E+02  0.39170988390E+02  0.47787294697E+02  0.20000107843E+02 0.  0.
         12    1    1    2    0    0  0.84773337746E+01  0.16655020307E+02 -0.39170988390E+02  0.43400705303E+02  0.00000000000E+00 0. -1.
         11    1    3    3    0    0 -0.40920550204E+01 -0.11385170343E+01  0.19546618630E+02  0.20002785692E+02  0.51100000000E-03 0. -1.
        -11    1    3    3    0    0  0.81928513309E+00 -0.17816914366E+01  0.10077780402E+02  0.10266806251E+02  0.51100000000E-03 0.  1.
         12    1    3    3    0    0 -0.52045638872E+01 -0.13734811836E+02  0.95465893583E+01  0.17517702754E+02  0.00000000000E+00 0. -1.
</event>
<event>
 7    1  0.2459936E-009  0.4778727E+02  0.7816164E-02  0.1312668E+00
        -11   -1    0    0    0    0  0.00000000000E+00  0.00000000000E+00  0.45593999997E+02  0.45594000000E+02  0.51100000000E-03 0.  1.
         11   -1    0    0    0    0 -0.00000000000E+00 -0.00000000000E+00 -0.45593999997E+02  0.45594000000E+02  0.51100000000E-03 0. -1.
    9900012    2    1    2    0    0  0.28041543727E+02 -0.23370653906E+02  0.23475681012E+02  0.47787271462E+02  0.20000001906E+02 0.  0.
         12    1    1    2    0    0 -0.28041543727E+02  0.23370653906E+02 -0.23475681012E+02  0.43400728538E+02  0.00000000000E+00 0. -1.
         11    1    3    3    0    0  0.20580524784E+02 -0.17377219016E+02  0.18315632875E+02  0.32572813035E+02  0.51100000000E-03 0.  1.
        -11    1    3    3    0    0  0.49589476024E+01 -0.35718269878E+01  0.84470691920E+01  0.10426029328E+02  0.51100000000E-03 0. -1.
        -12    1    3    3    0    0  0.25020713405E+01 -0.24216079022E+01 -0.32870210549E+01  0.47884290994E+01  0.00000000000E+00 0.  1.
</event>
<event>
 7    1  0.2459936E-009  0.4778727E+02  0.7816164E-02  0.1312668E+00
        -11   -1    0    0    0    0  0.00000000000E+00  0.00000000000E+00  0.45593999997E+02  0.45594000000E+02  0.51100000000E-03 0.  1.
         11   -1    0    0    0    0 -0.00000000000E+00 -0.00000000000E+00 -0.45593999997E+02  0.45594000000E+02  0.51100000000E-03 0. -1.
    9900012    2    1    2    0    0 -0.24624357343E+02 -0.11886642394E+02  0.33704186381E+02  0.47787269343E+02  0.19999992244E+02 0.  0.
         12    1    1    2    0    0  0.24624357343E+02  0.11886642394E+02 -0.33704186381E+02  0.43400730657E+02  0.00000000000E+00 0. -1.
         11    1    3    3    0    0 -0.60868882556E+01 -0.48455300033E+01  0.19267992577E+02  0.20779434734E+02  0.51100000000E-03 0. -1.
        -11    1    3    3    0    0  0.96977332168E+00 -0.24000704771E+01  0.63422303503E+00  0.26651524740E+01  0.51100000000E-03 0.  1.
        -12    1    3    3    0    0 -0.19507242409E+02 -0.46410419139E+01  0.13801970768E+02  0.24342682135E+02  0.00000000000E+00 0.  1.
</event>
<event>
 7    1  0.2459936E-009  0.4778727E+02  0.7816164E-02  0.1312668E+00
        -11   -1    0    0    0    0  0.00000000000E+00  0.00000000000E+00  0.45593999997E+02  0.45594000000E+02  0.51100000000E-03 0.  1.
         11   -1    0    0    0    0 -0.00000000000E+00 -0.00000000000E+00 -0.45593999997E+02  0.45594000000E+02  0.51100000000E-03 0. -1.
    9900012    2    1    2    0    0 -0.26263446492E+02 -0.33305127478E+02  0.91990838002E+01  0.47787270966E+02  0.19999999641E+02 0.  0.
         12    1    1    2    0    0  0.26263446492E+02  0.33305127478E+02 -0.91990838002E+01  0.43400729034E+02  0.00000000000E+00 0. -1.
         11    1    3    3    0    0 -0.90598326558E+01 -0.20895570329E+02  0.12405376964E+02  0.25934509924E+02  0.51100000000E-03 0. -1.
        -11    1    3    3    0    0 -0.45075159265E+01 -0.49461789067E+01  0.35371720422E+00  0.67013059717E+01  0.51100000000E-03 0.  1.
         12    1    3    3    0    0 -0.12696097910E+02 -0.74633782416E+01 -0.35600103677E+01  0.15151455070E+02  0.00000000000E+00 0. -1.
</event>
<event>
 7    1  0.2459936E-009  0.4778728E+02  0.7816164E-02  0.1312668E+00
        -11   -1    0    0    0    0  0.00000000000E+00  0.00000000000E+00  0.45593999997E+02  0.45594000000E+02  0.51100000000E-03 0.  1.
         11   -1    0    0    0    0 -0.00000000000E+00 -0.00000000000E+00 -0.45593999997E+02  0.45594000000E+02  0.51100000000E-03 0. -1.
    9900012    2    1    2    0    0 -0.29709942984E+02  0.79851748270E+01 -0.30613382299E+02  0.47787275295E+02  0.20000019380E+02 0.  0.
         12    1    1    2    0    0  0.29709942984E+02 -0.79851748270E+01  0.30613382299E+02  0.43400724705E+02  0.00000000000E+00 0. -1.
         11    1    3    3    0    0 -0.10806642941E+02  0.83360489495E+01 -0.13930295708E+02  0.19501958428E+02  0.51100000000E-03 0. -1.
        -11    1    3    3    0    0 -0.97827033836E+01  0.57924375906E+01 -0.11346201533E+02  0.16062064258E+02  0.51100000000E-03 0.  1.
        -12    1    3    3    0    0 -0.91205966595E+01 -0.61433117132E+01 -0.53368850584E+01  0.12223252610E+02  0.00000000000E+00 0.  1.
</event>
<event>
 7    1  0.2459936E-009  0.4778729E+02  0.7816164E-02  0.1312668E+00
        -11   -1    0    0    0    0  0.00000000000E+00  0.00000000000E+00  0.45593999997E+02  0.45594000000E+02  0.51100000000E-03 0.  1.
         11   -1    0    0    0    0 -0.00000000000E+00 -0.00000000000E+00 -0.45593999997E+02  0.45594000000E+02  0.51100000000E-03 0. -1.
    9900012    2    1    2    0    0 -0.30404857003E+02  0.13002739440E+02  0.28108631593E+02  0.47787288804E+02  0.20000080972E+02 0.  0.
         12    1    1    2    0    0  0.30404857003E+02 -0.13002739440E+02 -0.28108631593E+02  0.43400711196E+02  0.00000000000E+00 0. -1.
         11    1    3    3    0    0 -0.72549539619E+01 -0.25166661763E+01  0.61434273506E+01  0.98341072551E+01  0.51100000000E-03 0. -1.
        -11    1    3    3    0    0  0.12134410626E+01  0.36517451278E+01  0.29072597247E+01  0.48228457428E+01  0.51100000000E-03 0.  1.
        -12    1    3    3    0    0 -0.24363344104E+02  0.11867660488E+02  0.19057944517E+02  0.33130335806E+02  0.00000000000E+00 0.  1.
</event>
<event>
 7    1  0.2459936E-009  0.4778728E+02  0.7816164E-02  0.1312668E+00
        -11   -1    0    0    0    0  0.00000000000E+00  0.00000000000E+00  0.45593999997E+02  0.45594000000E+02  0.51100000000E-03 0.  1.
         11   -1    0    0    0    0 -0.00000000000E+00 -0.00000000000E+00 -0.45593999997E+02  0.45594000000E+02  0.51100000000E-03 0. -1.
    9900012    2    1    2    0    0  0.92527976268E+01 -0.65129064785E+01  0.41899764565E+02  0.47787280129E+02  0.20000041419E+02 0.  0.
         12    1    1    2    0    0 -0.92527976268E+01  0.65129064785E+01 -0.41899764565E+02  0.43400719871E+02  0.00000000000E+00 0. -1.
         11    1    3    3    0    0  0.27998526363E+01  0.25637057455E+01  0.68655247283E+00  0.38578642399E+01  0.51100000000E-03 0. -1.
        -11    1    3    3    0    0 -0.25200673566E+01 -0.32584181611E+01  0.74492137679E+01  0.85122743386E+01  0.51100000000E-03 0.  1.
         12    1    3    3    0    0  0.89730123472E+01 -0.58181940629E+01  0.33763998324E+02  0.35417141550E+02  0.00000000000E+00 0. -1.
</event>
<event>
 7    1  0.2459936E-009  0.4778727E+02  0.7816164E-02  0.1312668E+00
        -11   -1    0    0    0    0  0.00000000000E+00  0.00000000000E+00  0.45593999997E+02  0.45594000000E+02  0.51100000000E-03 0.  1.
         11   -1    0    0    0    0 -0.00000000000E+00 -0.00000000000E+00 -0.45593999997E+02  0.45594000000E+02  0.51100000000E-03 0. -1.
    9900012    2    1    2    0    0 -0.40166690603E+02 -0.70056989112E+01  0.14872147139E+02  0.47787267152E+02  0.19999982253E+02 0.  0.
         12    1    1    2    0    0  0.40166690603E+02  0.70056989112E+01 -0.14872147139E+02  0.43400732848E+02  0.00000000000E+00 0. -1.
         11    1    3    3    0    0 -0.10133440680E+02 -0.68947367243E+01  0.23901832069E+01  0.12487473345E+02  0.51100000000E-03 0. -1.
        -11    1    3    3    0    0 -0.79380747761E+00 -0.50235188792E+00 -0.23358674424E+01  0.25176903503E+01  0.51100000000E-03 0.  1.
        -12    1    3    3    0    0 -0.29239442445E+02  0.39138970101E+00  0.14817831375E+02  0.32782103457E+02  0.00000000000E+00 0.  1.
</event>
<event>
 7    1  0.2459936E-009  0.4778728E+02  0.7816164E-02  0.1312668E+00
        -11   -1    0    0    0    0  0.00000000000E+00  0.00000000000E+00  0.45593999997E+02  0.45594000000E+02  0.51100000000E-03 0.  1.
         11   -1    0    0    0    0 -0.00000000000E+00 -0.00000000000E+00 -0.45593999997E+02  0.45594000000E+02  0.51100000000E-03 0. -1.
    9900012    2    1    2    0    0  0.76434472067E+01 -0.10010858154E+02  0.41532918965E+02  0.47787275076E+02  0.20000018379E+02 0.  0.
         12    1    1    2    0    0 -0.76434472067E+01  0.10010858154E+02 -0.41532918965E+02  0.43400724924E+02  0.00000000000E+00 0. -1.
         11    1    3    3    0    0 -0.95517394838E+00  0.49988701014E+01  0.96992586310E+01  0.10953386591E+02  0.51100000000E-03 0. -1.
        -11    1    3    3    0    0  0.37040770208E+01 -0.13043946346E+01  0.79175147679E+01  0.88379110823E+01  0.51100000000E-03 0.  1.
         12    1    3    3    0    0  0.48945441343E+01 -0.13705333621E+02  0.23916145567E+02  0.27995977402E+02  0.00000000000E+00 0. -1.
</event>
<event>
 7    1  0.2459936E-009  0.4778727E+02  0.7816164E-02  0.1312668E+00
        -11   -1    0    0    0    0  0.00000000000E+00  0.00000000000E+00  0.45593999997E+02  0.45594000000E+02  0.51100000000E-03 0.  1.
         11   -1    0    0    0    0 -0.00000000000E+00 -0.00000000000E+00 -0.45593999997E+02  0.45594000000E+02  0.51100000000E-03 0. -1.
    9900012    2    1    2    0    0 -0.46259366825E+01  0.38501831119E+00  0.43151779385E+02  0.47787267363E+02  0.19999983215E+02 0.  0.
         12    1    1    2    0    0  0.46259366825E+01 -0.38501831119E+00 -0.43151779385E+02  0.43400732637E+02  0.00000000000E+00 0. -1.
         11    1    3    3    0    0 -0.31257657908E+01  0.26657990768E+01  0.25790850877E+02  0.26115989082E+02  0.51100000000E-03 0. -1.
        -11    1    3    3    0    0 -0.34490493035E+01  0.24943614645E+01  0.15678888238E+02  0.16246393964E+02  0.51100000000E-03 0.  1.
         12    1    3    3    0    0  0.19488784118E+01 -0.47751422301E+01  0.16820402709E+01  0.54248843171E+01  0.00000000000E+00 0. -1.
</event>
<event>
 7    1  0.2459936E-009  0.4778727E+02  0.7816164E-02  0.1312668E+00
        -11   -1    0    0    0    0  0.00000000000E+00  0.00000000000E+00  0.45593999997E+02  0.45594000000E+02  0.51100000000E-03 0.  1.
         11   -1    0    0    0    0 -0.00000000000E+00 -0.00000000000E+00 -0.45593999997E+02  0.45594000000E+02  0.51100000000E-03 0. -1.
    9900012    2    1    2    0    0  0.30138840441E+02  0.14083779057E+01  0.31197594977E+02  0.47787272312E+02  0.20000005780E+02 0.  0.
         12    1    1    2    0    0 -0.30138840441E+02 -0.14083779057E+01 -0.31197594977E+02  0.43400727688E+02  0.00000000000E+00 0. -1.
         11    1    3    3    0    0  0.23602061679E+01  0.47585418233E+01  0.27076345190E+01  0.59620112704E+01  0.51100000000E-03 0. -1.
        -11    1    3    3    0    0  0.15565579610E+02  0.25304868704E+01  0.21236540424E+02  0.26451489218E+02  0.51100000000E-03 0.  1.
        -12    1    3    3    0    0  0.12213054664E+02 -0.58806507880E+01  0.72534200335E+01  0.15373771824E+02  0.00000000000E+00 0.  1.
</event>
<event>
 7    1  0.2459936E-009  0.4778728E+02  0.7816164E-02  0.1312668E+00
        -11   -1    0    0    0    0  0.00000000000E+00  0.00000000000E+00  0.45593999997E+02  0.45594000000E+02  0.51100000000E-03 0.  1.
         11   -1    0    0    0    0 -0.00000000000E+00 -0.00000000000E+00 -0.45593999997E+02  0.45594000000E+02  0.51100000000E-03 0. -1.
    9900012    2    1    2    0    0  0.26134406982E+02 -0.17320305420E+02  0.30010373286E+02  0.47787277507E+02  0.20000029466E+02 0.  0.
         12    1    1    2    0    0 -0.26134406982E+02  0.17320305420E+02 -0.30010373286E+02  0.43400722493E+02  0.00000000000E+00 0. -1.
         11    1    3    3    0    0  0.89265423988E+01 -0.15499479242E+02  0.18033017660E+02  0.25398951595E+02  0.51100000000E-03 0. -1.
        -11    1    3    3    0    0  0.15272441817E+01 -0.19739691134E+01 -0.24302477031E+00  0.25076064587E+01  0.51100000000E-03 0.  1.
        -12    1    3    3    0    0  0.15680620401E+02  0.15314293533E+00  0.12220380397E+02  0.19880719453E+02  0.00000000000E+00 0.  1.
</event>
<event>
 7    1  0.2459936E-009  0.4778728E+02  0.7816164E-02  0.1312668E+00
        -11   -1    0    0    0    0  0.00000000000E+00  0.00000000000E+00  0.45593999997E+02  0.45594000000E+02  0.51100000000E-03 0.  1.
         11   -1    0    0    0    0 -0.00000000000E+00 -0.00000000000E+00 -0.45593999997E+02  0.45594000000E+02  0.51100000000E-03 0. -1.
    9900012    2    1    2    0    0  0.10173196103E+02 -0.87805113443E+01  0.41267795760E+02  0.47787282664E+02  0.20000052978E+02 0.  0.
         12    1    1    2    0    0 -0.10173196103E+02  0.87805113443E+01 -0.41267795760E+02  0.43400717336E+02  0.00000000000E+00 0. -1.
         11    1    3    3    0    0  0.43671541595E+00 -0.41032723910E+01  0.11107433332E+02  0.11849162003E+02  0.51100000000E-03 0. -1.
        -11    1    3    3    0    0  0.52706405695E+01 -0.85765811285E+01  0.27783159067E+02  0.29550656911E+02  0.51100000000E-03 0.  1.
         12    1    3    3    0    0  0.44658401171E+01  0.38993421751E+01  0.23772033608E+01  0.63874637509E+01  0.00000000000E+00 0. -1.
</event>
<event>
 7    1  0.2459936E-009  0.4778726E+02  0.7816164E-02  0.1312668E+00
        -11   -1    0    0    0    0  0.00000000000E+00  0.00000000000E+00  0.45593999997E+02  0.45594000000E+02  0.51100000000E-03 0.  1.
         11   -1    0    0    0    0 -0.00000000000E+00 -0.00000000000E+00 -0.45593999997E+02  0.45594000000E+02  0.51100000000E-03 0. -1.
    9900012    2    1    2    0    0 -0.17951278166E+02 -0.32123475895E+02 -0.23009950424E+02  0.47787263717E+02  0.19999966591E+02 0.  0.
         12    1    1    2    0    0  0.17951278166E+02  0.32123475895E+02  0.23009950424E+02  0.43400736283E+02  0.00000000000E+00 0. -1.
         11    1    3    3    0    0 -0.11361324831E+02 -0.61657401304E+01 -0.96581823804E+01  0.16136187295E+02  0.51100000000E-03 0. -1.
        -11    1    3    3    0    0 -0.50595688297E+01 -0.11734904141E+02 -0.11564386573E+02  0.17234913665E+02  0.51100000000E-03 0.  1.
        -12    1    3    3    0    0 -0.15303845057E+01 -0.14222831624E+02 -0.17873814701E+01  0.14416162757E+02  0.00000000000E+00 0.  1.
</event>
<event>
 7    1  0.2459936E-009  0.4778726E+02  0.7816164E-02  0.1312668E+00
        -11   -1    0    0    0    0  0.00000000000E+00  0.00000000000E+00  0.45593999997E+02  0.45594000000E+02  0.51100000000E-03 0.  1.
         11   -1    0    0    0    0 -0.00000000000E+00 -0.00000000000E+00 -0.45593999997E+02  0.45594000000E+02  0.51100000000E-03 0. -1.
    9900012    2    1    2    0    0  0.17698574891E+02 -0.24103387678E+02  0.31454905434E+02  0.47787263525E+02  0.19999965715E+02 0.  0.
         12    1    1    2    0    0 -0.17698574891E+02  0.24103387678E+02 -0.31454905434E+02  0.43400736475E+02  0.00000000000E+00 0. -1.
         11    1    3    3    0    0  0.78017717167E+01 -0.11503798032E+02  0.63224554001E+01  0.15270181847E+02  0.51100000000E-03 0. -1.
        -11    1    3    3    0    0  0.60349554827E+01 -0.13278694850E+02  0.12238487283E+02  0.19040089176E+02  0.51100000000E-03 0.  1.
        -12    1    3    3    0    0  0.38618476918E+01  0.67910520450E+00  0.12893962751E+02  0.13476992502E+02  0.00000000000E+00 0.  1.
</event>
<event>
 7    1  0.2459936E-009  0.4778727E+02  0.7816164E-02  0.1312668E+00
        -11   -1    0    0    0    0  0.00000000000E+00  0.00000000000E+00  0.45593999997E+02  0.45594000000E+02  0.51100000000E-03 0. -1.
         11   -1    0    0    0    0 -0.00000000000E+00 -0.00000000000E+00 -0.45593999997E+02  0.45594000000E+02  0.51100000000E-03 0.  1.
    9900012    2    1    2    0    0 -0.38157292825E+01 -0.42817441439E+02  0.59774916528E+01  0.47787268579E+02  0.19999988761E+02 0.  0.
         12    1    1    2    0    0  0.38157292825E+01  0.42817441439E+02 -0.59774916528E+01  0.43400731421E+02  0.00000000000E+00 0. -1.
         11    1    3    3    0    0  0.43404553867E+00 -0.52729419932E+01  0.71345909677E+01  0.88822689292E+01  0.51100000000E-03 0.  1.
        -11    1    3    3    0    0 -0.20267906985E+01 -0.59037502955E+01  0.29813584110E+01  0.69174161594E+01  0.51100000000E-03 0. -1.
        -12    1    3    3    0    0 -0.22229841226E+01 -0.31640749151E+02 -0.41384577258E+01  0.31987583491E+02  0.00000000000E+00 0.  1.
</event>
<event>
 7    1  0.2459936E-009  0.4778727E+02  0.7816164E-02  0.1312668E+00
        -11   -1    0    0    0    0  0.00000000000E+00  0.00000000000E+00  0.45593999997E+02  0.45594000000E+02  0.51100000000E-03 0.  1.
         11   -1    0    0    0    0 -0.00000000000E+00 -0.00000000000E+00 -0.45593999997E+02  0.45594000000E+02  0.51100000000E-03 0. -1.
    9900012    2    1    2    0    0  0.23331163932E+02 -0.11548387976E+02  0.34726283478E+02  0.47787271441E+02  0.20000001807E+02 0.  0.
         12    1    1    2    0    0 -0.23331163932E+02  0.11548387976E+02 -0.34726283478E+02  0.43400728559E+02  0.00000000000E+00 0. -1.
         11    1    3    3    0    0  0.64401333216E+01 -0.12010067518E+02  0.99162363404E+01  0.16853746836E+02  0.51100000000E-03 0. -1.
        -11    1    3    3    0    0  0.34672550211E+01 -0.26345820062E+01  0.87548721413E+01  0.97780706788E+01  0.51100000000E-03 0.  1.
        -12    1    3    3    0    0  0.13423775589E+02  0.30962615487E+01  0.16055174997E+02  0.21155453926E+02  0.00000000000E+00 0.  1.
</event>
<event>
 7    1  0.2459936E-009  0.4778728E+02  0.7816164E-02  0.1312668E+00
        -11   -1    0    0    0    0  0.00000000000E+00  0.00000000000E+00  0.45593999997E+02  0.45594000000E+02  0.51100000000E-03 0.  1.
         11   -1    0    0    0    0 -0.00000000000E+00 -0.00000000000E+00 -0.45593999997E+02  0.45594000000E+02  0.51100000000E-03 0. -1.
    9900012    2    1    2    0    0  0.26738815295E+02 -0.29742420256E+02  0.16853695755E+02  0.47787275735E+02  0.20000021387E+02 0.  0.
         12    1    1    2    0    0 -0.26738815295E+02  0.29742420256E+02 -0.16853695755E+02  0.43400724265E+02  0.00000000000E+00 0. -1.
         11    1    3    3    0    0  0.64287169816E+01 -0.17559738780E+02  0.34946782373E+00  0.18702806101E+02  0.51100000000E-03 0. -1.
        -11    1    3    3    0    0  0.55944867943E+01 -0.25675604560E+01  0.26452371676E+01  0.66998454550E+01  0.51100000000E-03 0.  1.
         12    1    3    3    0    0  0.14715611519E+02 -0.96151210206E+01  0.13858990764E+02  0.22384624179E+02  0.00000000000E+00 0. -1.
</event>
<event>
 7    1  0.2459936E-009  0.4778727E+02  0.7816164E-02  0.1312668E+00
        -11   -1    0    0    0    0  0.00000000000E+00  0.00000000000E+00  0.45593999997E+02  0.45594000000E+02  0.51100000000E-03 0.  1.
         11   -1    0    0    0    0 -0.00000000000E+00 -0.00000000000E+00 -0.45593999997E+02  0.45594000000E+02  0.51100000000E-03 0. -1.
    9900012    2    1    2    0    0 -0.43199725621E+02  0.19403915463E+01  0.36935021578E+01  0.47787269923E+02  0.19999994886E+02 0.  0.
         12    1    1    2    0    0  0.43199725621E+02 -0.19403915463E+01 -0.36935021578E+01  0.43400730077E+02  0.00000000000E+00 0. -1.
         11    1    3    3    0    0 -0.49161040201E+00  0.24400816313E+01 -0.12159721639E+01  0.27702468698E+01  0.51100000000E-03 0. -1.
        -11    1    3    3    0    0 -0.15222285000E+02  0.59020186500E+01 -0.24716961865E+00  0.16328284596E+02  0.51100000000E-03 0.  1.
        -12    1    3    3    0    0 -0.27485830219E+02 -0.64017087350E+01  0.51566439403E+01  0.28688738457E+02  0.00000000000E+00 0.  1.
</event>
<event>
 7    1  0.2459936E-009  0.4778728E+02  0.7816164E-02  0.1312668E+00
        -11   -1    0    0    0    0  0.00000000000E+00  0.00000000000E+00  0.45593999997E+02  0.45594000000E+02  0.51100000000E-03 0.  1.
         11   -1    0    0    0    0 -0.00000000000E+00 -0.00000000000E+00 -0.45593999997E+02  0.45594000000E+02  0.51100000000E-03 0. -1.
    9900012    2    1    2    0    0 -0.32582817392E+02 -0.16596860313E+02  0.23377910976E+02  0.47787280155E+02  0.20000041541E+02 0.  0.
         12    1    1    2    0    0  0.32582817392E+02  0.16596860313E+02 -0.23377910976E+02  0.43400719845E+02  0.00000000000E+00 0. -1.
         11    1    3    3    0    0 -0.48016388651E+01 -0.37275411915E+01  0.12436914353E+02  0.13842945424E+02  0.51100000000E-03 0. -1.
        -11    1    3    3    0    0 -0.39512089332E+01 -0.59913083164E+01  0.38678070208E+01  0.81527761399E+01  0.51100000000E-03 0.  1.
        -12    1    3    3    0    0 -0.23829969593E+02 -0.68780108049E+01  0.70731896028E+01  0.25791558592E+02  0.00000000000E+00 0.  1.
</event>
<event>
 7    1  0.2459936E-009  0.4778727E+02  0.7816164E-02  0.1312668E+00
        -11   -1    0    0    0    0  0.00000000000E+00  0.00000000000E+00  0.45593999997E+02  0.45594000000E+02  0.51100000000E-03 0. -1.
         11   -1    0    0    0    0 -0.00000000000E+00 -0.00000000000E+00 -0.45593999997E+02  0.45594000000E+02  0.51100000000E-03 0.  1.
    9900012    2    1    2    0    0  0.77741527434E+01 -0.35878273215E+02 -0.23150276516E+02  0.47787271405E+02  0.20000001645E+02 0.  0.
         12    1    1    2    0    0 -0.77741527434E+01  0.35878273215E+02  0.23150276516E+02  0.43400728595E+02  0.00000000000E+00 0. -1.
         11    1    3    3    0    0 -0.41930581061E+01 -0.89849134513E+01 -0.85011508194E+01  0.13060626766E+02  0.51100000000E-03 0.  1.
        -11    1    3    3    0    0  0.44602802796E+00 -0.88866549570E+00  0.16636207592E+01  0.19381180708E+01  0.51100000000E-03 0. -1.
        -12    1    3    3    0    0  0.11521182821E+02 -0.26004694268E+02 -0.16312746456E+02  0.32788526568E+02  0.00000000000E+00 0.  1.
</event>
<event>
 7    1  0.2459936E-009  0.4778727E+02  0.7816164E-02  0.1312668E+00
        -11   -1    0    0    0    0  0.00000000000E+00  0.00000000000E+00  0.45593999997E+02  0.45594000000E+02  0.51100000000E-03 0. -1.
         11   -1    0    0    0    0 -0.00000000000E+00 -0.00000000000E+00 -0.45593999997E+02  0.45594000000E+02  0.51100000000E-03 0.  1.
    9900012    2    1    2    0    0  0.91986253208E+01  0.46554121535E+01 -0.42158461875E+02  0.47787268695E+02  0.19999989288E+02 0.  0.
         12    1    1    2    0    0 -0.91986253208E+01 -0.46554121535E+01  0.42158461875E+02  0.43400731305E+02  0.00000000000E+00 0. -1.
         11    1    3    3    0    0 -0.11006718028E+01  0.14834593558E+01 -0.19602277591E+02  0.19689119257E+02  0.51100000000E-03 0. -1.
        -11    1    3    3    0    0  0.13219868564E+01  0.53427870837E+01 -0.15579794267E+02  0.16523408024E+02  0.51100000000E-03 0.  1.
         12    1    3    3    0    0  0.89773102672E+01 -0.21708342860E+01 -0.69763900166E+01  0.11574741414E+02  0.00000000000E+00 0. -1.
</event>
<event>
 7    1  0.2459936E-009  0.4778727E+02  0.7816164E-02  0.1312668E+00
        -11   -1    0    0    0    0  0.00000000000E+00  0.00000000000E+00  0.45593999997E+02  0.45594000000E+02  0.51100000000E-03 0.  1.
         11   -1    0    0    0    0 -0.00000000000E+00 -0.00000000000E+00 -0.45593999997E+02  0.45594000000E+02  0.51100000000E-03 0. -1.
    9900012    2    1    2    0    0  0.43391452103E+02 -0.61550710995E-01  0.89537253069E+00  0.47787267332E+02  0.19999983075E+02 0.  0.
         12    1    1    2    0    0 -0.43391452103E+02  0.61550710995E-01 -0.89537253069E+00  0.43400732668E+02  0.00000000000E+00 0. -1.
         11    1    3    3    0    0  0.11004872514E+02 -0.50213542694E+00 -0.72511003301E+01  0.13188548643E+02  0.51100000000E-03 0. -1.
        -11    1    3    3    0    0 -0.34376494210E+00  0.82454437875E+00  0.20734605570E+00  0.91708255674E+00  0.51100000000E-03 0.  1.
        -12    1    3    3    0    0  0.32730344531E+02 -0.38395966281E+00  0.79391268051E+01  0.33681636133E+02  0.00000000000E+00 0.  1.
</event>
<event>
 7    1  0.2459936E-009  0.4778727E+02  0.7816164E-02  0.1312668E+00
        -11   -1    0    0    0    0  0.00000000000E+00  0.00000000000E+00  0.45593999997E+02  0.45594000000E+02  0.51100000000E-03 0.  1.
         11   -1    0    0    0    0 -0.00000000000E+00 -0.00000000000E+00 -0.45593999997E+02  0.45594000000E+02  0.51100000000E-03 0. -1.
    9900012    2    1    2    0    0 -0.78327218238E+01  0.22928830921E+01  0.42626452082E+02  0.47787271191E+02  0.20000000668E+02 0.  0.
         12    1    1    2    0    0  0.78327218238E+01 -0.22928830921E+01 -0.42626452082E+02  0.43400728809E+02  0.00000000000E+00 0. -1.
         11    1    3    3    0    0 -0.30799212438E+01  0.12719037230E+01  0.82596261677E+01  0.89064627457E+01  0.51100000000E-03 0. -1.
        -11    1    3    3    0    0  0.52533895327E+01  0.46840646567E+01  0.94663100011E+01  0.11796168386E+02  0.51100000000E-03 0.  1.
        -12    1    3    3    0    0 -0.10006190113E+02 -0.36630852876E+01  0.24900515913E+02  0.27084640059E+02  0.00000000000E+00 0.  1.
</event>
<event>
 7    1  0.2459936E-009  0.4778727E+02  0.7816164E-02  0.1312668E+00
        -11   -1    0    0    0    0  0.00000000000E+00  0.00000000000E+00  0.45593999997E+02  0.45594000000E+02  0.51100000000E-03 0.  1.
         11   -1    0    0    0    0 -0.00000000000E+00 -0.00000000000E+00 -0.45593999997E+02  0.45594000000E+02  0.51100000000E-03 0. -1.
    9900012    2    1    2    0    0 -0.34901618968E+02 -0.12923801674E+02  0.22326563411E+02  0.47787273163E+02  0.20000009659E+02 0.  0.
         12    1    1    2    0    0  0.34901618968E+02  0.12923801674E+02 -0.22326563411E+02  0.43400726837E+02  0.00000000000E+00 0. -1.
         11    1    3    3    0    0 -0.12580864540E+02 -0.71918056150E+01  0.36570284986E+01  0.14945704342E+02  0.51100000000E-03 0. -1.
        -11    1    3    3    0    0 -0.56118568095E+01 -0.49420356317E+01 -0.38339554804E+00  0.74875660559E+01  0.51100000000E-03 0.  1.
        -12    1    3    3    0    0 -0.16708897618E+02 -0.78996042706E+00  0.19052930460E+02  0.25354002765E+02  0.00000000000E+00 0.  1.
</event>
<event>
 7    1  0.2459936E-009  0.4778727E+02  0.7816164E-02  0.1312668E+00
        -11   -1    0    0    0    0  0.00000000000E+00  0.00000000000E+00  0.45593999997E+02  0.45594000000E+02  0.51100000000E-03 0.  1.
         11   -1    0    0    0    0 -0.00000000000E+00 -0.00000000000E+00 -0.45593999997E+02  0.45594000000E+02  0.51100000000E-03 0. -1.
    9900012    2    1    2    0    0 -0.11700659209E+02 -0.25409596024E+02  0.33182385388E+02  0.47787266181E+02  0.19999977823E+02 0.  0.
         12    1    1    2    0    0  0.11700659209E+02  0.25409596024E+02 -0.33182385388E+02  0.43400733819E+02  0.00000000000E+00 0. -1.
         11    1    3    3    0    0 -0.13791295566E+02 -0.18199423051E+02  0.16344767107E+02  0.28081492924E+02  0.51100000000E-03 0. -1.
        -11    1    3    3    0    0  0.91956949954E+00 -0.81809473923E+01  0.11415598094E+02  0.14074423200E+02  0.51100000000E-03 0.  1.
        -12    1    3    3    0    0  0.11710668578E+01  0.97077441912E+00  0.54220201865E+01  0.56313500567E+01  0.00000000000E+00 0.  1.
</event>
<event>
 7    1  0.2459936E-009  0.4778727E+02  0.7816164E-02  0.1312668E+00
        -11   -1    0    0    0    0  0.00000000000E+00  0.00000000000E+00  0.45593999997E+02  0.45594000000E+02  0.51100000000E-03 0.  1.
         11   -1    0    0    0    0 -0.00000000000E+00 -0.00000000000E+00 -0.45593999997E+02  0.45594000000E+02  0.51100000000E-03 0. -1.
    9900012    2    1    2    0    0 -0.98613259737E+01 -0.38280573748E+01  0.42091845708E+02  0.47787271338E+02  0.20000001340E+02 0.  0.
         12    1    1    2    0    0  0.98613259737E+01  0.38280573748E+01 -0.42091845708E+02  0.43400728662E+02  0.00000000000E+00 0. -1.
         11    1    3    3    0    0  0.12462013488E+01  0.35428411901E+01  0.19809682533E+01  0.42460542839E+01  0.51100000000E-03 0.  1.
        -11    1    3    3    0    0 -0.46019666095E+01  0.19808225121E+01  0.76993497774E+01  0.91859535027E+01  0.51100000000E-03 0. -1.
        -12    1    3    3    0    0 -0.65055607131E+01 -0.93517210770E+01  0.32411527678E+02  0.34355263552E+02  0.00000000000E+00 0.  1.
</event>
<event>
 7    1  0.2459936E-009  0.4778728E+02  0.7816164E-02  0.1312668E+00
        -11   -1    0    0    0    0  0.00000000000E+00  0.00000000000E+00  0.45593999997E+02  0.45594000000E+02  0.51100000000E-03 0. -1.
         11   -1    0    0    0    0 -0.00000000000E+00 -0.00000000000E+00 -0.45593999997E+02  0.45594000000E+02  0.51100000000E-03 0.  1.
    9900012    2    1    2    0    0 -0.43405952216E+01 -0.42836247227E+02  0.54623899636E+01  0.47787279413E+02  0.20000038155E+02 0.  0.
         12    1    1    2    0    0  0.43405952216E+01  0.42836247227E+02 -0.54623899636E+01  0.43400720587E+02  0.00000000000E+00 0. -1.
         11    1    3    3    0    0 -0.55696313529E+01 -0.26218853654E+02  0.46536348233E+01  0.27204878196E+02  0.51100000000E-03 0. -1.
        -11    1    3    3    0    0  0.66294337825E+01 -0.82334761101E+01 -0.71643051859E-01  0.10570934401E+02  0.51100000000E-03 0.  1.
         12    1    3    3    0    0 -0.54003976513E+01 -0.83839174629E+01  0.88039819222E+00  0.10011466815E+02  0.00000000000E+00 0. -1.
</event>
<event>
 7    1  0.2459936E-009  0.4778727E+02  0.7816164E-02  0.1312668E+00
        -11   -1    0    0    0    0  0.00000000000E+00  0.00000000000E+00  0.45593999997E+02  0.45594000000E+02  0.51100000000E-03 0. -1.
         11   -1    0    0    0    0 -0.00000000000E+00 -0.00000000000E+00 -0.45593999997E+02  0.45594000000E+02  0.51100000000E-03 0.  1.
    9900012    2    1    2    0    0 -0.29499932701E+02  0.12418420189E+02 -0.29311430335E+02  0.47787272614E+02  0.20000007156E+02 0.  0.
         12    1    1    2    0    0  0.29499932701E+02 -0.12418420189E+02  0.29311430335E+02  0.43400727386E+02  0.00000000000E+00 0. -1.
         11    1    3    3    0    0  0.63612947397E+00  0.99756210955E+00  0.87181549959E+00  0.14696439693E+01  0.51100000000E-03 0. -1.
        -11    1    3    3    0    0 -0.19675135908E+02  0.44211965296E+01 -0.99451827613E+01  0.22484764001E+02  0.51100000000E-03 0.  1.
        -12    1    3    3    0    0 -0.10460926267E+02  0.69996615500E+01 -0.20238063073E+02  0.23832864644E+02  0.00000000000E+00 0.  1.
</event>
<event>
 7    1  0.2459936E-009  0.4778727E+02  0.7816164E-02  0.1312668E+00
        -11   -1    0    0    0    0  0.00000000000E+00  0.00000000000E+00  0.45593999997E+02  0.45594000000E+02  0.51100000000E-03 0.  1.
         11   -1    0    0    0    0 -0.00000000000E+00 -0.00000000000E+00 -0.45593999997E+02  0.45594000000E+02  0.51100000000E-03 0. -1.
    9900012    2    1    2    0    0  0.15039651394E+02 -0.14161623965E+02  0.38169104495E+02  0.47787271374E+02  0.20000001501E+02 0.  0.
         12    1    1    2    0    0 -0.15039651394E+02  0.14161623965E+02 -0.38169104495E+02  0.43400728626E+02  0.00000000000E+00 0. -1.
         11    1    3    3    0    0 -0.20250257389E+01 -0.32353463900E+01  0.24810170836E+01  0.45523226530E+01  0.51100000000E-03 0. -1.
        -11    1    3    3    0    0  0.65321069997E+01 -0.68003614480E+01  0.53158231187E+01  0.10824569893E+02  0.51100000000E-03 0.  1.
         12    1    3    3    0    0  0.10532570133E+02 -0.41259161270E+01  0.30372264292E+02  0.32410378827E+02  0.00000000000E+00 0. -1.
</event>
<event>
 7    1  0.2459936E-009  0.4778727E+02  0.7816164E-02  0.1312668E+00
        -11   -1    0    0    0    0  0.00000000000E+00  0.00000000000E+00  0.45593999997E+02  0.45594000000E+02  0.51100000000E-03 0.  1.
         11   -1    0    0    0    0 -0.00000000000E+00 -0.00000000000E+00 -0.45593999997E+02  0.45594000000E+02  0.51100000000E-03 0. -1.
    9900012    2    1    2    0    0 -0.41552124072E+01 -0.82712805925E+01  0.42402163998E+02  0.47787269770E+02  0.19999994190E+02 0.  0.
         12    1    1    2    0    0  0.41552124072E+01  0.82712805925E+01 -0.42402163998E+02  0.43400730230E+02  0.00000000000E+00 0. -1.
         11    1    3    3    0    0  0.75156811448E+00 -0.58211872551E+01  0.15097132205E+02  0.16197977552E+02  0.51100000000E-03 0.  1.
        -11    1    3    3    0    0 -0.86096699884E+01 -0.56070128516E+01  0.22575401744E+02  0.24803503272E+02  0.51100000000E-03 0. -1.
         12    1    3    3    0    0  0.37028894668E+01  0.31569195143E+01  0.47296300492E+01  0.67857889464E+01  0.00000000000E+00 0. -1.
</event>
<event>
 7    1  0.2459936E-009  0.4778727E+02  0.7816164E-02  0.1312668E+00
        -11   -1    0    0    0    0  0.00000000000E+00  0.00000000000E+00  0.45593999997E+02  0.45594000000E+02  0.51100000000E-03 0.  1.
         11   -1    0    0    0    0 -0.00000000000E+00 -0.00000000000E+00 -0.45593999997E+02  0.45594000000E+02  0.51100000000E-03 0. -1.
    9900012    2    1    2    0    0 -0.25349543076E+02  0.35216781136E+02 -0.89572715765E+00  0.47787270341E+02  0.19999996794E+02 0.  0.
         12    1    1    2    0    0  0.25349543076E+02 -0.35216781136E+02  0.89572715765E+00  0.43400729659E+02  0.00000000000E+00 0. -1.
         11    1    3    3    0    0  0.88481319561E+00  0.64123699851E+01 -0.24799801371E+01  0.69319322673E+01  0.51100000000E-03 0. -1.
        -11    1    3    3    0    0 -0.16389976835E+02  0.21235255043E+02 -0.42083389931E+01  0.27152854633E+02  0.51100000000E-03 0.  1.
        -12    1    3    3    0    0 -0.98443794364E+01  0.75691561083E+01  0.57925919725E+01  0.13702483441E+02  0.00000000000E+00 0.  1.
</event>
<event>
 7    1  0.2459936E-009  0.4778727E+02  0.7816164E-02  0.1312668E+00
        -11   -1    0    0    0    0  0.00000000000E+00  0.00000000000E+00  0.45593999997E+02  0.45594000000E+02  0.51100000000E-03 0. -1.
         11   -1    0    0    0    0 -0.00000000000E+00 -0.00000000000E+00 -0.45593999997E+02  0.45594000000E+02  0.51100000000E-03 0.  1.
    9900012    2    1    2    0    0  0.31331658671E+02  0.10738284572E+02 -0.28047100602E+02  0.47787269098E+02  0.19999991126E+02 0.  0.
         12    1    1    2    0    0 -0.31331658671E+02 -0.10738284572E+02  0.28047100602E+02  0.43400730902E+02  0.00000000000E+00 0. -1.
         11    1    3    3    0    0  0.85944220781E+01  0.29558942946E+00 -0.73292762157E+01  0.11299104127E+02  0.51100000000E-03 0. -1.
        -11    1    3    3    0    0  0.12608467387E+02  0.53454387907E+01 -0.21086251998E+02  0.25143134039E+02  0.51100000000E-03 0.  1.
         12    1    3    3    0    0  0.10128769206E+02  0.50972563523E+01  0.36842761168E+00  0.11345030932E+02  0.00000000000E+00 0. -1.
</event>
<event>
 7    1  0.2459936E-009  0.4778727E+02  0.7816164E-02  0.1312668E+00
        -11   -1    0    0    0    0  0.00000000000E+00  0.00000000000E+00  0.45593999997E+02  0.45594000000E+02  0.51100000000E-03 0.  1.
         11   -1    0    0    0    0 -0.00000000000E+00 -0.00000000000E+00 -0.45593999997E+02  0.45594000000E+02  0.51100000000E-03 0. -1.
    9900012    2    1    2    0    0 -0.34137781935E+02 -0.23651642672E+02  0.12602972972E+02  0.47787270925E+02  0.19999999454E+02 0.  0.
         12    1    1    2    0    0  0.34137781935E+02  0.23651642672E+02 -0.12602972972E+02  0.43400729075E+02  0.00000000000E+00 0. -1.
         11    1    3    3    0    0 -0.10368602307E+02 -0.52137737558E+01 -0.46551659401E+01  0.12504476029E+02  0.51100000000E-03 0. -1.
        -11    1    3    3    0    0 -0.12560598718E+01  0.37880772253E-01  0.21080084261E+01  0.24541436674E+01  0.51100000000E-03 0.  1.
         12    1    3    3    0    0 -0.22513119756E+02 -0.18475749689E+02  0.15150130486E+02  0.32828651228E+02  0.00000000000E+00 0. -1.
</event>
<event>
 7    1  0.2459936E-009  0.4778727E+02  0.7816164E-02  0.1312668E+00
        -11   -1    0    0    0    0  0.00000000000E+00  0.00000000000E+00  0.45593999997E+02  0.45594000000E+02  0.51100000000E-03 0.  1.
         11   -1    0    0    0    0 -0.00000000000E+00 -0.00000000000E+00 -0.45593999997E+02  0.45594000000E+02  0.51100000000E-03 0. -1.
    9900012    2    1    2    0    0  0.61345990659E+01 -0.29132045445E+02  0.31580281220E+02  0.47787267985E+02  0.19999986051E+02 0.  0.
         12    1    1    2    0    0 -0.61345990659E+01  0.29132045445E+02 -0.31580281220E+02  0.43400732015E+02  0.00000000000E+00 0. -1.
         11    1    3    3    0    0 -0.12582939153E+01  0.48195114271E+00 -0.27567671902E-01  0.13477168541E+01  0.51100000000E-03 0. -1.
        -11    1    3    3    0    0  0.57821122282E+00 -0.14731310404E+02  0.24501286195E+02  0.28594734828E+02  0.51100000000E-03 0.  1.
         12    1    3    3    0    0  0.68146817584E+01 -0.14882686184E+02  0.71065626972E+01  0.17844816303E+02  0.00000000000E+00 0. -1.
</event>
<event>
 7    1  0.2459936E-009  0.4778727E+02  0.7816164E-02  0.1312668E+00
        -11   -1    0    0    0    0  0.00000000000E+00  0.00000000000E+00  0.45593999997E+02  0.45594000000E+02  0.51100000000E-03 0. -1.
         11   -1    0    0    0    0 -0.00000000000E+00 -0.00000000000E+00 -0.45593999997E+02  0.45594000000E+02  0.51100000000E-03 0.  1.
    9900012    2    1    2    0    0 -0.33243119226E+02 -0.20672741738E+02 -0.18739160032E+02  0.47787270218E+02  0.19999996234E+02 0.  0.
         12    1    1    2    0    0  0.33243119226E+02  0.20672741738E+02  0.18739160032E+02  0.43400729782E+02  0.00000000000E+00 0. -1.
         11    1    3    3    0    0 -0.34400753162E+01 -0.49971755267E+01 -0.72038792673E+01  0.94181610830E+01  0.51100000000E-03 0. -1.
        -11    1    3    3    0    0 -0.31207635957E+01 -0.34396369347E+01  0.30849777106E+01  0.55756035905E+01  0.51100000000E-03 0.  1.
        -12    1    3    3    0    0 -0.26682280314E+02 -0.12235929277E+02 -0.14620258475E+02  0.32793505545E+02  0.00000000000E+00 0.  1.
</event>
<event>
 7    1  0.2459936E-009  0.4778729E+02  0.7816164E-02  0.1312668E+00
        -11   -1    0    0    0    0  0.00000000000E+00  0.00000000000E+00  0.45593999997E+02  0.45594000000E+02  0.51100000000E-03 0. -1.
         11   -1    0    0    0    0 -0.00000000000E+00 -0.00000000000E+00 -0.45593999997E+02  0.45594000000E+02  0.51100000000E-03 0.  1.
    9900012    2    1    2    0    0  0.46954395130E+01 -0.43127698686E+02 -0.12555276827E+01  0.47787286919E+02  0.20000072379E+02 0.  0.
         12    1    1    2    0    0 -0.46954395130E+01  0.43127698686E+02  0.12555276827E+01  0.43400713081E+02  0.00000000000E+00 0. -1.
         11    1    3    3    0    0  0.37010571031E+01 -0.15816492107E+02  0.55729813273E+01  0.17173158340E+02  0.51100000000E-03 0. -1.
        -11    1    3    3    0    0  0.37396616433E+01 -0.26754620336E+02 -0.58013508195E+01  0.27630607125E+02  0.51100000000E-03 0.  1.
         12    1    3    3    0    0 -0.27452792334E+01 -0.55658624357E+00 -0.10271581905E+01  0.29835214536E+01  0.00000000000E+00 0. -1.
</event>
<event>
 7    1  0.2459936E-009  0.4778727E+02  0.7816164E-02  0.1312668E+00
        -11   -1    0    0    0    0  0.00000000000E+00  0.00000000000E+00  0.45593999997E+02  0.45594000000E+02  0.51100000000E-03 0.  1.
         11   -1    0    0    0    0 -0.00000000000E+00 -0.00000000000E+00 -0.45593999997E+02  0.45594000000E+02  0.51100000000E-03 0. -1.
    9900012    2    1    2    0    0  0.92348600361E+01 -0.36275800103E+02  0.21963768949E+02  0.47787268907E+02  0.19999990254E+02 0.  0.
         12    1    1    2    0    0 -0.92348600361E+01  0.36275800103E+02 -0.21963768949E+02  0.43400731093E+02  0.00000000000E+00 0. -1.
         11    1    3    3    0    0  0.87685810577E+01 -0.64798753897E+01  0.89709106883E+01  0.14119278936E+02  0.51100000000E-03 0. -1.
        -11    1    3    3    0    0  0.40614888509E+01 -0.10895796079E+02  0.67297983293E+01  0.13435186999E+02  0.51100000000E-03 0.  1.
        -12    1    3    3    0    0 -0.35952098724E+01 -0.18900128634E+02  0.62630599312E+01  0.20232802972E+02  0.00000000000E+00 0.  1.
</event>
<event>
 7    1  0.2459936E-009  0.4778727E+02  0.7816164E-02  0.1312668E+00
        -11   -1    0    0    0    0  0.00000000000E+00  0.00000000000E+00  0.45593999997E+02  0.45594000000E+02  0.51100000000E-03 0.  1.
         11   -1    0    0    0    0 -0.00000000000E+00 -0.00000000000E+00 -0.45593999997E+02  0.45594000000E+02  0.51100000000E-03 0. -1.
    9900012    2    1    2    0    0 -0.18889022848E+02  0.36303860777E+02  0.14451907231E+02  0.47787272885E+02  0.20000008394E+02 0.  0.
         12    1    1    2    0    0  0.18889022848E+02 -0.36303860777E+02 -0.14451907231E+02  0.43400727115E+02  0.00000000000E+00 0. -1.
         11    1    3    3    0    0 -0.99067365176E+01  0.19557536239E+02  0.90352896208E+01  0.23712383072E+02  0.51100000000E-03 0.  1.
        -11    1    3    3    0    0 -0.59942345481E+01  0.15767388904E+02  0.91529065983E+01  0.19191589307E+02  0.51100000000E-03 0. -1.
         12    1    3    3    0    0 -0.29880517825E+01  0.97893563415E+00 -0.37362889885E+01  0.48833005065E+01  0.00000000000E+00 0. -1.
</event>
<event>
 7    1  0.2459936E-009  0.4778727E+02  0.7816164E-02  0.1312668E+00
        -11   -1    0    0    0    0  0.00000000000E+00  0.00000000000E+00  0.45593999997E+02  0.45594000000E+02  0.51100000000E-03 0.  1.
         11   -1    0    0    0    0 -0.00000000000E+00 -0.00000000000E+00 -0.45593999997E+02  0.45594000000E+02  0.51100000000E-03 0. -1.
    9900012    2    1    2    0    0  0.21401291315E+02 -0.27901893458E+01  0.37653985312E+02  0.47787273780E+02  0.20000012475E+02 0.  0.
         12    1    1    2    0    0 -0.21401291315E+02  0.27901893458E+01 -0.37653985312E+02  0.43400726220E+02  0.00000000000E+00 0. -1.
         11    1    3    3    0    0  0.12746564995E+02 -0.77735479446E+01  0.13323683529E+02  0.20010584945E+02  0.51100000000E-03 0. -1.
        -11    1    3    3    0    0  0.54219951304E+01 -0.16978177708E+01  0.77369551713E+01  0.95990151557E+01  0.51100000000E-03 0.  1.
        -12    1    3    3    0    0  0.32327311897E+01  0.66811763696E+01  0.16593346611E+02  0.18177673679E+02  0.00000000000E+00 0.  1.
</event>
<event>
 7    1  0.2459936E-009  0.4778727E+02  0.7816164E-02  0.1312668E+00
        -11   -1    0    0    0    0  0.00000000000E+00  0.00000000000E+00  0.45593999997E+02  0.45594000000E+02  0.51100000000E-03 0.  1.
         11   -1    0    0    0    0 -0.00000000000E+00 -0.00000000000E+00 -0.45593999997E+02  0.45594000000E+02  0.51100000000E-03 0. -1.
    9900012    2    1    2    0    0 -0.38851444699E+02  0.15342888634E+01  0.19283023390E+02  0.47787265115E+02  0.19999972966E+02 0.  0.
         12    1    1    2    0    0  0.38851444699E+02 -0.15342888634E+01 -0.19283023390E+02  0.43400734885E+02  0.00000000000E+00 0. -1.
         11    1    3    3    0    0 -0.54477932425E+01 -0.46837894704E+01 -0.20195953571E+01  0.74629150259E+01  0.51100000000E-03 0. -1.
        -11    1    3    3    0    0 -0.81831225450E+01  0.82872793694E+00  0.32493938031E+01  0.88435764784E+01  0.51100000000E-03 0.  1.
         12    1    3    3    0    0 -0.25220528911E+02  0.53893503969E+01  0.18053224944E+02  0.31480773611E+02  0.00000000000E+00 0. -1.
</event>
<event>
 7    1  0.2459936E-009  0.4778727E+02  0.7816164E-02  0.1312668E+00
        -11   -1    0    0    0    0  0.00000000000E+00  0.00000000000E+00  0.45593999997E+02  0.45594000000E+02  0.51100000000E-03 0. -1.
         11   -1    0    0    0    0 -0.00000000000E+00 -0.00000000000E+00 -0.45593999997E+02  0.45594000000E+02  0.51100000000E-03 0.  1.
    9900012    2    1    2    0    0  0.45979211661E+01  0.34489006615E+02 -0.25942067010E+02  0.47787270777E+02  0.19999998782E+02 0.  0.
         12    1    1    2    0    0 -0.45979211661E+01 -0.34489006615E+02  0.25942067010E+02  0.43400729223E+02  0.00000000000E+00 0. -1.
         11    1    3    3    0    0  0.92073129246E+01  0.17958217442E+02 -0.18403912625E+02  0.27312564602E+02  0.51100000000E-03 0.  1.
        -11    1    3    3    0    0  0.14953963758E+01  0.64115818280E+01 -0.24664919941E+00  0.65882795893E+01  0.51100000000E-03 0. -1.
        -12    1    3    3    0    0 -0.61047881343E+01  0.10119207345E+02 -0.72915051860E+01  0.13886426586E+02  0.00000000000E+00 0.  1.
</event>
<event>
 7    1  0.2459936E-009  0.4778727E+02  0.7816164E-02  0.1312668E+00
        -11   -1    0    0    0    0  0.00000000000E+00  0.00000000000E+00  0.45593999997E+02  0.45594000000E+02  0.51100000000E-03 0.  1.
         11   -1    0    0    0    0 -0.00000000000E+00 -0.00000000000E+00 -0.45593999997E+02  0.45594000000E+02  0.51100000000E-03 0. -1.
    9900012    2    1    2    0    0 -0.20385859387E+02 -0.15987550566E+01  0.38281640777E+02  0.47787270729E+02  0.19999998560E+02 0.  0.
         12    1    1    2    0    0  0.20385859387E+02  0.15987550566E+01 -0.38281640777E+02  0.43400729271E+02  0.00000000000E+00 0. -1.
         11    1    3    3    0    0 -0.14440007430E+01 -0.28473527186E+01  0.10138762841E+01  0.33497016330E+01  0.51100000000E-03 0. -1.
        -11    1    3    3    0    0  0.63545700166E-01 -0.52013264300E+00  0.15409097973E+02  0.15418004950E+02  0.51100000000E-03 0.  1.
         12    1    3    3    0    0 -0.19005404345E+02  0.17687303049E+01  0.21858666520E+02  0.29019564146E+02  0.00000000000E+00 0. -1.
</event>
<event>
 7    1  0.2459936E-009  0.4778727E+02  0.7816164E-02  0.1312668E+00
        -11   -1    0    0    0    0  0.00000000000E+00  0.00000000000E+00  0.45593999997E+02  0.45594000000E+02  0.51100000000E-03 0. -1.
         11   -1    0    0    0    0 -0.00000000000E+00 -0.00000000000E+00 -0.45593999997E+02  0.45594000000E+02  0.51100000000E-03 0.  1.
    9900012    2    1    2    0    0 -0.31132849252E+02 -0.26168369996E+02 -0.15152089638E+02  0.47787266006E+02  0.19999977029E+02 0.  0.
         12    1    1    2    0    0  0.31132849252E+02  0.26168369996E+02  0.15152089638E+02  0.43400733994E+02  0.00000000000E+00 0. -1.
         11    1    3    3    0    0  0.49513555910E+00  0.79341648459E+00  0.30181405793E+00  0.98273136033E+00  0.51100000000E-03 0. -1.
        -11    1    3    3    0    0 -0.14269777717E+02 -0.58513666273E+01 -0.11391578088E+02  0.19173760693E+02  0.51100000000E-03 0.  1.
        -12    1    3    3    0    0 -0.17358207094E+02 -0.21110419854E+02 -0.40623256080E+01  0.27630773953E+02  0.00000000000E+00 0.  1.
</event>
<event>
 7    1  0.2459936E-009  0.4778727E+02  0.7816164E-02  0.1312668E+00
        -11   -1    0    0    0    0  0.00000000000E+00  0.00000000000E+00  0.45593999997E+02  0.45594000000E+02  0.51100000000E-03 0.  1.
         11   -1    0    0    0    0 -0.00000000000E+00 -0.00000000000E+00 -0.45593999997E+02  0.45594000000E+02  0.51100000000E-03 0. -1.
    9900012    2    1    2    0    0  0.26374480427E+02 -0.24586202919E+02  0.24156344493E+02  0.47787267621E+02  0.19999984393E+02 0.  0.
         12    1    1    2    0    0 -0.26374480427E+02  0.24586202919E+02 -0.24156344493E+02  0.43400732379E+02  0.00000000000E+00 0. -1.
         11    1    3    3    0    0  0.57178111796E+01  0.18686560042E+01  0.15265705601E+01  0.62060984430E+01  0.51100000000E-03 0. -1.
        -11    1    3    3    0    0  0.76030364261E+01 -0.10233620975E+02  0.14293710828E+02  0.19153154588E+02  0.51100000000E-03 0.  1.
        -12    1    3    3    0    0  0.13053632821E+02 -0.16221237948E+02  0.83360631042E+01  0.22428014591E+02  0.00000000000E+00 0.  1.
</event>
<event>
 7    1  0.2459936E-009  0.4778726E+02  0.7816164E-02  0.1312668E+00
        -11   -1    0    0    0    0  0.00000000000E+00  0.00000000000E+00  0.45593999997E+02  0.45594000000E+02  0.51100000000E-03 0.  1.
         11   -1    0    0    0    0 -0.00000000000E+00 -0.00000000000E+00 -0.45593999997E+02  0.45594000000E+02  0.51100000000E-03 0. -1.
    9900012    2    1    2    0    0 -0.70355033078E+01  0.22777566408E+02  0.36267179652E+02  0.47787260857E+02  0.19999953551E+02 0.  0.
         12    1    1    2    0    0  0.70355033078E+01 -0.22777566408E+02 -0.36267179652E+02  0.43400739143E+02  0.00000000000E+00 0. -1.
         11    1    3    3    0    0 -0.22345779105E+01  0.76394003489E+01 -0.71130689121E-01  0.79598263778E+01  0.51100000000E-03 0. -1.
        -11    1    3    3    0    0  0.34215527358E+00  0.33839446813E+01  0.92151758917E+01  0.98228111462E+01  0.51100000000E-03 0.  1.
         12    1    3    3    0    0 -0.51430806709E+01  0.11754221377E+02  0.27123134450E+02  0.30004623333E+02  0.00000000000E+00 0. -1.
</event>
<event>
 7    1  0.2459936E-009  0.4778727E+02  0.7816164E-02  0.1312668E+00
        -11   -1    0    0    0    0  0.00000000000E+00  0.00000000000E+00  0.45593999997E+02  0.45594000000E+02  0.51100000000E-03 0.  1.
         11   -1    0    0    0    0 -0.00000000000E+00 -0.00000000000E+00 -0.45593999997E+02  0.45594000000E+02  0.51100000000E-03 0. -1.
    9900012    2    1    2    0    0 -0.26726968018E+02  0.33998844838E+02 -0.36566806441E+01  0.47787267482E+02  0.19999983758E+02 0.  0.
         12    1    1    2    0    0  0.26726968018E+02 -0.33998844838E+02  0.36566806441E+01  0.43400732518E+02  0.00000000000E+00 0. -1.
         11    1    3    3    0    0 -0.65695068962E+01  0.99603665989E+01 -0.37462159820E+00  0.11937657444E+02  0.51100000000E-03 0. -1.
        -11    1    3    3    0    0 -0.10926072444E+02  0.22613027265E+02  0.18670417617E+01  0.25183603919E+02  0.51100000000E-03 0.  1.
         12    1    3    3    0    0 -0.92313886784E+01  0.14254509738E+01 -0.51491008076E+01  0.10666006119E+02  0.00000000000E+00 0. -1.
</event>
<event>
 7    1  0.2459936E-009  0.4778727E+02  0.7816164E-02  0.1312668E+00
        -11   -1    0    0    0    0  0.00000000000E+00  0.00000000000E+00  0.45593999997E+02  0.45594000000E+02  0.51100000000E-03 0.  1.
         11   -1    0    0    0    0 -0.00000000000E+00 -0.00000000000E+00 -0.45593999997E+02  0.45594000000E+02  0.51100000000E-03 0. -1.
    9900012    2    1    2    0    0 -0.26094199604E+01  0.11955986771E+02  0.41639749798E+02  0.47787268952E+02  0.19999990461E+02 0.  0.
         12    1    1    2    0    0  0.26094199604E+01 -0.11955986771E+02 -0.41639749798E+02  0.43400731048E+02  0.00000000000E+00 0. -1.
         11    1    3    3    0    0 -0.76000177620E+01  0.42244669825E+01  0.29252453810E+02  0.30517412168E+02  0.51100000000E-03 0. -1.
        -11    1    3    3    0    0  0.21339382861E+01  0.54127266141E+01  0.12280454711E+02  0.13588998130E+02  0.51100000000E-03 0.  1.
         12    1    3    3    0    0  0.28566595155E+01  0.23187931748E+01  0.10684127734E+00  0.36808586544E+01  0.00000000000E+00 0. -1.
</event>
<event>
 7    1  0.2459936E-009  0.4778728E+02  0.7816164E-02  0.1312668E+00
        -11   -1    0    0    0    0  0.00000000000E+00  0.00000000000E+00  0.45593999997E+02  0.45594000000E+02  0.51100000000E-03 0.  1.
         11   -1    0    0    0    0 -0.00000000000E+00 -0.00000000000E+00 -0.45593999997E+02  0.45594000000E+02  0.51100000000E-03 0. -1.
    9900012    2    1    2    0    0 -0.44424352367E+01  0.37934745802E+02 -0.20611714113E+02  0.47787275022E+02  0.20000018136E+02 0.  0.
         12    1    1    2    0    0  0.44424352367E+01 -0.37934745802E+02  0.20611714113E+02  0.43400724978E+02  0.00000000000E+00 0. -1.
         11    1    3    3    0    0 -0.60668431894E+01  0.37274667443E+01 -0.33924961479E+01  0.78873078417E+01  0.51100000000E-03 0. -1.
        -11    1    3    3    0    0 -0.45302328876E+01  0.19543566282E+02 -0.88162242281E+01  0.21913461683E+02  0.51100000000E-03 0.  1.
         12    1    3    3    0    0  0.61546408404E+01  0.14663712776E+02 -0.84029937371E+01  0.17986505497E+02  0.00000000000E+00 0. -1.
</event>
<event>
 7    1  0.2459936E-009  0.4778727E+02  0.7816164E-02  0.1312668E+00
        -11   -1    0    0    0    0  0.00000000000E+00  0.00000000000E+00  0.45593999997E+02  0.45594000000E+02  0.51100000000E-03 0.  1.
         11   -1    0    0    0    0 -0.00000000000E+00 -0.00000000000E+00 -0.45593999997E+02  0.45594000000E+02  0.51100000000E-03 0. -1.
    9900012    2    1    2    0    0  0.16940589436E+02  0.31521036448E+02  0.24557354955E+02  0.47787274296E+02  0.20000014827E+02 0.  0.
         12    1    1    2    0    0 -0.16940589436E+02 -0.31521036448E+02 -0.24557354955E+02  0.43400725704E+02  0.00000000000E+00 0. -1.
         11    1    3    3    0    0  0.19505438141E+02  0.27807873614E+02  0.20724568458E+02  0.39790045112E+02  0.51100000000E-03 0. -1.
        -11    1    3    3    0    0 -0.20807627376E+00 -0.12486707608E+01  0.16656404263E+01  0.20920881185E+01  0.51100000000E-03 0.  1.
        -12    1    3    3    0    0 -0.23567724310E+01  0.49618335948E+01  0.21671460712E+01  0.59051410659E+01  0.00000000000E+00 0.  1.
</event>
<event>
 7    1  0.2459936E-009  0.4778727E+02  0.7816164E-02  0.1312668E+00
        -11   -1    0    0    0    0  0.00000000000E+00  0.00000000000E+00  0.45593999997E+02  0.45594000000E+02  0.51100000000E-03 0. -1.
         11   -1    0    0    0    0 -0.00000000000E+00 -0.00000000000E+00 -0.45593999997E+02  0.45594000000E+02  0.51100000000E-03 0.  1.
    9900012    2    1    2    0    0 -0.21036330241E+02 -0.37944738469E+02 -0.11370039893E+01  0.47787272523E+02  0.20000006740E+02 0.  0.
         12    1    1    2    0    0  0.21036330241E+02  0.37944738469E+02  0.11370039893E+01  0.43400727477E+02  0.00000000000E+00 0. -1.
         11    1    3    3    0    0 -0.10133309067E+02 -0.14832419806E+02  0.32644906384E+01  0.18257643039E+02  0.51100000000E-03 0. -1.
        -11    1    3    3    0    0 -0.60753977757E+01 -0.57459397155E+01  0.44237228805E+01  0.94602117171E+01  0.51100000000E-03 0.  1.
        -12    1    3    3    0    0 -0.48276233982E+01 -0.17366378947E+02 -0.88252175082E+01  0.20069417766E+02  0.00000000000E+00 0.  1.
</event>
<event>
 7    1  0.2459936E-009  0.4778727E+02  0.7816164E-02  0.1312668E+00
        -11   -1    0    0    0    0  0.00000000000E+00  0.00000000000E+00  0.45593999997E+02  0.45594000000E+02  0.51100000000E-03 0.  1.
         11   -1    0    0    0    0 -0.00000000000E+00 -0.00000000000E+00 -0.45593999997E+02  0.45594000000E+02  0.51100000000E-03 0. -1.
    9900012    2    1    2    0    0  0.80398186870E+01  0.31199495214E+02  0.29078790799E+02  0.47787271199E+02  0.20000000706E+02 0.  0.
         12    1    1    2    0    0 -0.80398186870E+01 -0.31199495214E+02 -0.29078790799E+02  0.43400728801E+02  0.00000000000E+00 0. -1.
         11    1    3    3    0    0 -0.23539242959E+01  0.65409583985E+01  0.82460248311E+01  0.10785268756E+02  0.51100000000E-03 0. -1.
        -11    1    3    3    0    0 -0.83268351061E+00  0.83326418667E+01  0.17154103352E+00  0.83759004826E+01  0.51100000000E-03 0.  1.
        -12    1    3    3    0    0  0.11226426493E+02  0.16325894948E+02  0.20661224934E+02  0.28626101961E+02  0.00000000000E+00 0.  1.
</event>
<event>
 7    1  0.2459936E-009  0.4778727E+02  0.7816164E-02  0.1312668E+00
        -11   -1    0    0    0    0  0.00000000000E+00  0.00000000000E+00  0.45593999997E+02  0.45594000000E+02  0.51100000000E-03 0.  1.
         11   -1    0    0    0    0 -0.00000000000E+00 -0.00000000000E+00 -0.45593999997E+02  0.45594000000E+02  0.51100000000E-03 0. -1.
    9900012    2    1    2    0    0 -0.29925019155E+02  0.90835363685E+01  0.30093285095E+02  0.47787271755E+02  0.20000003239E+02 0.  0.
         12    1    1    2    0    0  0.29925019155E+02 -0.90835363685E+01 -0.30093285095E+02  0.43400728245E+02  0.00000000000E+00 0. -1.
         11    1    3    3    0    0 -0.21744564740E+02  0.64866691857E+01  0.13443514821E+02  0.26374818746E+02  0.51100000000E-03 0. -1.
        -11    1    3    3    0    0 -0.77894087244E+01  0.60056862671E+01  0.10622004206E+02  0.14476537204E+02  0.51100000000E-03 0.  1.
        -12    1    3    3    0    0 -0.39104569077E+00 -0.34088190843E+01  0.60277660677E+01  0.69359158046E+01  0.00000000000E+00 0.  1.
</event>
<event>
 7    1  0.2459936E-009  0.4778727E+02  0.7816164E-02  0.1312668E+00
        -11   -1    0    0    0    0  0.00000000000E+00  0.00000000000E+00  0.45593999997E+02  0.45594000000E+02  0.51100000000E-03 0. -1.
         11   -1    0    0    0    0 -0.00000000000E+00 -0.00000000000E+00 -0.45593999997E+02  0.45594000000E+02  0.51100000000E-03 0.  1.
    9900012    2    1    2    0    0 -0.10402644571E+02 -0.37012583307E+02 -0.20136466831E+02  0.47787266901E+02  0.19999981109E+02 0.  0.
         12    1    1    2    0    0  0.10402644571E+02  0.37012583307E+02  0.20136466831E+02  0.43400733099E+02  0.00000000000E+00 0. -1.
         11    1    3    3    0    0  0.35058234952E+01 -0.50556812544E+01 -0.37635418526E+01  0.72121396868E+01  0.51100000000E-03 0. -1.
        -11    1    3    3    0    0 -0.51892721124E+01 -0.24077536456E+02 -0.14756399389E+02  0.28712499543E+02  0.51100000000E-03 0.  1.
         12    1    3    3    0    0 -0.87191959534E+01 -0.78793655966E+01 -0.16165255891E+01  0.11862627671E+02  0.00000000000E+00 0. -1.
</event>
<event>
 7    1  0.2459936E-009  0.4778727E+02  0.7816164E-02  0.1312668E+00
        -11   -1    0    0    0    0  0.00000000000E+00  0.00000000000E+00  0.45593999997E+02  0.45594000000E+02  0.51100000000E-03 0.  1.
         11   -1    0    0    0    0 -0.00000000000E+00 -0.00000000000E+00 -0.45593999997E+02  0.45594000000E+02  0.51100000000E-03 0. -1.
    9900012    2    1    2    0    0 -0.23823965858E+02  0.15743949625E+01  0.36243116705E+02  0.47787267550E+02  0.19999984070E+02 0.  0.
         12    1    1    2    0    0  0.23823965858E+02 -0.15743949625E+01 -0.36243116705E+02  0.43400732450E+02  0.00000000000E+00 0. -1.
         11    1    3    3    0    0  0.30244888889E+01  0.95176024839E-01  0.75873179498E+00  0.31196579480E+01  0.51100000000E-03 0. -1.
        -11    1    3    3    0    0 -0.33537573479E+01  0.13585150445E+01  0.42161944779E+01  0.55560370419E+01  0.51100000000E-03 0.  1.
         12    1    3    3    0    0 -0.23494697399E+02  0.12070389323E+00  0.31268190432E+02  0.39111572561E+02  0.00000000000E+00 0. -1.
</event>
<event>
 7    1  0.2459936E-009  0.4778727E+02  0.7816164E-02  0.1312668E+00
        -11   -1    0    0    0    0  0.00000000000E+00  0.00000000000E+00  0.45593999997E+02  0.45594000000E+02  0.51100000000E-03 0. -1.
         11   -1    0    0    0    0 -0.00000000000E+00 -0.00000000000E+00 -0.45593999997E+02  0.45594000000E+02  0.51100000000E-03 0.  1.
    9900012    2    1    2    0    0 -0.20307963892E+02 -0.22159145183E+02 -0.31307866653E+02  0.47787266976E+02  0.19999981451E+02 0.  0.
         12    1    1    2    0    0  0.20307963892E+02  0.22159145183E+02  0.31307866653E+02  0.43400733024E+02  0.00000000000E+00 0. -1.
         11    1    3    3    0    0 -0.21460893043E+01  0.51420185426E+00 -0.17839183652E+01  0.28376870588E+01  0.51100000000E-03 0. -1.
        -11    1    3    3    0    0 -0.17801696260E+02 -0.22188173061E+02 -0.18553375041E+02  0.33962378291E+02  0.51100000000E-03 0.  1.
        -12    1    3    3    0    0 -0.36017832819E+00 -0.48517397576E+00 -0.10970573247E+02  0.10987201626E+02  0.00000000000E+00 0.  1.
</event>
<event>
 7    1  0.2459936E-009  0.4778727E+02  0.7816164E-02  0.1312668E+00
        -11   -1    0    0    0    0  0.00000000000E+00  0.00000000000E+00  0.45593999997E+02  0.45594000000E+02  0.51100000000E-03 0.  1.
         11   -1    0    0    0    0 -0.00000000000E+00 -0.00000000000E+00 -0.45593999997E+02  0.45594000000E+02  0.51100000000E-03 0. -1.
    9900012    2    1    2    0    0  0.70575947745E+01  0.72517153746E+01  0.42204576322E+02  0.47787270946E+02  0.19999999551E+02 0.  0.
         12    1    1    2    0    0 -0.70575947745E+01 -0.72517153746E+01 -0.42204576322E+02  0.43400729054E+02  0.00000000000E+00 0. -1.
         11    1    3    3    0    0 -0.22134754158E+01 -0.20771260366E+01  0.52633224775E+01  0.60758941524E+01  0.51100000000E-03 0. -1.
        -11    1    3    3    0    0 -0.20997635387E+01 -0.16786956671E+01  0.19921142193E+01  0.33459745045E+01  0.51100000000E-03 0.  1.
        -12    1    3    3    0    0  0.11370833729E+02  0.11007537078E+02  0.34949139626E+02  0.38365402289E+02  0.00000000000E+00 0.  1.
</event>
<event>
 7    1  0.2459936E-009  0.4778727E+02  0.7816164E-02  0.1312668E+00
        -11   -1    0    0    0    0  0.00000000000E+00  0.00000000000E+00  0.45593999997E+02  0.45594000000E+02  0.51100000000E-03 0.  1.
         11   -1    0    0    0    0 -0.00000000000E+00 -0.00000000000E+00 -0.45593999997E+02  0.45594000000E+02  0.51100000000E-03 0. -1.
    9900012    2    1    2    0    0  0.38946893168E+01 -0.43006025189E+02 -0.43516008305E+01  0.47787271467E+02  0.20000001925E+02 0.  0.
         12    1    1    2    0    0 -0.38946893168E+01  0.43006025189E+02  0.43516008305E+01  0.43400728533E+02  0.00000000000E+00 0. -1.
         11    1    3    3    0    0  0.30968383715E+01 -0.33224346926E+01 -0.38134387542E+01  0.59305392317E+01  0.51100000000E-03 0. -1.
        -11    1    3    3    0    0  0.21820987601E+01 -0.93413593114E+01  0.52512833036E+01  0.10936111072E+02  0.51100000000E-03 0.  1.
         12    1    3    3    0    0 -0.13842478148E+01 -0.30342231185E+02 -0.57894453799E+01  0.30920621163E+02  0.00000000000E+00 0. -1.
</event>
<event>
 7    1  0.2459936E-009  0.4778727E+02  0.7816164E-02  0.1312668E+00
        -11   -1    0    0    0    0  0.00000000000E+00  0.00000000000E+00  0.45593999997E+02  0.45594000000E+02  0.51100000000E-03 0.  1.
         11   -1    0    0    0    0 -0.00000000000E+00 -0.00000000000E+00 -0.45593999997E+02  0.45594000000E+02  0.51100000000E-03 0. -1.
    9900012    2    1    2    0    0 -0.37258563989E+02 -0.19864832707E+02  0.10040462885E+02  0.47787273463E+02  0.20000011025E+02 0.  0.
         12    1    1    2    0    0  0.37258563989E+02  0.19864832707E+02 -0.10040462885E+02  0.43400726537E+02  0.00000000000E+00 0. -1.
         11    1    3    3    0    0 -0.24592806266E+02 -0.11883036844E+02  0.42196174217E+01  0.27637254859E+02  0.51100000000E-03 0. -1.
        -11    1    3    3    0    0 -0.13938844969E+02 -0.59320266282E+01  0.77912320964E+01  0.17034777275E+02  0.51100000000E-03 0.  1.
         12    1    3    3    0    0  0.12730872454E+01 -0.20497692343E+01 -0.19703866334E+01  0.31152413283E+01  0.00000000000E+00 0. -1.
</event>
<event>
 7    1  0.2459936E-009  0.4778727E+02  0.7816164E-02  0.1312668E+00
        -11   -1    0    0    0    0  0.00000000000E+00  0.00000000000E+00  0.45593999997E+02  0.45594000000E+02  0.51100000000E-03 0.  1.
         11   -1    0    0    0    0 -0.00000000000E+00 -0.00000000000E+00 -0.45593999997E+02  0.45594000000E+02  0.51100000000E-03 0. -1.
    9900012    2    1    2    0    0 -0.43317241190E+02  0.26500130347E+01  0.46590560830E+00  0.47787273953E+02  0.20000013262E+02 0.  0.
         12    1    1    2    0    0  0.43317241190E+02 -0.26500130347E+01 -0.46590560830E+00  0.43400726047E+02  0.00000000000E+00 0. -1.
         11    1    3    3    0    0 -0.35400208254E+02  0.79596991984E+01  0.11324703350E+01  0.36301708570E+02  0.51100000000E-03 0.  1.
        -11    1    3    3    0    0 -0.22900426832E+01 -0.99484117540E+00 -0.31074975854E+01  0.39862947658E+01  0.51100000000E-03 0. -1.
         12    1    3    3    0    0 -0.56269902521E+01 -0.43148449883E+01  0.24409328587E+01  0.74992706173E+01  0.00000000000E+00 0. -1.
</event>
<event>
 7    1  0.2459936E-009  0.4778727E+02  0.7816164E-02  0.1312668E+00
        -11   -1    0    0    0    0  0.00000000000E+00  0.00000000000E+00  0.45593999997E+02  0.45594000000E+02  0.51100000000E-03 0.  1.
         11   -1    0    0    0    0 -0.00000000000E+00 -0.00000000000E+00 -0.45593999997E+02  0.45594000000E+02  0.51100000000E-03 0. -1.
    9900012    2    1    2    0    0 -0.26733010105E+02  0.31389125116E+02  0.13553322185E+02  0.47787267897E+02  0.19999985649E+02 0.  0.
         12    1    1    2    0    0  0.26733010105E+02 -0.31389125116E+02 -0.13553322185E+02  0.43400732103E+02  0.00000000000E+00 0. -1.
         11    1    3    3    0    0 -0.24474417139E+01  0.26240424440E+01 -0.32467836852E+01  0.48391294931E+01  0.51100000000E-03 0. -1.
        -11    1    3    3    0    0 -0.70932427449E+01  0.32022196752E+01  0.74009391817E+01  0.10739748811E+02  0.51100000000E-03 0.  1.
        -12    1    3    3    0    0 -0.17192325646E+02  0.25562862997E+02  0.93991666890E+01  0.32208389593E+02  0.00000000000E+00 0.  1.
</event>
<event>
 7    1  0.2459936E-009  0.4778727E+02  0.7816164E-02  0.1312668E+00
        -11   -1    0    0    0    0  0.00000000000E+00  0.00000000000E+00  0.45593999997E+02  0.45594000000E+02  0.51100000000E-03 0. -1.
         11   -1    0    0    0    0 -0.00000000000E+00 -0.00000000000E+00 -0.45593999997E+02  0.45594000000E+02  0.51100000000E-03 0.  1.
    9900012    2    1    2    0    0 -0.36314791851E+02 -0.19002639741E+02 -0.14274429381E+02  0.47787265462E+02  0.19999974546E+02 0.  0.
         12    1    1    2    0    0  0.36314791851E+02  0.19002639741E+02  0.14274429381E+02  0.43400734538E+02  0.00000000000E+00 0. -1.
         11    1    3    3    0    0 -0.53921435040E+01  0.16785116779E+01 -0.36427802561E+01  0.67203021715E+01  0.51100000000E-03 0.  1.
        -11    1    3    3    0    0 -0.30620112282E+02 -0.18735256432E+02 -0.64873488069E+01  0.36478580078E+02  0.51100000000E-03 0. -1.
        -12    1    3    3    0    0 -0.30253606540E+00 -0.19458949867E+01 -0.41443003184E+01  0.45883832119E+01  0.00000000000E+00 0.  1.
</event>
<event>
 7    1  0.2459936E-009  0.4778728E+02  0.7816164E-02  0.1312668E+00
        -11   -1    0    0    0    0  0.00000000000E+00  0.00000000000E+00  0.45593999997E+02  0.45594000000E+02  0.51100000000E-03 0.  1.
         11   -1    0    0    0    0 -0.00000000000E+00 -0.00000000000E+00 -0.45593999997E+02  0.45594000000E+02  0.51100000000E-03 0. -1.
    9900012    2    1    2    0    0  0.42534263047E+02 -0.34884595835E+01  0.78923911902E+01  0.47787277403E+02  0.20000028993E+02 0.  0.
         12    1    1    2    0    0 -0.42534263047E+02  0.34884595835E+01 -0.78923911902E+01  0.43400722597E+02  0.00000000000E+00 0. -1.
         11    1    3    3    0    0  0.14373188662E+02  0.36755081038E+01 -0.23483729247E+01  0.15020411705E+02  0.51100000000E-03 0. -1.
        -11    1    3    3    0    0  0.34469951504E+01  0.26011637863E+01  0.28879552697E+01  0.51950086151E+01  0.51100000000E-03 0.  1.
         12    1    3    3    0    0  0.24714079234E+02 -0.97651314736E+01  0.73528088452E+01  0.27571857083E+02  0.00000000000E+00 0. -1.
</event>
<event>
 7    1  0.2459936E-009  0.4778727E+02  0.7816164E-02  0.1312668E+00
        -11   -1    0    0    0    0  0.00000000000E+00  0.00000000000E+00  0.45593999997E+02  0.45594000000E+02  0.51100000000E-03 0.  1.
         11   -1    0    0    0    0 -0.00000000000E+00 -0.00000000000E+00 -0.45593999997E+02  0.45594000000E+02  0.51100000000E-03 0. -1.
    9900012    2    1    2    0    0 -0.23148262059E+02  0.29718161682E+02  0.21554856748E+02  0.47787273975E+02  0.20000013361E+02 0.  0.
         12    1    1    2    0    0  0.23148262059E+02 -0.29718161682E+02 -0.21554856748E+02  0.43400726025E+02  0.00000000000E+00 0. -1.
         11    1    3    3    0    0 -0.21570061764E+02  0.16833151255E+02  0.91252525259E+01  0.28842551545E+02  0.51100000000E-03 0. -1.
        -11    1    3    3    0    0 -0.23121660615E+01  0.26263604008E+01  0.55845785042E+01  0.65902502366E+01  0.51100000000E-03 0.  1.
        -12    1    3    3    0    0  0.73396576682E+00  0.10258650026E+02  0.68450257180E+01  0.12354472194E+02  0.00000000000E+00 0.  1.
</event>
<event>
 7    1  0.2459936E-009  0.4778727E+02  0.7816164E-02  0.1312668E+00
        -11   -1    0    0    0    0  0.00000000000E+00  0.00000000000E+00  0.45593999997E+02  0.45594000000E+02  0.51100000000E-03 0.  1.
         11   -1    0    0    0    0 -0.00000000000E+00 -0.00000000000E+00 -0.45593999997E+02  0.45594000000E+02  0.51100000000E-03 0. -1.
    9900012    2    1    2    0    0  0.33776123998E+02 -0.15438626791E+02  0.22459862209E+02  0.47787272356E+02  0.20000005982E+02 0.  0.
         12    1    1    2    0    0 -0.33776123998E+02  0.15438626791E+02 -0.22459862209E+02  0.43400727644E+02  0.00000000000E+00 0. -1.
         11    1    3    3    0    0  0.60544577744E+01 -0.34265163237E+00  0.12379131177E+02  0.13784656617E+02  0.51100000000E-03 0.  1.
        -11    1    3    3    0    0  0.32620145928E+01  0.54430092713E+00  0.12162546963E+00  0.33093497427E+01  0.51100000000E-03 0. -1.
        -12    1    3    3    0    0  0.24459651631E+02 -0.15640276086E+02  0.99591055626E+01  0.30693265997E+02  0.00000000000E+00 0.  1.
</event>
<event>
 7    1  0.2459936E-009  0.4778726E+02  0.7816164E-02  0.1312668E+00
        -11   -1    0    0    0    0  0.00000000000E+00  0.00000000000E+00  0.45593999997E+02  0.45594000000E+02  0.51100000000E-03 0.  1.
         11   -1    0    0    0    0 -0.00000000000E+00 -0.00000000000E+00 -0.45593999997E+02  0.45594000000E+02  0.51100000000E-03 0. -1.
    9900012    2    1    2    0    0  0.28537923969E+02 -0.30360822729E+02  0.12142140202E+02  0.47787260030E+02  0.19999949782E+02 0.  0.
         12    1    1    2    0    0 -0.28537923969E+02  0.30360822729E+02 -0.12142140202E+02  0.43400739970E+02  0.00000000000E+00 0. -1.
         11    1    3    3    0    0  0.26075883147E+01 -0.18850368881E+01  0.77388190251E+01  0.83810620480E+01  0.51100000000E-03 0. -1.
        -11    1    3    3    0    0  0.12108270575E+02 -0.10158649406E+02  0.45902305933E+01  0.16458389691E+02  0.51100000000E-03 0.  1.
        -12    1    3    3    0    0  0.13822065080E+02 -0.18317136434E+02 -0.18690941641E+00  0.22947808291E+02  0.00000000000E+00 0.  1.
</event>
<event>
 7    1  0.2459936E-009  0.4778727E+02  0.7816164E-02  0.1312668E+00
        -11   -1    0    0    0    0  0.00000000000E+00  0.00000000000E+00  0.45593999997E+02  0.45594000000E+02  0.51100000000E-03 0.  1.
         11   -1    0    0    0    0 -0.00000000000E+00 -0.00000000000E+00 -0.45593999997E+02  0.45594000000E+02  0.51100000000E-03 0. -1.
    9900012    2    1    2    0    0 -0.44569350676E+01  0.41447365688E+01  0.42971852151E+02  0.47787272026E+02  0.20000004476E+02 0.  0.
         12    1    1    2    0    0  0.44569350676E+01 -0.41447365688E+01 -0.42971852151E+02  0.43400727974E+02  0.00000000000E+00 0. -1.
         11    1    3    3    0    0 -0.12019788593E+00 -0.50136613544E+01  0.15941887442E+02  0.16712122043E+02  0.51100000000E-03 0. -1.
        -11    1    3    3    0    0 -0.65894269303E+01  0.13066713501E+01  0.15972817519E+02  0.17327978447E+02  0.51100000000E-03 0.  1.
        -12    1    3    3    0    0  0.22526897486E+01  0.78517265730E+01  0.11057147189E+02  0.13747171536E+02  0.00000000000E+00 0.  1.
</event>
<event>
 7    1  0.2459936E-009  0.4778727E+02  0.7816164E-02  0.1312668E+00
        -11   -1    0    0    0    0  0.00000000000E+00  0.00000000000E+00  0.45593999997E+02  0.45594000000E+02  0.51100000000E-03 0.  1.
         11   -1    0    0    0    0 -0.00000000000E+00 -0.00000000000E+00 -0.45593999997E+02  0.45594000000E+02  0.51100000000E-03 0. -1.
    9900012    2    1    2    0    0  0.35107235109E+02 -0.23125700508E+02  0.10784570702E+02  0.47787274819E+02  0.20000017211E+02 0.  0.
         12    1    1    2    0    0 -0.35107235109E+02  0.23125700508E+02 -0.10784570702E+02  0.43400725181E+02  0.00000000000E+00 0. -1.
         11    1    3    3    0    0  0.10710808006E+02 -0.41133173068E+01  0.25407330549E-01  0.11473510065E+02  0.51100000000E-03 0. -1.
        -11    1    3    3    0    0  0.17765206985E+02 -0.77374977677E+01  0.12586908415E+02  0.23106313307E+02  0.51100000000E-03 0.  1.
        -12    1    3    3    0    0  0.66312201175E+01 -0.11274885433E+02 -0.18277450438E+01  0.13207451447E+02  0.00000000000E+00 0.  1.
</event>
<event>
 7    1  0.2459936E-009  0.4778727E+02  0.7816164E-02  0.1312668E+00
        -11   -1    0    0    0    0  0.00000000000E+00  0.00000000000E+00  0.45593999997E+02  0.45594000000E+02  0.51100000000E-03 0.  1.
         11   -1    0    0    0    0 -0.00000000000E+00 -0.00000000000E+00 -0.45593999997E+02  0.45594000000E+02  0.51100000000E-03 0. -1.
    9900012    2    1    2    0    0 -0.26347800456E+02 -0.12902953050E+02  0.31983287775E+02  0.47787268634E+02  0.19999989008E+02 0.  0.
         12    1    1    2    0    0  0.26347800456E+02  0.12902953050E+02 -0.31983287775E+02  0.43400731366E+02  0.00000000000E+00 0. -1.
         11    1    3    3    0    0 -0.60608562544E+00 -0.21157584798E+00  0.46563005541E-01  0.64364003870E+00  0.51100000000E-03 0. -1.
        -11    1    3    3    0    0 -0.26193340529E+02 -0.57131391431E+01  0.29183336568E+02  0.39628249778E+02  0.51100000000E-03 0.  1.
         12    1    3    3    0    0  0.45162569910E+00 -0.69782380585E+01  0.27533882011E+01  0.75153788168E+01  0.00000000000E+00 0. -1.
</event>
<event>
 7    1  0.2459936E-009  0.4778727E+02  0.7816164E-02  0.1312668E+00
        -11   -1    0    0    0    0  0.00000000000E+00  0.00000000000E+00  0.45593999997E+02  0.45594000000E+02  0.51100000000E-03 0.  1.
         11   -1    0    0    0    0 -0.00000000000E+00 -0.00000000000E+00 -0.45593999997E+02  0.45594000000E+02  0.51100000000E-03 0. -1.
    9900012    2    1    2    0    0  0.24269796434E+02  0.35558155918E+02 -0.54970814810E+01  0.47787269868E+02  0.19999994634E+02 0.  0.
         12    1    1    2    0    0 -0.24269796434E+02 -0.35558155918E+02  0.54970814810E+01  0.43400730132E+02  0.00000000000E+00 0. -1.
         11    1    3    3    0    0 -0.78848317467E-01 -0.85883750042E-01 -0.11362716896E+01  0.11422375801E+01  0.51100000000E-03 0. -1.
        -11    1    3    3    0    0  0.10794874252E+02  0.36764803991E+01  0.12514169145E+01  0.11472221354E+02  0.51100000000E-03 0.  1.
         12    1    3    3    0    0  0.13553770499E+02  0.31967559269E+02 -0.56122267059E+01  0.35172810933E+02  0.00000000000E+00 0. -1.
</event>
<event>
 7    1  0.2459936E-009  0.4778731E+02  0.7816164E-02  0.1312668E+00
        -11   -1    0    0    0    0  0.00000000000E+00  0.00000000000E+00  0.45593999997E+02  0.45594000000E+02  0.51100000000E-03 0.  1.
         11   -1    0    0    0    0 -0.00000000000E+00 -0.00000000000E+00 -0.45593999997E+02  0.45594000000E+02  0.51100000000E-03 0. -1.
    9900012    2    1    2    0    0 -0.14124386754E+02 -0.31042967864E+02  0.26841305070E+02  0.47787310917E+02  0.20000181796E+02 0.  0.
         12    1    1    2    0    0  0.14124386754E+02  0.31042967864E+02 -0.26841305070E+02  0.43400689083E+02  0.00000000000E+00 0. -1.
         11    1    3    3    0    0 -0.17149624397E+01 -0.87306529473E+01  0.34285317205E+01  0.95352098600E+01  0.51100000000E-03 0.  1.
        -11    1    3    3    0    0 -0.65580738215E+01 -0.15259327349E+02  0.44557676810E+01  0.17196199269E+02  0.51100000000E-03 0. -1.
        -12    1    3    3    0    0 -0.58513504932E+01 -0.70529875672E+01  0.18957005669E+02  0.21055901789E+02  0.00000000000E+00 0.  1.
</event>
<event>
 7    1  0.2459936E-009  0.4778727E+02  0.7816164E-02  0.1312668E+00
        -11   -1    0    0    0    0  0.00000000000E+00  0.00000000000E+00  0.45593999997E+02  0.45594000000E+02  0.51100000000E-03 0.  1.
         11   -1    0    0    0    0 -0.00000000000E+00 -0.00000000000E+00 -0.45593999997E+02  0.45594000000E+02  0.51100000000E-03 0. -1.
    9900012    2    1    2    0    0  0.24706641692E+02  0.98338244829E+01  0.34300164538E+02  0.47787268036E+02  0.19999986284E+02 0.  0.
         12    1    1    2    0    0 -0.24706641692E+02 -0.98338244829E+01 -0.34300164538E+02  0.43400731964E+02  0.00000000000E+00 0. -1.
         11    1    3    3    0    0  0.28229562831E+01  0.28737247136E+00 -0.10611698587E+01  0.30294796325E+01  0.51100000000E-03 0. -1.
        -11    1    3    3    0    0  0.85468349871E+01 -0.21153495602E+00  0.42904849615E+01  0.95656362465E+01  0.51100000000E-03 0.  1.
        -12    1    3    3    0    0  0.13336850422E+02  0.97579869675E+01  0.31070849435E+02  0.35192152157E+02  0.00000000000E+00 0.  1.
</event>
<event>
 7    1  0.2459936E-009  0.4778728E+02  0.7816164E-02  0.1312668E+00
        -11   -1    0    0    0    0  0.00000000000E+00  0.00000000000E+00  0.45593999997E+02  0.45594000000E+02  0.51100000000E-03 0. -1.
         11   -1    0    0    0    0 -0.00000000000E+00 -0.00000000000E+00 -0.45593999997E+02  0.45594000000E+02  0.51100000000E-03 0.  1.
    9900012    2    1    2    0    0  0.32014806184E+02 -0.13997220334E+02 -0.25743978320E+02  0.47787280975E+02  0.20000045278E+02 0.  0.
         12    1    1    2    0    0 -0.32014806184E+02  0.13997220334E+02  0.25743978320E+02  0.43400719025E+02  0.00000000000E+00 0. -1.
         11    1    3    3    0    0  0.22036001712E+01 -0.59047455723E+01 -0.95516937378E+00  0.63744978455E+01  0.51100000000E-03 0.  1.
        -11    1    3    3    0    0  0.36590755282E+01  0.17914660814E+01 -0.39306827536E-01  0.40742765898E+01  0.51100000000E-03 0. -1.
        -12    1    3    3    0    0  0.26152130485E+02 -0.98839408434E+01 -0.24749502119E+02  0.37338506540E+02  0.00000000000E+00 0.  1.
</event>
<event>
 7    1  0.2459936E-009  0.4778727E+02  0.7816164E-02  0.1312668E+00
        -11   -1    0    0    0    0  0.00000000000E+00  0.00000000000E+00  0.45593999997E+02  0.45594000000E+02  0.51100000000E-03 0. -1.
         11   -1    0    0    0    0 -0.00000000000E+00 -0.00000000000E+00 -0.45593999997E+02  0.45594000000E+02  0.51100000000E-03 0.  1.
    9900012    2    1    2    0    0 -0.25564562141E+02  0.35059506468E+02 -0.95259981894E+00  0.47787271001E+02  0.19999999801E+02 0.  0.
         12    1    1    2    0    0  0.25564562141E+02 -0.35059506468E+02  0.95259981894E+00  0.43400728999E+02  0.00000000000E+00 0. -1.
         11    1    3    3    0    0 -0.78289287083E+01  0.27272617706E+01  0.85751223791E+00  0.83345911108E+01  0.51100000000E-03 0. -1.
        -11    1    3    3    0    0 -0.13503727170E+02  0.14620923729E+02  0.40744609973E+01  0.20315592309E+02  0.51100000000E-03 0.  1.
         12    1    3    3    0    0 -0.42319062623E+01  0.17711320968E+02 -0.58845730541E+01  0.19137087581E+02  0.00000000000E+00 0. -1.
</event>
<event>
 7    1  0.2459936E-009  0.4778727E+02  0.7816164E-02  0.1312668E+00
        -11   -1    0    0    0    0  0.00000000000E+00  0.00000000000E+00  0.45593999997E+02  0.45594000000E+02  0.51100000000E-03 0. -1.
         11   -1    0    0    0    0 -0.00000000000E+00 -0.00000000000E+00 -0.45593999997E+02  0.45594000000E+02  0.51100000000E-03 0.  1.
    9900012    2    1    2    0    0  0.26338800985E+02  0.13089773729E+02 -0.31914706347E+02  0.47787273108E+02  0.20000009407E+02 0.  0.
         12    1    1    2    0    0 -0.26338800985E+02 -0.13089773729E+02  0.31914706347E+02  0.43400726892E+02  0.00000000000E+00 0. -1.
         11    1    3    3    0    0  0.12939426761E+02  0.11224761051E+02 -0.13456786905E+02  0.21783230698E+02  0.51100000000E-03 0. -1.
        -11    1    3    3    0    0  0.28517809047E+01  0.13859169607E+01 -0.14314864635E+02  0.14661813323E+02  0.51100000000E-03 0.  1.
         12    1    3    3    0    0  0.10547593318E+02  0.47909571734E+00 -0.41430548067E+01  0.11342229086E+02  0.00000000000E+00 0. -1.
</event>
<event>
 7    1  0.2459936E-009  0.4778727E+02  0.7816164E-02  0.1312668E+00
        -11   -1    0    0    0    0  0.00000000000E+00  0.00000000000E+00  0.45593999997E+02  0.45594000000E+02  0.51100000000E-03 0.  1.
         11   -1    0    0    0    0 -0.00000000000E+00 -0.00000000000E+00 -0.45593999997E+02  0.45594000000E+02  0.51100000000E-03 0. -1.
    9900012    2    1    2    0    0  0.56201111226E+01 -0.27333228206E+02  0.33240519147E+02  0.47787272743E+02  0.20000007747E+02 0.  0.
         12    1    1    2    0    0 -0.56201111226E+01  0.27333228206E+02 -0.33240519147E+02  0.43400727257E+02  0.00000000000E+00 0. -1.
         11    1    3    3    0    0  0.25826040766E+01 -0.40416036562E+01  0.45427573382E+01  0.66061371788E+01  0.51100000000E-03 0.  1.
        -11    1    3    3    0    0  0.74531953888E+01 -0.40466390148E+01  0.35148178563E+01  0.91803787310E+01  0.51100000000E-03 0. -1.
         12    1    3    3    0    0 -0.44156883429E+01 -0.19244985535E+02  0.25182943953E+02  0.32000756834E+02  0.00000000000E+00 0. -1.
</event>
<event>
 7    1  0.2459936E-009  0.4778727E+02  0.7816164E-02  0.1312668E+00
        -11   -1    0    0    0    0  0.00000000000E+00  0.00000000000E+00  0.45593999997E+02  0.45594000000E+02  0.51100000000E-03 0.  1.
         11   -1    0    0    0    0 -0.00000000000E+00 -0.00000000000E+00 -0.45593999997E+02  0.45594000000E+02  0.51100000000E-03 0. -1.
    9900012    2    1    2    0    0  0.17432488234E+02 -0.24474079841E+02  0.31316944351E+02  0.47787271509E+02  0.20000002117E+02 0.  0.
         12    1    1    2    0    0 -0.17432488234E+02  0.24474079841E+02 -0.31316944351E+02  0.43400728491E+02  0.00000000000E+00 0. -1.
         11    1    3    3    0    0  0.81043642143E+01 -0.10512546361E+02  0.18266328187E+02  0.22579926838E+02  0.51100000000E-03 0.  1.
        -11    1    3    3    0    0  0.32770312455E+01 -0.15062417205E+02  0.94255550999E+01  0.18068105464E+02  0.51100000000E-03 0. -1.
         12    1    3    3    0    0  0.60510927738E+01  0.11008837255E+01  0.36250610644E+01  0.71392392070E+01  0.00000000000E+00 0. -1.
</event>
<event>
 7    1  0.2459936E-009  0.4778727E+02  0.7816164E-02  0.1312668E+00
        -11   -1    0    0    0    0  0.00000000000E+00  0.00000000000E+00  0.45593999997E+02  0.45594000000E+02  0.51100000000E-03 0.  1.
         11   -1    0    0    0    0 -0.00000000000E+00 -0.00000000000E+00 -0.45593999997E+02  0.45594000000E+02  0.51100000000E-03 0. -1.
    9900012    2    1    2    0    0 -0.22755850683E+01 -0.79055528866E+01  0.42613930611E+02  0.47787272633E+02  0.20000007244E+02 0.  0.
         12    1    1    2    0    0  0.22755850683E+01  0.79055528866E+01 -0.42613930611E+02  0.43400727367E+02  0.00000000000E+00 0. -1.
         11    1    3    3    0    0 -0.41416889781E+01  0.26093162274E+00  0.34982661144E+01  0.54276642280E+01  0.51100000000E-03 0. -1.
        -11    1    3    3    0    0 -0.19892840262E+01 -0.98090257478E+01  0.16040011623E+02  0.18906512375E+02  0.51100000000E-03 0.  1.
        -12    1    3    3    0    0  0.38553879360E+01  0.16425412384E+01  0.23075652873E+02  0.23453096030E+02  0.00000000000E+00 0.  1.
</event>
<event>
 7    1  0.2459936E-009  0.4778727E+02  0.7816164E-02  0.1312668E+00
        -11   -1    0    0    0    0  0.00000000000E+00  0.00000000000E+00  0.45593999997E+02  0.45594000000E+02  0.51100000000E-03 0.  1.
         11   -1    0    0    0    0 -0.00000000000E+00 -0.00000000000E+00 -0.45593999997E+02  0.45594000000E+02  0.51100000000E-03 0. -1.
    9900012    2    1    2    0    0  0.30982636229E+02  0.23083695588E+02  0.19769738683E+02  0.47787270545E+02  0.19999997721E+02 0.  0.
         12    1    1    2    0    0 -0.30982636229E+02 -0.23083695588E+02 -0.19769738683E+02  0.43400729455E+02  0.00000000000E+00 0. -1.
         11    1    3    3    0    0  0.91404706160E+00 -0.15105566647E+01  0.18703180062E+00  0.17754561734E+01  0.51100000000E-03 0. -1.
        -11    1    3    3    0    0  0.38943803966E+00  0.70568854951E+01  0.45344392903E+01  0.83971682617E+01  0.51100000000E-03 0.  1.
         12    1    3    3    0    0  0.29679151127E+02  0.17537366757E+02  0.15048267592E+02  0.37614646110E+02  0.00000000000E+00 0. -1.
</event>
<event>
 7    1  0.2459936E-009  0.4778727E+02  0.7816164E-02  0.1312668E+00
        -11   -1    0    0    0    0  0.00000000000E+00  0.00000000000E+00  0.45593999997E+02  0.45594000000E+02  0.51100000000E-03 0.  1.
         11   -1    0    0    0    0 -0.00000000000E+00 -0.00000000000E+00 -0.45593999997E+02  0.45594000000E+02  0.51100000000E-03 0. -1.
    9900012    2    1    2    0    0  0.33261391277E+02  0.22865371425E+02 -0.15952357673E+02  0.47787273331E+02  0.20000010426E+02 0.  0.
         12    1    1    2    0    0 -0.33261391277E+02 -0.22865371425E+02  0.15952357673E+02  0.43400726669E+02  0.00000000000E+00 0. -1.
         11    1    3    3    0    0  0.42409482713E+01  0.33246270952E+01 -0.64704557653E+01  0.84205454475E+01  0.51100000000E-03 0. -1.
        -11    1    3    3    0    0  0.12716167810E+02  0.11421877406E+02  0.29078925880E+01  0.17338282694E+02  0.51100000000E-03 0.  1.
        -12    1    3    3    0    0  0.16304275196E+02  0.81188669243E+01 -0.12389794496E+02  0.22028445189E+02  0.00000000000E+00 0.  1.
</event>
<event>
 7    1  0.2459936E-009  0.4778727E+02  0.7816164E-02  0.1312668E+00
        -11   -1    0    0    0    0  0.00000000000E+00  0.00000000000E+00  0.45593999997E+02  0.45594000000E+02  0.51100000000E-03 0.  1.
         11   -1    0    0    0    0 -0.00000000000E+00 -0.00000000000E+00 -0.45593999997E+02  0.45594000000E+02  0.51100000000E-03 0. -1.
    9900012    2    1    2    0    0 -0.27969813987E+02  0.20124423469E+01  0.33124958970E+02  0.47787270450E+02  0.19999997292E+02 0.  0.
         12    1    1    2    0    0  0.27969813987E+02 -0.20124423469E+01 -0.33124958970E+02  0.43400729550E+02  0.00000000000E+00 0. -1.
         11    1    3    3    0    0 -0.15435737064E+02  0.16605175106E+01  0.17180744606E+02  0.23155934069E+02  0.51100000000E-03 0.  1.
        -11    1    3    3    0    0 -0.81437818330E+01  0.50642868090E+01  0.27941714759E+01  0.99887725935E+01  0.51100000000E-03 0. -1.
        -12    1    3    3    0    0 -0.43902950900E+01 -0.47123619728E+01  0.13150042887E+02  0.14642563788E+02  0.00000000000E+00 0.  1.
</event>
<event>
 7    1  0.2459936E-009  0.4778727E+02  0.7816164E-02  0.1312668E+00
        -11   -1    0    0    0    0  0.00000000000E+00  0.00000000000E+00  0.45593999997E+02  0.45594000000E+02  0.51100000000E-03 0. -1.
         11   -1    0    0    0    0 -0.00000000000E+00 -0.00000000000E+00 -0.45593999997E+02  0.45594000000E+02  0.51100000000E-03 0.  1.
    9900012    2    1    2    0    0 -0.31277287487E+02 -0.13063923985E+02 -0.27105134301E+02  0.47787272726E+02  0.20000007668E+02 0.  0.
         12    1    1    2    0    0  0.31277287487E+02  0.13063923985E+02  0.27105134301E+02  0.43400727274E+02  0.00000000000E+00 0. -1.
         11    1    3    3    0    0 -0.77616262640E+01  0.22117341340E+01 -0.82085753448E+01  0.11511529855E+02  0.51100000000E-03 0. -1.
        -11    1    3    3    0    0 -0.12025047517E+02 -0.94002336621E+01 -0.17613231063E+02  0.23306481275E+02  0.51100000000E-03 0.  1.
         12    1    3    3    0    0 -0.11490613706E+02 -0.58754244565E+01 -0.12833278935E+01  0.12969261597E+02  0.00000000000E+00 0. -1.
</event>
<event>
 7    1  0.2459936E-009  0.4778727E+02  0.7816164E-02  0.1312668E+00
        -11   -1    0    0    0    0  0.00000000000E+00  0.00000000000E+00  0.45593999997E+02  0.45594000000E+02  0.51100000000E-03 0.  1.
         11   -1    0    0    0    0 -0.00000000000E+00 -0.00000000000E+00 -0.45593999997E+02  0.45594000000E+02  0.51100000000E-03 0. -1.
    9900012    2    1    2    0    0  0.12756987501E+02  0.11346100395E+01  0.41468005497E+02  0.47787267865E+02  0.19999985502E+02 0.  0.
         12    1    1    2    0    0 -0.12756987501E+02 -0.11346100395E+01 -0.41468005497E+02  0.43400732135E+02  0.00000000000E+00 0. -1.
         11    1    3    3    0    0 -0.10664213771E+01 -0.94507584156E+00  0.10139662160E+02  0.10239295478E+02  0.51100000000E-03 0.  1.
        -11    1    3    3    0    0  0.38599817529E+00  0.60570967999E+01  0.14022794807E+02  0.15279927706E+02  0.51100000000E-03 0. -1.
        -12    1    3    3    0    0  0.13437410702E+02 -0.39774109188E+01  0.17305548529E+02  0.22268044680E+02  0.00000000000E+00 0.  1.
</event>
<event>
 7    1  0.2459936E-009  0.4778721E+02  0.7816164E-02  0.1312668E+00
        -11   -1    0    0    0    0  0.00000000000E+00  0.00000000000E+00  0.45593999997E+02  0.45594000000E+02  0.51100000000E-03 0. -1.
         11   -1    0    0    0    0 -0.00000000000E+00 -0.00000000000E+00 -0.45593999997E+02  0.45594000000E+02  0.51100000000E-03 0.  1.
    9900012    2    1    2    0    0  0.41460395646E+02 -0.78026314390E+00  0.12808413904E+02  0.47787208711E+02  0.19999715797E+02 0.  0.
         12    1    1    2    0    0 -0.41460395646E+02  0.78026314390E+00 -0.12808413904E+02  0.43400791289E+02  0.00000000000E+00 0. -1.
         11    1    3    3    0    0  0.73808552317E+01 -0.31613592688E+01  0.24088728027E+01  0.83829520349E+01  0.51100000000E-03 0. -1.
        -11    1    3    3    0    0  0.28544922070E+02  0.17655254051E+01  0.11681973057E+01  0.28623318137E+02  0.51100000000E-03 0.  1.
         12    1    3    3    0    0  0.55346183446E+01  0.61557071983E+00  0.92313437955E+01  0.10780938540E+02  0.00000000000E+00 0. -1.
</event>
<event>
 7    1  0.2459936E-009  0.4778727E+02  0.7816164E-02  0.1312668E+00
        -11   -1    0    0    0    0  0.00000000000E+00  0.00000000000E+00  0.45593999997E+02  0.45594000000E+02  0.51100000000E-03 0.  1.
         11   -1    0    0    0    0 -0.00000000000E+00 -0.00000000000E+00 -0.45593999997E+02  0.45594000000E+02  0.51100000000E-03 0. -1.
    9900012    2    1    2    0    0  0.34585770635E+02 -0.25168190521E+02  0.73491511293E+01  0.47787269973E+02  0.19999995116E+02 0.  0.
         12    1    1    2    0    0 -0.34585770635E+02  0.25168190521E+02 -0.73491511293E+01  0.43400730027E+02  0.00000000000E+00 0. -1.
         11    1    3    3    0    0  0.18792905791E+02 -0.99688292355E+01  0.53090874344E+01  0.21925721746E+02  0.51100000000E-03 0. -1.
        -11    1    3    3    0    0  0.14266647924E+02 -0.17712271891E+02  0.25199303318E+01  0.22882566894E+02  0.51100000000E-03 0.  1.
         12    1    3    3    0    0  0.15262169202E+01  0.25129106055E+01 -0.47986663682E+00  0.29789813339E+01  0.00000000000E+00 0. -1.
</event>
<event>
 7    1  0.2459936E-009  0.4778727E+02  0.7816164E-02  0.1312668E+00
        -11   -1    0    0    0    0  0.00000000000E+00  0.00000000000E+00  0.45593999997E+02  0.45594000000E+02  0.51100000000E-03 0.  1.
         11   -1    0    0    0    0 -0.00000000000E+00 -0.00000000000E+00 -0.45593999997E+02  0.45594000000E+02  0.51100000000E-03 0. -1.
    9900012    2    1    2    0    0  0.10064686749E+01 -0.63904784214E+01  0.42915870974E+02  0.47787272183E+02  0.20000005190E+02 0.  0.
         12    1    1    2    0    0 -0.10064686749E+01  0.63904784214E+01 -0.42915870974E+02  0.43400727817E+02  0.00000000000E+00 0. -1.
         11    1    3    3    0    0  0.16184923720E+01 -0.36177257341E+01  0.23713128444E+02  0.24042044795E+02  0.51100000000E-03 0. -1.
        -11    1    3    3    0    0  0.84989186079E+00  0.45953350723E+01  0.13581713835E+02  0.14363229844E+02  0.51100000000E-03 0.  1.
         12    1    3    3    0    0 -0.14619155578E+01 -0.73680877595E+01  0.56210286950E+01  0.93819975442E+01  0.00000000000E+00 0. -1.
</event>
<event>
 7    1  0.2459936E-009  0.4778726E+02  0.7816164E-02  0.1312668E+00
        -11   -1    0    0    0    0  0.00000000000E+00  0.00000000000E+00  0.45593999997E+02  0.45594000000E+02  0.51100000000E-03 0.  1.
         11   -1    0    0    0    0 -0.00000000000E+00 -0.00000000000E+00 -0.45593999997E+02  0.45594000000E+02  0.51100000000E-03 0. -1.
    9900012    2    1    2    0    0 -0.13083422392E+02 -0.12941805772E+01  0.41361495649E+02  0.47787260753E+02  0.19999953077E+02 0.  0.
         12    1    1    2    0    0  0.13083422392E+02  0.12941805772E+01 -0.41361495649E+02  0.43400739247E+02  0.00000000000E+00 0. -1.
         11    1    3    3    0    0  0.12881443035E+01  0.13377252587E+01  0.25592881993E+01  0.31620849076E+01  0.51100000000E-03 0. -1.
        -11    1    3    3    0    0 -0.74956135176E+01  0.25526799920E+01  0.33695352485E+02  0.34613251458E+02  0.51100000000E-03 0.  1.
         12    1    3    3    0    0 -0.68759531777E+01 -0.51845858279E+01  0.51068549651E+01  0.10011924388E+02  0.00000000000E+00 0. -1.
</event>
<event>
 7    1  0.2459936E-009  0.4778727E+02  0.7816164E-02  0.1312668E+00
        -11   -1    0    0    0    0  0.00000000000E+00  0.00000000000E+00  0.45593999997E+02  0.45594000000E+02  0.51100000000E-03 0. -1.
         11   -1    0    0    0    0 -0.00000000000E+00 -0.00000000000E+00 -0.45593999997E+02  0.45594000000E+02  0.51100000000E-03 0.  1.
    9900012    2    1    2    0    0 -0.32375336735E+02 -0.15470043962E+02 -0.24415959519E+02  0.47787265351E+02  0.19999974039E+02 0.  0.
         12    1    1    2    0    0  0.32375336735E+02  0.15470043962E+02  0.24415959519E+02  0.43400734649E+02  0.00000000000E+00 0. -1.
         11    1    3    3    0    0 -0.26831976253E+01 -0.71797427482E+01 -0.55705676603E+01  0.94752034145E+01  0.51100000000E-03 0. -1.
        -11    1    3    3    0    0 -0.84607137198E+01 -0.35566107028E+01 -0.12771631417E+02  0.15727292381E+02  0.51100000000E-03 0.  1.
        -12    1    3    3    0    0 -0.21231425390E+02 -0.47336905108E+01 -0.60737604418E+01  0.22584769555E+02  0.00000000000E+00 0.  1.
</event>
<event>
 7    1  0.2459936E-009  0.4778727E+02  0.7816164E-02  0.1312668E+00
        -11   -1    0    0    0    0  0.00000000000E+00  0.00000000000E+00  0.45593999997E+02  0.45594000000E+02  0.51100000000E-03 0.  1.
         11   -1    0    0    0    0 -0.00000000000E+00 -0.00000000000E+00 -0.45593999997E+02  0.45594000000E+02  0.51100000000E-03 0. -1.
    9900012    2    1    2    0    0 -0.21684607653E+02 -0.80402865701E+01  0.36725396715E+02  0.47787272114E+02  0.20000004875E+02 0.  0.
         12    1    1    2    0    0  0.21684607653E+02  0.80402865701E+01 -0.36725396715E+02  0.43400727886E+02  0.00000000000E+00 0. -1.
         11    1    3    3    0    0 -0.13645863988E+02 -0.10072009123E+02  0.25539462515E+02  0.30658100358E+02  0.51100000000E-03 0. -1.
        -11    1    3    3    0    0 -0.61829397195E+01  0.24448472306E+01  0.12936305163E+02  0.14544896462E+02  0.51100000000E-03 0.  1.
         12    1    3    3    0    0 -0.18558039450E+01 -0.41312467727E+00 -0.17503709631E+01  0.25842752930E+01  0.00000000000E+00 0. -1.
</event>
<event>
 7    1  0.2459936E-009  0.4778728E+02  0.7816164E-02  0.1312668E+00
        -11   -1    0    0    0    0  0.00000000000E+00  0.00000000000E+00  0.45593999997E+02  0.45594000000E+02  0.51100000000E-03 0.  1.
         11   -1    0    0    0    0 -0.00000000000E+00 -0.00000000000E+00 -0.45593999997E+02  0.45594000000E+02  0.51100000000E-03 0. -1.
    9900012    2    1    2    0    0  0.30738879964E+02  0.23198488921E+02  0.20014346246E+02  0.47787277825E+02  0.20000030915E+02 0.  0.
         12    1    1    2    0    0 -0.30738879964E+02 -0.23198488921E+02 -0.20014346246E+02  0.43400722175E+02  0.00000000000E+00 0. -1.
         11    1    3    3    0    0  0.10982278121E+02  0.88380388317E+01 -0.56033461067E+00  0.14107988455E+02  0.51100000000E-03 0. -1.
        -11    1    3    3    0    0 -0.22499074809E+00  0.42753076555E+01  0.32298128393E+01  0.53628879929E+01  0.51100000000E-03 0.  1.
        -12    1    3    3    0    0  0.19981592591E+02  0.10085142434E+02  0.17344868017E+02  0.28316401377E+02  0.00000000000E+00 0.  1.
</event>
<event>
 7    1  0.2459936E-009  0.4778727E+02  0.7816164E-02  0.1312668E+00
        -11   -1    0    0    0    0  0.00000000000E+00  0.00000000000E+00  0.45593999997E+02  0.45594000000E+02  0.51100000000E-03 0.  1.
         11   -1    0    0    0    0 -0.00000000000E+00 -0.00000000000E+00 -0.45593999997E+02  0.45594000000E+02  0.51100000000E-03 0. -1.
    9900012    2    1    2    0    0  0.41276167679E+02 -0.12927332454E+02  0.35756440458E+01  0.47787272207E+02  0.20000005300E+02 0.  0.
         12    1    1    2    0    0 -0.41276167679E+02  0.12927332454E+02 -0.35756440458E+01  0.43400727793E+02  0.00000000000E+00 0. -1.
         11    1    3    3    0    0  0.27405237287E+01  0.28591092509E+00  0.26915600063E+01  0.38518451284E+01  0.51100000000E-03 0. -1.
        -11    1    3    3    0    0  0.25490954414E+01  0.64772456310E+00  0.44899065910E+01  0.52035272783E+01  0.51100000000E-03 0.  1.
         12    1    3    3    0    0  0.35986548509E+02 -0.13860967943E+02 -0.36058225515E+01  0.38731899800E+02  0.00000000000E+00 0. -1.
</event>
<event>
 7    1  0.2459936E-009  0.4778727E+02  0.7816164E-02  0.1312668E+00
        -11   -1    0    0    0    0  0.00000000000E+00  0.00000000000E+00  0.45593999997E+02  0.45594000000E+02  0.51100000000E-03 0. -1.
         11   -1    0    0    0    0 -0.00000000000E+00 -0.00000000000E+00 -0.45593999997E+02  0.45594000000E+02  0.51100000000E-03 0.  1.
    9900012    2    1    2    0    0  0.16113536191E+02  0.39811906395E+02  0.62441347050E+01  0.47787272384E+02  0.20000006106E+02 0.  0.
         12    1    1    2    0    0 -0.16113536191E+02 -0.39811906395E+02 -0.62441347050E+01  0.43400727616E+02  0.00000000000E+00 0. -1.
         11    1    3    3    0    0  0.10599929146E+02  0.25011970190E+02  0.83694973923E+01  0.28425439971E+02  0.51100000000E-03 0. -1.
        -11    1    3    3    0    0  0.23909777975E+01  0.90981478128E+01  0.41903862069E+01  0.10298174852E+02  0.51100000000E-03 0.  1.
        -12    1    3    3    0    0  0.31226292479E+01  0.57017883929E+01 -0.63157488942E+01  0.90636575614E+01  0.00000000000E+00 0.  1.
</event>
<event>
 7    1  0.2459936E-009  0.4778727E+02  0.7816164E-02  0.1312668E+00
        -11   -1    0    0    0    0  0.00000000000E+00  0.00000000000E+00  0.45593999997E+02  0.45594000000E+02  0.51100000000E-03 0.  1.
         11   -1    0    0    0    0 -0.00000000000E+00 -0.00000000000E+00 -0.45593999997E+02  0.45594000000E+02  0.51100000000E-03 0. -1.
    9900012    2    1    2    0    0 -0.39515483545E+02 -0.13966994625E+02  0.11272668919E+02  0.47787269094E+02  0.19999991106E+02 0.  0.
         12    1    1    2    0    0  0.39515483545E+02  0.13966994625E+02 -0.11272668919E+02  0.43400730906E+02  0.00000000000E+00 0. -1.
         11    1    3    3    0    0 -0.21035335251E+02 -0.45596118396E+01 -0.61520635090E+00  0.21532623351E+02  0.51100000000E-03 0. -1.
        -11    1    3    3    0    0 -0.15379832519E+02 -0.77889885493E+01  0.41044080605E+01  0.17721561915E+02  0.51100000000E-03 0.  1.
         12    1    3    3    0    0 -0.31003157750E+01 -0.16183942359E+01  0.77834672093E+01  0.85330838274E+01  0.00000000000E+00 0. -1.
</event>
<event>
 7    1  0.2459936E-009  0.4778727E+02  0.7816164E-02  0.1312668E+00
        -11   -1    0    0    0    0  0.00000000000E+00  0.00000000000E+00  0.45593999997E+02  0.45594000000E+02  0.51100000000E-03 0.  1.
         11   -1    0    0    0    0 -0.00000000000E+00 -0.00000000000E+00 -0.45593999997E+02  0.45594000000E+02  0.51100000000E-03 0. -1.
    9900012    2    1    2    0    0 -0.45387685844E+01  0.36161796480E+02  0.23565805739E+02  0.47787272529E+02  0.20000006767E+02 0.  0.
         12    1    1    2    0    0  0.45387685844E+01 -0.36161796480E+02 -0.23565805739E+02  0.43400727471E+02  0.00000000000E+00 0. -1.
         11    1    3    3    0    0 -0.26912559719E+01  0.38513673824E+01  0.37669825482E+00  0.47135752096E+01  0.51100000000E-03 0. -1.
        -11    1    3    3    0    0 -0.75866929556E+01  0.90479670066E+01  0.11228648521E+02  0.16294359908E+02  0.51100000000E-03 0.  1.
         12    1    3    3    0    0  0.57391803431E+01  0.23262462091E+02  0.11960458963E+02  0.26779337411E+02  0.00000000000E+00 0. -1.
</event>
<event>
 7    1  0.2459936E-009  0.4778726E+02  0.7816164E-02  0.1312668E+00
        -11   -1    0    0    0    0  0.00000000000E+00  0.00000000000E+00  0.45593999997E+02  0.45594000000E+02  0.51100000000E-03 0. -1.
         11   -1    0    0    0    0 -0.00000000000E+00 -0.00000000000E+00 -0.45593999997E+02  0.45594000000E+02  0.51100000000E-03 0.  1.
    9900012    2    1    2    0    0  0.60907851653E+01  0.37124615098E+02 -0.21639990352E+02  0.47787263917E+02  0.19999967504E+02 0.  0.
         12    1    1    2    0    0 -0.60907851653E+01 -0.37124615098E+02  0.21639990352E+02  0.43400736083E+02  0.00000000000E+00 0. -1.
         11    1    3    3    0    0 -0.24262662097E+01  0.87921207024E+00 -0.21826840909E+01  0.33799248049E+01  0.51100000000E-03 0. -1.
        -11    1    3    3    0    0  0.16726935494E+01 -0.71438976874E+00  0.44897017435E+00  0.18734542777E+01  0.51100000000E-03 0.  1.
        -12    1    3    3    0    0  0.68443578257E+01  0.36959792796E+02 -0.19906276435E+02  0.42533884835E+02  0.00000000000E+00 0.  1.
</event>
<event>
 7    1  0.2459936E-009  0.4778727E+02  0.7816164E-02  0.1312668E+00
        -11   -1    0    0    0    0  0.00000000000E+00  0.00000000000E+00  0.45593999997E+02  0.45594000000E+02  0.51100000000E-03 0.  1.
         11   -1    0    0    0    0 -0.00000000000E+00 -0.00000000000E+00 -0.45593999997E+02  0.45594000000E+02  0.51100000000E-03 0. -1.
    9900012    2    1    2    0    0 -0.14590558396E+01 -0.73921682452E+01  0.42741670036E+02  0.47787270136E+02  0.19999995856E+02 0.  0.
         12    1    1    2    0    0  0.14590558396E+01  0.73921682452E+01 -0.42741670036E+02  0.43400729864E+02  0.00000000000E+00 0. -1.
         11    1    3    3    0    0 -0.51581155224E+01 -0.17060872079E+01  0.15881109334E+02  0.16784710997E+02  0.51100000000E-03 0. -1.
        -11    1    3    3    0    0 -0.39464579307E+01 -0.48650471307E+01  0.19001183744E+02  0.20007203645E+02  0.51100000000E-03 0.  1.
         12    1    3    3    0    0  0.76455176135E+01 -0.82103390664E+00  0.78593769578E+01  0.10995355493E+02  0.00000000000E+00 0. -1.
</event>
<event>
 7    1  0.2459936E-009  0.4778729E+02  0.7816164E-02  0.1312668E+00
        -11   -1    0    0    0    0  0.00000000000E+00  0.00000000000E+00  0.45593999997E+02  0.45594000000E+02  0.51100000000E-03 0. -1.
         11   -1    0    0    0    0 -0.00000000000E+00 -0.00000000000E+00 -0.45593999997E+02  0.45594000000E+02  0.51100000000E-03 0.  1.
    9900012    2    1    2    0    0  0.25843046942E+02  0.27338786736E+02  0.21641375924E+02  0.47787291627E+02  0.20000093843E+02 0.  0.
         12    1    1    2    0    0 -0.25843046942E+02 -0.27338786736E+02 -0.21641375924E+02  0.43400708373E+02  0.00000000000E+00 0. -1.
         11    1    3    3    0    0  0.10294591319E+02  0.17414366170E+02  0.11318835255E+02  0.23180914377E+02  0.51100000000E-03 0. -1.
        -11    1    3    3    0    0  0.14617111762E+02  0.12717613374E+02  0.92795732158E+01  0.21482740178E+02  0.51100000000E-03 0.  1.
        -12    1    3    3    0    0  0.93134386040E+00 -0.27931928089E+01  0.10429674530E+01  0.31236370727E+01  0.00000000000E+00 0.  1.
</event>
<event>
 7    1  0.2459936E-009  0.4778727E+02  0.7816164E-02  0.1312668E+00
        -11   -1    0    0    0    0  0.00000000000E+00  0.00000000000E+00  0.45593999997E+02  0.45594000000E+02  0.51100000000E-03 0.  1.
         11   -1    0    0    0    0 -0.00000000000E+00 -0.00000000000E+00 -0.45593999997E+02  0.45594000000E+02  0.51100000000E-03 0. -1.
    9900012    2    1    2    0    0  0.22840113924E+02 -0.23342983227E+02  0.28584220184E+02  0.47787270587E+02  0.19999997916E+02 0.  0.
         12    1    1    2    0    0 -0.22840113924E+02  0.23342983227E+02 -0.28584220184E+02  0.43400729413E+02  0.00000000000E+00 0. -1.
         11    1    3    3    0    0 -0.24621373437E+01 -0.67435827541E+01  0.72593785728E+01  0.10209633009E+02  0.51100000000E-03 0. -1.
        -11    1    3    3    0    0  0.53100483724E+01 -0.65407288456E+01  0.43044676526E+01  0.94607710881E+01  0.51100000000E-03 0.  1.
         12    1    3    3    0    0  0.19992202895E+02 -0.10058671628E+02  0.17020373959E+02  0.28116866490E+02  0.00000000000E+00 0. -1.
</event>
<event>
 7    1  0.2459936E-009  0.4778727E+02  0.7816164E-02  0.1312668E+00
        -11   -1    0    0    0    0  0.00000000000E+00  0.00000000000E+00  0.45593999997E+02  0.45594000000E+02  0.51100000000E-03 0.  1.
         11   -1    0    0    0    0 -0.00000000000E+00 -0.00000000000E+00 -0.45593999997E+02  0.45594000000E+02  0.51100000000E-03 0. -1.
    9900012    2    1    2    0    0 -0.40092318690E+02  0.16086697776E+02  0.41769946938E+01  0.47787272495E+02  0.20000006614E+02 0.  0.
         12    1    1    2    0    0  0.40092318690E+02 -0.16086697776E+02 -0.41769946938E+01  0.43400727505E+02  0.00000000000E+00 0. -1.
         11    1    3    3    0    0 -0.19142326974E+02  0.33443843636E+01 -0.36677981253E+01  0.19775397141E+02  0.51100000000E-03 0. -1.
        -11    1    3    3    0    0 -0.15216869679E+02  0.10159316859E+02  0.44609140238E+00  0.18302017366E+02  0.51100000000E-03 0.  1.
         12    1    3    3    0    0 -0.57331220374E+01  0.25829965539E+01  0.73987014167E+01  0.97098579879E+01  0.00000000000E+00 0. -1.
</event>
<event>
 7    1  0.2459936E-009  0.4778727E+02  0.7816164E-02  0.1312668E+00
        -11   -1    0    0    0    0  0.00000000000E+00  0.00000000000E+00  0.45593999997E+02  0.45594000000E+02  0.51100000000E-03 0. -1.
         11   -1    0    0    0    0 -0.00000000000E+00 -0.00000000000E+00 -0.45593999997E+02  0.45594000000E+02  0.51100000000E-03 0.  1.
    9900012    2    1    2    0    0  0.88915540946E+01 -0.19605978075E+01 -0.42434888911E+02  0.47787268729E+02  0.19999989442E+02 0.  0.
         12    1    1    2    0    0 -0.88915540946E+01  0.19605978075E+01  0.42434888911E+02  0.43400731271E+02  0.00000000000E+00 0. -1.
         11    1    3    3    0    0  0.17127232591E+01  0.31220219386E+01 -0.16156964522E+01  0.39103602436E+01  0.51100000000E-03 0.  1.
        -11    1    3    3    0    0  0.55568371354E+00 -0.22219087063E+01  0.13288311074E+00  0.22941928582E+01  0.51100000000E-03 0. -1.
        -12    1    3    3    0    0  0.66231471219E+01 -0.28607110398E+01 -0.40952075570E+02  0.41582715627E+02  0.00000000000E+00 0.  1.
</event>
<event>
 7    1  0.2459936E-009  0.4778727E+02  0.7816164E-02  0.1312668E+00
        -11   -1    0    0    0    0  0.00000000000E+00  0.00000000000E+00  0.45593999997E+02  0.45594000000E+02  0.51100000000E-03 0.  1.
         11   -1    0    0    0    0 -0.00000000000E+00 -0.00000000000E+00 -0.45593999997E+02  0.45594000000E+02  0.51100000000E-03 0. -1.
    9900012    2    1    2    0    0  0.40760918691E+02  0.14564840926E+02  0.31679999048E+01  0.47787270661E+02  0.19999998254E+02 0.  0.
         12    1    1    2    0    0 -0.40760918691E+02 -0.14564840926E+02 -0.31679999048E+01  0.43400729339E+02  0.00000000000E+00 0. -1.
         11    1    3    3    0    0  0.18021975720E+02  0.59912631254E+01 -0.22613274281E+01  0.19125910297E+02  0.51100000000E-03 0. -1.
        -11    1    3    3    0    0  0.18381325285E+02  0.10406016986E+02 -0.43753365728E+00  0.21126990906E+02  0.51100000000E-03 0.  1.
        -12    1    3    3    0    0  0.43576176851E+01 -0.18324391858E+01  0.58668609901E+01  0.75343694585E+01  0.00000000000E+00 0.  1.
</event>
<event>
 7    1  0.2459936E-009  0.4778728E+02  0.7816164E-02  0.1312668E+00
        -11   -1    0    0    0    0  0.00000000000E+00  0.00000000000E+00  0.45593999997E+02  0.45594000000E+02  0.51100000000E-03 0.  1.
         11   -1    0    0    0    0 -0.00000000000E+00 -0.00000000000E+00 -0.45593999997E+02  0.45594000000E+02  0.51100000000E-03 0. -1.
    9900012    2    1    2    0    0  0.38426306453E+02  0.17825189957E+02  0.94500986758E+01  0.47787276623E+02  0.20000025437E+02 0.  0.
         12    1    1    2    0    0 -0.38426306453E+02 -0.17825189957E+02 -0.94500986758E+01  0.43400723377E+02  0.00000000000E+00 0. -1.
         11    1    3    3    0    0  0.15995915979E+01  0.16389544522E+01  0.20018045101E+01  0.30417242699E+01  0.51100000000E-03 0. -1.
        -11    1    3    3    0    0  0.28351004969E+02  0.11540750979E+02  0.13378628484E+02  0.33405929358E+02  0.51100000000E-03 0.  1.
         12    1    3    3    0    0  0.84757098860E+01  0.46454845261E+01 -0.59303343179E+01  0.11339622995E+02  0.00000000000E+00 0. -1.
</event>
<event>
 7    1  0.2459936E-009  0.4778727E+02  0.7816164E-02  0.1312668E+00
        -11   -1    0    0    0    0  0.00000000000E+00  0.00000000000E+00  0.45593999997E+02  0.45594000000E+02  0.51100000000E-03 0. -1.
         11   -1    0    0    0    0 -0.00000000000E+00 -0.00000000000E+00 -0.45593999997E+02  0.45594000000E+02  0.51100000000E-03 0.  1.
    9900012    2    1    2    0    0 -0.15198485492E+00 -0.42075455822E+02  0.10642194137E+02  0.47787269844E+02  0.19999994527E+02 0.  0.
         12    1    1    2    0    0  0.15198485492E+00  0.42075455822E+02 -0.10642194137E+02  0.43400730156E+02  0.00000000000E+00 0. -1.
         11    1    3    3    0    0 -0.86801617390E+00  0.13046534139E+01  0.27997832467E+01  0.32084823668E+01  0.51100000000E-03 0. -1.
        -11    1    3    3    0    0  0.13289324174E+01 -0.24659589749E+02  0.76293729831E+01  0.25847026141E+02  0.51100000000E-03 0.  1.
        -12    1    3    3    0    0 -0.61290109840E+00 -0.18720519487E+02  0.21303790707E+00  0.18731761337E+02  0.00000000000E+00 0.  1.
</event>
