<event>
 7    1  0.3221417E-010  0.4778727E+02  0.7816164E-02  0.1312668E+00
        -11   -1    0    0    0    0  0.00000000000E+00  0.00000000000E+00  0.45593999997E+02  0.45594000000E+02  0.51100000000E-03 0. -1.
         11   -1    0    0    0    0 -0.00000000000E+00 -0.00000000000E+00 -0.45593999997E+02  0.45594000000E+02  0.51100000000E-03 0.  1.
    9900012    2    1    2    0    0  0.92628834780E+01  0.31396993906E+02  0.28496509811E+02  0.47787270651E+02  0.19999998206E+02 0.  0.
        -12    1    1    2    0    0 -0.92628834780E+01 -0.31396993906E+02 -0.28496509811E+02  0.43400729349E+02  0.00000000000E+00 0.  1.
         11    1    3    3    0    0  0.85388063101E+01  0.13050243647E+02  0.17701338355E+02  0.23591469905E+02  0.51100000000E-03 0. -1.
        -11    1    3    3    0    0 -0.35242989138E+01  0.11556999755E+02  0.10771055853E+02  0.16186431683E+02  0.51100000000E-03 0.  1.
        -12    1    3    3    0    0  0.42483760817E+01  0.67897505033E+01  0.24115602726E-01  0.80093690632E+01  0.00000000000E+00 0.  1.
</event>
<event>
 7    1  0.3221417E-010  0.4778729E+02  0.7816164E-02  0.1312668E+00
        -11   -1    0    0    0    0  0.00000000000E+00  0.00000000000E+00  0.45593999997E+02  0.45594000000E+02  0.51100000000E-03 0. -1.
         11   -1    0    0    0    0 -0.00000000000E+00 -0.00000000000E+00 -0.45593999997E+02  0.45594000000E+02  0.51100000000E-03 0.  1.
    9900012    2    1    2    0    0 -0.14192774663E+02  0.26595963892E+01 -0.40928152324E+02  0.47787286202E+02  0.20000069107E+02 0.  0.
         12    1    1    2    0    0  0.14192774663E+02 -0.26595963892E+01  0.40928152324E+02  0.43400713798E+02  0.00000000000E+00 0. -1.
         11    1    3    3    0    0 -0.13184935368E+01  0.56273048088E+00 -0.29767061079E+02  0.29801560636E+02  0.51100000000E-03 0. -1.
        -11    1    3    3    0    0 -0.20138748067E+01  0.67002903237E+00 -0.49681901184E+01  0.54025497643E+01  0.51100000000E-03 0.  1.
         12    1    3    3    0    0 -0.10860406320E+02  0.14268368759E+01 -0.61929011266E+01  0.12583175802E+02  0.00000000000E+00 0. -1.
</event>
<event>
 7    1  0.3221417E-010  0.4778727E+02  0.7816164E-02  0.1312668E+00
        -11   -1    0    0    0    0  0.00000000000E+00  0.00000000000E+00  0.45593999997E+02  0.45594000000E+02  0.51100000000E-03 0. -1.
         11   -1    0    0    0    0 -0.00000000000E+00 -0.00000000000E+00 -0.45593999997E+02  0.45594000000E+02  0.51100000000E-03 0.  1.
    9900012    2    1    2    0    0 -0.91848004267E+00 -0.84067300580E+01  0.42568845402E+02  0.47787270574E+02  0.19999997856E+02 0.  0.
        -12    1    1    2    0    0  0.91848004267E+00  0.84067300580E+01 -0.42568845402E+02  0.43400729426E+02  0.00000000000E+00 0.  1.
         11    1    3    3    0    0  0.12452761504E+01  0.10357396827E+00  0.23366115700E+02  0.23399504342E+02  0.51100000000E-03 0. -1.
        -11    1    3    3    0    0  0.21799739164E+01 -0.13240679929E+01  0.14581924020E+02  0.14803308776E+02  0.51100000000E-03 0.  1.
        -12    1    3    3    0    0 -0.43437301095E+01 -0.71862360333E+01  0.46208056808E+01  0.95844574563E+01  0.00000000000E+00 0.  1.
</event>
<event>
 7    1  0.3221417E-010  0.4778727E+02  0.7816164E-02  0.1312668E+00
        -11   -1    0    0    0    0  0.00000000000E+00  0.00000000000E+00  0.45593999997E+02  0.45594000000E+02  0.51100000000E-03 0. -1.
         11   -1    0    0    0    0 -0.00000000000E+00 -0.00000000000E+00 -0.45593999997E+02  0.45594000000E+02  0.51100000000E-03 0.  1.
    9900012    2    1    2    0    0  0.12037735379E+02 -0.28350916885E+01  0.41601421767E+02  0.47787272921E+02  0.20000008555E+02 0.  0.
        -12    1    1    2    0    0 -0.12037735379E+02  0.28350916885E+01 -0.41601421767E+02  0.43400727079E+02  0.00000000000E+00 0.  1.
         11    1    3    3    0    0 -0.10321442416E+00  0.31022653024E+01  0.84543836583E+01  0.90061815731E+01  0.51100000000E-03 0. -1.
        -11    1    3    3    0    0  0.23126357566E+01 -0.94194592711E+01  0.15559473004E+02  0.18334985616E+02  0.51100000000E-03 0.  1.
        -12    1    3    3    0    0  0.98283140462E+01  0.34821022802E+01  0.17587565105E+02  0.20446105732E+02  0.00000000000E+00 0.  1.
</event>
<event>
 7    1  0.3221417E-010  0.4778726E+02  0.7816164E-02  0.1312668E+00
        -11   -1    0    0    0    0  0.00000000000E+00  0.00000000000E+00  0.45593999997E+02  0.45594000000E+02  0.51100000000E-03 0. -1.
         11   -1    0    0    0    0 -0.00000000000E+00 -0.00000000000E+00 -0.45593999997E+02  0.45594000000E+02  0.51100000000E-03 0.  1.
    9900012    2    1    2    0    0 -0.24747395196E+02  0.31376878430E+02  0.16931681285E+02  0.47787263830E+02  0.19999967105E+02 0.  0.
        -12    1    1    2    0    0  0.24747395196E+02 -0.31376878430E+02 -0.16931681285E+02  0.43400736170E+02  0.00000000000E+00 0.  1.
         11    1    3    3    0    0 -0.13733352347E+02  0.15856788333E+02  0.48505815004E+01  0.21530695392E+02  0.51100000000E-03 0. -1.
        -11    1    3    3    0    0 -0.10678517206E+02  0.17669172054E+02  0.90891998663E+01  0.22557569135E+02  0.51100000000E-03 0.  1.
        -12    1    3    3    0    0 -0.33552564324E+00 -0.21490819576E+01  0.29918999186E+01  0.36989993026E+01  0.00000000000E+00 0.  1.
</event>
<event>
 7    1  0.3221417E-010  0.4778728E+02  0.7816164E-02  0.1312668E+00
        -11   -1    0    0    0    0  0.00000000000E+00  0.00000000000E+00  0.45593999997E+02  0.45594000000E+02  0.51100000000E-03 0. -1.
         11   -1    0    0    0    0 -0.00000000000E+00 -0.00000000000E+00 -0.45593999997E+02  0.45594000000E+02  0.51100000000E-03 0.  1.
    9900012    2    1    2    0    0 -0.26473247039E+01 -0.39533320629E+01  0.43139143007E+02  0.47787276252E+02  0.20000023742E+02 0.  0.
        -12    1    1    2    0    0  0.26473247039E+01  0.39533320629E+01 -0.43139143007E+02  0.43400723748E+02  0.00000000000E+00 0.  1.
         11    1    3    3    0    0 -0.20264922944E+01 -0.11240379006E+01  0.11585385431E+02  0.11814875711E+02  0.51100000000E-03 0. -1.
        -11    1    3    3    0    0  0.46796982495E+01 -0.28724074342E+01  0.18422139030E+01  0.57917227575E+01  0.51100000000E-03 0.  1.
        -12    1    3    3    0    0 -0.53005306590E+01  0.43113271865E-01  0.29711543673E+02  0.30180677784E+02  0.00000000000E+00 0.  1.
</event>
<event>
 7    1  0.3221417E-010  0.4778730E+02  0.7816164E-02  0.1312668E+00
        -11   -1    0    0    0    0  0.00000000000E+00  0.00000000000E+00  0.45593999997E+02  0.45594000000E+02  0.51100000000E-03 0. -1.
         11   -1    0    0    0    0 -0.00000000000E+00 -0.00000000000E+00 -0.45593999997E+02  0.45594000000E+02  0.51100000000E-03 0.  1.
    9900012    2    1    2    0    0  0.31607966991E+02  0.14988192203E+01  0.29703718154E+02  0.47787298294E+02  0.20000124243E+02 0.  0.
        -12    1    1    2    0    0 -0.31607966991E+02 -0.14988192203E+01 -0.29703718154E+02  0.43400701706E+02  0.00000000000E+00 0.  1.
         11    1    3    3    0    0  0.56179495691E+01 -0.62092929041E+01  0.10748981762E+02  0.13625611359E+02  0.51100000000E-03 0.  1.
        -11    1    3    3    0    0  0.15142812452E+02  0.52849874701E+01  0.16014164648E+02  0.22664715554E+02  0.51100000000E-03 0. -1.
        -12    1    3    3    0    0  0.10847204970E+02  0.24231246544E+01  0.29405717437E+01  0.11496971381E+02  0.00000000000E+00 0.  1.
</event>
<event>
 7    1  0.3221417E-010  0.4778727E+02  0.7816164E-02  0.1312668E+00
        -11   -1    0    0    0    0  0.00000000000E+00  0.00000000000E+00  0.45593999997E+02  0.45594000000E+02  0.51100000000E-03 0. -1.
         11   -1    0    0    0    0 -0.00000000000E+00 -0.00000000000E+00 -0.45593999997E+02  0.45594000000E+02  0.51100000000E-03 0.  1.
    9900012    2    1    2    0    0  0.81157856469E+01  0.43205312880E+01 -0.42415683155E+02  0.47787272532E+02  0.20000006781E+02 0.  0.
         12    1    1    2    0    0 -0.81157856469E+01 -0.43205312880E+01  0.42415683155E+02  0.43400727468E+02  0.00000000000E+00 0. -1.
         11    1    3    3    0    0  0.15024872724E+01  0.28955529425E+01 -0.12256455385E+02  0.12683153934E+02  0.51100000000E-03 0.  1.
        -11    1    3    3    0    0  0.22936009521E+01 -0.62410615011E+01 -0.46337073904E+01  0.81044863149E+01  0.51100000000E-03 0. -1.
         12    1    3    3    0    0  0.43196974224E+01  0.76660398466E+01 -0.25525520380E+02  0.26999632283E+02  0.00000000000E+00 0. -1.
</event>
<event>
 7    1  0.3221417E-010  0.4778727E+02  0.7816164E-02  0.1312668E+00
        -11   -1    0    0    0    0  0.00000000000E+00  0.00000000000E+00  0.45593999997E+02  0.45594000000E+02  0.51100000000E-03 0. -1.
         11   -1    0    0    0    0 -0.00000000000E+00 -0.00000000000E+00 -0.45593999997E+02  0.45594000000E+02  0.51100000000E-03 0.  1.
    9900012    2    1    2    0    0 -0.29833919234E+01  0.45162736723E+01  0.43061882804E+02  0.47787272980E+02  0.20000008823E+02 0.  0.
        -12    1    1    2    0    0  0.29833919234E+01 -0.45162736723E+01 -0.43061882804E+02  0.43400727020E+02  0.00000000000E+00 0.  1.
         11    1    3    3    0    0  0.14691439040E+01  0.81830048783E+01  0.78315909856E+01  0.11421636060E+02  0.51100000000E-03 0. -1.
        -11    1    3    3    0    0 -0.16142220060E+01 -0.41708011829E+00  0.27187757428E+02  0.27238829320E+02  0.51100000000E-03 0.  1.
        -12    1    3    3    0    0 -0.28383138213E+01 -0.32496510878E+01  0.80425343908E+01  0.91268076000E+01  0.00000000000E+00 0.  1.
</event>
<event>
 7    1  0.3221417E-010  0.4778727E+02  0.7816164E-02  0.1312668E+00
        -11   -1    0    0    0    0  0.00000000000E+00  0.00000000000E+00  0.45593999997E+02  0.45594000000E+02  0.51100000000E-03 0. -1.
         11   -1    0    0    0    0 -0.00000000000E+00 -0.00000000000E+00 -0.45593999997E+02  0.45594000000E+02  0.51100000000E-03 0.  1.
    9900012    2    1    2    0    0  0.35015639200E+02 -0.12016731254E+02 -0.22652290784E+02  0.47787273089E+02  0.20000009322E+02 0.  0.
         12    1    1    2    0    0 -0.35015639200E+02  0.12016731254E+02  0.22652290784E+02  0.43400726911E+02  0.00000000000E+00 0. -1.
         11    1    3    3    0    0  0.26434746333E+02 -0.39269391679E+01 -0.16552030670E+02  0.31435431991E+02  0.51100000000E-03 0. -1.
        -11    1    3    3    0    0  0.61521286212E+01  0.47918911136E+00 -0.33975542778E+01  0.70442660447E+01  0.51100000000E-03 0.  1.
        -12    1    3    3    0    0  0.24287642461E+01 -0.85689811979E+01 -0.27027058365E+01  0.93075750533E+01  0.00000000000E+00 0.  1.
</event>
<event>
 7    1  0.3221417E-010  0.4778729E+02  0.7816164E-02  0.1312668E+00
        -11   -1    0    0    0    0  0.00000000000E+00  0.00000000000E+00  0.45593999997E+02  0.45594000000E+02  0.51100000000E-03 0. -1.
         11   -1    0    0    0    0 -0.00000000000E+00 -0.00000000000E+00 -0.45593999997E+02  0.45594000000E+02  0.51100000000E-03 0.  1.
    9900012    2    1    2    0    0  0.20978780558E+02  0.47907415373E+01 -0.37690335605E+02  0.47787287608E+02  0.20000075518E+02 0.  0.
         12    1    1    2    0    0 -0.20978780558E+02 -0.47907415373E+01  0.37690335605E+02  0.43400712392E+02  0.00000000000E+00 0. -1.
         11    1    3    3    0    0  0.12887823732E+01 -0.44057910361E+01 -0.14223458432E+02  0.14945859784E+02  0.51100000000E-03 0. -1.
        -11    1    3    3    0    0  0.11254830167E+02  0.18244384429E+01 -0.14771978682E+02  0.18660416183E+02  0.51100000000E-03 0.  1.
        -12    1    3    3    0    0  0.84351680181E+01  0.73720941306E+01 -0.86948984916E+01  0.14181011640E+02  0.00000000000E+00 0.  1.
</event>
<event>
 7    1  0.3221417E-010  0.4778727E+02  0.7816164E-02  0.1312668E+00
        -11   -1    0    0    0    0  0.00000000000E+00  0.00000000000E+00  0.45593999997E+02  0.45594000000E+02  0.51100000000E-03 0.  1.
         11   -1    0    0    0    0 -0.00000000000E+00 -0.00000000000E+00 -0.45593999997E+02  0.45594000000E+02  0.51100000000E-03 0. -1.
    9900012    2    1    2    0    0  0.21970657190E+02  0.33507011582E+02  0.16679132804E+02  0.47787273352E+02  0.20000010519E+02 0.  0.
        -12    1    1    2    0    0 -0.21970657190E+02 -0.33507011582E+02 -0.16679132804E+02  0.43400726648E+02  0.00000000000E+00 0.  1.
         11    1    3    3    0    0  0.49138616762E+01  0.35278220979E+01  0.71889977125E+01  0.93953847020E+01  0.51100000000E-03 0. -1.
        -11    1    3    3    0    0  0.77099381860E+01  0.25662735637E+02  0.81606754834E+01  0.28010993767E+02  0.51100000000E-03 0.  1.
         12    1    3    3    0    0  0.93468573273E+01  0.43164538470E+01  0.13294596082E+01  0.10380894882E+02  0.00000000000E+00 0. -1.
</event>
<event>
 7    1  0.3221417E-010  0.4778727E+02  0.7816164E-02  0.1312668E+00
        -11   -1    0    0    0    0  0.00000000000E+00  0.00000000000E+00  0.45593999997E+02  0.45594000000E+02  0.51100000000E-03 0. -1.
         11   -1    0    0    0    0 -0.00000000000E+00 -0.00000000000E+00 -0.45593999997E+02  0.45594000000E+02  0.51100000000E-03 0.  1.
    9900012    2    1    2    0    0 -0.28455335260E+02 -0.12830094288E+02 -0.30154702518E+02  0.47787268345E+02  0.19999987694E+02 0.  0.
         12    1    1    2    0    0  0.28455335260E+02  0.12830094288E+02  0.30154702518E+02  0.43400731655E+02  0.00000000000E+00 0. -1.
         11    1    3    3    0    0 -0.15766489463E+02 -0.43805406061E+01 -0.17953668253E+02  0.24292087806E+02  0.51100000000E-03 0. -1.
        -11    1    3    3    0    0 -0.61824343779E+01 -0.53108242697E+00 -0.11688720903E+02  0.13233697140E+02  0.51100000000E-03 0.  1.
         12    1    3    3    0    0 -0.65064114200E+01 -0.79184712549E+01 -0.51231336223E+00  0.10261483400E+02  0.00000000000E+00 0. -1.
</event>
<event>
 7    1  0.3221417E-010  0.4778727E+02  0.7816164E-02  0.1312668E+00
        -11   -1    0    0    0    0  0.00000000000E+00  0.00000000000E+00  0.45593999997E+02  0.45594000000E+02  0.51100000000E-03 0. -1.
         11   -1    0    0    0    0 -0.00000000000E+00 -0.00000000000E+00 -0.45593999997E+02  0.45594000000E+02  0.51100000000E-03 0.  1.
    9900012    2    1    2    0    0  0.12223887824E+02  0.25971598784E+01 -0.41562659307E+02  0.47787270494E+02  0.19999997493E+02 0.  0.
         12    1    1    2    0    0 -0.12223887824E+02 -0.25971598784E+01  0.41562659307E+02  0.43400729506E+02  0.00000000000E+00 0. -1.
         11    1    3    3    0    0 -0.21995757309E+01  0.25260831306E+01 -0.76663274429E+01  0.83661105720E+01  0.51100000000E-03 0. -1.
        -11    1    3    3    0    0  0.14046615291E+02 -0.50268984742E+01 -0.23493985033E+02  0.27830638556E+02  0.51100000000E-03 0.  1.
        -12    1    3    3    0    0  0.37684826396E+00  0.50979752220E+01 -0.10402346830E+02  0.11590521367E+02  0.00000000000E+00 0.  1.
</event>
<event>
 7    1  0.3221417E-010  0.4778727E+02  0.7816164E-02  0.1312668E+00
        -11   -1    0    0    0    0  0.00000000000E+00  0.00000000000E+00  0.45593999997E+02  0.45594000000E+02  0.51100000000E-03 0. -1.
         11   -1    0    0    0    0 -0.00000000000E+00 -0.00000000000E+00 -0.45593999997E+02  0.45594000000E+02  0.51100000000E-03 0.  1.
    9900012    2    1    2    0    0  0.19007618257E+02  0.14325014360E+02  0.36292251465E+02  0.47787272994E+02  0.20000008888E+02 0.  0.
        -12    1    1    2    0    0 -0.19007618257E+02 -0.14325014360E+02 -0.36292251465E+02  0.43400727006E+02  0.00000000000E+00 0.  1.
         11    1    3    3    0    0  0.16649014745E+02  0.12011367182E+02  0.28494265113E+02  0.35119592511E+02  0.51100000000E-03 0. -1.
        -11    1    3    3    0    0  0.53715122514E+01  0.38422408495E+01  0.52076254044E+01  0.84104293128E+01  0.51100000000E-03 0.  1.
        -12    1    3    3    0    0 -0.30129087393E+01 -0.15285936707E+01  0.25903609483E+01  0.42572511700E+01  0.00000000000E+00 0.  1.
</event>
<event>
 7    1  0.3221417E-010  0.4778727E+02  0.7816164E-02  0.1312668E+00
        -11   -1    0    0    0    0  0.00000000000E+00  0.00000000000E+00  0.45593999997E+02  0.45594000000E+02  0.51100000000E-03 0.  1.
         11   -1    0    0    0    0 -0.00000000000E+00 -0.00000000000E+00 -0.45593999997E+02  0.45594000000E+02  0.51100000000E-03 0. -1.
    9900012    2    1    2    0    0 -0.42183951300E+02  0.59595089541E+01  0.82838214097E+01  0.47787271995E+02  0.20000004334E+02 0.  0.
        -12    1    1    2    0    0  0.42183951300E+02 -0.59595089541E+01 -0.82838214097E+01  0.43400728005E+02  0.00000000000E+00 0.  1.
         11    1    3    3    0    0 -0.10648744910E+02  0.60822619702E+01 -0.16656424961E+01  0.12375946186E+02  0.51100000000E-03 0. -1.
        -11    1    3    3    0    0 -0.13439440628E+02 -0.49173475685E+01  0.21714763507E+00  0.14312443008E+02  0.51100000000E-03 0.  1.
        -12    1    3    3    0    0 -0.18095765762E+02  0.47945945524E+01  0.97323162707E+01  0.21098882801E+02  0.00000000000E+00 0.  1.
</event>
<event>
 7    1  0.3221417E-010  0.4778727E+02  0.7816164E-02  0.1312668E+00
        -11   -1    0    0    0    0  0.00000000000E+00  0.00000000000E+00  0.45593999997E+02  0.45594000000E+02  0.51100000000E-03 0. -1.
         11   -1    0    0    0    0 -0.00000000000E+00 -0.00000000000E+00 -0.45593999997E+02  0.45594000000E+02  0.51100000000E-03 0.  1.
    9900012    2    1    2    0    0 -0.38107247169E+02 -0.20770710241E+02  0.19624273298E+00  0.47787271873E+02  0.20000003778E+02 0.  0.
         12    1    1    2    0    0  0.38107247169E+02  0.20770710241E+02 -0.19624273298E+00  0.43400728127E+02  0.00000000000E+00 0. -1.
         11    1    3    3    0    0 -0.14949195505E+02 -0.30648042718E+01  0.25547344283E+01  0.15472496235E+02  0.51100000000E-03 0. -1.
        -11    1    3    3    0    0 -0.16819636736E+02 -0.19391542856E+02 -0.18332143207E+01  0.25735049820E+02  0.51100000000E-03 0.  1.
         12    1    3    3    0    0 -0.63384149287E+01  0.16856368865E+01 -0.52527737463E+00  0.65797258181E+01  0.00000000000E+00 0. -1.
</event>
<event>
 7    1  0.3556410E-010  0.4778727E+02  0.7816164E-02  0.1312668E+00
        -11   -1    0    0    0    0  0.00000000000E+00  0.00000000000E+00  0.45593999997E+02  0.45594000000E+02  0.51100000000E-03 0. -1.
         11   -1    0    0    0    0 -0.00000000000E+00 -0.00000000000E+00 -0.45593999997E+02  0.45594000000E+02  0.51100000000E-03 0.  1.
    9900012    2    1    2    0    0 -0.21034641518E+01  0.29361250567E+02 -0.31892251558E+02  0.47787270678E+02  0.19999998328E+02 0.  0.
         12    1    1    2    0    0  0.21034641518E+01 -0.29361250567E+02  0.31892251558E+02  0.43400729322E+02  0.00000000000E+00 0. -1.
         11    1    3    3    0    0 -0.19180512113E+01  0.24688315141E+01 -0.97215755954E+01  0.10211908823E+02  0.51100000000E-03 0.  1.
        -11    1    3    3    0    0  0.47384619492E+01  0.23733074383E+02 -0.19776393500E+02  0.31254081037E+02  0.51100000000E-03 0. -1.
         12    1    3    3    0    0 -0.49238748897E+01  0.31593446692E+01 -0.23942824627E+01  0.63212808179E+01  0.00000000000E+00 0. -1.
</event>
<event>
 7    1  0.3221417E-010  0.4778728E+02  0.7816164E-02  0.1312668E+00
        -11   -1    0    0    0    0  0.00000000000E+00  0.00000000000E+00  0.45593999997E+02  0.45594000000E+02  0.51100000000E-03 0. -1.
         11   -1    0    0    0    0 -0.00000000000E+00 -0.00000000000E+00 -0.45593999997E+02  0.45594000000E+02  0.51100000000E-03 0.  1.
    9900012    2    1    2    0    0 -0.16463642284E+02 -0.35928137545E+02  0.17937102690E+02  0.47787282983E+02  0.20000054432E+02 0.  0.
        -12    1    1    2    0    0  0.16463642284E+02  0.35928137545E+02 -0.17937102690E+02  0.43400717017E+02  0.00000000000E+00 0.  1.
         11    1    3    3    0    0 -0.51747842202E+01 -0.81072995857E+01  0.24351150156E+00  0.96211224091E+01  0.51100000000E-03 0. -1.
        -11    1    3    3    0    0 -0.12947616214E+02 -0.20796625903E+02  0.18779359420E+02  0.30867535617E+02  0.51100000000E-03 0.  1.
        -12    1    3    3    0    0  0.16587581505E+01 -0.70242120562E+01 -0.10857682311E+01  0.72986249571E+01  0.00000000000E+00 0.  1.
</event>
<event>
 7    1  0.3695705E-010  0.4778727E+02  0.7816164E-02  0.1312668E+00
        -11   -1    0    0    0    0  0.00000000000E+00  0.00000000000E+00  0.45593999997E+02  0.45594000000E+02  0.51100000000E-03 0. -1.
         11   -1    0    0    0    0 -0.00000000000E+00 -0.00000000000E+00 -0.45593999997E+02  0.45594000000E+02  0.51100000000E-03 0.  1.
    9900012    2    1    2    0    0 -0.68090694448E+01  0.34915684350E+02 -0.24862723819E+02  0.47787268716E+02  0.19999989382E+02 0.  0.
         12    1    1    2    0    0  0.68090694448E+01 -0.34915684350E+02  0.24862723819E+02  0.43400731284E+02  0.00000000000E+00 0. -1.
         11    1    3    3    0    0 -0.44931405908E+01  0.97913358199E+01 -0.79363587441E+01  0.13380745864E+02  0.51100000000E-03 0. -1.
        -11    1    3    3    0    0 -0.34385908890E+01  0.26144984525E+02 -0.18506363210E+02  0.32215983651E+02  0.51100000000E-03 0.  1.
         12    1    3    3    0    0  0.11226620349E+01 -0.10206359946E+01  0.15799981356E+01  0.21905392000E+01  0.00000000000E+00 0. -1.
</event>
<event>
 7    1  0.4899794E-010  0.4778727E+02  0.7816164E-02  0.1312668E+00
        -11   -1    0    0    0    0  0.00000000000E+00  0.00000000000E+00  0.45593999997E+02  0.45594000000E+02  0.51100000000E-03 0. -1.
         11   -1    0    0    0    0 -0.00000000000E+00 -0.00000000000E+00 -0.45593999997E+02  0.45594000000E+02  0.51100000000E-03 0.  1.
    9900012    2    1    2    0    0 -0.93660234710E+01  0.25914612589E+02 -0.33531090137E+02  0.47787267897E+02  0.19999985650E+02 0.  0.
         12    1    1    2    0    0  0.93660234710E+01 -0.25914612589E+02  0.33531090137E+02  0.43400732103E+02  0.00000000000E+00 0. -1.
         11    1    3    3    0    0 -0.12154758806E+02  0.13606308654E+02 -0.99855288606E+01  0.20798571675E+02  0.51100000000E-03 0. -1.
        -11    1    3    3    0    0 -0.34806897029E+00  0.67479623620E+01 -0.10934249244E+02  0.12853558061E+02  0.51100000000E-03 0.  1.
         12    1    3    3    0    0  0.31368043049E+01  0.55603415726E+01 -0.12611312032E+02  0.14135138161E+02  0.00000000000E+00 0. -1.
</event>
<event>
 7    1  0.3221417E-010  0.4778727E+02  0.7816164E-02  0.1312668E+00
        -11   -1    0    0    0    0  0.00000000000E+00  0.00000000000E+00  0.45593999997E+02  0.45594000000E+02  0.51100000000E-03 0. -1.
         11   -1    0    0    0    0 -0.00000000000E+00 -0.00000000000E+00 -0.45593999997E+02  0.45594000000E+02  0.51100000000E-03 0.  1.
    9900012    2    1    2    0    0  0.35566114576E+02 -0.51650671880E+01  0.24330984963E+02  0.47787271269E+02  0.20000001023E+02 0.  0.
        -12    1    1    2    0    0 -0.35566114576E+02  0.51650671880E+01 -0.24330984963E+02  0.43400728731E+02  0.00000000000E+00 0.  1.
         11    1    3    3    0    0  0.15043672828E+02  0.87874779695E+00  0.80915446799E+01  0.17104308972E+02  0.51100000000E-03 0. -1.
        -11    1    3    3    0    0  0.19661052774E+02 -0.62118359566E+01  0.18845070064E+02  0.27933502611E+02  0.51100000000E-03 0.  1.
        -12    1    3    3    0    0  0.86138897428E+00  0.16802097161E+00 -0.26056297805E+01  0.27494596860E+01  0.00000000000E+00 0.  1.
</event>
<event>
 7    1  0.3221417E-010  0.4778727E+02  0.7816164E-02  0.1312668E+00
        -11   -1    0    0    0    0  0.00000000000E+00  0.00000000000E+00  0.45593999997E+02  0.45594000000E+02  0.51100000000E-03 0. -1.
         11   -1    0    0    0    0 -0.00000000000E+00 -0.00000000000E+00 -0.45593999997E+02  0.45594000000E+02  0.51100000000E-03 0.  1.
    9900012    2    1    2    0    0 -0.19692547962E+02  0.36314667944E+01 -0.38505056841E+02  0.47787269607E+02  0.19999993446E+02 0.  0.
         12    1    1    2    0    0  0.19692547962E+02 -0.36314667944E+01  0.38505056841E+02  0.43400730393E+02  0.00000000000E+00 0. -1.
         11    1    3    3    0    0 -0.75322976117E+00 -0.42457214720E-01  0.95419862936E+00  0.12164098707E+01  0.51100000000E-03 0. -1.
        -11    1    3    3    0    0 -0.13199556783E+02  0.67407496501E+01 -0.36553404805E+02  0.39443851336E+02  0.51100000000E-03 0.  1.
         12    1    3    3    0    0 -0.57397614175E+01 -0.30668256409E+01 -0.29058506652E+01  0.71270083997E+01  0.00000000000E+00 0. -1.
</event>
<event>
 7    1  0.3221417E-010  0.4778727E+02  0.7816164E-02  0.1312668E+00
        -11   -1    0    0    0    0  0.00000000000E+00  0.00000000000E+00  0.45593999997E+02  0.45594000000E+02  0.51100000000E-03 0. -1.
         11   -1    0    0    0    0 -0.00000000000E+00 -0.00000000000E+00 -0.45593999997E+02  0.45594000000E+02  0.51100000000E-03 0.  1.
    9900012    2    1    2    0    0  0.57001534300E+01 -0.26703329233E+01 -0.42941827098E+02  0.47787274873E+02  0.20000017454E+02 0.  0.
         12    1    1    2    0    0 -0.57001534300E+01  0.26703329233E+01  0.42941827098E+02  0.43400725127E+02  0.00000000000E+00 0. -1.
         11    1    3    3    0    0  0.67250944456E+01  0.39943225817E+00 -0.85730824086E+01  0.10903402390E+02  0.51100000000E-03 0.  1.
        -11    1    3    3    0    0  0.53445693246E+01 -0.39383837933E+01 -0.13443349073E+02  0.14993295926E+02  0.51100000000E-03 0. -1.
        -12    1    3    3    0    0 -0.63695103402E+01  0.86861861188E+00 -0.20925395617E+02  0.21890576557E+02  0.00000000000E+00 0.  1.
</event>
<event>
 7    1  0.3221417E-010  0.4778727E+02  0.7816164E-02  0.1312668E+00
        -11   -1    0    0    0    0  0.00000000000E+00  0.00000000000E+00  0.45593999997E+02  0.45594000000E+02  0.51100000000E-03 0.  1.
         11   -1    0    0    0    0 -0.00000000000E+00 -0.00000000000E+00 -0.45593999997E+02  0.45594000000E+02  0.51100000000E-03 0. -1.
    9900012    2    1    2    0    0  0.42062618580E+02 -0.79056860929E+01 -0.72013554351E+01  0.47787271037E+02  0.19999999965E+02 0.  0.
         12    1    1    2    0    0 -0.42062618580E+02  0.79056860929E+01  0.72013554351E+01  0.43400728963E+02  0.00000000000E+00 0. -1.
         11    1    3    3    0    0  0.44765410487E+01 -0.72565172714E+01 -0.50320715673E+01  0.99004144959E+01  0.51100000000E-03 0. -1.
        -11    1    3    3    0    0  0.51366826055E+01 -0.38436853778E+00  0.11158514821E+01  0.52705191541E+01  0.51100000000E-03 0.  1.
         12    1    3    3    0    0  0.32449394926E+02 -0.26480028370E+00 -0.32851353499E+01  0.32616337387E+02  0.00000000000E+00 0. -1.
</event>
<event>
 7    1  0.3221417E-010  0.4778723E+02  0.7816164E-02  0.1312668E+00
        -11   -1    0    0    0    0  0.00000000000E+00  0.00000000000E+00  0.45593999997E+02  0.45594000000E+02  0.51100000000E-03 0. -1.
         11   -1    0    0    0    0 -0.00000000000E+00 -0.00000000000E+00 -0.45593999997E+02  0.45594000000E+02  0.51100000000E-03 0.  1.
    9900012    2    1    2    0    0 -0.19523400194E+01  0.14799289378E+02  0.40752872031E+02  0.47787226085E+02  0.19999795010E+02 0.  0.
        -12    1    1    2    0    0  0.19523400194E+01 -0.14799289378E+02 -0.40752872031E+02  0.43400773915E+02  0.00000000000E+00 0.  1.
         11    1    3    3    0    0 -0.14417369027E+01  0.24214145959E+01  0.71711387489E+01  0.77050039039E+01  0.51100000000E-03 0. -1.
        -11    1    3    3    0    0 -0.77896716847E+01  0.10588150128E+02  0.14449450356E+02  0.19533932629E+02  0.51100000000E-03 0.  1.
        -12    1    3    3    0    0  0.72790685680E+01  0.17897246535E+01  0.19132282926E+02  0.20548289552E+02  0.00000000000E+00 0.  1.
</event>
<event>
 7    1  0.3221417E-010  0.4778727E+02  0.7816164E-02  0.1312668E+00
        -11   -1    0    0    0    0  0.00000000000E+00  0.00000000000E+00  0.45593999997E+02  0.45594000000E+02  0.51100000000E-03 0. -1.
         11   -1    0    0    0    0 -0.00000000000E+00 -0.00000000000E+00 -0.45593999997E+02  0.45594000000E+02  0.51100000000E-03 0.  1.
    9900012    2    1    2    0    0  0.16849044082E+02  0.16591939002E+02  0.36392867000E+02  0.47787268499E+02  0.19999988396E+02 0.  0.
        -12    1    1    2    0    0 -0.16849044082E+02 -0.16591939002E+02 -0.36392867000E+02  0.43400731501E+02  0.00000000000E+00 0.  1.
         11    1    3    3    0    0  0.28621244052E+01  0.12177338146E+02  0.19318348585E+02  0.23014732515E+02  0.51100000000E-03 0. -1.
        -11    1    3    3    0    0  0.62646541714E+01 -0.46846457250E+00  0.13630213918E+02  0.15008267144E+02  0.51100000000E-03 0.  1.
        -12    1    3    3    0    0  0.77222655055E+01  0.48830654290E+01  0.34443044961E+01  0.97642688402E+01  0.00000000000E+00 0.  1.
</event>
<event>
 7    1  0.3250779E-010  0.4778728E+02  0.7816164E-02  0.1312668E+00
        -11   -1    0    0    0    0  0.00000000000E+00  0.00000000000E+00  0.45593999997E+02  0.45594000000E+02  0.51100000000E-03 0. -1.
         11   -1    0    0    0    0 -0.00000000000E+00 -0.00000000000E+00 -0.45593999997E+02  0.45594000000E+02  0.51100000000E-03 0.  1.
    9900012    2    1    2    0    0  0.11441814476E+02 -0.77209186844E+01 -0.41147233192E+02  0.47787279923E+02  0.20000040480E+02 0.  0.
         12    1    1    2    0    0 -0.11441814476E+02  0.77209186844E+01  0.41147233192E+02  0.43400720077E+02  0.00000000000E+00 0. -1.
         11    1    3    3    0    0 -0.26104091564E+01 -0.29806903408E+01 -0.44914058006E+01  0.59892801903E+01  0.51100000000E-03 0. -1.
        -11    1    3    3    0    0  0.66656371063E+01 -0.48826092949E+01 -0.32036329137E+02  0.33084693990E+02  0.51100000000E-03 0.  1.
         12    1    3    3    0    0  0.73865865260E+01  0.14238095124E+00 -0.46194982547E+01  0.87133057427E+01  0.00000000000E+00 0. -1.
</event>
<event>
 7    1  0.3221417E-010  0.4778727E+02  0.7816164E-02  0.1312668E+00
        -11   -1    0    0    0    0  0.00000000000E+00  0.00000000000E+00  0.45593999997E+02  0.45594000000E+02  0.51100000000E-03 0. -1.
         11   -1    0    0    0    0 -0.00000000000E+00 -0.00000000000E+00 -0.45593999997E+02  0.45594000000E+02  0.51100000000E-03 0.  1.
    9900012    2    1    2    0    0 -0.18076709256E+02 -0.12991307930E+02  0.37256970555E+02  0.47787270119E+02  0.19999995781E+02 0.  0.
        -12    1    1    2    0    0  0.18076709256E+02  0.12991307930E+02 -0.37256970555E+02  0.43400729881E+02  0.00000000000E+00 0.  1.
         11    1    3    3    0    0 -0.37115536271E+01 -0.65693517550E+01  0.12648026393E+01  0.76506038184E+01  0.51100000000E-03 0.  1.
        -11    1    3    3    0    0 -0.28631642318E+01 -0.29290151345E+01  0.18262383829E+02  0.18716076044E+02  0.51100000000E-03 0. -1.
        -12    1    3    3    0    0 -0.11501991397E+02 -0.34929410402E+01  0.17729784087E+02  0.21420590257E+02  0.00000000000E+00 0.  1.
</event>
<event>
 7    1  0.3221417E-010  0.4778727E+02  0.7816164E-02  0.1312668E+00
        -11   -1    0    0    0    0  0.00000000000E+00  0.00000000000E+00  0.45593999997E+02  0.45594000000E+02  0.51100000000E-03 0.  1.
         11   -1    0    0    0    0 -0.00000000000E+00 -0.00000000000E+00 -0.45593999997E+02  0.45594000000E+02  0.51100000000E-03 0. -1.
    9900012    2    1    2    0    0 -0.41585552788E+02 -0.67227692539E+00 -0.12402132090E+02  0.47787273770E+02  0.20000012427E+02 0.  0.
         12    1    1    2    0    0  0.41585552788E+02  0.67227692539E+00  0.12402132090E+02  0.43400726230E+02  0.00000000000E+00 0. -1.
         11    1    3    3    0    0 -0.22131756993E+01 -0.96025458904E-01  0.23701581862E+01  0.32442283603E+01  0.51100000000E-03 0. -1.
        -11    1    3    3    0    0 -0.36099228366E+02 -0.50726111883E+01 -0.13085522202E+02  0.38731338273E+02  0.51100000000E-03 0.  1.
        -12    1    3    3    0    0 -0.32731487226E+01  0.44963597218E+01 -0.16867680742E+01  0.58117071368E+01  0.00000000000E+00 0.  1.
</event>
<event>
 7    1  0.3221417E-010  0.4778727E+02  0.7816164E-02  0.1312668E+00
        -11   -1    0    0    0    0  0.00000000000E+00  0.00000000000E+00  0.45593999997E+02  0.45594000000E+02  0.51100000000E-03 0. -1.
         11   -1    0    0    0    0 -0.00000000000E+00 -0.00000000000E+00 -0.45593999997E+02  0.45594000000E+02  0.51100000000E-03 0.  1.
    9900012    2    1    2    0    0  0.11701481453E+02  0.27369196934E+02 -0.31585213605E+02  0.47787270427E+02  0.19999997184E+02 0.  0.
         12    1    1    2    0    0 -0.11701481453E+02 -0.27369196934E+02  0.31585213605E+02  0.43400729573E+02  0.00000000000E+00 0. -1.
         11    1    3    3    0    0  0.28900739748E+01  0.64971663842E+01 -0.19259506657E+01  0.73671558170E+01  0.51100000000E-03 0. -1.
        -11    1    3    3    0    0 -0.10160623357E+00  0.12537815883E+02 -0.23762507967E+02  0.26867525679E+02  0.51100000000E-03 0.  1.
        -12    1    3    3    0    0  0.89130137119E+01  0.83342146660E+01 -0.58967549724E+01  0.13552588931E+02  0.00000000000E+00 0.  1.
</event>
<event>
 7    1  0.3221417E-010  0.4778727E+02  0.7816164E-02  0.1312668E+00
        -11   -1    0    0    0    0  0.00000000000E+00  0.00000000000E+00  0.45593999997E+02  0.45594000000E+02  0.51100000000E-03 0. -1.
         11   -1    0    0    0    0 -0.00000000000E+00 -0.00000000000E+00 -0.45593999997E+02  0.45594000000E+02  0.51100000000E-03 0.  1.
    9900012    2    1    2    0    0  0.13754957741E+02  0.31286443423E+02  0.26750380214E+02  0.47787271364E+02  0.20000001458E+02 0.  0.
        -12    1    1    2    0    0 -0.13754957741E+02 -0.31286443423E+02 -0.26750380214E+02  0.43400728636E+02  0.00000000000E+00 0.  1.
         11    1    3    3    0    0  0.68029114220E+01  0.20451488956E+02  0.21393330308E+02  0.30368035601E+02  0.51100000000E-03 0. -1.
        -11    1    3    3    0    0  0.88530574568E+01  0.53385322720E+01  0.52673700535E+01  0.11602660932E+02  0.51100000000E-03 0.  1.
        -12    1    3    3    0    0 -0.19010111377E+01  0.54964221949E+01  0.89679852301E-01  0.58165748312E+01  0.00000000000E+00 0.  1.
</event>
<event>
 7    1  0.3221417E-010  0.4778727E+02  0.7816164E-02  0.1312668E+00
        -11   -1    0    0    0    0  0.00000000000E+00  0.00000000000E+00  0.45593999997E+02  0.45594000000E+02  0.51100000000E-03 0. -1.
         11   -1    0    0    0    0 -0.00000000000E+00 -0.00000000000E+00 -0.45593999997E+02  0.45594000000E+02  0.51100000000E-03 0.  1.
    9900012    2    1    2    0    0 -0.13710689227E+02 -0.35776174962E+02  0.20388860259E+02  0.47787270551E+02  0.19999997751E+02 0.  0.
        -12    1    1    2    0    0  0.13710689227E+02  0.35776174962E+02 -0.20388860259E+02  0.43400729449E+02  0.00000000000E+00 0.  1.
         11    1    3    3    0    0 -0.24212746690E+01 -0.18975642875E+02  0.44842101938E+00  0.19134750462E+02  0.51100000000E-03 0. -1.
        -11    1    3    3    0    0 -0.21605918650E+01 -0.16990061926E+01  0.41205086936E+01  0.49531173421E+01  0.51100000000E-03 0.  1.
         12    1    3    3    0    0 -0.91288226929E+01 -0.15101525894E+02  0.15819930546E+02  0.23699402747E+02  0.00000000000E+00 0. -1.
</event>
<event>
 7    1  0.3221417E-010  0.4778728E+02  0.7816164E-02  0.1312668E+00
        -11   -1    0    0    0    0  0.00000000000E+00  0.00000000000E+00  0.45593999997E+02  0.45594000000E+02  0.51100000000E-03 0. -1.
         11   -1    0    0    0    0 -0.00000000000E+00 -0.00000000000E+00 -0.45593999997E+02  0.45594000000E+02  0.51100000000E-03 0.  1.
    9900012    2    1    2    0    0 -0.18232007757E+01 -0.20420152638E+02  0.38253312389E+02  0.47787278767E+02  0.20000035211E+02 0.  0.
        -12    1    1    2    0    0  0.18232007757E+01  0.20420152638E+02 -0.38253312389E+02  0.43400721233E+02  0.00000000000E+00 0.  1.
         11    1    3    3    0    0 -0.24522363587E+01 -0.86739389633E+01  0.86884094837E+01  0.12519550308E+02  0.51100000000E-03 0.  1.
        -11    1    3    3    0    0  0.25294162667E+01 -0.48317874966E+01  0.66821750764E+00  0.54946002549E+01  0.51100000000E-03 0. -1.
         12    1    3    3    0    0 -0.19003806836E+01 -0.69144261778E+01  0.28896685397E+02  0.29773128204E+02  0.00000000000E+00 0. -1.
</event>
<event>
 7    1  0.3221417E-010  0.4778727E+02  0.7816164E-02  0.1312668E+00
        -11   -1    0    0    0    0  0.00000000000E+00  0.00000000000E+00  0.45593999997E+02  0.45594000000E+02  0.51100000000E-03 0. -1.
         11   -1    0    0    0    0 -0.00000000000E+00 -0.00000000000E+00 -0.45593999997E+02  0.45594000000E+02  0.51100000000E-03 0.  1.
    9900012    2    1    2    0    0  0.12714551843E+02  0.38594544612E+02  0.15245491946E+02  0.47787265824E+02  0.19999976198E+02 0.  0.
         12    1    1    2    0    0 -0.12714551843E+02 -0.38594544612E+02 -0.15245491946E+02  0.43400734176E+02  0.00000000000E+00 0. -1.
         11    1    3    3    0    0  0.92719157946E+01  0.95700264200E+01  0.46010852469E+01  0.14096943424E+02  0.51100000000E-03 0. -1.
        -11    1    3    3    0    0 -0.35200814052E+01  0.20853944858E+01  0.75351677597E+00  0.41602441098E+01  0.51100000000E-03 0.  1.
        -12    1    3    3    0    0  0.69627174537E+01  0.26939123706E+02  0.98908899228E+01  0.29530078291E+02  0.00000000000E+00 0.  1.
</event>
<event>
 7    1  0.3221417E-010  0.4778727E+02  0.7816164E-02  0.1312668E+00
        -11   -1    0    0    0    0  0.00000000000E+00  0.00000000000E+00  0.45593999997E+02  0.45594000000E+02  0.51100000000E-03 0. -1.
         11   -1    0    0    0    0 -0.00000000000E+00 -0.00000000000E+00 -0.45593999997E+02  0.45594000000E+02  0.51100000000E-03 0.  1.
    9900012    2    1    2    0    0  0.29192025894E+01  0.40525166351E+02  0.15258182391E+02  0.47787274414E+02  0.20000015364E+02 0.  0.
        -12    1    1    2    0    0 -0.29192025894E+01 -0.40525166351E+02 -0.15258182391E+02  0.43400725586E+02  0.00000000000E+00 0.  1.
         11    1    3    3    0    0  0.28505603139E+01  0.27879791824E+02  0.15117143580E+02  0.31842369832E+02  0.51100000000E-03 0. -1.
        -11    1    3    3    0    0  0.48130001345E+01  0.56218090140E+01 -0.66705033288E+00  0.74306569893E+01  0.51100000000E-03 0.  1.
         12    1    3    3    0    0 -0.47443578591E+01  0.70235655128E+01  0.80808914341E+00  0.85142475928E+01  0.00000000000E+00 0. -1.
</event>
<event>
 7    1  0.3221417E-010  0.4778727E+02  0.7816164E-02  0.1312668E+00
        -11   -1    0    0    0    0  0.00000000000E+00  0.00000000000E+00  0.45593999997E+02  0.45594000000E+02  0.51100000000E-03 0. -1.
         11   -1    0    0    0    0 -0.00000000000E+00 -0.00000000000E+00 -0.45593999997E+02  0.45594000000E+02  0.51100000000E-03 0.  1.
    9900012    2    1    2    0    0 -0.14495881136E+02  0.23370937304E+02 -0.33575176880E+02  0.47787265180E+02  0.19999973260E+02 0.  0.
         12    1    1    2    0    0  0.14495881136E+02 -0.23370937304E+02  0.33575176880E+02  0.43400734820E+02  0.00000000000E+00 0. -1.
         11    1    3    3    0    0 -0.47428859446E+01 -0.82623470488E-01  0.72246186602E+00  0.47983064857E+01  0.51100000000E-03 0. -1.
        -11    1    3    3    0    0 -0.34255699455E+01  0.52266808128E+01 -0.11788176421E+02  0.13342182181E+02  0.51100000000E-03 0.  1.
         12    1    3    3    0    0 -0.63274252462E+01  0.18226879962E+02 -0.22509462326E+02  0.29646776513E+02  0.00000000000E+00 0. -1.
</event>
<event>
 7    1  0.4118470E-010  0.4778728E+02  0.7816164E-02  0.1312668E+00
        -11   -1    0    0    0    0  0.00000000000E+00  0.00000000000E+00  0.45593999997E+02  0.45594000000E+02  0.51100000000E-03 0. -1.
         11   -1    0    0    0    0 -0.00000000000E+00 -0.00000000000E+00 -0.45593999997E+02  0.45594000000E+02  0.51100000000E-03 0.  1.
    9900012    2    1    2    0    0  0.21140584859E+02  0.29306945948E+02 -0.24037492320E+02  0.47787280582E+02  0.20000043484E+02 0.  0.
         12    1    1    2    0    0 -0.21140584859E+02 -0.29306945948E+02  0.24037492320E+02  0.43400719418E+02  0.00000000000E+00 0. -1.
         11    1    3    3    0    0  0.10772732798E+02  0.67072777788E+01 -0.12419483806E+02  0.17756208081E+02  0.51100000000E-03 0. -1.
        -11    1    3    3    0    0  0.10455849478E+02  0.14443964416E+02 -0.28526299885E+01  0.18057973155E+02  0.51100000000E-03 0.  1.
         12    1    3    3    0    0 -0.87997416220E-01  0.81557037531E+01 -0.87653785256E+01  0.11973099346E+02  0.00000000000E+00 0. -1.
</event>
<event>
 7    1  0.3221417E-010  0.4778727E+02  0.7816164E-02  0.1312668E+00
        -11   -1    0    0    0    0  0.00000000000E+00  0.00000000000E+00  0.45593999997E+02  0.45594000000E+02  0.51100000000E-03 0. -1.
         11   -1    0    0    0    0 -0.00000000000E+00 -0.00000000000E+00 -0.45593999997E+02  0.45594000000E+02  0.51100000000E-03 0.  1.
    9900012    2    1    2    0    0 -0.11533934270E+02 -0.14947682303E+02  0.39078870578E+02  0.47787274526E+02  0.20000015876E+02 0.  0.
        -12    1    1    2    0    0  0.11533934270E+02  0.14947682303E+02 -0.39078870578E+02  0.43400725474E+02  0.00000000000E+00 0.  1.
         11    1    3    3    0    0 -0.13903943467E+01 -0.34799827299E+01  0.24717078572E+02  0.24999548989E+02  0.51100000000E-03 0. -1.
        -11    1    3    3    0    0 -0.11084917157E+01  0.13664136694E-01 -0.10673641980E+01  0.15388980424E+01  0.51100000000E-03 0.  1.
        -12    1    3    3    0    0 -0.90350482077E+01 -0.11481363710E+02  0.15429156204E+02  0.21248827495E+02  0.00000000000E+00 0.  1.
</event>
<event>
 7    1  0.3221417E-010  0.4778729E+02  0.7816164E-02  0.1312668E+00
        -11   -1    0    0    0    0  0.00000000000E+00  0.00000000000E+00  0.45593999997E+02  0.45594000000E+02  0.51100000000E-03 0. -1.
         11   -1    0    0    0    0 -0.00000000000E+00 -0.00000000000E+00 -0.45593999997E+02  0.45594000000E+02  0.51100000000E-03 0.  1.
    9900012    2    1    2    0    0  0.11376921251E+02 -0.17103848084E+02  0.38231471177E+02  0.47787293268E+02  0.20000101326E+02 0.  0.
        -12    1    1    2    0    0 -0.11376921251E+02  0.17103848084E+02 -0.38231471177E+02  0.43400706732E+02  0.00000000000E+00 0.  1.
         11    1    3    3    0    0 -0.15077423097E+01 -0.11482578518E+02  0.18552015941E+02  0.21870075263E+02  0.51100000000E-03 0. -1.
        -11    1    3    3    0    0  0.69519566271E+01 -0.41715894021E+01  0.17747486564E+02  0.19511666733E+02  0.51100000000E-03 0.  1.
        -12    1    3    3    0    0  0.59327069340E+01 -0.14496801645E+01  0.19319686721E+01  0.64055512717E+01  0.00000000000E+00 0.  1.
</event>
<event>
 7    1  0.3221417E-010  0.4778727E+02  0.7816164E-02  0.1312668E+00
        -11   -1    0    0    0    0  0.00000000000E+00  0.00000000000E+00  0.45593999997E+02  0.45594000000E+02  0.51100000000E-03 0. -1.
         11   -1    0    0    0    0 -0.00000000000E+00 -0.00000000000E+00 -0.45593999997E+02  0.45594000000E+02  0.51100000000E-03 0.  1.
    9900012    2    1    2    0    0 -0.21573096773E+01  0.42392350626E+02 -0.90475362011E+01  0.47787270883E+02  0.19999999262E+02 0.  0.
        -12    1    1    2    0    0  0.21573096773E+01 -0.42392350626E+02  0.90475362011E+01  0.43400729117E+02  0.00000000000E+00 0.  1.
         11    1    3    3    0    0 -0.57288568142E+01  0.55628468917E+01  0.13398591006E+01  0.80969308141E+01  0.51100000000E-03 0.  1.
        -11    1    3    3    0    0  0.46155308362E+00  0.21152529183E+02 -0.10575606803E+01  0.21183978779E+02  0.51100000000E-03 0. -1.
         12    1    3    3    0    0  0.31099940534E+01  0.15676974551E+02 -0.93298346214E+01  0.18506361289E+02  0.00000000000E+00 0. -1.
</event>
<event>
 7    1  0.3221417E-010  0.4778727E+02  0.7816164E-02  0.1312668E+00
        -11   -1    0    0    0    0  0.00000000000E+00  0.00000000000E+00  0.45593999997E+02  0.45594000000E+02  0.51100000000E-03 0. -1.
         11   -1    0    0    0    0 -0.00000000000E+00 -0.00000000000E+00 -0.45593999997E+02  0.45594000000E+02  0.51100000000E-03 0.  1.
    9900012    2    1    2    0    0 -0.16971062158E+02  0.34830300804E+02 -0.19556491632E+02  0.47787272243E+02  0.20000005464E+02 0.  0.
         12    1    1    2    0    0  0.16971062158E+02 -0.34830300804E+02  0.19556491632E+02  0.43400727757E+02  0.00000000000E+00 0. -1.
         11    1    3    3    0    0  0.29244340782E+01  0.32011260970E+01 -0.37475092890E+01  0.57309117162E+01  0.51100000000E-03 0. -1.
        -11    1    3    3    0    0 -0.11149385123E+02  0.80263850935E+01 -0.67306028156E+01  0.15298126056E+02  0.51100000000E-03 0.  1.
        -12    1    3    3    0    0 -0.87461111132E+01  0.23602789614E+02 -0.90783795271E+01  0.26758234471E+02  0.00000000000E+00 0.  1.
</event>
<event>
 7    1  0.3221417E-010  0.4778727E+02  0.7816164E-02  0.1312668E+00
        -11   -1    0    0    0    0  0.00000000000E+00  0.00000000000E+00  0.45593999997E+02  0.45594000000E+02  0.51100000000E-03 0. -1.
         11   -1    0    0    0    0 -0.00000000000E+00 -0.00000000000E+00 -0.45593999997E+02  0.45594000000E+02  0.51100000000E-03 0.  1.
    9900012    2    1    2    0    0  0.69277304683E+01  0.62485104836E+00  0.42839694486E+02  0.47787270606E+02  0.19999998002E+02 0.  0.
        -12    1    1    2    0    0 -0.69277304683E+01 -0.62485104836E+00 -0.42839694486E+02  0.43400729394E+02  0.00000000000E+00 0.  1.
         11    1    3    3    0    0  0.73239118274E+00 -0.26594550537E+01  0.27166120441E+01  0.38715732314E+01  0.51100000000E-03 0. -1.
        -11    1    3    3    0    0  0.45465121059E+01 -0.28979640180E+00  0.10895552717E+01  0.46842166084E+01  0.51100000000E-03 0.  1.
         12    1    3    3    0    0  0.16488271797E+01  0.35741025038E+01  0.39033527170E+02  0.39231480766E+02  0.00000000000E+00 0. -1.
</event>
<event>
 7    1  0.3221417E-010  0.4778726E+02  0.7816164E-02  0.1312668E+00
        -11   -1    0    0    0    0  0.00000000000E+00  0.00000000000E+00  0.45593999997E+02  0.45594000000E+02  0.51100000000E-03 0. -1.
         11   -1    0    0    0    0 -0.00000000000E+00 -0.00000000000E+00 -0.45593999997E+02  0.45594000000E+02  0.51100000000E-03 0.  1.
    9900012    2    1    2    0    0  0.21612385956E+02 -0.54972929410E+01 -0.37233170266E+02  0.47787257789E+02  0.19999939565E+02 0.  0.
         12    1    1    2    0    0 -0.21612385956E+02  0.54972929410E+01  0.37233170266E+02  0.43400742211E+02  0.00000000000E+00 0. -1.
         11    1    3    3    0    0  0.31170611740E+01 -0.61812989374E+00 -0.14405273063E+02  0.14751611682E+02  0.51100000000E-03 0. -1.
        -11    1    3    3    0    0  0.83956404602E+01  0.39989892506E+01 -0.14477047954E+02  0.17206499106E+02  0.51100000000E-03 0.  1.
        -12    1    3    3    0    0  0.10099684322E+02 -0.88781522978E+01 -0.83508492493E+01  0.15829147002E+02  0.00000000000E+00 0.  1.
</event>
<event>
 7    1  0.3221417E-010  0.4778727E+02  0.7816164E-02  0.1312668E+00
        -11   -1    0    0    0    0  0.00000000000E+00  0.00000000000E+00  0.45593999997E+02  0.45594000000E+02  0.51100000000E-03 0. -1.
         11   -1    0    0    0    0 -0.00000000000E+00 -0.00000000000E+00 -0.45593999997E+02  0.45594000000E+02  0.51100000000E-03 0.  1.
    9900012    2    1    2    0    0 -0.62808550391E+01 -0.19120966030E+02  0.38452083610E+02  0.47787271712E+02  0.20000003046E+02 0.  0.
        -12    1    1    2    0    0  0.62808550391E+01  0.19120966030E+02 -0.38452083610E+02  0.43400728288E+02  0.00000000000E+00 0.  1.
         11    1    3    3    0    0 -0.40859636917E+01 -0.10429849127E+02  0.11957708486E+02  0.16384860225E+02  0.51100000000E-03 0. -1.
        -11    1    3    3    0    0  0.61013314564E+01 -0.43347316948E+01  0.12016414379E+02  0.14156636578E+02  0.51100000000E-03 0.  1.
         12    1    3    3    0    0 -0.82962228038E+01 -0.43563852078E+01  0.14477960745E+02  0.17245774909E+02  0.00000000000E+00 0. -1.
</event>
<event>
 7    1  0.3221417E-010  0.4778723E+02  0.7816164E-02  0.1312668E+00
        -11   -1    0    0    0    0  0.00000000000E+00  0.00000000000E+00  0.45593999997E+02  0.45594000000E+02  0.51100000000E-03 0. -1.
         11   -1    0    0    0    0 -0.00000000000E+00 -0.00000000000E+00 -0.45593999997E+02  0.45594000000E+02  0.51100000000E-03 0.  1.
    9900012    2    1    2    0    0 -0.23611775240E+01  0.40988559992E+02  0.14070878554E+02  0.47787230044E+02  0.19999813060E+02 0.  0.
        -12    1    1    2    0    0  0.23611775240E+01 -0.40988559992E+02 -0.14070878554E+02  0.43400769956E+02  0.00000000000E+00 0.  1.
         11    1    3    3    0    0 -0.37838392669E+01  0.10115696342E+02  0.54407592041E+01  0.12093246589E+02  0.51100000000E-03 0. -1.
        -11    1    3    3    0    0  0.39201752009E+01  0.18472539659E+02 -0.22392069982E+01  0.19016217902E+02  0.51100000000E-03 0.  1.
        -12    1    3    3    0    0 -0.24975134581E+01  0.12400323991E+02  0.10869326348E+02  0.16677765552E+02  0.00000000000E+00 0.  1.
</event>
<event>
 7    1  0.3221417E-010  0.4778729E+02  0.7816164E-02  0.1312668E+00
        -11   -1    0    0    0    0  0.00000000000E+00  0.00000000000E+00  0.45593999997E+02  0.45594000000E+02  0.51100000000E-03 0. -1.
         11   -1    0    0    0    0 -0.00000000000E+00 -0.00000000000E+00 -0.45593999997E+02  0.45594000000E+02  0.51100000000E-03 0.  1.
    9900012    2    1    2    0    0  0.36876020890E+01  0.36932778317E+02  0.22494296152E+02  0.47787287071E+02  0.20000073070E+02 0.  0.
        -12    1    1    2    0    0 -0.36876020890E+01 -0.36932778317E+02 -0.22494296152E+02  0.43400712929E+02  0.00000000000E+00 0.  1.
         11    1    3    3    0    0 -0.22888013531E+01  0.20202541792E+02  0.12993210508E+02  0.24128920947E+02  0.51100000000E-03 0. -1.
        -11    1    3    3    0    0 -0.25860120314E+01 -0.10599844741E+00  0.17791715701E+00  0.25942915552E+01  0.51100000000E-03 0.  1.
        -12    1    3    3    0    0  0.85624154734E+01  0.16836234973E+02  0.93231684875E+01  0.21064074569E+02  0.00000000000E+00 0.  1.
</event>
<event>
 7    1  0.3221417E-010  0.4778727E+02  0.7816164E-02  0.1312668E+00
        -11   -1    0    0    0    0  0.00000000000E+00  0.00000000000E+00  0.45593999997E+02  0.45594000000E+02  0.51100000000E-03 0.  1.
         11   -1    0    0    0    0 -0.00000000000E+00 -0.00000000000E+00 -0.45593999997E+02  0.45594000000E+02  0.51100000000E-03 0. -1.
    9900012    2    1    2    0    0 -0.18301692633E+02  0.25092505848E+02  0.30315636605E+02  0.47787266991E+02  0.19999981521E+02 0.  0.
        -12    1    1    2    0    0  0.18301692633E+02 -0.25092505848E+02 -0.30315636605E+02  0.43400733009E+02  0.00000000000E+00 0.  1.
         11    1    3    3    0    0 -0.76926916644E+00  0.65171071125E+01  0.56878395048E+01  0.86842373677E+01  0.51100000000E-03 0. -1.
        -11    1    3    3    0    0 -0.15469685469E+02  0.45169534590E+01  0.11984801567E+02  0.20083563078E+02  0.51100000000E-03 0.  1.
        -12    1    3    3    0    0 -0.20627379974E+01  0.14058445276E+02  0.12642995533E+02  0.19019466546E+02  0.00000000000E+00 0.  1.
</event>
<event>
 7    1  0.3221417E-010  0.4778727E+02  0.7816164E-02  0.1312668E+00
        -11   -1    0    0    0    0  0.00000000000E+00  0.00000000000E+00  0.45593999997E+02  0.45594000000E+02  0.51100000000E-03 0. -1.
         11   -1    0    0    0    0 -0.00000000000E+00 -0.00000000000E+00 -0.45593999997E+02  0.45594000000E+02  0.51100000000E-03 0.  1.
    9900012    2    1    2    0    0  0.19373916420E+02 -0.11934683479E+02  0.36957242760E+02  0.47787273052E+02  0.20000009153E+02 0.  0.
        -12    1    1    2    0    0 -0.19373916420E+02  0.11934683479E+02 -0.36957242760E+02  0.43400726948E+02  0.00000000000E+00 0.  1.
         11    1    3    3    0    0  0.85203647622E+01 -0.10304512913E+02  0.24947926932E+02  0.28305099550E+02  0.51100000000E-03 0. -1.
        -11    1    3    3    0    0 -0.37672889758E+00 -0.21523667888E+01  0.67034586404E+01  0.70506003617E+01  0.51100000000E-03 0.  1.
        -12    1    3    3    0    0  0.11230280555E+02  0.52219622301E+00  0.53058571877E+01  0.12431573140E+02  0.00000000000E+00 0.  1.
</event>
<event>
 7    1  0.3221417E-010  0.4778727E+02  0.7816164E-02  0.1312668E+00
        -11   -1    0    0    0    0  0.00000000000E+00  0.00000000000E+00  0.45593999997E+02  0.45594000000E+02  0.51100000000E-03 0. -1.
         11   -1    0    0    0    0 -0.00000000000E+00 -0.00000000000E+00 -0.45593999997E+02  0.45594000000E+02  0.51100000000E-03 0.  1.
    9900012    2    1    2    0    0  0.87686905531E+01  0.30837163320E+02  0.29254106714E+02  0.47787270337E+02  0.19999996774E+02 0.  0.
        -12    1    1    2    0    0 -0.87686905531E+01 -0.30837163320E+02 -0.29254106714E+02  0.43400729663E+02  0.00000000000E+00 0.  1.
         11    1    3    3    0    0  0.82830592898E+01  0.16244035203E+02  0.12078165963E+02  0.21871439006E+02  0.51100000000E-03 0. -1.
        -11    1    3    3    0    0 -0.55857590340E+01  0.99215914041E+01  0.12644407942E+02  0.17015279382E+02  0.51100000000E-03 0.  1.
        -12    1    3    3    0    0  0.60713902973E+01  0.46715367126E+01  0.45315328088E+01  0.89005519490E+01  0.00000000000E+00 0.  1.
</event>
<event>
 7    1  0.3221417E-010  0.4778727E+02  0.7816164E-02  0.1312668E+00
        -11   -1    0    0    0    0  0.00000000000E+00  0.00000000000E+00  0.45593999997E+02  0.45594000000E+02  0.51100000000E-03 0. -1.
         11   -1    0    0    0    0 -0.00000000000E+00 -0.00000000000E+00 -0.45593999997E+02  0.45594000000E+02  0.51100000000E-03 0.  1.
    9900012    2    1    2    0    0 -0.66018907864E+01 -0.94420097257E+01  0.41843603486E+02  0.47787266570E+02  0.19999979598E+02 0.  0.
        -12    1    1    2    0    0  0.66018907864E+01  0.94420097257E+01 -0.41843603486E+02  0.43400733430E+02  0.00000000000E+00 0.  1.
         11    1    3    3    0    0 -0.35208403233E+01  0.41866041160E+00  0.39771620755E+01  0.53281715024E+01  0.51100000000E-03 0. -1.
        -11    1    3    3    0    0 -0.43767697289E+00 -0.89841099512E-01 -0.16279905935E+01  0.16881902113E+01  0.51100000000E-03 0.  1.
         12    1    3    3    0    0 -0.26433734902E+01 -0.97708290377E+01  0.39494432004E+02  0.40770904856E+02  0.00000000000E+00 0. -1.
</event>
<event>
 7    1  0.3221417E-010  0.4778721E+02  0.7816164E-02  0.1312668E+00
        -11   -1    0    0    0    0  0.00000000000E+00  0.00000000000E+00  0.45593999997E+02  0.45594000000E+02  0.51100000000E-03 0.  1.
         11   -1    0    0    0    0 -0.00000000000E+00 -0.00000000000E+00 -0.45593999997E+02  0.45594000000E+02  0.51100000000E-03 0. -1.
    9900012    2    1    2    0    0 -0.37087533110E+02 -0.19742027042E+02  0.10880973845E+02  0.47787212729E+02  0.19999734115E+02 0.  0.
        -12    1    1    2    0    0  0.37087533110E+02  0.19742027042E+02 -0.10880973845E+02  0.43400787271E+02  0.00000000000E+00 0.  1.
         11    1    3    3    0    0 -0.20299448584E+02 -0.52847347063E+01 -0.36907568270E+00  0.20979329133E+02  0.51100000000E-03 0. -1.
        -11    1    3    3    0    0 -0.60083516953E+01 -0.92004909484E+01  0.10048188148E+01  0.11034445382E+02  0.51100000000E-03 0.  1.
        -12    1    3    3    0    0 -0.10779732831E+02 -0.52568013869E+01  0.10245230713E+02  0.15773438214E+02  0.00000000000E+00 0.  1.
</event>
<event>
 7    1  0.3221417E-010  0.4778727E+02  0.7816164E-02  0.1312668E+00
        -11   -1    0    0    0    0  0.00000000000E+00  0.00000000000E+00  0.45593999997E+02  0.45594000000E+02  0.51100000000E-03 0. -1.
         11   -1    0    0    0    0 -0.00000000000E+00 -0.00000000000E+00 -0.45593999997E+02  0.45594000000E+02  0.51100000000E-03 0.  1.
    9900012    2    1    2    0    0  0.20719938240E+02  0.26377989801E+01  0.38044046607E+02  0.47787270671E+02  0.19999998295E+02 0.  0.
        -12    1    1    2    0    0 -0.20719938240E+02 -0.26377989801E+01 -0.38044046607E+02  0.43400729329E+02  0.00000000000E+00 0.  1.
         11    1    3    3    0    0  0.30931670305E+01 -0.35575555462E+01  0.15575774811E+02  0.16273556617E+02  0.51100000000E-03 0. -1.
        -11    1    3    3    0    0  0.13507433751E+02 -0.11188859728E+01  0.12062251533E+02  0.18143885600E+02  0.51100000000E-03 0.  1.
        -12    1    3    3    0    0  0.41193374586E+01  0.73142404991E+01  0.10406020263E+02  0.13369828454E+02  0.00000000000E+00 0.  1.
</event>
<event>
 7    1  0.3221417E-010  0.4778727E+02  0.7816164E-02  0.1312668E+00
        -11   -1    0    0    0    0  0.00000000000E+00  0.00000000000E+00  0.45593999997E+02  0.45594000000E+02  0.51100000000E-03 0.  1.
         11   -1    0    0    0    0 -0.00000000000E+00 -0.00000000000E+00 -0.45593999997E+02  0.45594000000E+02  0.51100000000E-03 0. -1.
    9900012    2    1    2    0    0  0.22112015508E+02 -0.37123724741E+02 -0.40633556512E+01  0.47787273882E+02  0.20000012937E+02 0.  0.
        -12    1    1    2    0    0 -0.22112015508E+02  0.37123724741E+02  0.40633556512E+01  0.43400726118E+02  0.00000000000E+00 0.  1.
         11    1    3    3    0    0  0.20675921973E+02 -0.26254833046E+02 -0.13520102922E+00  0.33418980943E+02  0.51100000000E-03 0. -1.
        -11    1    3    3    0    0  0.59272320911E-01 -0.77099154219E+01  0.15806222889E+01  0.78704940190E+01  0.51100000000E-03 0.  1.
        -12    1    3    3    0    0  0.13768212136E+01 -0.31589762726E+01 -0.55087769109E+01  0.64977989196E+01  0.00000000000E+00 0.  1.
</event>
<event>
 7    1  0.3221417E-010  0.4778727E+02  0.7816164E-02  0.1312668E+00
        -11   -1    0    0    0    0  0.00000000000E+00  0.00000000000E+00  0.45593999997E+02  0.45594000000E+02  0.51100000000E-03 0. -1.
         11   -1    0    0    0    0 -0.00000000000E+00 -0.00000000000E+00 -0.45593999997E+02  0.45594000000E+02  0.51100000000E-03 0.  1.
    9900012    2    1    2    0    0  0.22661579484E+01 -0.25908455522E+02 -0.34745354232E+02  0.47787272125E+02  0.20000004925E+02 0.  0.
         12    1    1    2    0    0 -0.22661579484E+01  0.25908455522E+02  0.34745354232E+02  0.43400727875E+02  0.00000000000E+00 0. -1.
         11    1    3    3    0    0  0.46834033763E+01 -0.11679712123E+02 -0.11076676985E+02  0.16764328670E+02  0.51100000000E-03 0. -1.
        -11    1    3    3    0    0 -0.52053368140E+01 -0.14571108134E+02 -0.23591353746E+02  0.28212846284E+02  0.51100000000E-03 0.  1.
         12    1    3    3    0    0  0.27880913861E+01  0.34236473486E+00 -0.77323501618E-01  0.28100971714E+01  0.00000000000E+00 0. -1.
</event>
<event>
 7    1  0.3221417E-010  0.4778727E+02  0.7816164E-02  0.1312668E+00
        -11   -1    0    0    0    0  0.00000000000E+00  0.00000000000E+00  0.45593999997E+02  0.45594000000E+02  0.51100000000E-03 0. -1.
         11   -1    0    0    0    0 -0.00000000000E+00 -0.00000000000E+00 -0.45593999997E+02  0.45594000000E+02  0.51100000000E-03 0.  1.
    9900012    2    1    2    0    0  0.12727498339E+02 -0.97801762781E+01 -0.40323471827E+02  0.47787269105E+02  0.19999991159E+02 0.  0.
         12    1    1    2    0    0 -0.12727498339E+02  0.97801762781E+01  0.40323471827E+02  0.43400730895E+02  0.00000000000E+00 0. -1.
         11    1    3    3    0    0 -0.17610467219E+01 -0.13952137910E+01 -0.79454854636E+00  0.23831103066E+01  0.51100000000E-03 0. -1.
        -11    1    3    3    0    0  0.13053856502E+02 -0.12254951062E+02 -0.34735402791E+02  0.39078577283E+02  0.51100000000E-03 0.  1.
        -12    1    3    3    0    0  0.14346885591E+01  0.38699885754E+01 -0.47935204892E+01  0.63255815160E+01  0.00000000000E+00 0.  1.
</event>
<event>
 7    1  0.3221417E-010  0.4778727E+02  0.7816164E-02  0.1312668E+00
        -11   -1    0    0    0    0  0.00000000000E+00  0.00000000000E+00  0.45593999997E+02  0.45594000000E+02  0.51100000000E-03 0. -1.
         11   -1    0    0    0    0 -0.00000000000E+00 -0.00000000000E+00 -0.45593999997E+02  0.45594000000E+02  0.51100000000E-03 0.  1.
    9900012    2    1    2    0    0  0.10082589838E+02  0.10622793746E+01 -0.42199955365E+02  0.47787270881E+02  0.19999999254E+02 0.  0.
         12    1    1    2    0    0 -0.10082589838E+02 -0.10622793746E+01  0.42199955365E+02  0.43400729119E+02  0.00000000000E+00 0. -1.
         11    1    3    3    0    0  0.80600631268E+00 -0.56666670316E+01 -0.40025091746E+01  0.69843282695E+01  0.51100000000E-03 0. -1.
        -11    1    3    3    0    0  0.11171207332E+01  0.39923195537E+01 -0.22706966902E+02  0.23082307516E+02  0.51100000000E-03 0.  1.
        -12    1    3    3    0    0  0.81594627916E+01  0.27366268525E+01 -0.15490479289E+02  0.17720635095E+02  0.00000000000E+00 0.  1.
</event>
<event>
 7    1  0.3221417E-010  0.4778728E+02  0.7816164E-02  0.1312668E+00
        -11   -1    0    0    0    0  0.00000000000E+00  0.00000000000E+00  0.45593999997E+02  0.45594000000E+02  0.51100000000E-03 0. -1.
         11   -1    0    0    0    0 -0.00000000000E+00 -0.00000000000E+00 -0.45593999997E+02  0.45594000000E+02  0.51100000000E-03 0.  1.
    9900012    2    1    2    0    0 -0.45119126179E+01  0.88832712556E+01 -0.42241602177E+02  0.47787276295E+02  0.20000023939E+02 0.  0.
         12    1    1    2    0    0  0.45119126179E+01 -0.88832712556E+01  0.42241602177E+02  0.43400723705E+02  0.00000000000E+00 0. -1.
         11    1    3    3    0    0  0.17402643456E+01 -0.28205059435E+01 -0.16320982027E+02  0.16654075428E+02  0.51100000000E-03 0. -1.
        -11    1    3    3    0    0 -0.43890068962E+01  0.11015556544E+02 -0.26526882183E+02  0.29056519855E+02  0.51100000000E-03 0.  1.
         12    1    3    3    0    0 -0.18631700673E+01  0.68822065547E+00  0.60626203330E+00  0.20766810114E+01  0.00000000000E+00 0. -1.
</event>
<event>
 7    1  0.3221417E-010  0.4778728E+02  0.7816164E-02  0.1312668E+00
        -11   -1    0    0    0    0  0.00000000000E+00  0.00000000000E+00  0.45593999997E+02  0.45594000000E+02  0.51100000000E-03 0. -1.
         11   -1    0    0    0    0 -0.00000000000E+00 -0.00000000000E+00 -0.45593999997E+02  0.45594000000E+02  0.51100000000E-03 0.  1.
    9900012    2    1    2    0    0 -0.56684302498E+01  0.25197301179E+02  0.34879611168E+02  0.47787281533E+02  0.20000047820E+02 0.  0.
        -12    1    1    2    0    0  0.56684302498E+01 -0.25197301179E+02 -0.34879611168E+02  0.43400718467E+02  0.00000000000E+00 0.  1.
         11    1    3    3    0    0 -0.44310518716E+01  0.10741495067E+02  0.88159625228E+01  0.14585442483E+02  0.51100000000E-03 0. -1.
        -11    1    3    3    0    0  0.30275028132E+01  0.11744640518E+02  0.25344723402E+02  0.28097283833E+02  0.51100000000E-03 0.  1.
        -12    1    3    3    0    0 -0.42648811915E+01  0.27111655938E+01  0.71892524344E+00  0.51045552166E+01  0.00000000000E+00 0.  1.
</event>
<event>
 7    1  0.3221417E-010  0.4778727E+02  0.7816164E-02  0.1312668E+00
        -11   -1    0    0    0    0  0.00000000000E+00  0.00000000000E+00  0.45593999997E+02  0.45594000000E+02  0.51100000000E-03 0. -1.
         11   -1    0    0    0    0 -0.00000000000E+00 -0.00000000000E+00 -0.45593999997E+02  0.45594000000E+02  0.51100000000E-03 0.  1.
    9900012    2    1    2    0    0 -0.17254498633E+02 -0.86107290598E+01 -0.38881372458E+02  0.47787268413E+02  0.19999988003E+02 0.  0.
         12    1    1    2    0    0  0.17254498633E+02  0.86107290598E+01  0.38881372458E+02  0.43400731587E+02  0.00000000000E+00 0. -1.
         11    1    3    3    0    0 -0.10468688579E+02 -0.23587927245E+01 -0.11675147687E+02  0.15857692690E+02  0.51100000000E-03 0. -1.
        -11    1    3    3    0    0 -0.10321100649E+02 -0.18777841063E+01 -0.21471631939E+02  0.23897325585E+02  0.51100000000E-03 0.  1.
         12    1    3    3    0    0  0.35352905954E+01 -0.43741522290E+01 -0.57345928333E+01  0.80322501380E+01  0.00000000000E+00 0. -1.
</event>
<event>
 7    1  0.3221417E-010  0.4778727E+02  0.7816164E-02  0.1312668E+00
        -11   -1    0    0    0    0  0.00000000000E+00  0.00000000000E+00  0.45593999997E+02  0.45594000000E+02  0.51100000000E-03 0. -1.
         11   -1    0    0    0    0 -0.00000000000E+00 -0.00000000000E+00 -0.45593999997E+02  0.45594000000E+02  0.51100000000E-03 0.  1.
    9900012    2    1    2    0    0 -0.42944997028E+01  0.17477169545E+02 -0.39493406078E+02  0.47787270667E+02  0.19999998280E+02 0.  0.
         12    1    1    2    0    0  0.42944997028E+01 -0.17477169545E+02  0.39493406078E+02  0.43400729333E+02  0.00000000000E+00 0. -1.
         11    1    3    3    0    0 -0.32813612361E+01 -0.15550053186E+01 -0.47915248838E+01  0.60119950163E+01  0.51100000000E-03 0. -1.
        -11    1    3    3    0    0  0.60960337459E+01  0.10207180623E+02 -0.16586409277E+02  0.20407281462E+02  0.51100000000E-03 0.  1.
         12    1    3    3    0    0 -0.71091722125E+01  0.88249942404E+01 -0.18115471917E+02  0.21367994189E+02  0.00000000000E+00 0. -1.
</event>
<event>
 7    1  0.3221417E-010  0.4778728E+02  0.7816164E-02  0.1312668E+00
        -11   -1    0    0    0    0  0.00000000000E+00  0.00000000000E+00  0.45593999997E+02  0.45594000000E+02  0.51100000000E-03 0.  1.
         11   -1    0    0    0    0 -0.00000000000E+00 -0.00000000000E+00 -0.45593999997E+02  0.45594000000E+02  0.51100000000E-03 0. -1.
    9900012    2    1    2    0    0 -0.24517408860E+02 -0.33555005689E+02  0.12513220561E+02  0.47787280734E+02  0.20000044178E+02 0.  0.
        -12    1    1    2    0    0  0.24517408860E+02  0.33555005689E+02 -0.12513220561E+02  0.43400719266E+02  0.00000000000E+00 0.  1.
         11    1    3    3    0    0 -0.23373163343E+02 -0.30568915198E+02  0.13440111793E+02  0.40760274120E+02  0.51100000000E-03 0. -1.
        -11    1    3    3    0    0  0.89305278184E+00 -0.17719669159E+01  0.22901753255E+01  0.30302332096E+01  0.51100000000E-03 0.  1.
         12    1    3    3    0    0 -0.20372982987E+01 -0.12141235749E+01 -0.32170665572E+01  0.39967734045E+01  0.00000000000E+00 0. -1.
</event>
<event>
 7    1  0.3221417E-010  0.4778727E+02  0.7816164E-02  0.1312668E+00
        -11   -1    0    0    0    0  0.00000000000E+00  0.00000000000E+00  0.45593999997E+02  0.45594000000E+02  0.51100000000E-03 0.  1.
         11   -1    0    0    0    0 -0.00000000000E+00 -0.00000000000E+00 -0.45593999997E+02  0.45594000000E+02  0.51100000000E-03 0. -1.
    9900012    2    1    2    0    0 -0.36777092155E+02 -0.23025263410E+02 -0.95174766510E+00  0.47787273207E+02  0.20000009861E+02 0.  0.
        -12    1    1    2    0    0  0.36777092155E+02  0.23025263410E+02  0.95174766510E+00  0.43400726793E+02  0.00000000000E+00 0.  1.
         11    1    3    3    0    0 -0.11112632775E+02 -0.44538493127E+01 -0.60090136669E+01  0.13395358390E+02  0.51100000000E-03 0. -1.
        -11    1    3    3    0    0 -0.60948513829E+01 -0.27381014064E+01 -0.38239203551E+01  0.76984920494E+01  0.51100000000E-03 0.  1.
        -12    1    3    3    0    0 -0.19569607998E+02 -0.15833312691E+02  0.88811863568E+01  0.26693422768E+02  0.00000000000E+00 0.  1.
</event>
<event>
 7    1  0.3221417E-010  0.4778727E+02  0.7816164E-02  0.1312668E+00
        -11   -1    0    0    0    0  0.00000000000E+00  0.00000000000E+00  0.45593999997E+02  0.45594000000E+02  0.51100000000E-03 0. -1.
         11   -1    0    0    0    0 -0.00000000000E+00 -0.00000000000E+00 -0.45593999997E+02  0.45594000000E+02  0.51100000000E-03 0.  1.
    9900012    2    1    2    0    0 -0.44317824086E+01 -0.19677609854E+02 -0.38428824075E+02  0.47787267925E+02  0.19999985777E+02 0.  0.
         12    1    1    2    0    0  0.44317824086E+01  0.19677609854E+02  0.38428824075E+02  0.43400732075E+02  0.00000000000E+00 0. -1.
         11    1    3    3    0    0 -0.47845284431E+00  0.24203994839E+01 -0.72087581500E+01  0.76192811414E+01  0.51100000000E-03 0. -1.
        -11    1    3    3    0    0 -0.61943224537E+01 -0.48153031252E+01 -0.95456474149E+01  0.12356219474E+02  0.51100000000E-03 0.  1.
        -12    1    3    3    0    0  0.22409928894E+01 -0.17282706213E+02 -0.21674418510E+02  0.27811767310E+02  0.00000000000E+00 0.  1.
</event>
<event>
 7    1  0.3221417E-010  0.4778727E+02  0.7816164E-02  0.1312668E+00
        -11   -1    0    0    0    0  0.00000000000E+00  0.00000000000E+00  0.45593999997E+02  0.45594000000E+02  0.51100000000E-03 0. -1.
         11   -1    0    0    0    0 -0.00000000000E+00 -0.00000000000E+00 -0.45593999997E+02  0.45594000000E+02  0.51100000000E-03 0.  1.
    9900012    2    1    2    0    0 -0.27299447213E+02  0.59129331594E+01  0.33217470910E+02  0.47787274541E+02  0.20000015944E+02 0.  0.
        -12    1    1    2    0    0  0.27299447213E+02 -0.59129331594E+01 -0.33217470910E+02  0.43400725459E+02  0.00000000000E+00 0.  1.
         11    1    3    3    0    0 -0.39068416106E+01 -0.36896134681E+01  0.45561369899E+01  0.70452142228E+01  0.51100000000E-03 0. -1.
        -11    1    3    3    0    0  0.42860892191E+00 -0.21353110844E+01  0.99981632465E+00  0.23964331786E+01  0.51100000000E-03 0.  1.
         12    1    3    3    0    0 -0.23821214524E+02  0.11737857712E+02  0.27661517595E+02  0.38345627140E+02  0.00000000000E+00 0. -1.
</event>
<event>
 7    1  0.3221417E-010  0.4778728E+02  0.7816164E-02  0.1312668E+00
        -11   -1    0    0    0    0  0.00000000000E+00  0.00000000000E+00  0.45593999997E+02  0.45594000000E+02  0.51100000000E-03 0. -1.
         11   -1    0    0    0    0 -0.00000000000E+00 -0.00000000000E+00 -0.45593999997E+02  0.45594000000E+02  0.51100000000E-03 0.  1.
    9900012    2    1    2    0    0  0.15363695022E+02  0.13538785595E+02 -0.38265922936E+02  0.47787277676E+02  0.20000030235E+02 0.  0.
         12    1    1    2    0    0 -0.15363695022E+02 -0.13538785595E+02  0.38265922936E+02  0.43400722324E+02  0.00000000000E+00 0. -1.
         11    1    3    3    0    0  0.81098005843E+00  0.35118077911E+01 -0.56879720929E+00  0.36488372316E+01  0.51100000000E-03 0.  1.
        -11    1    3    3    0    0  0.12305854422E+02  0.13814676181E+02 -0.31593585788E+02  0.36611937865E+02  0.51100000000E-03 0. -1.
         12    1    3    3    0    0  0.22468605418E+01 -0.37876983771E+01 -0.61035399389E+01  0.75265025793E+01  0.00000000000E+00 0. -1.
</event>
<event>
 7    1  0.3221417E-010  0.4778727E+02  0.7816164E-02  0.1312668E+00
        -11   -1    0    0    0    0  0.00000000000E+00  0.00000000000E+00  0.45593999997E+02  0.45594000000E+02  0.51100000000E-03 0. -1.
         11   -1    0    0    0    0 -0.00000000000E+00 -0.00000000000E+00 -0.45593999997E+02  0.45594000000E+02  0.51100000000E-03 0.  1.
    9900012    2    1    2    0    0 -0.37022256392E+01  0.21911700569E+01  0.43186984360E+02  0.47787270525E+02  0.19999997631E+02 0.  0.
        -12    1    1    2    0    0  0.37022256392E+01 -0.21911700569E+01 -0.43186984360E+02  0.43400729475E+02  0.00000000000E+00 0.  1.
         11    1    3    3    0    0  0.27165914133E+01  0.87255167064E+00  0.27410519180E+01  0.39565870650E+01  0.51100000000E-03 0. -1.
        -11    1    3    3    0    0 -0.11626472494E+02  0.76294457229E+00  0.28101201387E+02  0.30420954402E+02  0.51100000000E-03 0.  1.
         12    1    3    3    0    0  0.52076554420E+01  0.55567381399E+00  0.12344731054E+02  0.13409729058E+02  0.00000000000E+00 0. -1.
</event>
<event>
 7    1  0.3221417E-010  0.4778727E+02  0.7816164E-02  0.1312668E+00
        -11   -1    0    0    0    0  0.00000000000E+00  0.00000000000E+00  0.45593999997E+02  0.45594000000E+02  0.51100000000E-03 0. -1.
         11   -1    0    0    0    0 -0.00000000000E+00 -0.00000000000E+00 -0.45593999997E+02  0.45594000000E+02  0.51100000000E-03 0.  1.
    9900012    2    1    2    0    0 -0.42005042012E+02  0.10088189225E+02 -0.41747034491E+01  0.47787271145E+02  0.20000000458E+02 0.  0.
         12    1    1    2    0    0  0.42005042012E+02 -0.10088189225E+02  0.41747034491E+01  0.43400728855E+02  0.00000000000E+00 0. -1.
         11    1    3    3    0    0 -0.17887785937E+02  0.11474216400E+02  0.45872097394E+01  0.21741044620E+02  0.51100000000E-03 0. -1.
        -11    1    3    3    0    0 -0.99245034580E+01  0.13151181472E+01 -0.45542305072E+01  0.10998469003E+02  0.51100000000E-03 0.  1.
         12    1    3    3    0    0 -0.14192752617E+02 -0.27011453223E+01 -0.42076826813E+01  0.15047757522E+02  0.00000000000E+00 0. -1.
</event>
<event>
 7    1  0.3221417E-010  0.4778727E+02  0.7816164E-02  0.1312668E+00
        -11   -1    0    0    0    0  0.00000000000E+00  0.00000000000E+00  0.45593999997E+02  0.45594000000E+02  0.51100000000E-03 0. -1.
         11   -1    0    0    0    0 -0.00000000000E+00 -0.00000000000E+00 -0.45593999997E+02  0.45594000000E+02  0.51100000000E-03 0.  1.
    9900012    2    1    2    0    0  0.16706292996E+02 -0.67954008078E+01 -0.39475886690E+02  0.47787270424E+02  0.19999997170E+02 0.  0.
         12    1    1    2    0    0 -0.16706292996E+02  0.67954008078E+01  0.39475886690E+02  0.43400729576E+02  0.00000000000E+00 0. -1.
         11    1    3    3    0    0  0.94323345127E+01  0.23231069072E+01 -0.27715976968E+02  0.29369050710E+02  0.51100000000E-03 0. -1.
        -11    1    3    3    0    0  0.65248993051E+01 -0.18688313677E+01 -0.45842899554E+01  0.81903941467E+01  0.51100000000E-03 0.  1.
         12    1    3    3    0    0  0.74905917828E+00 -0.72496763473E+01 -0.71756197662E+01  0.10227825567E+02  0.00000000000E+00 0. -1.
</event>
<event>
 7    1  0.3221417E-010  0.4778727E+02  0.7816164E-02  0.1312668E+00
        -11   -1    0    0    0    0  0.00000000000E+00  0.00000000000E+00  0.45593999997E+02  0.45594000000E+02  0.51100000000E-03 0. -1.
         11   -1    0    0    0    0 -0.00000000000E+00 -0.00000000000E+00 -0.45593999997E+02  0.45594000000E+02  0.51100000000E-03 0.  1.
    9900012    2    1    2    0    0  0.73346640366E+01  0.40139062062E+02 -0.14787905145E+02  0.47787265694E+02  0.19999975605E+02 0.  0.
         12    1    1    2    0    0 -0.73346640366E+01 -0.40139062062E+02  0.14787905145E+02  0.43400734306E+02  0.00000000000E+00 0. -1.
         11    1    3    3    0    0  0.55718537187E+01  0.12058401537E+02  0.11161466612E+00  0.13283939912E+02  0.51100000000E-03 0. -1.
        -11    1    3    3    0    0  0.54162038177E+01  0.13284670537E+02 -0.18993642033E+01  0.14471534808E+02  0.51100000000E-03 0.  1.
        -12    1    3    3    0    0 -0.36533934998E+01  0.14795989987E+02 -0.13000155608E+02  0.20031790973E+02  0.00000000000E+00 0.  1.
</event>
<event>
 7    1  0.3221417E-010  0.4778728E+02  0.7816164E-02  0.1312668E+00
        -11   -1    0    0    0    0  0.00000000000E+00  0.00000000000E+00  0.45593999997E+02  0.45594000000E+02  0.51100000000E-03 0. -1.
         11   -1    0    0    0    0 -0.00000000000E+00 -0.00000000000E+00 -0.45593999997E+02  0.45594000000E+02  0.51100000000E-03 0.  1.
    9900012    2    1    2    0    0 -0.92780407182E+01 -0.38390784010E+02 -0.17991336488E+02  0.47787279670E+02  0.20000039329E+02 0.  0.
         12    1    1    2    0    0  0.92780407182E+01  0.38390784010E+02  0.17991336488E+02  0.43400720330E+02  0.00000000000E+00 0. -1.
         11    1    3    3    0    0 -0.19827695025E+00 -0.12363065013E+02 -0.11583625805E+01  0.12418796012E+02  0.51100000000E-03 0. -1.
        -11    1    3    3    0    0 -0.11446684618E+01 -0.11742331421E+02  0.15184241430E+00  0.11798969000E+02  0.51100000000E-03 0.  1.
         12    1    3    3    0    0 -0.79350953062E+01 -0.14285387577E+02 -0.16984816322E+02  0.23569514658E+02  0.00000000000E+00 0. -1.
</event>
<event>
 7    1  0.3221417E-010  0.4778727E+02  0.7816164E-02  0.1312668E+00
        -11   -1    0    0    0    0  0.00000000000E+00  0.00000000000E+00  0.45593999997E+02  0.45594000000E+02  0.51100000000E-03 0.  1.
         11   -1    0    0    0    0 -0.00000000000E+00 -0.00000000000E+00 -0.45593999997E+02  0.45594000000E+02  0.51100000000E-03 0. -1.
    9900012    2    1    2    0    0  0.24244747614E+02 -0.33904447985E+02  0.12095607715E+02  0.47787272979E+02  0.20000008818E+02 0.  0.
         12    1    1    2    0    0 -0.24244747614E+02  0.33904447985E+02 -0.12095607715E+02  0.43400727021E+02  0.00000000000E+00 0. -1.
         11    1    3    3    0    0  0.81210531852E+01 -0.40301038644E+01  0.13902777082E+00  0.90671148100E+01  0.51100000000E-03 0.  1.
        -11    1    3    3    0    0  0.15830447409E+01 -0.10357620643E+01 -0.26645085345E+01  0.32677881965E+01  0.51100000000E-03 0. -1.
        -12    1    3    3    0    0  0.14540649688E+02 -0.28838582056E+02  0.14621088478E+02  0.35452369972E+02  0.00000000000E+00 0.  1.
</event>
<event>
 7    1  0.3234355E-010  0.4778727E+02  0.7816164E-02  0.1312668E+00
        -11   -1    0    0    0    0  0.00000000000E+00  0.00000000000E+00  0.45593999997E+02  0.45594000000E+02  0.51100000000E-03 0. -1.
         11   -1    0    0    0    0 -0.00000000000E+00 -0.00000000000E+00 -0.45593999997E+02  0.45594000000E+02  0.51100000000E-03 0.  1.
    9900012    2    1    2    0    0  0.81567592486E+01 -0.25179817951E+02 -0.34395744313E+02  0.47787272122E+02  0.20000004914E+02 0.  0.
         12    1    1    2    0    0 -0.81567592486E+01  0.25179817951E+02  0.34395744313E+02  0.43400727878E+02  0.00000000000E+00 0. -1.
         11    1    3    3    0    0  0.57069233098E+00 -0.86537969413E+01 -0.43083086205E+01  0.96837706844E+01  0.51100000000E-03 0. -1.
        -11    1    3    3    0    0  0.37004953378E+01 -0.18486208444E+02 -0.22479270929E+02  0.29338561487E+02  0.51100000000E-03 0.  1.
         12    1    3    3    0    0  0.38855715798E+01  0.19601874335E+01 -0.76081647626E+01  0.87649399502E+01  0.00000000000E+00 0. -1.
</event>
<event>
 7    1  0.3221417E-010  0.4778727E+02  0.7816164E-02  0.1312668E+00
        -11   -1    0    0    0    0  0.00000000000E+00  0.00000000000E+00  0.45593999997E+02  0.45594000000E+02  0.51100000000E-03 0.  1.
         11   -1    0    0    0    0 -0.00000000000E+00 -0.00000000000E+00 -0.45593999997E+02  0.45594000000E+02  0.51100000000E-03 0. -1.
    9900012    2    1    2    0    0  0.40367175890E+02 -0.15808974261E+02  0.20471775283E+01  0.47787268527E+02  0.19999988524E+02 0.  0.
         12    1    1    2    0    0 -0.40367175890E+02  0.15808974261E+02 -0.20471775283E+01  0.43400731473E+02  0.00000000000E+00 0. -1.
         11    1    3    3    0    0  0.12088114395E+02  0.95357126865E+00  0.50945826634E+01  0.13152436298E+02  0.51100000000E-03 0. -1.
        -11    1    3    3    0    0  0.20006034634E+02 -0.11004415444E+02  0.27646133626E+01  0.22999601483E+02  0.51100000000E-03 0.  1.
        -12    1    3    3    0    0  0.82730268609E+01 -0.57581300858E+01 -0.58120184976E+01  0.11635230747E+02  0.00000000000E+00 0.  1.
</event>
<event>
 7    1  0.3221417E-010  0.4778727E+02  0.7816164E-02  0.1312668E+00
        -11   -1    0    0    0    0  0.00000000000E+00  0.00000000000E+00  0.45593999997E+02  0.45594000000E+02  0.51100000000E-03 0.  1.
         11   -1    0    0    0    0 -0.00000000000E+00 -0.00000000000E+00 -0.45593999997E+02  0.45594000000E+02  0.51100000000E-03 0. -1.
    9900012    2    1    2    0    0  0.15033344331E+02  0.40676043284E+02 -0.17553860672E+01  0.47787270522E+02  0.19999997616E+02 0.  0.
        -12    1    1    2    0    0 -0.15033344331E+02 -0.40676043284E+02  0.17553860672E+01  0.43400729478E+02  0.00000000000E+00 0.  1.
         11    1    3    3    0    0  0.75864479901E+01  0.19567563128E+02  0.50507794334E+01  0.21585969819E+02  0.51100000000E-03 0. -1.
        -11    1    3    3    0    0  0.31146965821E+01  0.12180334939E+02  0.22435097308E+01  0.12770874292E+02  0.51100000000E-03 0.  1.
        -12    1    3    3    0    0  0.43321997588E+01  0.89281452176E+01 -0.90496752314E+01  0.13430426411E+02  0.00000000000E+00 0.  1.
</event>
<event>
 7    1  0.3221417E-010  0.4778728E+02  0.7816164E-02  0.1312668E+00
        -11   -1    0    0    0    0  0.00000000000E+00  0.00000000000E+00  0.45593999997E+02  0.45594000000E+02  0.51100000000E-03 0. -1.
         11   -1    0    0    0    0 -0.00000000000E+00 -0.00000000000E+00 -0.45593999997E+02  0.45594000000E+02  0.51100000000E-03 0.  1.
    9900012    2    1    2    0    0 -0.90301631069E+01 -0.11424759087E+02 -0.40884640836E+02  0.47787276248E+02  0.20000023724E+02 0.  0.
         12    1    1    2    0    0  0.90301631069E+01  0.11424759087E+02  0.40884640836E+02  0.43400723752E+02  0.00000000000E+00 0. -1.
         11    1    3    3    0    0 -0.44193355506E+01 -0.53057943551E+01 -0.75165504575E+01  0.10206885494E+02  0.51100000000E-03 0. -1.
        -11    1    3    3    0    0 -0.38104157259E+01 -0.81962904571E+01 -0.78685103889E+01  0.11983818309E+02  0.51100000000E-03 0.  1.
        -12    1    3    3    0    0 -0.80041183039E+00  0.20773257254E+01 -0.25499579990E+02  0.25596572445E+02  0.00000000000E+00 0.  1.
</event>
<event>
 7    1  0.3221417E-010  0.4778727E+02  0.7816164E-02  0.1312668E+00
        -11   -1    0    0    0    0  0.00000000000E+00  0.00000000000E+00  0.45593999997E+02  0.45594000000E+02  0.51100000000E-03 0. -1.
         11   -1    0    0    0    0 -0.00000000000E+00 -0.00000000000E+00 -0.45593999997E+02  0.45594000000E+02  0.51100000000E-03 0.  1.
    9900012    2    1    2    0    0  0.61930230665E+01 -0.33125531454E+02 -0.27349020516E+02  0.47787270835E+02  0.19999999047E+02 0.  0.
         12    1    1    2    0    0 -0.61930230665E+01  0.33125531454E+02  0.27349020516E+02  0.43400729165E+02  0.00000000000E+00 0. -1.
         11    1    3    3    0    0  0.10619688641E+02 -0.12351351119E+02 -0.14695995206E+02  0.21938685846E+02  0.51100000000E-03 0. -1.
        -11    1    3    3    0    0  0.48424102106E+00 -0.13534970412E+02 -0.57874121624E+01  0.14728341835E+02  0.51100000000E-03 0.  1.
        -12    1    3    3    0    0 -0.49109065958E+01 -0.72392099241E+01 -0.68656131479E+01  0.11120243154E+02  0.00000000000E+00 0.  1.
</event>
<event>
 7    1  0.4655424E-010  0.4778729E+02  0.7816164E-02  0.1312668E+00
        -11   -1    0    0    0    0  0.00000000000E+00  0.00000000000E+00  0.45593999997E+02  0.45594000000E+02  0.51100000000E-03 0. -1.
         11   -1    0    0    0    0 -0.00000000000E+00 -0.00000000000E+00 -0.45593999997E+02  0.45594000000E+02  0.51100000000E-03 0.  1.
    9900012    2    1    2    0    0 -0.23243595499E+01  0.17712078349E+02 -0.39553779547E+02  0.47787287526E+02  0.20000075146E+02 0.  0.
         12    1    1    2    0    0  0.23243595499E+01 -0.17712078349E+02  0.39553779547E+02  0.43400712474E+02  0.00000000000E+00 0. -1.
         11    1    3    3    0    0 -0.34208028386E+01 -0.16480915126E+01 -0.77509425772E+01  0.86310606990E+01  0.51100000000E-03 0. -1.
        -11    1    3    3    0    0  0.45853183497E+01  0.93211203359E+01 -0.23418987952E+02  0.25619473563E+02  0.51100000000E-03 0.  1.
         12    1    3    3    0    0 -0.34888750610E+01  0.10039049526E+02 -0.83838490177E+01  0.13536753264E+02  0.00000000000E+00 0. -1.
</event>
<event>
 7    1  0.3221417E-010  0.4778727E+02  0.7816164E-02  0.1312668E+00
        -11   -1    0    0    0    0  0.00000000000E+00  0.00000000000E+00  0.45593999997E+02  0.45594000000E+02  0.51100000000E-03 0. -1.
         11   -1    0    0    0    0 -0.00000000000E+00 -0.00000000000E+00 -0.45593999997E+02  0.45594000000E+02  0.51100000000E-03 0.  1.
    9900012    2    1    2    0    0 -0.28020793006E+02  0.57053063690E+01 -0.32648246447E+02  0.47787270081E+02  0.19999995606E+02 0.  0.
         12    1    1    2    0    0  0.28020793006E+02 -0.57053063690E+01  0.32648246447E+02  0.43400729919E+02  0.00000000000E+00 0. -1.
         11    1    3    3    0    0 -0.85088362386E+01  0.49641180767E+01 -0.81379153160E+01  0.12777653477E+02  0.51100000000E-03 0. -1.
        -11    1    3    3    0    0 -0.37037181993E+01  0.68205612532E+01 -0.10326528058E+02  0.12918001637E+02  0.51100000000E-03 0.  1.
         12    1    3    3    0    0 -0.15808238568E+02 -0.60793729609E+01 -0.14183803073E+02  0.22091614967E+02  0.00000000000E+00 0. -1.
</event>
<event>
 7    1  0.3221417E-010  0.4778728E+02  0.7816164E-02  0.1312668E+00
        -11   -1    0    0    0    0  0.00000000000E+00  0.00000000000E+00  0.45593999997E+02  0.45594000000E+02  0.51100000000E-03 0. -1.
         11   -1    0    0    0    0 -0.00000000000E+00 -0.00000000000E+00 -0.45593999997E+02  0.45594000000E+02  0.51100000000E-03 0.  1.
    9900012    2    1    2    0    0  0.37810524006E+02 -0.13892333748E+02  0.16155171658E+02  0.47787283026E+02  0.20000054628E+02 0.  0.
        -12    1    1    2    0    0 -0.37810524006E+02  0.13892333748E+02 -0.16155171658E+02  0.43400716974E+02  0.00000000000E+00 0.  1.
         11    1    3    3    0    0  0.83095047309E+01  0.34957445496E+01 -0.10819621211E+01  0.90795782458E+01  0.51100000000E-03 0.  1.
        -11    1    3    3    0    0  0.13431226600E+02 -0.75090664281E+01  0.10705142400E+02  0.18745239414E+02  0.51100000000E-03 0. -1.
        -12    1    3    3    0    0  0.16069792675E+02 -0.98790118695E+01  0.65319913792E+01  0.19962465366E+02  0.00000000000E+00 0.  1.
</event>
<event>
 7    1  0.3221417E-010  0.4778727E+02  0.7816164E-02  0.1312668E+00
        -11   -1    0    0    0    0  0.00000000000E+00  0.00000000000E+00  0.45593999997E+02  0.45594000000E+02  0.51100000000E-03 0. -1.
         11   -1    0    0    0    0 -0.00000000000E+00 -0.00000000000E+00 -0.45593999997E+02  0.45594000000E+02  0.51100000000E-03 0.  1.
    9900012    2    1    2    0    0  0.55619687039E+01  0.25579116828E+02 -0.34617864175E+02  0.47787271509E+02  0.20000002118E+02 0.  0.
         12    1    1    2    0    0 -0.55619687039E+01 -0.25579116828E+02  0.34617864175E+02  0.43400728491E+02  0.00000000000E+00 0. -1.
         11    1    3    3    0    0  0.48842886673E+01  0.36179162028E+01 -0.10114717953E+02  0.11800555621E+02  0.51100000000E-03 0. -1.
        -11    1    3    3    0    0 -0.30385168101E+01  0.44449319407E+01 -0.14518960005E+02  0.15485160775E+02  0.51100000000E-03 0.  1.
         12    1    3    3    0    0  0.37161968467E+01  0.17516268684E+02 -0.99841862174E+01  0.20501555113E+02  0.00000000000E+00 0. -1.
</event>
<event>
 7    1  0.3221417E-010  0.4778732E+02  0.7816164E-02  0.1312668E+00
        -11   -1    0    0    0    0  0.00000000000E+00  0.00000000000E+00  0.45593999997E+02  0.45594000000E+02  0.51100000000E-03 0. -1.
         11   -1    0    0    0    0 -0.00000000000E+00 -0.00000000000E+00 -0.45593999997E+02  0.45594000000E+02  0.51100000000E-03 0.  1.
    9900012    2    1    2    0    0 -0.19497281204E+02  0.66260161093E+00 -0.38769010421E+02  0.47787318159E+02  0.20000214814E+02 0.  0.
         12    1    1    2    0    0  0.19497281204E+02 -0.66260161093E+00  0.38769010421E+02  0.43400681841E+02  0.00000000000E+00 0. -1.
         11    1    3    3    0    0 -0.10104258990E+01 -0.14149743303E+01 -0.14794072612E+01  0.22829277164E+01  0.51100000000E-03 0. -1.
        -11    1    3    3    0    0 -0.17280072120E+02  0.81743130264E+01 -0.22900301383E+02  0.29830254602E+02  0.51100000000E-03 0.  1.
         12    1    3    3    0    0 -0.12067831850E+01 -0.60967370851E+01 -0.14389301777E+02  0.15674135841E+02  0.00000000000E+00 0. -1.
</event>
<event>
 7    1  0.3221417E-010  0.4778727E+02  0.7816164E-02  0.1312668E+00
        -11   -1    0    0    0    0  0.00000000000E+00  0.00000000000E+00  0.45593999997E+02  0.45594000000E+02  0.51100000000E-03 0.  1.
         11   -1    0    0    0    0 -0.00000000000E+00 -0.00000000000E+00 -0.45593999997E+02  0.45594000000E+02  0.51100000000E-03 0. -1.
    9900012    2    1    2    0    0 -0.11483132333E+02 -0.31496801311E+02 -0.27562883720E+02  0.47787269822E+02  0.19999994428E+02 0.  0.
         12    1    1    2    0    0  0.11483132333E+02  0.31496801311E+02  0.27562883720E+02  0.43400730178E+02  0.00000000000E+00 0. -1.
         11    1    3    3    0    0 -0.15088250978E+02 -0.17110369724E+02 -0.10821703347E+02  0.25249343224E+02  0.51100000000E-03 0. -1.
        -11    1    3    3    0    0  0.14409897191E+01 -0.53896832955E+01 -0.43581272006E+01  0.70794357370E+01  0.51100000000E-03 0.  1.
         12    1    3    3    0    0  0.21641289264E+01 -0.89967482920E+01 -0.12383053172E+02  0.15458490861E+02  0.00000000000E+00 0. -1.
</event>
<event>
 7    1  0.3221417E-010  0.4778727E+02  0.7816164E-02  0.1312668E+00
        -11   -1    0    0    0    0  0.00000000000E+00  0.00000000000E+00  0.45593999997E+02  0.45594000000E+02  0.51100000000E-03 0. -1.
         11   -1    0    0    0    0 -0.00000000000E+00 -0.00000000000E+00 -0.45593999997E+02  0.45594000000E+02  0.51100000000E-03 0.  1.
    9900012    2    1    2    0    0 -0.26931108555E+02 -0.69709720652E+01  0.33312822635E+02  0.47787271763E+02  0.20000003278E+02 0.  0.
        -12    1    1    2    0    0  0.26931108555E+02  0.69709720652E+01 -0.33312822635E+02  0.43400728237E+02  0.00000000000E+00 0.  1.
         11    1    3    3    0    0 -0.15377967970E+02 -0.66103956324E+01  0.28026233660E+02  0.32644279786E+02  0.51100000000E-03 0. -1.
        -11    1    3    3    0    0 -0.39533467849E+01 -0.37586815836E+01  0.35385358778E+00  0.54664294262E+01  0.51100000000E-03 0.  1.
        -12    1    3    3    0    0 -0.75997937993E+01  0.33981051507E+01  0.49327353879E+01  0.96765625515E+01  0.00000000000E+00 0.  1.
</event>
<event>
 7    1  0.3221417E-010  0.4778729E+02  0.7816164E-02  0.1312668E+00
        -11   -1    0    0    0    0  0.00000000000E+00  0.00000000000E+00  0.45593999997E+02  0.45594000000E+02  0.51100000000E-03 0. -1.
         11   -1    0    0    0    0 -0.00000000000E+00 -0.00000000000E+00 -0.45593999997E+02  0.45594000000E+02  0.51100000000E-03 0.  1.
    9900012    2    1    2    0    0  0.15281934404E+02  0.21107404898E-01  0.40621216564E+02  0.47787294939E+02  0.20000108944E+02 0.  0.
        -12    1    1    2    0    0 -0.15281934404E+02 -0.21107404898E-01 -0.40621216564E+02  0.43400705061E+02  0.00000000000E+00 0.  1.
         11    1    3    3    0    0  0.64012540474E+01  0.36286671332E+01  0.17422038842E+02  0.18912184332E+02  0.51100000000E-03 0. -1.
        -11    1    3    3    0    0  0.80213675931E+01  0.21114318042E+01  0.21185463978E+02  0.22751359663E+02  0.51100000000E-03 0.  1.
        -12    1    3    3    0    0  0.85931276301E+00 -0.57189915324E+01  0.20137137452E+01  0.61237509437E+01  0.00000000000E+00 0.  1.
</event>
<event>
 7    1  0.3221417E-010  0.4778726E+02  0.7816164E-02  0.1312668E+00
        -11   -1    0    0    0    0  0.00000000000E+00  0.00000000000E+00  0.45593999997E+02  0.45594000000E+02  0.51100000000E-03 0. -1.
         11   -1    0    0    0    0 -0.00000000000E+00 -0.00000000000E+00 -0.45593999997E+02  0.45594000000E+02  0.51100000000E-03 0.  1.
    9900012    2    1    2    0    0  0.65771404030E+01  0.18152504767E+02 -0.38869676979E+02  0.47787262752E+02  0.19999962192E+02 0.  0.
         12    1    1    2    0    0 -0.65771404030E+01 -0.18152504767E+02  0.38869676979E+02  0.43400737248E+02  0.00000000000E+00 0. -1.
         11    1    3    3    0    0 -0.20565571036E+01  0.17716598494E+01 -0.86849243271E+00  0.28499973876E+01  0.51100000000E-03 0.  1.
        -11    1    3    3    0    0 -0.35822214719E+01  0.21310597616E+01 -0.27288353486E+01  0.49819944803E+01  0.51100000000E-03 0. -1.
        -12    1    3    3    0    0  0.12215918978E+02  0.14249785156E+02 -0.35272349198E+02  0.39955270884E+02  0.00000000000E+00 0.  1.
</event>
<event>
 7    1  0.3221417E-010  0.4778727E+02  0.7816164E-02  0.1312668E+00
        -11   -1    0    0    0    0  0.00000000000E+00  0.00000000000E+00  0.45593999997E+02  0.45594000000E+02  0.51100000000E-03 0. -1.
         11   -1    0    0    0    0 -0.00000000000E+00 -0.00000000000E+00 -0.45593999997E+02  0.45594000000E+02  0.51100000000E-03 0.  1.
    9900012    2    1    2    0    0 -0.37737545662E+02  0.64791706497E+00  0.21426179248E+02  0.47787270671E+02  0.19999998298E+02 0.  0.
        -12    1    1    2    0    0  0.37737545662E+02 -0.64791706497E+00 -0.21426179248E+02  0.43400729329E+02  0.00000000000E+00 0.  1.
         11    1    3    3    0    0 -0.16747977256E+02  0.11632398830E+01  0.15022565229E+02  0.22528322963E+02  0.51100000000E-03 0. -1.
        -11    1    3    3    0    0 -0.19547903770E+02  0.34473635614E+01  0.35426246610E+01  0.20163210238E+02  0.51100000000E-03 0.  1.
        -12    1    3    3    0    0 -0.14416646358E+01 -0.39626863794E+01  0.28609893582E+01  0.50957374708E+01  0.00000000000E+00 0.  1.
</event>
<event>
 7    1  0.3221417E-010  0.4778727E+02  0.7816164E-02  0.1312668E+00
        -11   -1    0    0    0    0  0.00000000000E+00  0.00000000000E+00  0.45593999997E+02  0.45594000000E+02  0.51100000000E-03 0. -1.
         11   -1    0    0    0    0 -0.00000000000E+00 -0.00000000000E+00 -0.45593999997E+02  0.45594000000E+02  0.51100000000E-03 0.  1.
    9900012    2    1    2    0    0  0.17327951220E+02 -0.30468391331E+02 -0.25593800429E+02  0.47787269774E+02  0.19999994206E+02 0.  0.
         12    1    1    2    0    0 -0.17327951220E+02  0.30468391331E+02  0.25593800429E+02  0.43400730226E+02  0.00000000000E+00 0. -1.
         11    1    3    3    0    0  0.63406771866E+01 -0.15585507065E+02 -0.18364319453E+02  0.24907036092E+02  0.51100000000E-03 0. -1.
        -11    1    3    3    0    0  0.75008908915E+01 -0.16156244372E+02 -0.48132944908E+01  0.18451433562E+02  0.51100000000E-03 0.  1.
        -12    1    3    3    0    0  0.34863831416E+01  0.12733601060E+01 -0.24161864855E+01  0.44288001199E+01  0.00000000000E+00 0.  1.
</event>
<event>
 7    1  0.3221417E-010  0.4778727E+02  0.7816164E-02  0.1312668E+00
        -11   -1    0    0    0    0  0.00000000000E+00  0.00000000000E+00  0.45593999997E+02  0.45594000000E+02  0.51100000000E-03 0. -1.
         11   -1    0    0    0    0 -0.00000000000E+00 -0.00000000000E+00 -0.45593999997E+02  0.45594000000E+02  0.51100000000E-03 0.  1.
    9900012    2    1    2    0    0  0.11817333423E+02 -0.29368906570E+02  0.29689077424E+02  0.47787270045E+02  0.19999995444E+02 0.  0.
        -12    1    1    2    0    0 -0.11817333423E+02  0.29368906570E+02 -0.29689077424E+02  0.43400729955E+02  0.00000000000E+00 0.  1.
         11    1    3    3    0    0  0.46030157081E+01 -0.20132337690E+02  0.11512905739E+02  0.23644148817E+02  0.51100000000E-03 0. -1.
        -11    1    3    3    0    0 -0.43402172561E+00  0.13136414474E+01 -0.41094994752E+00  0.14432286136E+01  0.51100000000E-03 0.  1.
         12    1    3    3    0    0  0.76483394406E+01 -0.10550210327E+02  0.18587121632E+02  0.22699892615E+02  0.00000000000E+00 0. -1.
</event>
<event>
 7    1  0.3221417E-010  0.4778727E+02  0.7816164E-02  0.1312668E+00
        -11   -1    0    0    0    0  0.00000000000E+00  0.00000000000E+00  0.45593999997E+02  0.45594000000E+02  0.51100000000E-03 0.  1.
         11   -1    0    0    0    0 -0.00000000000E+00 -0.00000000000E+00 -0.45593999997E+02  0.45594000000E+02  0.51100000000E-03 0. -1.
    9900012    2    1    2    0    0  0.41178418225E+02 -0.11909535442E+02 -0.67914562259E+01  0.47787273743E+02  0.20000012305E+02 0.  0.
         12    1    1    2    0    0 -0.41178418225E+02  0.11909535442E+02  0.67914562259E+01  0.43400726257E+02  0.00000000000E+00 0. -1.
         11    1    3    3    0    0  0.15006547212E+02 -0.37304295557E+01  0.17942579911E+01  0.15567014032E+02  0.51100000000E-03 0. -1.
        -11    1    3    3    0    0  0.18566623803E+02 -0.10861718016E+02 -0.10493084225E+02  0.23933266691E+02  0.51100000000E-03 0.  1.
         12    1    3    3    0    0  0.76052472097E+01  0.26826121293E+01  0.19073700079E+01  0.82869930194E+01  0.00000000000E+00 0. -1.
</event>
<event>
 7    1  0.5212658E-010  0.4778727E+02  0.7816164E-02  0.1312668E+00
        -11   -1    0    0    0    0  0.00000000000E+00  0.00000000000E+00  0.45593999997E+02  0.45594000000E+02  0.51100000000E-03 0. -1.
         11   -1    0    0    0    0 -0.00000000000E+00 -0.00000000000E+00 -0.45593999997E+02  0.45594000000E+02  0.51100000000E-03 0.  1.
    9900012    2    1    2    0    0 -0.21471840176E+02  0.23567957479E+02 -0.29447157044E+02  0.47787267307E+02  0.19999982958E+02 0.  0.
         12    1    1    2    0    0  0.21471840176E+02 -0.23567957479E+02  0.29447157044E+02  0.43400732693E+02  0.00000000000E+00 0. -1.
         11    1    3    3    0    0 -0.42793571861E+00  0.10241293455E+02 -0.12733857420E+02  0.16346814541E+02  0.51100000000E-03 0. -1.
        -11    1    3    3    0    0 -0.12759146128E+02  0.99003858368E+01 -0.15516051497E+02  0.22395564381E+02  0.51100000000E-03 0.  1.
         12    1    3    3    0    0 -0.82847583298E+01  0.34262781875E+01 -0.11972481280E+01  0.90448883842E+01  0.00000000000E+00 0. -1.
</event>
<event>
 7    1  0.3221417E-010  0.4778727E+02  0.7816164E-02  0.1312668E+00
        -11   -1    0    0    0    0  0.00000000000E+00  0.00000000000E+00  0.45593999997E+02  0.45594000000E+02  0.51100000000E-03 0. -1.
         11   -1    0    0    0    0 -0.00000000000E+00 -0.00000000000E+00 -0.45593999997E+02  0.45594000000E+02  0.51100000000E-03 0.  1.
    9900012    2    1    2    0    0 -0.30760064378E+02  0.29662498206E+02 -0.75880284336E+01  0.47787268026E+02  0.19999986238E+02 0.  0.
        -12    1    1    2    0    0  0.30760064378E+02 -0.29662498206E+02  0.75880284336E+01  0.43400731974E+02  0.00000000000E+00 0.  1.
         11    1    3    3    0    0 -0.12032541606E+02  0.73679784412E+01 -0.48213739521E+01  0.14910225044E+02  0.51100000000E-03 0. -1.
        -11    1    3    3    0    0 -0.38584555236E+01  0.73911242347E+00  0.42291498228E+01  0.57723196972E+01  0.51100000000E-03 0.  1.
        -12    1    3    3    0    0 -0.14869067249E+02  0.21555407341E+02 -0.69958043043E+01  0.27104723285E+02  0.00000000000E+00 0.  1.
</event>
<event>
 7    1  0.3221417E-010  0.4778727E+02  0.7816164E-02  0.1312668E+00
        -11   -1    0    0    0    0  0.00000000000E+00  0.00000000000E+00  0.45593999997E+02  0.45594000000E+02  0.51100000000E-03 0. -1.
         11   -1    0    0    0    0 -0.00000000000E+00 -0.00000000000E+00 -0.45593999997E+02  0.45594000000E+02  0.51100000000E-03 0.  1.
    9900012    2    1    2    0    0  0.15816432036E+02  0.95680026215E+00 -0.40404804454E+02  0.47787271757E+02  0.20000003248E+02 0.  0.
         12    1    1    2    0    0 -0.15816432036E+02 -0.95680026215E+00  0.40404804454E+02  0.43400728243E+02  0.00000000000E+00 0. -1.
         11    1    3    3    0    0 -0.19542668304E+01  0.18012375811E+00 -0.34055283935E+01  0.39305505101E+01  0.51100000000E-03 0. -1.
        -11    1    3    3    0    0 -0.15071451173E+01 -0.32104474721E+01 -0.33878258217E+01  0.49046736319E+01  0.51100000000E-03 0.  1.
        -12    1    3    3    0    0  0.19277843984E+02  0.39871239762E+01 -0.33611450238E+02  0.38952047615E+02  0.00000000000E+00 0.  1.
</event>
<event>
 7    1  0.3221417E-010  0.4778727E+02  0.7816164E-02  0.1312668E+00
        -11   -1    0    0    0    0  0.00000000000E+00  0.00000000000E+00  0.45593999997E+02  0.45594000000E+02  0.51100000000E-03 0. -1.
         11   -1    0    0    0    0 -0.00000000000E+00 -0.00000000000E+00 -0.45593999997E+02  0.45594000000E+02  0.51100000000E-03 0.  1.
    9900012    2    1    2    0    0 -0.31681073210E+00 -0.82436169740E+01 -0.42609455974E+02  0.47787270418E+02  0.19999997146E+02 0.  0.
         12    1    1    2    0    0  0.31681073210E+00  0.82436169740E+01  0.42609455974E+02  0.43400729582E+02  0.00000000000E+00 0. -1.
         11    1    3    3    0    0 -0.31646606748E+01 -0.33160232906E+01 -0.18284374933E+02  0.18850184471E+02  0.51100000000E-03 0. -1.
        -11    1    3    3    0    0  0.68996200888E+01  0.94545051858E+00 -0.18362025433E+02  0.19638294536E+02  0.51100000000E-03 0.  1.
         12    1    3    3    0    0 -0.40517701461E+01 -0.58730442020E+01 -0.59630556078E+01  0.92987914105E+01  0.00000000000E+00 0. -1.
</event>
<event>
 7    1  0.3221417E-010  0.4778727E+02  0.7816164E-02  0.1312668E+00
        -11   -1    0    0    0    0  0.00000000000E+00  0.00000000000E+00  0.45593999997E+02  0.45594000000E+02  0.51100000000E-03 0. -1.
         11   -1    0    0    0    0 -0.00000000000E+00 -0.00000000000E+00 -0.45593999997E+02  0.45594000000E+02  0.51100000000E-03 0.  1.
    9900012    2    1    2    0    0 -0.12254064712E+02  0.22372113257E+02 -0.35113383443E+02  0.47787271315E+02  0.20000001235E+02 0.  0.
         12    1    1    2    0    0  0.12254064712E+02 -0.22372113257E+02  0.35113383443E+02  0.43400728685E+02  0.00000000000E+00 0. -1.
         11    1    3    3    0    0  0.39395129645E+01  0.72643424799E+00 -0.36786590387E+01  0.54387500124E+01  0.51100000000E-03 0. -1.
        -11    1    3    3    0    0 -0.76952902079E+01  0.43418445095E+01 -0.12663018318E+02  0.15440891759E+02  0.51100000000E-03 0.  1.
        -12    1    3    3    0    0 -0.84982874689E+01  0.17303834500E+02 -0.18771706086E+02  0.26907629544E+02  0.00000000000E+00 0.  1.
</event>
<event>
 7    1  0.3221417E-010  0.4778727E+02  0.7816164E-02  0.1312668E+00
        -11   -1    0    0    0    0  0.00000000000E+00  0.00000000000E+00  0.45593999997E+02  0.45594000000E+02  0.51100000000E-03 0. -1.
         11   -1    0    0    0    0 -0.00000000000E+00 -0.00000000000E+00 -0.45593999997E+02  0.45594000000E+02  0.51100000000E-03 0.  1.
    9900012    2    1    2    0    0 -0.21100174875E+01 -0.34593995999E+00 -0.43348025590E+02  0.47787272232E+02  0.20000005416E+02 0.  0.
         12    1    1    2    0    0  0.21100174875E+01  0.34593995999E+00  0.43348025590E+02  0.43400727768E+02  0.00000000000E+00 0. -1.
         11    1    3    3    0    0 -0.62290811928E+01 -0.29544061272E+01 -0.10530212819E+02  0.12586315995E+02  0.51100000000E-03 0. -1.
        -11    1    3    3    0    0  0.55779609585E+01 -0.26748636736E+01 -0.10207011728E+02  0.11935310335E+02  0.51100000000E-03 0.  1.
         12    1    3    3    0    0 -0.14588972533E+01  0.52833298408E+01 -0.22610801043E+02  0.23265645901E+02  0.00000000000E+00 0. -1.
</event>
<event>
 7    1  0.3221417E-010  0.4778727E+02  0.7816164E-02  0.1312668E+00
        -11   -1    0    0    0    0  0.00000000000E+00  0.00000000000E+00  0.45593999997E+02  0.45594000000E+02  0.51100000000E-03 0. -1.
         11   -1    0    0    0    0 -0.00000000000E+00 -0.00000000000E+00 -0.45593999997E+02  0.45594000000E+02  0.51100000000E-03 0.  1.
    9900012    2    1    2    0    0  0.36369909846E+02  0.11630688460E+02 -0.20629597465E+02  0.47787267889E+02  0.19999985612E+02 0.  0.
         12    1    1    2    0    0 -0.36369909846E+02 -0.11630688460E+02  0.20629597465E+02  0.43400732111E+02  0.00000000000E+00 0. -1.
         11    1    3    3    0    0  0.15544280298E+02 -0.10179850454E+01 -0.12033734677E+01  0.15623989616E+02  0.51100000000E-03 0. -1.
        -11    1    3    3    0    0  0.14711210365E+01  0.26378935100E+01 -0.55829701446E+01  0.63476164953E+01  0.51100000000E-03 0.  1.
        -12    1    3    3    0    0  0.19354508511E+02  0.10010779996E+02 -0.13843253852E+02  0.25815661778E+02  0.00000000000E+00 0.  1.
</event>
<event>
 7    1  0.3221417E-010  0.4778727E+02  0.7816164E-02  0.1312668E+00
        -11   -1    0    0    0    0  0.00000000000E+00  0.00000000000E+00  0.45593999997E+02  0.45594000000E+02  0.51100000000E-03 0. -1.
         11   -1    0    0    0    0 -0.00000000000E+00 -0.00000000000E+00 -0.45593999997E+02  0.45594000000E+02  0.51100000000E-03 0.  1.
    9900012    2    1    2    0    0  0.28451903835E+02 -0.22824787673E+01  0.32694075245E+02  0.47787273079E+02  0.20000009276E+02 0.  0.
        -12    1    1    2    0    0 -0.28451903835E+02  0.22824787673E+01 -0.32694075245E+02  0.43400726921E+02  0.00000000000E+00 0.  1.
         11    1    3    3    0    0  0.10736883236E+02 -0.12168408124E+01  0.19522929814E+02  0.22313810790E+02  0.51100000000E-03 0. -1.
        -11    1    3    3    0    0  0.10101457817E+02  0.56266041400E+01  0.57707680424E+01  0.12922843659E+02  0.51100000000E-03 0.  1.
        -12    1    3    3    0    0  0.76135627818E+01 -0.66922420950E+01  0.74003773882E+01  0.12550618629E+02  0.00000000000E+00 0.  1.
</event>
<event>
 7    1  0.3221417E-010  0.4778727E+02  0.7816164E-02  0.1312668E+00
        -11   -1    0    0    0    0  0.00000000000E+00  0.00000000000E+00  0.45593999997E+02  0.45594000000E+02  0.51100000000E-03 0. -1.
         11   -1    0    0    0    0 -0.00000000000E+00 -0.00000000000E+00 -0.45593999997E+02  0.45594000000E+02  0.51100000000E-03 0.  1.
    9900012    2    1    2    0    0  0.83807477378E+01 -0.99311758793E+01 -0.41409637224E+02  0.47787271412E+02  0.20000001675E+02 0.  0.
         12    1    1    2    0    0 -0.83807477378E+01  0.99311758793E+01  0.41409637224E+02  0.43400728588E+02  0.00000000000E+00 0. -1.
         11    1    3    3    0    0  0.81692539608E+01 -0.13012760366E+01 -0.16757709956E+02  0.18688254943E+02  0.51100000000E-03 0. -1.
        -11    1    3    3    0    0  0.54976329904E+01 -0.73846316198E+01 -0.10632129553E+02  0.14064100815E+02  0.51100000000E-03 0.  1.
         12    1    3    3    0    0 -0.52861392134E+01 -0.12452682229E+01 -0.14019797715E+02  0.15034915653E+02  0.00000000000E+00 0. -1.
</event>
<event>
 7    1  0.3221417E-010  0.4778727E+02  0.7816164E-02  0.1312668E+00
        -11   -1    0    0    0    0  0.00000000000E+00  0.00000000000E+00  0.45593999997E+02  0.45594000000E+02  0.51100000000E-03 0. -1.
         11   -1    0    0    0    0 -0.00000000000E+00 -0.00000000000E+00 -0.45593999997E+02  0.45594000000E+02  0.51100000000E-03 0.  1.
    9900012    2    1    2    0    0 -0.32703341944E+02 -0.12052927191E+02 -0.25861970654E+02  0.47787272422E+02  0.20000006283E+02 0.  0.
         12    1    1    2    0    0  0.32703341944E+02  0.12052927191E+02  0.25861970654E+02  0.43400727578E+02  0.00000000000E+00 0. -1.
         11    1    3    3    0    0  0.34457351144E+00  0.73679208390E+00  0.66609551323E+00  0.10513215367E+01  0.51100000000E-03 0. -1.
        -11    1    3    3    0    0 -0.33501573482E+02 -0.92795064173E+01 -0.22677531946E+02  0.41505844414E+02  0.51100000000E-03 0.  1.
        -12    1    3    3    0    0  0.45365802697E+00 -0.35102128580E+01 -0.38505342213E+01  0.52301064715E+01  0.00000000000E+00 0.  1.
</event>
<event>
 7    1  0.3221417E-010  0.4778727E+02  0.7816164E-02  0.1312668E+00
        -11   -1    0    0    0    0  0.00000000000E+00  0.00000000000E+00  0.45593999997E+02  0.45594000000E+02  0.51100000000E-03 0. -1.
         11   -1    0    0    0    0 -0.00000000000E+00 -0.00000000000E+00 -0.45593999997E+02  0.45594000000E+02  0.51100000000E-03 0.  1.
    9900012    2    1    2    0    0 -0.14471060231E+02  0.65885582456E+01 -0.40383196455E+02  0.47787271436E+02  0.20000001785E+02 0.  0.
         12    1    1    2    0    0  0.14471060231E+02 -0.65885582456E+01  0.40383196455E+02  0.43400728564E+02  0.00000000000E+00 0. -1.
         11    1    3    3    0    0  0.25243246383E+01  0.25991084431E+01 -0.20954902873E+01  0.41855297614E+01  0.51100000000E-03 0. -1.
        -11    1    3    3    0    0 -0.62345385648E+01 -0.32220163748E+01 -0.19964337361E+02  0.21161890916E+02  0.51100000000E-03 0.  1.
        -12    1    3    3    0    0 -0.10760846304E+02  0.72114661773E+01 -0.18323368807E+02  0.22439850758E+02  0.00000000000E+00 0.  1.
</event>
<event>
 7    1  0.3221417E-010  0.4778727E+02  0.7816164E-02  0.1312668E+00
        -11   -1    0    0    0    0  0.00000000000E+00  0.00000000000E+00  0.45593999997E+02  0.45594000000E+02  0.51100000000E-03 0. -1.
         11   -1    0    0    0    0 -0.00000000000E+00 -0.00000000000E+00 -0.45593999997E+02  0.45594000000E+02  0.51100000000E-03 0.  1.
    9900012    2    1    2    0    0  0.27465513563E+02 -0.31757715930E+02  0.10987087144E+02  0.47787273736E+02  0.20000012270E+02 0.  0.
        -12    1    1    2    0    0 -0.27465513563E+02  0.31757715930E+02 -0.10987087144E+02  0.43400726264E+02  0.00000000000E+00 0.  1.
         11    1    3    3    0    0  0.96616585805E+01 -0.59646708423E+01 -0.51380127336E+00  0.11366131127E+02  0.51100000000E-03 0.  1.
        -11    1    3    3    0    0  0.70491211708E+01 -0.17306650335E+02  0.12814116956E+02  0.22658593264E+02  0.51100000000E-03 0. -1.
         12    1    3    3    0    0  0.10754733812E+02 -0.84863947525E+01 -0.13132285388E+01  0.13762549344E+02  0.00000000000E+00 0. -1.
</event>
<event>
 7    1  0.3221417E-010  0.4778727E+02  0.7816164E-02  0.1312668E+00
        -11   -1    0    0    0    0  0.00000000000E+00  0.00000000000E+00  0.45593999997E+02  0.45594000000E+02  0.51100000000E-03 0. -1.
         11   -1    0    0    0    0 -0.00000000000E+00 -0.00000000000E+00 -0.45593999997E+02  0.45594000000E+02  0.51100000000E-03 0.  1.
    9900012    2    1    2    0    0  0.41267892111E+02 -0.47027205726E+01 -0.12588444101E+02  0.47787269304E+02  0.19999992066E+02 0.  0.
         12    1    1    2    0    0 -0.41267892111E+02  0.47027205726E+01  0.12588444101E+02  0.43400730696E+02  0.00000000000E+00 0. -1.
         11    1    3    3    0    0  0.14680513695E+02 -0.95664851153E+00 -0.64211074981E-01  0.14711790579E+02  0.51100000000E-03 0. -1.
        -11    1    3    3    0    0  0.22341750156E+02 -0.10370790696E+01 -0.15512982214E+02  0.27219146762E+02  0.51100000000E-03 0.  1.
        -12    1    3    3    0    0  0.42456282600E+01 -0.27089929915E+01  0.29887491883E+01  0.58563319629E+01  0.00000000000E+00 0.  1.
</event>
<event>
 7    1  0.3221417E-010  0.4778727E+02  0.7816164E-02  0.1312668E+00
        -11   -1    0    0    0    0  0.00000000000E+00  0.00000000000E+00  0.45593999997E+02  0.45594000000E+02  0.51100000000E-03 0. -1.
         11   -1    0    0    0    0 -0.00000000000E+00 -0.00000000000E+00 -0.45593999997E+02  0.45594000000E+02  0.51100000000E-03 0.  1.
    9900012    2    1    2    0    0 -0.68331593747E+01 -0.38849672838E+02  0.18100669355E+02  0.47787269848E+02  0.19999994544E+02 0.  0.
        -12    1    1    2    0    0  0.68331593747E+01  0.38849672838E+02 -0.18100669355E+02  0.43400730152E+02  0.00000000000E+00 0.  1.
         11    1    3    3    0    0 -0.20926023979E+01 -0.18251372545E+02  0.29840228901E+01  0.18611716134E+02  0.51100000000E-03 0. -1.
        -11    1    3    3    0    0 -0.12185962264E+01  0.59837731013E+00  0.54454399982E+01  0.56121162856E+01  0.51100000000E-03 0.  1.
         12    1    3    3    0    0 -0.35219607504E+01 -0.21196677603E+02  0.96712064665E+01  0.23563437428E+02  0.00000000000E+00 0. -1.
</event>
<event>
 7    1  0.3221417E-010  0.4778727E+02  0.7816164E-02  0.1312668E+00
        -11   -1    0    0    0    0  0.00000000000E+00  0.00000000000E+00  0.45593999997E+02  0.45594000000E+02  0.51100000000E-03 0.  1.
         11   -1    0    0    0    0 -0.00000000000E+00 -0.00000000000E+00 -0.45593999997E+02  0.45594000000E+02  0.51100000000E-03 0. -1.
    9900012    2    1    2    0    0  0.42799423737E+02 -0.53892092885E+01 -0.47737952089E+01  0.47787269941E+02  0.19999994970E+02 0.  0.
         12    1    1    2    0    0 -0.42799423737E+02  0.53892092885E+01  0.47737952089E+01  0.43400730059E+02  0.00000000000E+00 0. -1.
         11    1    3    3    0    0  0.22186549185E+02 -0.69945425248E+01  0.11957375173E+01  0.23293698254E+02  0.51100000000E-03 0. -1.
        -11    1    3    3    0    0  0.20027516346E+02  0.43424325124E+01 -0.35589494693E+01  0.20799621455E+02  0.51100000000E-03 0.  1.
         12    1    3    3    0    0  0.58535820576E+00 -0.27370992761E+01 -0.24105832569E+01  0.36939502318E+01  0.00000000000E+00 0. -1.
</event>
<event>
 7    1  0.3221417E-010  0.4778727E+02  0.7816164E-02  0.1312668E+00
        -11   -1    0    0    0    0  0.00000000000E+00  0.00000000000E+00  0.45593999997E+02  0.45594000000E+02  0.51100000000E-03 0. -1.
         11   -1    0    0    0    0 -0.00000000000E+00 -0.00000000000E+00 -0.45593999997E+02  0.45594000000E+02  0.51100000000E-03 0.  1.
    9900012    2    1    2    0    0 -0.18259175429E+01 -0.29107143413E+02 -0.32141311132E+02  0.47787266668E+02  0.19999980045E+02 0.  0.
         12    1    1    2    0    0  0.18259175429E+01  0.29107143413E+02  0.32141311132E+02  0.43400733332E+02  0.00000000000E+00 0. -1.
         11    1    3    3    0    0 -0.63389846781E+01 -0.11479383347E+02 -0.18542947467E+02  0.22711227836E+02  0.51100000000E-03 0.  1.
        -11    1    3    3    0    0 -0.27129218504E+01 -0.10040565405E+02 -0.50922687266E+01  0.11580332451E+02  0.51100000000E-03 0. -1.
         12    1    3    3    0    0  0.72259889856E+01 -0.75871946599E+01 -0.85060949379E+01  0.13495706381E+02  0.00000000000E+00 0. -1.
</event>
<event>
 7    1  0.3221417E-010  0.4778727E+02  0.7816164E-02  0.1312668E+00
        -11   -1    0    0    0    0  0.00000000000E+00  0.00000000000E+00  0.45593999997E+02  0.45594000000E+02  0.51100000000E-03 0. -1.
         11   -1    0    0    0    0 -0.00000000000E+00 -0.00000000000E+00 -0.45593999997E+02  0.45594000000E+02  0.51100000000E-03 0.  1.
    9900012    2    1    2    0    0 -0.33191350469E+01 -0.35388731560E+02 -0.24904704189E+02  0.47787271094E+02  0.20000000224E+02 0.  0.
         12    1    1    2    0    0  0.33191350469E+01  0.35388731560E+02  0.24904704189E+02  0.43400728906E+02  0.00000000000E+00 0. -1.
         11    1    3    3    0    0 -0.37264052671E+01 -0.13388821603E+02 -0.17481519019E+01  0.14007236539E+02  0.51100000000E-03 0. -1.
        -11    1    3    3    0    0 -0.11522780855E+01 -0.42354380720E+01  0.20011244405E+00  0.43939419317E+01  0.51100000000E-03 0.  1.
        -12    1    3    3    0    0  0.15595483057E+01 -0.17764471884E+02 -0.23356664731E+02  0.29386092622E+02  0.00000000000E+00 0.  1.
</event>
<event>
 7    1  0.3221417E-010  0.4778727E+02  0.7816164E-02  0.1312668E+00
        -11   -1    0    0    0    0  0.00000000000E+00  0.00000000000E+00  0.45593999997E+02  0.45594000000E+02  0.51100000000E-03 0. -1.
         11   -1    0    0    0    0 -0.00000000000E+00 -0.00000000000E+00 -0.45593999997E+02  0.45594000000E+02  0.51100000000E-03 0.  1.
    9900012    2    1    2    0    0  0.10946292730E+02 -0.13311591909E+02 -0.39832191857E+02  0.47787270607E+02  0.19999998008E+02 0.  0.
         12    1    1    2    0    0 -0.10946292730E+02  0.13311591909E+02  0.39832191857E+02  0.43400729393E+02  0.00000000000E+00 0. -1.
         11    1    3    3    0    0  0.21879456097E+01 -0.63314817052E+01 -0.44069349174E+01  0.80184688190E+01  0.51100000000E-03 0. -1.
        -11    1    3    3    0    0  0.91710834527E+01  0.11338793300E+01 -0.13267505016E+02  0.16168523237E+02  0.51100000000E-03 0.  1.
         12    1    3    3    0    0 -0.41273633269E+00 -0.81139895341E+01 -0.22157751923E+02  0.23600278552E+02  0.00000000000E+00 0. -1.
</event>
<event>
 7    1  0.3221417E-010  0.4778727E+02  0.7816164E-02  0.1312668E+00
        -11   -1    0    0    0    0  0.00000000000E+00  0.00000000000E+00  0.45593999997E+02  0.45594000000E+02  0.51100000000E-03 0.  1.
         11   -1    0    0    0    0 -0.00000000000E+00 -0.00000000000E+00 -0.45593999997E+02  0.45594000000E+02  0.51100000000E-03 0. -1.
    9900012    2    1    2    0    0 -0.20926196463E+02  0.34126233459E+02 -0.16766575139E+02  0.47787267859E+02  0.19999985476E+02 0.  0.
        -12    1    1    2    0    0  0.20926196463E+02 -0.34126233459E+02  0.16766575139E+02  0.43400732141E+02  0.00000000000E+00 0.  1.
         11    1    3    3    0    0 -0.55283941931E+01  0.21258111178E+02 -0.81050263296E+01  0.23412857264E+02  0.51100000000E-03 0. -1.
        -11    1    3    3    0    0  0.80860511137E+00  0.22880171421E+01 -0.36479168798E+01  0.43813425444E+01  0.51100000000E-03 0.  1.
         12    1    3    3    0    0 -0.16206407381E+02  0.10580105139E+02 -0.50136319301E+01  0.19993068050E+02  0.00000000000E+00 0. -1.
</event>
<event>
 7    1  0.3221417E-010  0.4778727E+02  0.7816164E-02  0.1312668E+00
        -11   -1    0    0    0    0  0.00000000000E+00  0.00000000000E+00  0.45593999997E+02  0.45594000000E+02  0.51100000000E-03 0. -1.
         11   -1    0    0    0    0 -0.00000000000E+00 -0.00000000000E+00 -0.45593999997E+02  0.45594000000E+02  0.51100000000E-03 0.  1.
    9900012    2    1    2    0    0  0.72039905809E+00 -0.24242945088E+02  0.35991441695E+02  0.47787271474E+02  0.20000001956E+02 0.  0.
        -12    1    1    2    0    0 -0.72039905809E+00  0.24242945088E+02 -0.35991441695E+02  0.43400728526E+02  0.00000000000E+00 0.  1.
         11    1    3    3    0    0  0.20701938426E+01 -0.17582474271E+02  0.14769249080E+02  0.23055581161E+02  0.51100000000E-03 0. -1.
        -11    1    3    3    0    0 -0.48603624471E+01 -0.76144819523E+01  0.14365699308E+02  0.16969878473E+02  0.51100000000E-03 0.  1.
        -12    1    3    3    0    0  0.35105676626E+01  0.95401113522E+00  0.68564933069E+01  0.77618118392E+01  0.00000000000E+00 0.  1.
</event>
<event>
 7    1  0.3221417E-010  0.4778727E+02  0.7816164E-02  0.1312668E+00
        -11   -1    0    0    0    0  0.00000000000E+00  0.00000000000E+00  0.45593999997E+02  0.45594000000E+02  0.51100000000E-03 0. -1.
         11   -1    0    0    0    0 -0.00000000000E+00 -0.00000000000E+00 -0.45593999997E+02  0.45594000000E+02  0.51100000000E-03 0.  1.
    9900012    2    1    2    0    0 -0.12796962344E+02 -0.32531675247E+02  0.25720634511E+02  0.47787272134E+02  0.20000004969E+02 0.  0.
        -12    1    1    2    0    0  0.12796962344E+02  0.32531675247E+02 -0.25720634511E+02  0.43400727866E+02  0.00000000000E+00 0.  1.
         11    1    3    3    0    0 -0.60118448467E+01 -0.20245097630E+02  0.14671730453E+02  0.25715091507E+02  0.51100000000E-03 0. -1.
        -11    1    3    3    0    0  0.37739268983E+01 -0.23218840666E+01  0.14287571275E+01  0.46556435692E+01  0.51100000000E-03 0.  1.
         12    1    3    3    0    0 -0.10559044395E+02 -0.99646935509E+01  0.96201469311E+01  0.17416537058E+02  0.00000000000E+00 0. -1.
</event>
<event>
 7    1  0.3221417E-010  0.4778727E+02  0.7816164E-02  0.1312668E+00
        -11   -1    0    0    0    0  0.00000000000E+00  0.00000000000E+00  0.45593999997E+02  0.45594000000E+02  0.51100000000E-03 0. -1.
         11   -1    0    0    0    0 -0.00000000000E+00 -0.00000000000E+00 -0.45593999997E+02  0.45594000000E+02  0.51100000000E-03 0.  1.
    9900012    2    1    2    0    0 -0.36628194384E+02  0.63463097143E+01  0.22399169485E+02  0.47787273457E+02  0.20000011001E+02 0.  0.
        -12    1    1    2    0    0  0.36628194384E+02 -0.63463097143E+01 -0.22399169485E+02  0.43400726543E+02  0.00000000000E+00 0.  1.
         11    1    3    3    0    0 -0.10283933349E+02 -0.30880878503E+01  0.33272456368E+01  0.11241269300E+02  0.51100000000E-03 0. -1.
        -11    1    3    3    0    0 -0.35471262517E+01  0.52889141772E+01  0.95859251255E+01  0.11508461174E+02  0.51100000000E-03 0.  1.
        -12    1    3    3    0    0 -0.22797134784E+02  0.41454833874E+01  0.94859987223E+01  0.25037542983E+02  0.00000000000E+00 0.  1.
</event>
<event>
 7    1  0.3221417E-010  0.4778727E+02  0.7816164E-02  0.1312668E+00
        -11   -1    0    0    0    0  0.00000000000E+00  0.00000000000E+00  0.45593999997E+02  0.45594000000E+02  0.51100000000E-03 0. -1.
         11   -1    0    0    0    0 -0.00000000000E+00 -0.00000000000E+00 -0.45593999997E+02  0.45594000000E+02  0.51100000000E-03 0.  1.
    9900012    2    1    2    0    0  0.20430760379E+02  0.23926270564E+02  0.29895500334E+02  0.47787270364E+02  0.19999996897E+02 0.  0.
        -12    1    1    2    0    0 -0.20430760379E+02 -0.23926270564E+02 -0.29895500334E+02  0.43400729636E+02  0.00000000000E+00 0.  1.
         11    1    3    3    0    0  0.15200387103E+02  0.18607942262E+02  0.24250764099E+02  0.34138055641E+02  0.51100000000E-03 0. -1.
        -11    1    3    3    0    0  0.58020227799E+00 -0.16023604995E+01 -0.17947006170E+01  0.24749029111E+01  0.51100000000E-03 0.  1.
        -12    1    3    3    0    0  0.46501709975E+01  0.69206888015E+01  0.74394368519E+01  0.11174311812E+02  0.00000000000E+00 0.  1.
</event>
<event>
 7    1  0.3221417E-010  0.4778727E+02  0.7816164E-02  0.1312668E+00
        -11   -1    0    0    0    0  0.00000000000E+00  0.00000000000E+00  0.45593999997E+02  0.45594000000E+02  0.51100000000E-03 0. -1.
         11   -1    0    0    0    0 -0.00000000000E+00 -0.00000000000E+00 -0.45593999997E+02  0.45594000000E+02  0.51100000000E-03 0.  1.
    9900012    2    1    2    0    0 -0.53769525340E+01  0.40993175612E+02  0.13201184209E+02  0.47787270400E+02  0.19999997063E+02 0.  0.
        -12    1    1    2    0    0  0.53769525340E+01 -0.40993175612E+02 -0.13201184209E+02  0.43400729600E+02  0.00000000000E+00 0.  1.
         11    1    3    3    0    0 -0.64794925524E+01  0.24073533278E+02  0.43283878563E+01  0.25303236353E+02  0.51100000000E-03 0. -1.
        -11    1    3    3    0    0 -0.29078594344E+01 -0.12599644254E+00  0.13429034727E+00  0.29136842231E+01  0.51100000000E-03 0.  1.
        -12    1    3    3    0    0  0.40103994528E+01  0.17045638776E+02  0.87385060050E+01  0.19570349824E+02  0.00000000000E+00 0.  1.
</event>
<event>
 7    1  0.3221417E-010  0.4778726E+02  0.7816164E-02  0.1312668E+00
        -11   -1    0    0    0    0  0.00000000000E+00  0.00000000000E+00  0.45593999997E+02  0.45594000000E+02  0.51100000000E-03 0. -1.
         11   -1    0    0    0    0 -0.00000000000E+00 -0.00000000000E+00 -0.45593999997E+02  0.45594000000E+02  0.51100000000E-03 0.  1.
    9900012    2    1    2    0    0 -0.34454474592E+02  0.22213554603E+02 -0.14250303435E+02  0.47787262961E+02  0.19999963143E+02 0.  0.
         12    1    1    2    0    0  0.34454474592E+02 -0.22213554603E+02  0.14250303435E+02  0.43400737039E+02  0.00000000000E+00 0. -1.
         11    1    3    3    0    0 -0.28969285061E+01 -0.14749157046E+01 -0.22161810475E+01  0.39343398178E+01  0.51100000000E-03 0. -1.
        -11    1    3    3    0    0 -0.23945879091E+02  0.20748232348E+02 -0.15147979517E+02  0.35119162215E+02  0.51100000000E-03 0.  1.
         12    1    3    3    0    0 -0.76116669958E+01  0.29402379600E+01  0.31138571296E+01  0.87337609275E+01  0.00000000000E+00 0. -1.
</event>
<event>
 7    1  0.3221417E-010  0.4778727E+02  0.7816164E-02  0.1312668E+00
        -11   -1    0    0    0    0  0.00000000000E+00  0.00000000000E+00  0.45593999997E+02  0.45594000000E+02  0.51100000000E-03 0. -1.
         11   -1    0    0    0    0 -0.00000000000E+00 -0.00000000000E+00 -0.45593999997E+02  0.45594000000E+02  0.51100000000E-03 0.  1.
    9900012    2    1    2    0    0  0.26412617893E+02  0.17466152079E+02  0.29680479672E+02  0.47787265836E+02  0.19999976252E+02 0.  0.
        -12    1    1    2    0    0 -0.26412617893E+02 -0.17466152079E+02 -0.29680479672E+02  0.43400734164E+02  0.00000000000E+00 0.  1.
         11    1    3    3    0    0  0.11449100502E+02  0.13891906868E+01  0.92416565484E+01  0.14779038165E+02  0.51100000000E-03 0. -1.
        -11    1    3    3    0    0  0.38720282626E+01  0.84501312454E+01  0.97881561141E+00  0.93464111398E+01  0.51100000000E-03 0.  1.
         12    1    3    3    0    0  0.11091489129E+02  0.76268301469E+01  0.19460007512E+02  0.23661816531E+02  0.00000000000E+00 0. -1.
</event>
<event>
 7    1  0.3221417E-010  0.4778727E+02  0.7816164E-02  0.1312668E+00
        -11   -1    0    0    0    0  0.00000000000E+00  0.00000000000E+00  0.45593999997E+02  0.45594000000E+02  0.51100000000E-03 0. -1.
         11   -1    0    0    0    0 -0.00000000000E+00 -0.00000000000E+00 -0.45593999997E+02  0.45594000000E+02  0.51100000000E-03 0.  1.
    9900012    2    1    2    0    0  0.20743547278E+02  0.23244096098E+02  0.30216563165E+02  0.47787269055E+02  0.19999990928E+02 0.  0.
        -12    1    1    2    0    0 -0.20743547278E+02 -0.23244096098E+02 -0.30216563165E+02  0.43400730945E+02  0.00000000000E+00 0.  1.
         11    1    3    3    0    0  0.11222739325E+02  0.85892279047E+01  0.20368202265E+02  0.24790893040E+02  0.51100000000E-03 0. -1.
        -11    1    3    3    0    0 -0.12908960056E+01 -0.94710747116E+00 -0.22690230154E-01  0.16012308287E+01  0.51100000000E-03 0.  1.
         12    1    3    3    0    0  0.10811703958E+02  0.15601975665E+02  0.98710511303E+01  0.21395145186E+02  0.00000000000E+00 0. -1.
</event>
<event>
 7    1  0.3221417E-010  0.4778727E+02  0.7816164E-02  0.1312668E+00
        -11   -1    0    0    0    0  0.00000000000E+00  0.00000000000E+00  0.45593999997E+02  0.45594000000E+02  0.51100000000E-03 0. -1.
         11   -1    0    0    0    0 -0.00000000000E+00 -0.00000000000E+00 -0.45593999997E+02  0.45594000000E+02  0.51100000000E-03 0.  1.
    9900012    2    1    2    0    0  0.24360128982E+02  0.80374086538E+01  0.35008681774E+02  0.47787267040E+02  0.19999981742E+02 0.  0.
        -12    1    1    2    0    0 -0.24360128982E+02 -0.80374086538E+01 -0.35008681774E+02  0.43400732960E+02  0.00000000000E+00 0.  1.
         11    1    3    3    0    0  0.98221303141E+01  0.10474487398E+02  0.23943932336E+02  0.27919545593E+02  0.51100000000E-03 0. -1.
        -11    1    3    3    0    0  0.33268325739E+01  0.25226268290E+01  0.36132777174E+01  0.55215248996E+01  0.51100000000E-03 0.  1.
        -12    1    3    3    0    0  0.11211166094E+02 -0.49597055731E+01  0.74514717204E+01  0.14346196547E+02  0.00000000000E+00 0.  1.
</event>
<event>
 7    1  0.3221417E-010  0.4778727E+02  0.7816164E-02  0.1312668E+00
        -11   -1    0    0    0    0  0.00000000000E+00  0.00000000000E+00  0.45593999997E+02  0.45594000000E+02  0.51100000000E-03 0. -1.
         11   -1    0    0    0    0 -0.00000000000E+00 -0.00000000000E+00 -0.45593999997E+02  0.45594000000E+02  0.51100000000E-03 0.  1.
    9900012    2    1    2    0    0 -0.93749274197E+01  0.23356036535E+02  0.35358587695E+02  0.47787269239E+02  0.19999991770E+02 0.  0.
        -12    1    1    2    0    0  0.93749274197E+01 -0.23356036535E+02 -0.35358587695E+02  0.43400730761E+02  0.00000000000E+00 0.  1.
         11    1    3    3    0    0 -0.14958628772E+00  0.33771970278E+01  0.15044341047E+02  0.15419469304E+02  0.51100000000E-03 0. -1.
        -11    1    3    3    0    0  0.13697003023E+00  0.11303759793E+02  0.48091352826E+01  0.12285012360E+02  0.51100000000E-03 0.  1.
        -12    1    3    3    0    0 -0.93623111622E+01  0.86750797141E+01  0.15505111366E+02  0.20082787576E+02  0.00000000000E+00 0.  1.
</event>
<event>
 7    1  0.3221417E-010  0.4778728E+02  0.7816164E-02  0.1312668E+00
        -11   -1    0    0    0    0  0.00000000000E+00  0.00000000000E+00  0.45593999997E+02  0.45594000000E+02  0.51100000000E-03 0. -1.
         11   -1    0    0    0    0 -0.00000000000E+00 -0.00000000000E+00 -0.45593999997E+02  0.45594000000E+02  0.51100000000E-03 0.  1.
    9900012    2    1    2    0    0 -0.17232807724E+02  0.23099942309E+02 -0.32450664088E+02  0.47787278848E+02  0.20000035579E+02 0.  0.
         12    1    1    2    0    0  0.17232807724E+02 -0.23099942309E+02  0.32450664088E+02  0.43400721152E+02  0.00000000000E+00 0. -1.
         11    1    3    3    0    0 -0.67179409876E+01 -0.92414170095E+00 -0.65403477134E+01  0.94213012621E+01  0.51100000000E-03 0. -1.
        -11    1    3    3    0    0  0.15702893501E+01  0.65183884686E+01 -0.88190923809E+01  0.11078428930E+02  0.51100000000E-03 0.  1.
        -12    1    3    3    0    0 -0.12085156087E+02  0.17505695542E+02 -0.17091223994E+02  0.27287548656E+02  0.00000000000E+00 0.  1.
</event>
<event>
 7    1  0.3221417E-010  0.4778727E+02  0.7816164E-02  0.1312668E+00
        -11   -1    0    0    0    0  0.00000000000E+00  0.00000000000E+00  0.45593999997E+02  0.45594000000E+02  0.51100000000E-03 0.  1.
         11   -1    0    0    0    0 -0.00000000000E+00 -0.00000000000E+00 -0.45593999997E+02  0.45594000000E+02  0.51100000000E-03 0. -1.
    9900012    2    1    2    0    0 -0.21628811749E+02  0.60680461147E+01  0.37134848209E+02  0.47787266910E+02  0.19999981148E+02 0.  0.
        -12    1    1    2    0    0  0.21628811749E+02 -0.60680461147E+01 -0.37134848209E+02  0.43400733090E+02  0.00000000000E+00 0.  1.
         11    1    3    3    0    0 -0.12791990486E+02 -0.84829725227E+00  0.14149690157E+02  0.19093673314E+02  0.51100000000E-03 0. -1.
        -11    1    3    3    0    0  0.12283260243E+01  0.88504970081E+00 -0.11206750027E+01  0.18836163404E+01  0.51100000000E-03 0.  1.
         12    1    3    3    0    0 -0.10065147287E+02  0.60312936661E+01  0.24105833054E+02  0.26809977255E+02  0.00000000000E+00 0. -1.
</event>
<event>
 7    1  0.3489002E-010  0.4778727E+02  0.7816164E-02  0.1312668E+00
        -11   -1    0    0    0    0  0.00000000000E+00  0.00000000000E+00  0.45593999997E+02  0.45594000000E+02  0.51100000000E-03 0. -1.
         11   -1    0    0    0    0 -0.00000000000E+00 -0.00000000000E+00 -0.45593999997E+02  0.45594000000E+02  0.51100000000E-03 0.  1.
    9900012    2    1    2    0    0  0.30623616327E+01 -0.33580737021E+01 -0.43162122069E+02  0.47787268448E+02  0.19999988162E+02 0.  0.
         12    1    1    2    0    0 -0.30623616327E+01  0.33580737021E+01  0.43162122069E+02  0.43400731552E+02  0.00000000000E+00 0. -1.
         11    1    3    3    0    0 -0.10772493172E+01 -0.33047136022E+01 -0.96857466471E+00  0.36082870210E+01  0.51100000000E-03 0. -1.
        -11    1    3    3    0    0 -0.35656607255E+01  0.16916320372E+00 -0.26004844219E+02  0.26248704267E+02  0.51100000000E-03 0.  1.
         12    1    3    3    0    0  0.77052716753E+01 -0.22252330370E+00 -0.16188703185E+02  0.17930277160E+02  0.00000000000E+00 0. -1.
</event>
<event>
 7    1  0.3221417E-010  0.4778728E+02  0.7816164E-02  0.1312668E+00
        -11   -1    0    0    0    0  0.00000000000E+00  0.00000000000E+00  0.45593999997E+02  0.45594000000E+02  0.51100000000E-03 0. -1.
         11   -1    0    0    0    0 -0.00000000000E+00 -0.00000000000E+00 -0.45593999997E+02  0.45594000000E+02  0.51100000000E-03 0.  1.
    9900012    2    1    2    0    0  0.40046564200E+01  0.45375816042E+00  0.43213188104E+02  0.47787276554E+02  0.20000025120E+02 0.  0.
        -12    1    1    2    0    0 -0.40046564200E+01 -0.45375816042E+00 -0.43213188104E+02  0.43400723446E+02  0.00000000000E+00 0.  1.
         11    1    3    3    0    0 -0.37493679010E+01 -0.29989024100E+01  0.25495040786E+02  0.25943174059E+02  0.51100000000E-03 0. -1.
        -11    1    3    3    0    0  0.59201034457E+01  0.37352448510E+01  0.18537932736E+02  0.19815514863E+02  0.51100000000E-03 0.  1.
        -12    1    3    3    0    0  0.18339208753E+01 -0.28258428063E+00 -0.81978541698E+00  0.20285876324E+01  0.00000000000E+00 0.  1.
</event>
<event>
 7    1  0.3221417E-010  0.4778727E+02  0.7816164E-02  0.1312668E+00
        -11   -1    0    0    0    0  0.00000000000E+00  0.00000000000E+00  0.45593999997E+02  0.45594000000E+02  0.51100000000E-03 0. -1.
         11   -1    0    0    0    0 -0.00000000000E+00 -0.00000000000E+00 -0.45593999997E+02  0.45594000000E+02  0.51100000000E-03 0.  1.
    9900012    2    1    2    0    0  0.13560035100E+02  0.48070120690E+01 -0.40946812622E+02  0.47787269812E+02  0.19999994382E+02 0.  0.
         12    1    1    2    0    0 -0.13560035100E+02 -0.48070120690E+01  0.40946812622E+02  0.43400730188E+02  0.00000000000E+00 0. -1.
         11    1    3    3    0    0 -0.46011976770E+01  0.14735439980E+01 -0.68212827380E+01  0.83589622818E+01  0.51100000000E-03 0. -1.
        -11    1    3    3    0    0  0.80035803283E+01 -0.16243007490E+00 -0.20957139855E+02  0.22434023107E+02  0.51100000000E-03 0.  1.
        -12    1    3    3    0    0  0.10157652449E+02  0.34958981458E+01 -0.13168390028E+02  0.16994284423E+02  0.00000000000E+00 0.  1.
</event>
<event>
 7    1  0.3221417E-010  0.4778727E+02  0.7816164E-02  0.1312668E+00
        -11   -1    0    0    0    0  0.00000000000E+00  0.00000000000E+00  0.45593999997E+02  0.45594000000E+02  0.51100000000E-03 0. -1.
         11   -1    0    0    0    0 -0.00000000000E+00 -0.00000000000E+00 -0.45593999997E+02  0.45594000000E+02  0.51100000000E-03 0.  1.
    9900012    2    1    2    0    0 -0.52166809480E+01  0.31806775267E+02  0.29064385471E+02  0.47787271713E+02  0.20000003050E+02 0.  0.
        -12    1    1    2    0    0  0.52166809480E+01 -0.31806775267E+02 -0.29064385471E+02  0.43400728287E+02  0.00000000000E+00 0.  1.
         11    1    3    3    0    0  0.13646421283E+01  0.79467361112E+01  0.66797029971E+01  0.10470496423E+02  0.51100000000E-03 0. -1.
        -11    1    3    3    0    0 -0.92794545060E+01  0.48389351062E+01  0.59744262716E+01  0.12050615687E+02  0.51100000000E-03 0.  1.
        -12    1    3    3    0    0  0.26981314296E+01  0.19021104050E+02  0.16410256202E+02  0.25266159603E+02  0.00000000000E+00 0.  1.
</event>
<event>
 7    1  0.3221417E-010  0.4778727E+02  0.7816164E-02  0.1312668E+00
        -11   -1    0    0    0    0  0.00000000000E+00  0.00000000000E+00  0.45593999997E+02  0.45594000000E+02  0.51100000000E-03 0. -1.
         11   -1    0    0    0    0 -0.00000000000E+00 -0.00000000000E+00 -0.45593999997E+02  0.45594000000E+02  0.51100000000E-03 0.  1.
    9900012    2    1    2    0    0  0.18249225900E+02 -0.23283992649E+02  0.31756015079E+02  0.47787273585E+02  0.20000011585E+02 0.  0.
        -12    1    1    2    0    0 -0.18249225900E+02  0.23283992649E+02 -0.31756015079E+02  0.43400726415E+02  0.00000000000E+00 0.  1.
         11    1    3    3    0    0  0.15578092568E+02 -0.20432766603E+02  0.29099223025E+02  0.38819321221E+02  0.51100000000E-03 0. -1.
        -11    1    3    3    0    0 -0.25106943419E+01 -0.21424932461E+01  0.14233106521E+01  0.35943952011E+01  0.51100000000E-03 0.  1.
        -12    1    3    3    0    0  0.51818276739E+01 -0.70873280016E+00  0.12334814018E+01  0.53735571638E+01  0.00000000000E+00 0.  1.
</event>
<event>
 7    1  0.3221417E-010  0.4778728E+02  0.7816164E-02  0.1312668E+00
        -11   -1    0    0    0    0  0.00000000000E+00  0.00000000000E+00  0.45593999997E+02  0.45594000000E+02  0.51100000000E-03 0. -1.
         11   -1    0    0    0    0 -0.00000000000E+00 -0.00000000000E+00 -0.45593999997E+02  0.45594000000E+02  0.51100000000E-03 0.  1.
    9900012    2    1    2    0    0 -0.16265251865E+02  0.33871365851E+02  0.21720838595E+02  0.47787277977E+02  0.20000031608E+02 0.  0.
        -12    1    1    2    0    0  0.16265251865E+02 -0.33871365851E+02 -0.21720838595E+02  0.43400722023E+02  0.00000000000E+00 0.  1.
         11    1    3    3    0    0 -0.68203751507E+01  0.30151846732E+02  0.18772342804E+02  0.36167004758E+02  0.51100000000E-03 0. -1.
        -11    1    3    3    0    0 -0.67362166245E+01  0.44361956793E+01  0.83139007505E+00  0.81084928461E+01  0.51100000000E-03 0.  1.
        -12    1    3    3    0    0 -0.27086600898E+01 -0.71667656053E+00  0.21171057165E+01  0.35117803731E+01  0.00000000000E+00 0.  1.
</event>
<event>
 7    1  0.3221417E-010  0.4778728E+02  0.7816164E-02  0.1312668E+00
        -11   -1    0    0    0    0  0.00000000000E+00  0.00000000000E+00  0.45593999997E+02  0.45594000000E+02  0.51100000000E-03 0. -1.
         11   -1    0    0    0    0 -0.00000000000E+00 -0.00000000000E+00 -0.45593999997E+02  0.45594000000E+02  0.51100000000E-03 0.  1.
    9900012    2    1    2    0    0 -0.35813549816E+02  0.10705334136E+02  0.22054667142E+02  0.47787275673E+02  0.20000021101E+02 0.  0.
        -12    1    1    2    0    0  0.35813549816E+02 -0.10705334136E+02 -0.22054667142E+02  0.43400724327E+02  0.00000000000E+00 0.  1.
         11    1    3    3    0    0 -0.11742811673E+00  0.42094231090E+01  0.26265349783E+01  0.49630352131E+01  0.51100000000E-03 0. -1.
        -11    1    3    3    0    0 -0.18434185061E+02  0.48348232388E+01  0.37020374828E+01  0.19413906778E+02  0.51100000000E-03 0.  1.
        -12    1    3    3    0    0 -0.17261936639E+02  0.16610877880E+01  0.15726094681E+02  0.23410333682E+02  0.00000000000E+00 0.  1.
</event>
<event>
 7    1  0.3221417E-010  0.4778727E+02  0.7816164E-02  0.1312668E+00
        -11   -1    0    0    0    0  0.00000000000E+00  0.00000000000E+00  0.45593999997E+02  0.45594000000E+02  0.51100000000E-03 0. -1.
         11   -1    0    0    0    0 -0.00000000000E+00 -0.00000000000E+00 -0.45593999997E+02  0.45594000000E+02  0.51100000000E-03 0.  1.
    9900012    2    1    2    0    0  0.20488901839E+02  0.29937589220E+01 -0.38142704552E+02  0.47787267269E+02  0.19999982787E+02 0.  0.
         12    1    1    2    0    0 -0.20488901839E+02 -0.29937589220E+01  0.38142704552E+02  0.43400732731E+02  0.00000000000E+00 0. -1.
         11    1    3    3    0    0  0.34849883441E+00  0.16768592087E+01  0.11514798644E+01  0.20637864189E+01  0.51100000000E-03 0. -1.
        -11    1    3    3    0    0  0.94370265734E+01 -0.50615097694E+01 -0.15132452061E+02  0.18538270074E+02  0.51100000000E-03 0.  1.
        -12    1    3    3    0    0  0.10703376432E+02  0.63784094827E+01 -0.24161732355E+02  0.27185210777E+02  0.00000000000E+00 0.  1.
</event>
<event>
 7    1  0.3221417E-010  0.4778727E+02  0.7816164E-02  0.1312668E+00
        -11   -1    0    0    0    0  0.00000000000E+00  0.00000000000E+00  0.45593999997E+02  0.45594000000E+02  0.51100000000E-03 0. -1.
         11   -1    0    0    0    0 -0.00000000000E+00 -0.00000000000E+00 -0.45593999997E+02  0.45594000000E+02  0.51100000000E-03 0.  1.
    9900012    2    1    2    0    0 -0.51324860305E+01  0.33292425373E+02 -0.27365950017E+02  0.47787271661E+02  0.20000002809E+02 0.  0.
         12    1    1    2    0    0  0.51324860305E+01 -0.33292425373E+02  0.27365950017E+02  0.43400728339E+02  0.00000000000E+00 0. -1.
         11    1    3    3    0    0 -0.56473522005E+01  0.14166512626E+02 -0.18974731625E+02  0.24343851532E+02  0.51100000000E-03 0. -1.
        -11    1    3    3    0    0 -0.26601630682E+00  0.10014814137E+02 -0.10003826858E+02  0.14157818297E+02  0.51100000000E-03 0.  1.
         12    1    3    3    0    0  0.78088247683E+00  0.91110986097E+01  0.16126084661E+01  0.92856018320E+01  0.00000000000E+00 0. -1.
</event>
<event>
 7    1  0.3221417E-010  0.4778727E+02  0.7816164E-02  0.1312668E+00
        -11   -1    0    0    0    0  0.00000000000E+00  0.00000000000E+00  0.45593999997E+02  0.45594000000E+02  0.51100000000E-03 0. -1.
         11   -1    0    0    0    0 -0.00000000000E+00 -0.00000000000E+00 -0.45593999997E+02  0.45594000000E+02  0.51100000000E-03 0.  1.
    9900012    2    1    2    0    0  0.10728446791E+02 -0.22228034808E+01 -0.41995035599E+02  0.47787269121E+02  0.19999991231E+02 0.  0.
         12    1    1    2    0    0 -0.10728446791E+02  0.22228034808E+01  0.41995035599E+02  0.43400730879E+02  0.00000000000E+00 0. -1.
         11    1    3    3    0    0  0.19414036433E+01 -0.10816317212E+01 -0.14157860845E+02  0.14331224625E+02  0.51100000000E-03 0. -1.
        -11    1    3    3    0    0 -0.29866523071E+01  0.13570964339E+01 -0.16827426254E+02  0.17144214107E+02  0.51100000000E-03 0.  1.
         12    1    3    3    0    0  0.11773695455E+02 -0.24982681935E+01 -0.11009748500E+02  0.16311830389E+02  0.00000000000E+00 0. -1.
</event>
<event>
 7    1  0.3221417E-010  0.4778727E+02  0.7816164E-02  0.1312668E+00
        -11   -1    0    0    0    0  0.00000000000E+00  0.00000000000E+00  0.45593999997E+02  0.45594000000E+02  0.51100000000E-03 0. -1.
         11   -1    0    0    0    0 -0.00000000000E+00 -0.00000000000E+00 -0.45593999997E+02  0.45594000000E+02  0.51100000000E-03 0.  1.
    9900012    2    1    2    0    0  0.13694202432E+02  0.20430555778E+02  0.35758698151E+02  0.47787270938E+02  0.19999999514E+02 0.  0.
        -12    1    1    2    0    0 -0.13694202432E+02 -0.20430555778E+02 -0.35758698151E+02  0.43400729062E+02  0.00000000000E+00 0.  1.
         11    1    3    3    0    0  0.12826789827E+02  0.21725633560E+02  0.30680883299E+02  0.39722113377E+02  0.51100000000E-03 0. -1.
        -11    1    3    3    0    0 -0.19596432153E+01  0.81726751110E+00  0.37212075236E+01  0.42843334850E+01  0.51100000000E-03 0.  1.
         12    1    3    3    0    0  0.28270558204E+01 -0.21123452931E+01  0.13566073285E+01  0.37808240759E+01  0.00000000000E+00 0. -1.
</event>
<event>
 7    1  0.3221417E-010  0.4778727E+02  0.7816164E-02  0.1312668E+00
        -11   -1    0    0    0    0  0.00000000000E+00  0.00000000000E+00  0.45593999997E+02  0.45594000000E+02  0.51100000000E-03 0. -1.
         11   -1    0    0    0    0 -0.00000000000E+00 -0.00000000000E+00 -0.45593999997E+02  0.45594000000E+02  0.51100000000E-03 0.  1.
    9900012    2    1    2    0    0  0.19661610932E+02  0.25213288623E+02  0.29348497059E+02  0.47787272504E+02  0.20000006653E+02 0.  0.
        -12    1    1    2    0    0 -0.19661610932E+02 -0.25213288623E+02 -0.29348497059E+02  0.43400727496E+02  0.00000000000E+00 0.  1.
         11    1    3    3    0    0  0.13287256798E+02  0.15010507694E+02  0.17231450868E+02  0.26434625659E+02  0.51100000000E-03 0. -1.
        -11    1    3    3    0    0  0.58413742993E+01 -0.87894464562E+00  0.17315175947E+01  0.61556763102E+01  0.51100000000E-03 0.  1.
         12    1    3    3    0    0  0.53297983432E+00  0.11081725574E+02  0.10385528596E+02  0.15196970534E+02  0.00000000000E+00 0. -1.
</event>
<event>
 7    1  0.3221417E-010  0.4778727E+02  0.7816164E-02  0.1312668E+00
        -11   -1    0    0    0    0  0.00000000000E+00  0.00000000000E+00  0.45593999997E+02  0.45594000000E+02  0.51100000000E-03 0. -1.
         11   -1    0    0    0    0 -0.00000000000E+00 -0.00000000000E+00 -0.45593999997E+02  0.45594000000E+02  0.51100000000E-03 0.  1.
    9900012    2    1    2    0    0 -0.22133383907E+02 -0.26471610462E+02 -0.26324712297E+02  0.47787270500E+02  0.19999997516E+02 0.  0.
         12    1    1    2    0    0  0.22133383907E+02  0.26471610462E+02  0.26324712297E+02  0.43400729500E+02  0.00000000000E+00 0. -1.
         11    1    3    3    0    0 -0.83839633515E+01 -0.42637833188E+00 -0.42057898184E+01  0.93894253402E+01  0.51100000000E-03 0. -1.
        -11    1    3    3    0    0  0.15631922039E+01 -0.57093951476E+01 -0.45804046748E+01  0.74847090835E+01  0.51100000000E-03 0.  1.
        -12    1    3    3    0    0 -0.15312612759E+02 -0.20335836983E+02 -0.17538517804E+02  0.30913136076E+02  0.00000000000E+00 0.  1.
</event>
<event>
 7    1  0.3221417E-010  0.4778727E+02  0.7816164E-02  0.1312668E+00
        -11   -1    0    0    0    0  0.00000000000E+00  0.00000000000E+00  0.45593999997E+02  0.45594000000E+02  0.51100000000E-03 0. -1.
         11   -1    0    0    0    0 -0.00000000000E+00 -0.00000000000E+00 -0.45593999997E+02  0.45594000000E+02  0.51100000000E-03 0.  1.
    9900012    2    1    2    0    0 -0.11927011156E+02 -0.78387676432E+01 -0.40986869765E+02  0.47787269979E+02  0.19999995140E+02 0.  0.
         12    1    1    2    0    0  0.11927011156E+02  0.78387676432E+01  0.40986869765E+02  0.43400730021E+02  0.00000000000E+00 0. -1.
         11    1    3    3    0    0 -0.21533995625E+01 -0.10121607150E+01  0.22025213368E+00  0.23895836985E+01  0.51100000000E-03 0. -1.
        -11    1    3    3    0    0  0.20130564964E+00 -0.73098983503E+01 -0.27389888850E+02  0.28349270702E+02  0.51100000000E-03 0.  1.
        -12    1    3    3    0    0 -0.99749172434E+01  0.48329142212E+00 -0.13817233049E+02  0.17048415578E+02  0.00000000000E+00 0.  1.
</event>
<event>
 7    1  0.3221417E-010  0.4778727E+02  0.7816164E-02  0.1312668E+00
        -11   -1    0    0    0    0  0.00000000000E+00  0.00000000000E+00  0.45593999997E+02  0.45594000000E+02  0.51100000000E-03 0. -1.
         11   -1    0    0    0    0 -0.00000000000E+00 -0.00000000000E+00 -0.45593999997E+02  0.45594000000E+02  0.51100000000E-03 0.  1.
    9900012    2    1    2    0    0  0.27234557677E+02  0.12232869120E+02 -0.31500142615E+02  0.47787271855E+02  0.20000003695E+02 0.  0.
         12    1    1    2    0    0 -0.27234557677E+02 -0.12232869120E+02  0.31500142615E+02  0.43400728145E+02  0.00000000000E+00 0. -1.
         11    1    3    3    0    0  0.16042051126E+02 -0.11342508634E+01 -0.14144337227E+02  0.21417194148E+02  0.51100000000E-03 0. -1.
        -11    1    3    3    0    0  0.12437228550E+02  0.91066195346E+01 -0.13462646742E+02  0.20466021374E+02  0.51100000000E-03 0.  1.
         12    1    3    3    0    0 -0.12447219981E+01  0.42605004490E+01 -0.38931586463E+01  0.59040563322E+01  0.00000000000E+00 0. -1.
</event>
<event>
 7    1  0.3221417E-010  0.4778727E+02  0.7816164E-02  0.1312668E+00
        -11   -1    0    0    0    0  0.00000000000E+00  0.00000000000E+00  0.45593999997E+02  0.45594000000E+02  0.51100000000E-03 0. -1.
         11   -1    0    0    0    0 -0.00000000000E+00 -0.00000000000E+00 -0.45593999997E+02  0.45594000000E+02  0.51100000000E-03 0.  1.
    9900012    2    1    2    0    0  0.60435790071E+00 -0.18891630608E+02 -0.39068711801E+02  0.47787271927E+02  0.20000004022E+02 0.  0.
         12    1    1    2    0    0 -0.60435790071E+00  0.18891630608E+02  0.39068711801E+02  0.43400728073E+02  0.00000000000E+00 0. -1.
         11    1    3    3    0    0 -0.66908943436E+01 -0.73655616097E+01 -0.92135522889E+01  0.13561309339E+02  0.51100000000E-03 0.  1.
        -11    1    3    3    0    0  0.51363733494E+01 -0.21654817036E+01 -0.46733141670E+01  0.72740296781E+01  0.51100000000E-03 0. -1.
        -12    1    3    3    0    0  0.21588788948E+01 -0.93605872951E+01 -0.25181845345E+02  0.26951932910E+02  0.00000000000E+00 0.  1.
</event>
<event>
 7    1  0.3221417E-010  0.4778726E+02  0.7816164E-02  0.1312668E+00
        -11   -1    0    0    0    0  0.00000000000E+00  0.00000000000E+00  0.45593999997E+02  0.45594000000E+02  0.51100000000E-03 0. -1.
         11   -1    0    0    0    0 -0.00000000000E+00 -0.00000000000E+00 -0.45593999997E+02  0.45594000000E+02  0.51100000000E-03 0.  1.
    9900012    2    1    2    0    0 -0.27225660176E+02 -0.90466834468E+01  0.32566012070E+02  0.47787260427E+02  0.19999951590E+02 0.  0.
        -12    1    1    2    0    0  0.27225660176E+02  0.90466834468E+01 -0.32566012070E+02  0.43400739573E+02  0.00000000000E+00 0.  1.
         11    1    3    3    0    0 -0.12371839163E+02 -0.76810273096E+01  0.75815911420E+01  0.16417707188E+02  0.51100000000E-03 0. -1.
        -11    1    3    3    0    0 -0.35016621484E+00  0.25663526727E+01  0.92760708774E+01  0.96309020139E+01  0.51100000000E-03 0.  1.
         12    1    3    3    0    0 -0.14503654798E+02 -0.39320088099E+01  0.15708350050E+02  0.21738651225E+02  0.00000000000E+00 0. -1.
</event>
<event>
 7    1  0.3221417E-010  0.4778727E+02  0.7816164E-02  0.1312668E+00
        -11   -1    0    0    0    0  0.00000000000E+00  0.00000000000E+00  0.45593999997E+02  0.45594000000E+02  0.51100000000E-03 0. -1.
         11   -1    0    0    0    0 -0.00000000000E+00 -0.00000000000E+00 -0.45593999997E+02  0.45594000000E+02  0.51100000000E-03 0.  1.
    9900012    2    1    2    0    0  0.31708010032E+02 -0.85059708768E+01  0.28387919827E+02  0.47787269213E+02  0.19999991648E+02 0.  0.
        -12    1    1    2    0    0 -0.31708010032E+02  0.85059708768E+01 -0.28387919827E+02  0.43400730787E+02  0.00000000000E+00 0.  1.
         11    1    3    3    0    0  0.13885241885E+02 -0.77973083743E+01  0.14085766500E+02  0.21260451035E+02  0.51100000000E-03 0. -1.
        -11    1    3    3    0    0  0.11956692358E+02 -0.68529655047E+01  0.98187580013E+01  0.16921395844E+02  0.51100000000E-03 0.  1.
        -12    1    3    3    0    0  0.58660757891E+01  0.61443030021E+01  0.44833953262E+01  0.96054223331E+01  0.00000000000E+00 0.  1.
</event>
<event>
 7    1  0.3221417E-010  0.4778727E+02  0.7816164E-02  0.1312668E+00
        -11   -1    0    0    0    0  0.00000000000E+00  0.00000000000E+00  0.45593999997E+02  0.45594000000E+02  0.51100000000E-03 0. -1.
         11   -1    0    0    0    0 -0.00000000000E+00 -0.00000000000E+00 -0.45593999997E+02  0.45594000000E+02  0.51100000000E-03 0.  1.
    9900012    2    1    2    0    0  0.22928945844E+01 -0.43666906192E+01  0.43119575574E+02  0.47787272469E+02  0.20000006493E+02 0.  0.
        -12    1    1    2    0    0 -0.22928945844E+01  0.43666906192E+01 -0.43119575574E+02  0.43400727531E+02  0.00000000000E+00 0.  1.
         11    1    3    3    0    0  0.85956715638E+01 -0.43645186830E+01  0.93606236320E+01  0.13437107874E+02  0.51100000000E-03 0. -1.
        -11    1    3    3    0    0 -0.17180389427E+01  0.28466428399E+00  0.10185599946E+02  0.10333399155E+02  0.51100000000E-03 0.  1.
         12    1    3    3    0    0 -0.45847380367E+01 -0.28683622014E+00  0.23573351996E+02  0.24016765440E+02  0.00000000000E+00 0. -1.
</event>
<event>
 7    1  0.3221417E-010  0.4778727E+02  0.7816164E-02  0.1312668E+00
        -11   -1    0    0    0    0  0.00000000000E+00  0.00000000000E+00  0.45593999997E+02  0.45594000000E+02  0.51100000000E-03 0. -1.
         11   -1    0    0    0    0 -0.00000000000E+00 -0.00000000000E+00 -0.45593999997E+02  0.45594000000E+02  0.51100000000E-03 0.  1.
    9900012    2    1    2    0    0  0.27170833944E+02 -0.20016415382E+02 -0.27289421205E+02  0.47787267153E+02  0.19999982257E+02 0.  0.
         12    1    1    2    0    0 -0.27170833944E+02  0.20016415382E+02  0.27289421205E+02  0.43400732847E+02  0.00000000000E+00 0. -1.
         11    1    3    3    0    0 -0.11028374342E+01 -0.56381902433E+01 -0.24468852181E+01  0.62444124750E+01  0.51100000000E-03 0.  1.
        -11    1    3    3    0    0  0.22055421658E+01 -0.51746917087E+01 -0.48320895331E+01  0.74155876397E+01  0.51100000000E-03 0. -1.
        -12    1    3    3    0    0  0.26068129212E+02 -0.92035334304E+01 -0.20010446454E+02  0.34127267038E+02  0.00000000000E+00 0.  1.
</event>
<event>
 7    1  0.3221417E-010  0.4778727E+02  0.7816164E-02  0.1312668E+00
        -11   -1    0    0    0    0  0.00000000000E+00  0.00000000000E+00  0.45593999997E+02  0.45594000000E+02  0.51100000000E-03 0. -1.
         11   -1    0    0    0    0 -0.00000000000E+00 -0.00000000000E+00 -0.45593999997E+02  0.45594000000E+02  0.51100000000E-03 0.  1.
    9900012    2    1    2    0    0  0.28044509118E+02  0.11947098268E+02 -0.30893294952E+02  0.47787270494E+02  0.19999997490E+02 0.  0.
         12    1    1    2    0    0 -0.28044509118E+02 -0.11947098268E+02  0.30893294952E+02  0.43400729506E+02  0.00000000000E+00 0. -1.
         11    1    3    3    0    0 -0.18010859643E+01  0.45517657069E+01 -0.65380775481E+01  0.81675541007E+01  0.51100000000E-03 0. -1.
        -11    1    3    3    0    0  0.93518932516E+01  0.39152175104E+01 -0.53950264197E+01  0.11484474123E+02  0.51100000000E-03 0.  1.
        -12    1    3    3    0    0  0.20493701831E+02  0.34801150502E+01 -0.18960190984E+02  0.28135242271E+02  0.00000000000E+00 0.  1.
</event>
<event>
 7    1  0.3221417E-010  0.4778726E+02  0.7816164E-02  0.1312668E+00
        -11   -1    0    0    0    0  0.00000000000E+00  0.00000000000E+00  0.45593999997E+02  0.45594000000E+02  0.51100000000E-03 0. -1.
         11   -1    0    0    0    0 -0.00000000000E+00 -0.00000000000E+00 -0.45593999997E+02  0.45594000000E+02  0.51100000000E-03 0.  1.
    9900012    2    1    2    0    0 -0.18961168571E+02  0.13613149890E+02 -0.36589351151E+02  0.47787258288E+02  0.19999941839E+02 0.  0.
         12    1    1    2    0    0  0.18961168571E+02 -0.13613149890E+02  0.36589351151E+02  0.43400741712E+02  0.00000000000E+00 0. -1.
         11    1    3    3    0    0  0.24250348132E+01  0.36446931684E+01 -0.63807834467E+01  0.77381509285E+01  0.51100000000E-03 0. -1.
        -11    1    3    3    0    0 -0.19221522658E+00 -0.74213846825E+00  0.72275681777E+00  0.10536099269E+01  0.51100000000E-03 0.  1.
        -12    1    3    3    0    0 -0.21193988158E+02  0.10710595190E+02 -0.30931324522E+02  0.38995497433E+02  0.00000000000E+00 0.  1.
</event>
<event>
 7    1  0.3221417E-010  0.4778727E+02  0.7816164E-02  0.1312668E+00
        -11   -1    0    0    0    0  0.00000000000E+00  0.00000000000E+00  0.45593999997E+02  0.45594000000E+02  0.51100000000E-03 0. -1.
         11   -1    0    0    0    0 -0.00000000000E+00 -0.00000000000E+00 -0.45593999997E+02  0.45594000000E+02  0.51100000000E-03 0.  1.
    9900012    2    1    2    0    0  0.21275853778E+02 -0.93078084057E+01  0.36665052655E+02  0.47787270312E+02  0.19999996659E+02 0.  0.
        -12    1    1    2    0    0 -0.21275853778E+02  0.93078084057E+01 -0.36665052655E+02  0.43400729688E+02  0.00000000000E+00 0.  1.
         11    1    3    3    0    0  0.10031039508E+02 -0.64805425084E+01  0.14393844607E+02  0.18702993013E+02  0.51100000000E-03 0. -1.
        -11    1    3    3    0    0  0.14647623060E+02 -0.12358252205E+01  0.19481725407E+02  0.24405281199E+02  0.51100000000E-03 0.  1.
        -12    1    3    3    0    0 -0.34028087911E+01 -0.15914406768E+01  0.27894826405E+01  0.46789960994E+01  0.00000000000E+00 0.  1.
</event>
<event>
 7    1  0.3221417E-010  0.4778728E+02  0.7816164E-02  0.1312668E+00
        -11   -1    0    0    0    0  0.00000000000E+00  0.00000000000E+00  0.45593999997E+02  0.45594000000E+02  0.51100000000E-03 0. -1.
         11   -1    0    0    0    0 -0.00000000000E+00 -0.00000000000E+00 -0.45593999997E+02  0.45594000000E+02  0.51100000000E-03 0.  1.
    9900012    2    1    2    0    0 -0.23633392488E+02  0.82561457171E+01  0.35453086414E+02  0.47787279743E+02  0.20000039659E+02 0.  0.
        -12    1    1    2    0    0  0.23633392488E+02 -0.82561457171E+01 -0.35453086414E+02  0.43400720257E+02  0.00000000000E+00 0.  1.
         11    1    3    3    0    0 -0.18540845141E+02 -0.10767493245E+01  0.20132018226E+02  0.27390153081E+02  0.51100000000E-03 0. -1.
        -11    1    3    3    0    0 -0.24346114726E+00  0.39063413765E+01  0.57883835343E+00  0.39564921812E+01  0.51100000000E-03 0.  1.
        -12    1    3    3    0    0 -0.48490861995E+01  0.54265536652E+01  0.14742229834E+02  0.16440634481E+02  0.00000000000E+00 0.  1.
</event>
<event>
 7    1  0.3221417E-010  0.4778725E+02  0.7816164E-02  0.1312668E+00
        -11   -1    0    0    0    0  0.00000000000E+00  0.00000000000E+00  0.45593999997E+02  0.45594000000E+02  0.51100000000E-03 0. -1.
         11   -1    0    0    0    0 -0.00000000000E+00 -0.00000000000E+00 -0.45593999997E+02  0.45594000000E+02  0.51100000000E-03 0.  1.
    9900012    2    1    2    0    0 -0.12660530446E+02 -0.31608429840E+02 -0.26911759968E+02  0.47787254698E+02  0.19999925472E+02 0.  0.
         12    1    1    2    0    0  0.12660530446E+02  0.31608429840E+02  0.26911759968E+02  0.43400745302E+02  0.00000000000E+00 0. -1.
         11    1    3    3    0    0 -0.17711477785E+01  0.86900423865E+00 -0.32745934613E+01  0.38229694503E+01  0.51100000000E-03 0. -1.
        -11    1    3    3    0    0 -0.10814120344E+02 -0.20632139848E+02 -0.86214170922E+01  0.24838663943E+02  0.51100000000E-03 0.  1.
        -12    1    3    3    0    0 -0.75262323560E-01 -0.11845294231E+02 -0.15015749414E+02  0.19125621305E+02  0.00000000000E+00 0.  1.
</event>
<event>
 7    1  0.3221417E-010  0.4778727E+02  0.7816164E-02  0.1312668E+00
        -11   -1    0    0    0    0  0.00000000000E+00  0.00000000000E+00  0.45593999997E+02  0.45594000000E+02  0.51100000000E-03 0. -1.
         11   -1    0    0    0    0 -0.00000000000E+00 -0.00000000000E+00 -0.45593999997E+02  0.45594000000E+02  0.51100000000E-03 0.  1.
    9900012    2    1    2    0    0 -0.30253764488E+01  0.36167165265E+02  0.23799299314E+02  0.47787269663E+02  0.19999993700E+02 0.  0.
        -12    1    1    2    0    0  0.30253764488E+01 -0.36167165265E+02 -0.23799299314E+02  0.43400730337E+02  0.00000000000E+00 0.  1.
         11    1    3    3    0    0 -0.40755130921E-01  0.32374160233E+02  0.19137203338E+02  0.37607452235E+02  0.51100000000E-03 0. -1.
        -11    1    3    3    0    0 -0.39205000218E+01  0.47365472309E+01  0.93045767378E+00  0.62185972562E+01  0.51100000000E-03 0.  1.
         12    1    3    3    0    0  0.93587870389E+00 -0.94354219828E+00  0.37316383020E+01  0.39612201712E+01  0.00000000000E+00 0. -1.
</event>
<event>
 7    1  0.3221417E-010  0.4778727E+02  0.7816164E-02  0.1312668E+00
        -11   -1    0    0    0    0  0.00000000000E+00  0.00000000000E+00  0.45593999997E+02  0.45594000000E+02  0.51100000000E-03 0.  1.
         11   -1    0    0    0    0 -0.00000000000E+00 -0.00000000000E+00 -0.45593999997E+02  0.45594000000E+02  0.51100000000E-03 0. -1.
    9900012    2    1    2    0    0  0.29176961657E+02  0.31708931297E+02 -0.51838102410E+01  0.47787270696E+02  0.19999998411E+02 0.  0.
         12    1    1    2    0    0 -0.29176961657E+02 -0.31708931297E+02  0.51838102410E+01  0.43400729304E+02  0.00000000000E+00 0. -1.
         11    1    3    3    0    0  0.71010647063E+01 -0.11767739181E+01 -0.18381277876E+01  0.74289050904E+01  0.51100000000E-03 0.  1.
        -11    1    3    3    0    0 -0.29474256772E+00  0.23370954553E+01 -0.21684647584E+00  0.23655677973E+01  0.51100000000E-03 0. -1.
        -12    1    3    3    0    0  0.22370639518E+02  0.30548609760E+02 -0.31288359776E+01  0.37992797808E+02  0.00000000000E+00 0.  1.
</event>
<event>
 7    1  0.3221417E-010  0.4778728E+02  0.7816164E-02  0.1312668E+00
        -11   -1    0    0    0    0  0.00000000000E+00  0.00000000000E+00  0.45593999997E+02  0.45594000000E+02  0.51100000000E-03 0. -1.
         11   -1    0    0    0    0 -0.00000000000E+00 -0.00000000000E+00 -0.45593999997E+02  0.45594000000E+02  0.51100000000E-03 0.  1.
    9900012    2    1    2    0    0 -0.15680778301E+02 -0.10463574873E+02 -0.39092832107E+02  0.47787277317E+02  0.20000028599E+02 0.  0.
         12    1    1    2    0    0  0.15680778301E+02  0.10463574873E+02  0.39092832107E+02  0.43400722683E+02  0.00000000000E+00 0. -1.
         11    1    3    3    0    0  0.15124839788E+01  0.14698671600E+01 -0.43819782916E+01  0.48631112740E+01  0.51100000000E-03 0. -1.
        -11    1    3    3    0    0 -0.16066419148E+02 -0.37055511496E+01 -0.19025635055E+02  0.25176094278E+02  0.51100000000E-03 0.  1.
         12    1    3    3    0    0 -0.11268431319E+01 -0.82278908834E+01 -0.15685218760E+02  0.17748071765E+02  0.00000000000E+00 0. -1.
</event>
<event>
 7    1  0.3221417E-010  0.4778727E+02  0.7816164E-02  0.1312668E+00
        -11   -1    0    0    0    0  0.00000000000E+00  0.00000000000E+00  0.45593999997E+02  0.45594000000E+02  0.51100000000E-03 0. -1.
         11   -1    0    0    0    0 -0.00000000000E+00 -0.00000000000E+00 -0.45593999997E+02  0.45594000000E+02  0.51100000000E-03 0.  1.
    9900012    2    1    2    0    0  0.18905422004E+02  0.11465611920E+02  0.37346324697E+02  0.47787271824E+02  0.20000003555E+02 0.  0.
        -12    1    1    2    0    0 -0.18905422004E+02 -0.11465611920E+02 -0.37346324697E+02  0.43400728176E+02  0.00000000000E+00 0.  1.
         11    1    3    3    0    0  0.42234374525E+01 -0.11699634404E+01  0.28921553592E+01  0.52507905357E+01  0.51100000000E-03 0. -1.
        -11    1    3    3    0    0  0.36485689991E+01  0.12770430295E+02  0.14011169587E+02  0.19305668057E+02  0.51100000000E-03 0.  1.
         12    1    3    3    0    0  0.11033415552E+02 -0.13485493488E+00  0.20442999751E+02  0.23230813232E+02  0.00000000000E+00 0. -1.
</event>
<event>
 7    1  0.3221417E-010  0.4778726E+02  0.7816164E-02  0.1312668E+00
        -11   -1    0    0    0    0  0.00000000000E+00  0.00000000000E+00  0.45593999997E+02  0.45594000000E+02  0.51100000000E-03 0. -1.
         11   -1    0    0    0    0 -0.00000000000E+00 -0.00000000000E+00 -0.45593999997E+02  0.45594000000E+02  0.51100000000E-03 0.  1.
    9900012    2    1    2    0    0  0.27922553485E+02 -0.23366300464E+02 -0.23621414591E+02  0.47787260170E+02  0.19999950419E+02 0.  0.
         12    1    1    2    0    0 -0.27922553485E+02  0.23366300464E+02  0.23621414591E+02  0.43400739830E+02  0.00000000000E+00 0. -1.
         11    1    3    3    0    0  0.86247850771E+01 -0.12562905938E+01 -0.13032907162E+02  0.15678706995E+02  0.51100000000E-03 0. -1.
        -11    1    3    3    0    0  0.14516139741E+02 -0.14488227402E+02 -0.10652781260E+02  0.23110793908E+02  0.51100000000E-03 0.  1.
        -12    1    3    3    0    0  0.47816286675E+01 -0.76217824682E+01  0.64273830477E-01  0.89977592672E+01  0.00000000000E+00 0.  1.
</event>
<event>
 7    1  0.3221417E-010  0.4778727E+02  0.7816164E-02  0.1312668E+00
        -11   -1    0    0    0    0  0.00000000000E+00  0.00000000000E+00  0.45593999997E+02  0.45594000000E+02  0.51100000000E-03 0. -1.
         11   -1    0    0    0    0 -0.00000000000E+00 -0.00000000000E+00 -0.45593999997E+02  0.45594000000E+02  0.51100000000E-03 0.  1.
    9900012    2    1    2    0    0  0.30289281993E+02 -0.57031314890E+01 -0.30555802357E+02  0.47787269936E+02  0.19999994947E+02 0.  0.
         12    1    1    2    0    0 -0.30289281993E+02  0.57031314890E+01  0.30555802357E+02  0.43400730064E+02  0.00000000000E+00 0. -1.
         11    1    3    3    0    0  0.16557433068E+02 -0.11233912506E+02 -0.21636605697E+02  0.29470189791E+02  0.51100000000E-03 0. -1.
        -11    1    3    3    0    0  0.11473169625E+02  0.17659342309E+01 -0.64343704510E+01  0.13272274421E+02  0.51100000000E-03 0.  1.
         12    1    3    3    0    0  0.22586792999E+01  0.37648467859E+01 -0.24848262083E+01  0.50448057234E+01  0.00000000000E+00 0. -1.
</event>
<event>
 7    1  0.3478827E-010  0.4778727E+02  0.7816164E-02  0.1312668E+00
        -11   -1    0    0    0    0  0.00000000000E+00  0.00000000000E+00  0.45593999997E+02  0.45594000000E+02  0.51100000000E-03 0. -1.
         11   -1    0    0    0    0 -0.00000000000E+00 -0.00000000000E+00 -0.45593999997E+02  0.45594000000E+02  0.51100000000E-03 0.  1.
    9900012    2    1    2    0    0 -0.69795583307E+01  0.32021615596E+02 -0.28452161024E+02  0.47787267670E+02  0.19999984614E+02 0.  0.
         12    1    1    2    0    0  0.69795583307E+01 -0.32021615596E+02  0.28452161024E+02  0.43400732330E+02  0.00000000000E+00 0. -1.
         11    1    3    3    0    0 -0.23153751479E+00  0.46076046376E+01  0.54373510425E+00  0.46453501743E+01  0.51100000000E-03 0. -1.
        -11    1    3    3    0    0 -0.96395853363E+01  0.26734000280E+02 -0.23425878587E+02  0.36829338363E+02  0.51100000000E-03 0.  1.
         12    1    3    3    0    0  0.28915645204E+01  0.68001067815E+00 -0.55700175407E+01  0.63125791323E+01  0.00000000000E+00 0. -1.
</event>
<event>
 7    1  0.3221417E-010  0.4778727E+02  0.7816164E-02  0.1312668E+00
        -11   -1    0    0    0    0  0.00000000000E+00  0.00000000000E+00  0.45593999997E+02  0.45594000000E+02  0.51100000000E-03 0. -1.
         11   -1    0    0    0    0 -0.00000000000E+00 -0.00000000000E+00 -0.45593999997E+02  0.45594000000E+02  0.51100000000E-03 0.  1.
    9900012    2    1    2    0    0  0.40956928996E+02 -0.14286992733E+02 -0.14265562000E+01  0.47787271243E+02  0.20000000903E+02 0.  0.
         12    1    1    2    0    0 -0.40956928996E+02  0.14286992733E+02  0.14265562000E+01  0.43400728757E+02  0.00000000000E+00 0. -1.
         11    1    3    3    0    0  0.33716418164E+01 -0.43322280744E+01  0.10324901486E+01  0.55858933748E+01  0.51100000000E-03 0. -1.
        -11    1    3    3    0    0  0.23035758433E+01 -0.62289972124E+01 -0.73135441519E+00  0.66814480077E+01  0.51100000000E-03 0.  1.
        -12    1    3    3    0    0  0.35281711336E+02 -0.37257674457E+01 -0.17276919333E+01  0.35519929860E+02  0.00000000000E+00 0.  1.
</event>
<event>
 7    1  0.3221417E-010  0.4778728E+02  0.7816164E-02  0.1312668E+00
        -11   -1    0    0    0    0  0.00000000000E+00  0.00000000000E+00  0.45593999997E+02  0.45594000000E+02  0.51100000000E-03 0. -1.
         11   -1    0    0    0    0 -0.00000000000E+00 -0.00000000000E+00 -0.45593999997E+02  0.45594000000E+02  0.51100000000E-03 0.  1.
    9900012    2    1    2    0    0 -0.13262840612E+02 -0.37203990839E+01 -0.41156751628E+02  0.47787279787E+02  0.20000039862E+02 0.  0.
         12    1    1    2    0    0  0.13262840612E+02  0.37203990839E+01  0.41156751628E+02  0.43400720213E+02  0.00000000000E+00 0. -1.
         11    1    3    3    0    0 -0.21686601025E+01  0.47046697656E+01 -0.42988961526E+01  0.67318283278E+01  0.51100000000E-03 0. -1.
        -11    1    3    3    0    0  0.11147151006E+01 -0.53883858766E+01 -0.11426642326E+02  0.12682485845E+02  0.51100000000E-03 0.  1.
         12    1    3    3    0    0 -0.12208895610E+02 -0.30366829729E+01 -0.25431213149E+02  0.28372965614E+02  0.00000000000E+00 0. -1.
</event>
<event>
 7    1  0.3221417E-010  0.4778727E+02  0.7816164E-02  0.1312668E+00
        -11   -1    0    0    0    0  0.00000000000E+00  0.00000000000E+00  0.45593999997E+02  0.45594000000E+02  0.51100000000E-03 0.  1.
         11   -1    0    0    0    0 -0.00000000000E+00 -0.00000000000E+00 -0.45593999997E+02  0.45594000000E+02  0.51100000000E-03 0. -1.
    9900012    2    1    2    0    0  0.34690093307E+02 -0.25620940605E+02  0.48773100962E+01  0.47787270456E+02  0.19999997318E+02 0.  0.
        -12    1    1    2    0    0 -0.34690093307E+02  0.25620940605E+02 -0.48773100962E+01  0.43400729544E+02  0.00000000000E+00 0.  1.
         11    1    3    3    0    0 -0.71004885736E+00 -0.45035551766E+01  0.18409217176E+01  0.49168253620E+01  0.51100000000E-03 0. -1.
        -11    1    3    3    0    0  0.25067454837E+02 -0.97413890073E+01 -0.12278549571E+01  0.26921730625E+02  0.51100000000E-03 0.  1.
         12    1    3    3    0    0  0.10332687328E+02 -0.11375996421E+02  0.42642433357E+01  0.15948714469E+02  0.00000000000E+00 0. -1.
</event>
<event>
 7    1  0.3221417E-010  0.4778727E+02  0.7816164E-02  0.1312668E+00
        -11   -1    0    0    0    0  0.00000000000E+00  0.00000000000E+00  0.45593999997E+02  0.45594000000E+02  0.51100000000E-03 0. -1.
         11   -1    0    0    0    0 -0.00000000000E+00 -0.00000000000E+00 -0.45593999997E+02  0.45594000000E+02  0.51100000000E-03 0.  1.
    9900012    2    1    2    0    0 -0.27100386346E+02  0.88437042330E+01 -0.32725849715E+02  0.47787270925E+02  0.19999999457E+02 0.  0.
         12    1    1    2    0    0  0.27100386346E+02 -0.88437042330E+01  0.32725849715E+02  0.43400729075E+02  0.00000000000E+00 0. -1.
         11    1    3    3    0    0 -0.22744094526E+02 -0.32011482780E+00 -0.25322780400E+02  0.34038794291E+02  0.51100000000E-03 0. -1.
        -11    1    3    3    0    0  0.12639618563E+01  0.24421014241E+01 -0.11318173639E+01  0.29736290532E+01  0.51100000000E-03 0.  1.
        -12    1    3    3    0    0 -0.56202536763E+01  0.67217176367E+01 -0.62712519507E+01  0.10774847581E+02  0.00000000000E+00 0.  1.
</event>
<event>
 7    1  0.3221417E-010  0.4778727E+02  0.7816164E-02  0.1312668E+00
        -11   -1    0    0    0    0  0.00000000000E+00  0.00000000000E+00  0.45593999997E+02  0.45594000000E+02  0.51100000000E-03 0. -1.
         11   -1    0    0    0    0 -0.00000000000E+00 -0.00000000000E+00 -0.45593999997E+02  0.45594000000E+02  0.51100000000E-03 0.  1.
    9900012    2    1    2    0    0  0.37473650418E+02  0.64128051331E+01  0.20933821202E+02  0.47787269413E+02  0.19999992563E+02 0.  0.
        -12    1    1    2    0    0 -0.37473650418E+02 -0.64128051331E+01 -0.20933821202E+02  0.43400730587E+02  0.00000000000E+00 0.  1.
         11    1    3    3    0    0  0.12005863664E+02  0.13079145385E+00  0.12124818493E+02  0.17063677577E+02  0.51100000000E-03 0. -1.
        -11    1    3    3    0    0  0.65974834985E+01 -0.35860267562E+01 -0.40701838467E+00  0.75201090840E+01  0.51100000000E-03 0.  1.
        -12    1    3    3    0    0  0.18870303256E+02  0.98680404354E+01  0.92160210939E+01  0.23203482752E+02  0.00000000000E+00 0.  1.
</event>
<event>
 7    1  0.3221417E-010  0.4778727E+02  0.7816164E-02  0.1312668E+00
        -11   -1    0    0    0    0  0.00000000000E+00  0.00000000000E+00  0.45593999997E+02  0.45594000000E+02  0.51100000000E-03 0. -1.
         11   -1    0    0    0    0 -0.00000000000E+00 -0.00000000000E+00 -0.45593999997E+02  0.45594000000E+02  0.51100000000E-03 0.  1.
    9900012    2    1    2    0    0  0.57063811751E+01 -0.30508944794E+02  0.30335869971E+02  0.47787268377E+02  0.19999987836E+02 0.  0.
        -12    1    1    2    0    0 -0.57063811751E+01  0.30508944794E+02 -0.30335869971E+02  0.43400731623E+02  0.00000000000E+00 0.  1.
         11    1    3    3    0    0  0.62209716493E+01 -0.19749747628E+01  0.11233499403E+02  0.12992017652E+02  0.51100000000E-03 0.  1.
        -11    1    3    3    0    0  0.63273635237E+00 -0.11937698659E+02  0.11186245647E+02  0.16371960680E+02  0.51100000000E-03 0. -1.
        -12    1    3    3    0    0 -0.11473268266E+01 -0.16596271372E+02  0.79161249209E+01  0.18423290044E+02  0.00000000000E+00 0.  1.
</event>
<event>
 7    1  0.3221417E-010  0.4778727E+02  0.7816164E-02  0.1312668E+00
        -11   -1    0    0    0    0  0.00000000000E+00  0.00000000000E+00  0.45593999997E+02  0.45594000000E+02  0.51100000000E-03 0. -1.
         11   -1    0    0    0    0 -0.00000000000E+00 -0.00000000000E+00 -0.45593999997E+02  0.45594000000E+02  0.51100000000E-03 0.  1.
    9900012    2    1    2    0    0 -0.39956862121E+01 -0.80019166394E+01  0.42469132610E+02  0.47787269559E+02  0.19999993227E+02 0.  0.
        -12    1    1    2    0    0  0.39956862121E+01  0.80019166394E+01 -0.42469132610E+02  0.43400730441E+02  0.00000000000E+00 0.  1.
         11    1    3    3    0    0 -0.88045787101E-01 -0.13838026640E+02  0.23786878499E+02  0.27519344512E+02  0.51100000000E-03 0. -1.
        -11    1    3    3    0    0 -0.10264428370E+00  0.24904950925E+01  0.37796070405E+01  0.45275303750E+01  0.51100000000E-03 0.  1.
         12    1    3    3    0    0 -0.38049961413E+01  0.33456149083E+01  0.14902647070E+02  0.15740394672E+02  0.00000000000E+00 0. -1.
</event>
<event>
 7    1  0.3221417E-010  0.4778728E+02  0.7816164E-02  0.1312668E+00
        -11   -1    0    0    0    0  0.00000000000E+00  0.00000000000E+00  0.45593999997E+02  0.45594000000E+02  0.51100000000E-03 0. -1.
         11   -1    0    0    0    0 -0.00000000000E+00 -0.00000000000E+00 -0.45593999997E+02  0.45594000000E+02  0.51100000000E-03 0.  1.
    9900012    2    1    2    0    0 -0.38003746491E+02  0.20939962706E+02  0.92526019310E+00  0.47787275445E+02  0.20000020062E+02 0.  0.
         12    1    1    2    0    0  0.38003746491E+02 -0.20939962706E+02 -0.92526019310E+00  0.43400724555E+02  0.00000000000E+00 0. -1.
         11    1    3    3    0    0  0.17333583050E+01  0.19693152712E+01 -0.17668190676E+01  0.31629706811E+01  0.51100000000E-03 0. -1.
        -11    1    3    3    0    0 -0.24025108161E+02  0.14663477234E+02  0.31785668203E+01  0.28325371560E+02  0.51100000000E-03 0.  1.
        -12    1    3    3    0    0 -0.15711996636E+02  0.43071702008E+01 -0.48648755964E+00  0.16298933203E+02  0.00000000000E+00 0.  1.
</event>
<event>
 7    1  0.3221417E-010  0.4778726E+02  0.7816164E-02  0.1312668E+00
        -11   -1    0    0    0    0  0.00000000000E+00  0.00000000000E+00  0.45593999997E+02  0.45594000000E+02  0.51100000000E-03 0. -1.
         11   -1    0    0    0    0 -0.00000000000E+00 -0.00000000000E+00 -0.45593999997E+02  0.45594000000E+02  0.51100000000E-03 0.  1.
    9900012    2    1    2    0    0  0.35379977360E+02 -0.22310655631E+02 -0.11580840550E+02  0.47787262443E+02  0.19999960780E+02 0.  0.
         12    1    1    2    0    0 -0.35379977360E+02  0.22310655631E+02  0.11580840550E+02  0.43400737557E+02  0.00000000000E+00 0. -1.
         11    1    3    3    0    0  0.10994025304E+01 -0.30326476203E+01 -0.36200086679E+01  0.48487215356E+01  0.51100000000E-03 0. -1.
        -11    1    3    3    0    0  0.25603539668E+02 -0.63539065872E+01 -0.27514323774E+01  0.26523268141E+02  0.51100000000E-03 0.  1.
        -12    1    3    3    0    0  0.86770351613E+01 -0.12924101423E+02 -0.52093995047E+01  0.16415272766E+02  0.00000000000E+00 0.  1.
</event>
<event>
 7    1  0.3221417E-010  0.4778728E+02  0.7816164E-02  0.1312668E+00
        -11   -1    0    0    0    0  0.00000000000E+00  0.00000000000E+00  0.45593999997E+02  0.45594000000E+02  0.51100000000E-03 0. -1.
         11   -1    0    0    0    0 -0.00000000000E+00 -0.00000000000E+00 -0.45593999997E+02  0.45594000000E+02  0.51100000000E-03 0.  1.
    9900012    2    1    2    0    0  0.38595674541E+02  0.14616955970E+02  0.13429122914E+02  0.47787276074E+02  0.20000022931E+02 0.  0.
        -12    1    1    2    0    0 -0.38595674541E+02 -0.14616955970E+02 -0.13429122914E+02  0.43400723926E+02  0.00000000000E+00 0.  1.
         11    1    3    3    0    0  0.23558062911E+02  0.42752339598E+01  0.61025493375E+01  0.24708319696E+02  0.51100000000E-03 0. -1.
        -11    1    3    3    0    0  0.14513630994E+02  0.11403373914E+02  0.31331615897E+01  0.18721621806E+02  0.51100000000E-03 0.  1.
         12    1    3    3    0    0  0.52398063527E+00 -0.10616519040E+01  0.41934119869E+01  0.43573345709E+01  0.00000000000E+00 0. -1.
</event>
<event>
 7    1  0.3221417E-010  0.4778727E+02  0.7816164E-02  0.1312668E+00
        -11   -1    0    0    0    0  0.00000000000E+00  0.00000000000E+00  0.45593999997E+02  0.45594000000E+02  0.51100000000E-03 0. -1.
         11   -1    0    0    0    0 -0.00000000000E+00 -0.00000000000E+00 -0.45593999997E+02  0.45594000000E+02  0.51100000000E-03 0.  1.
    9900012    2    1    2    0    0  0.72742992559E+01 -0.10795303291E+02  0.41402527270E+02  0.47787271122E+02  0.20000000354E+02 0.  0.
        -12    1    1    2    0    0 -0.72742992559E+01  0.10795303291E+02 -0.41402527270E+02  0.43400728878E+02  0.00000000000E+00 0.  1.
         11    1    3    3    0    0 -0.17692282131E+01 -0.61126426589E+01  0.34488859667E+02  0.35071013817E+02  0.51100000000E-03 0. -1.
        -11    1    3    3    0    0  0.15058538962E+01 -0.81090703761E+00 -0.10443266381E+00  0.17134971907E+01  0.51100000000E-03 0.  1.
         12    1    3    3    0    0  0.75376735727E+01 -0.38717535944E+01  0.70181002661E+01  0.11002760114E+02  0.00000000000E+00 0. -1.
</event>
<event>
 7    1  0.3221417E-010  0.4778728E+02  0.7816164E-02  0.1312668E+00
        -11   -1    0    0    0    0  0.00000000000E+00  0.00000000000E+00  0.45593999997E+02  0.45594000000E+02  0.51100000000E-03 0. -1.
         11   -1    0    0    0    0 -0.00000000000E+00 -0.00000000000E+00 -0.45593999997E+02  0.45594000000E+02  0.51100000000E-03 0.  1.
    9900012    2    1    2    0    0 -0.45492342939E+01  0.23267519147E+02  0.36353126523E+02  0.47787276643E+02  0.20000025528E+02 0.  0.
        -12    1    1    2    0    0  0.45492342939E+01 -0.23267519147E+02 -0.36353126523E+02  0.43400723357E+02  0.00000000000E+00 0.  1.
         11    1    3    3    0    0  0.82692887326E+00  0.85065197629E+01  0.20553598389E+02  0.22259719154E+02  0.51100000000E-03 0. -1.
        -11    1    3    3    0    0 -0.42480917713E+01 -0.89933740635E+00  0.37149605580E+01  0.57145449229E+01  0.51100000000E-03 0.  1.
        -12    1    3    3    0    0 -0.11280713959E+01  0.15660336790E+02  0.12084567576E+02  0.19813012566E+02  0.00000000000E+00 0.  1.
</event>
<event>
 7    1  0.3221417E-010  0.4778727E+02  0.7816164E-02  0.1312668E+00
        -11   -1    0    0    0    0  0.00000000000E+00  0.00000000000E+00  0.45593999997E+02  0.45594000000E+02  0.51100000000E-03 0. -1.
         11   -1    0    0    0    0 -0.00000000000E+00 -0.00000000000E+00 -0.45593999997E+02  0.45594000000E+02  0.51100000000E-03 0.  1.
    9900012    2    1    2    0    0  0.14847403886E+02 -0.33768789173E+02  0.22865841832E+02  0.47787271353E+02  0.20000001409E+02 0.  0.
        -12    1    1    2    0    0 -0.14847403886E+02  0.33768789173E+02 -0.22865841832E+02  0.43400728647E+02  0.00000000000E+00 0.  1.
         11    1    3    3    0    0  0.11816595638E+02 -0.13608815223E+02  0.88470009780E+01  0.20077380576E+02  0.51100000000E-03 0. -1.
        -11    1    3    3    0    0  0.63816125565E+00 -0.70224677539E+01  0.12391709354E+02  0.14257516057E+02  0.51100000000E-03 0.  1.
        -12    1    3    3    0    0  0.23926469928E+01 -0.13137506196E+02  0.16271314997E+01  0.13452374720E+02  0.00000000000E+00 0.  1.
</event>
<event>
 7    1  0.3221417E-010  0.4778727E+02  0.7816164E-02  0.1312668E+00
        -11   -1    0    0    0    0  0.00000000000E+00  0.00000000000E+00  0.45593999997E+02  0.45594000000E+02  0.51100000000E-03 0.  1.
         11   -1    0    0    0    0 -0.00000000000E+00 -0.00000000000E+00 -0.45593999997E+02  0.45594000000E+02  0.51100000000E-03 0. -1.
    9900012    2    1    2    0    0 -0.26957854437E+02  0.31126287044E+02 -0.13713196070E+02  0.47787269506E+02  0.19999992984E+02 0.  0.
         12    1    1    2    0    0  0.26957854437E+02 -0.31126287044E+02  0.13713196070E+02  0.43400730494E+02  0.00000000000E+00 0. -1.
         11    1    3    3    0    0 -0.55609864389E+01  0.32244390881E+01  0.41645029569E+01  0.76592860467E+01  0.51100000000E-03 0. -1.
        -11    1    3    3    0    0 -0.13471050306E+01  0.39459168043E+01 -0.70738597459E-01  0.41701265688E+01  0.51100000000E-03 0.  1.
        -12    1    3    3    0    0 -0.20049762967E+02  0.23955931152E+02 -0.17806960430E+02  0.35957856890E+02  0.00000000000E+00 0.  1.
</event>
<event>
 7    1  0.3221417E-010  0.4778727E+02  0.7816164E-02  0.1312668E+00
        -11   -1    0    0    0    0  0.00000000000E+00  0.00000000000E+00  0.45593999997E+02  0.45594000000E+02  0.51100000000E-03 0. -1.
         11   -1    0    0    0    0 -0.00000000000E+00 -0.00000000000E+00 -0.45593999997E+02  0.45594000000E+02  0.51100000000E-03 0.  1.
    9900012    2    1    2    0    0  0.10046112647E+02 -0.28258010309E+02 -0.31371697915E+02  0.47787274707E+02  0.20000016698E+02 0.  0.
         12    1    1    2    0    0 -0.10046112647E+02  0.28258010309E+02  0.31371697915E+02  0.43400725293E+02  0.00000000000E+00 0. -1.
         11    1    3    3    0    0  0.54455529769E+01 -0.21234209404E+02 -0.30740222116E+02  0.37755886326E+02  0.51100000000E-03 0. -1.
        -11    1    3    3    0    0  0.22909460467E+01 -0.56814529463E+01 -0.26585795637E+01  0.66779777573E+01  0.51100000000E-03 0.  1.
         12    1    3    3    0    0  0.23096136238E+01 -0.13423479590E+01  0.20271037655E+01  0.33534106235E+01  0.00000000000E+00 0. -1.
</event>
<event>
 7    1  0.3221417E-010  0.4778727E+02  0.7816164E-02  0.1312668E+00
        -11   -1    0    0    0    0  0.00000000000E+00  0.00000000000E+00  0.45593999997E+02  0.45594000000E+02  0.51100000000E-03 0. -1.
         11   -1    0    0    0    0 -0.00000000000E+00 -0.00000000000E+00 -0.45593999997E+02  0.45594000000E+02  0.51100000000E-03 0.  1.
    9900012    2    1    2    0    0 -0.15511182254E+02 -0.40480435466E+02  0.20882594060E+01  0.47787271230E+02  0.20000000846E+02 0.  0.
        -12    1    1    2    0    0  0.15511182254E+02  0.40480435466E+02 -0.20882594060E+01  0.43400728770E+02  0.00000000000E+00 0.  1.
         11    1    3    3    0    0 -0.18776341586E+02 -0.30297664355E+02  0.36558300719E+01  0.35831055839E+02  0.51100000000E-03 0. -1.
        -11    1    3    3    0    0  0.13711814006E+01 -0.10547713388E+01  0.13429428244E+01  0.21900175117E+01  0.51100000000E-03 0.  1.
         12    1    3    3    0    0  0.18939779318E+01 -0.91279997720E+01 -0.29105134904E+01  0.97661978795E+01  0.00000000000E+00 0. -1.
</event>
<event>
 7    1  0.3221417E-010  0.4778727E+02  0.7816164E-02  0.1312668E+00
        -11   -1    0    0    0    0  0.00000000000E+00  0.00000000000E+00  0.45593999997E+02  0.45594000000E+02  0.51100000000E-03 0. -1.
         11   -1    0    0    0    0 -0.00000000000E+00 -0.00000000000E+00 -0.45593999997E+02  0.45594000000E+02  0.51100000000E-03 0.  1.
    9900012    2    1    2    0    0  0.44170322036E+01  0.10517368657E+02 -0.41874786493E+02  0.47787274651E+02  0.20000016444E+02 0.  0.
         12    1    1    2    0    0 -0.44170322036E+01 -0.10517368657E+02  0.41874786493E+02  0.43400725349E+02  0.00000000000E+00 0. -1.
         11    1    3    3    0    0  0.18632372156E+00 -0.24233313581E+01 -0.10566939813E+02  0.10842853346E+02  0.51100000000E-03 0. -1.
        -11    1    3    3    0    0  0.52761888468E+01  0.34659968187E+01 -0.24318098726E+02  0.25124116474E+02  0.51100000000E-03 0.  1.
        -12    1    3    3    0    0 -0.10454803647E+01  0.94747031959E+01 -0.69897479546E+01  0.11820304832E+02  0.00000000000E+00 0.  1.
</event>
<event>
 7    1  0.3221417E-010  0.4778728E+02  0.7816164E-02  0.1312668E+00
        -11   -1    0    0    0    0  0.00000000000E+00  0.00000000000E+00  0.45593999997E+02  0.45594000000E+02  0.51100000000E-03 0.  1.
         11   -1    0    0    0    0 -0.00000000000E+00 -0.00000000000E+00 -0.45593999997E+02  0.45594000000E+02  0.51100000000E-03 0. -1.
    9900012    2    1    2    0    0 -0.41411568480E+02 -0.85236539029E+01 -0.98005926639E+01  0.47787282306E+02  0.20000051346E+02 0.  0.
         12    1    1    2    0    0  0.41411568480E+02  0.85236539029E+01  0.98005926639E+01  0.43400717694E+02  0.00000000000E+00 0. -1.
         11    1    3    3    0    0 -0.11772457202E+02 -0.42942810692E+00 -0.14141601590E+01  0.11864864361E+02  0.51100000000E-03 0. -1.
        -11    1    3    3    0    0 -0.28642296521E+02 -0.11370307718E+02 -0.52144760705E+01  0.31254692585E+02  0.51100000000E-03 0.  1.
         12    1    3    3    0    0 -0.99681475612E+00  0.32760819224E+01 -0.31719564344E+01  0.46677253606E+01  0.00000000000E+00 0. -1.
</event>
<event>
 7    1  0.3221417E-010  0.4778727E+02  0.7816164E-02  0.1312668E+00
        -11   -1    0    0    0    0  0.00000000000E+00  0.00000000000E+00  0.45593999997E+02  0.45594000000E+02  0.51100000000E-03 0. -1.
         11   -1    0    0    0    0 -0.00000000000E+00 -0.00000000000E+00 -0.45593999997E+02  0.45594000000E+02  0.51100000000E-03 0.  1.
    9900012    2    1    2    0    0  0.59499186526E+01  0.17378105443E+02 -0.39322047988E+02  0.47787267993E+02  0.19999986089E+02 0.  0.
         12    1    1    2    0    0 -0.59499186526E+01 -0.17378105443E+02  0.39322047988E+02  0.43400732007E+02  0.00000000000E+00 0. -1.
         11    1    3    3    0    0  0.38735001259E+01 -0.29022352315E+00 -0.91652193629E+01  0.99543698519E+01  0.51100000000E-03 0. -1.
        -11    1    3    3    0    0 -0.57777191722E+01  0.82116914006E+01 -0.96640885328E+01  0.13935871768E+02  0.51100000000E-03 0.  1.
        -12    1    3    3    0    0  0.78541376989E+01  0.94566375655E+01 -0.20492740092E+02  0.23897026374E+02  0.00000000000E+00 0.  1.
</event>
<event>
 7    1  0.3221417E-010  0.4778727E+02  0.7816164E-02  0.1312668E+00
        -11   -1    0    0    0    0  0.00000000000E+00  0.00000000000E+00  0.45593999997E+02  0.45594000000E+02  0.51100000000E-03 0. -1.
         11   -1    0    0    0    0 -0.00000000000E+00 -0.00000000000E+00 -0.45593999997E+02  0.45594000000E+02  0.51100000000E-03 0.  1.
    9900012    2    1    2    0    0 -0.63521289692E+01  0.19839829189E+02 -0.38074333947E+02  0.47787271086E+02  0.20000000192E+02 0.  0.
         12    1    1    2    0    0  0.63521289692E+01 -0.19839829189E+02  0.38074333947E+02  0.43400728914E+02  0.00000000000E+00 0. -1.
         11    1    3    3    0    0 -0.39438847880E+01  0.13007962222E+02 -0.10395356279E+02  0.17112122628E+02  0.51100000000E-03 0. -1.
        -11    1    3    3    0    0 -0.15738193177E+01 -0.29560533935E+01 -0.59229284493E+01  0.68041340806E+01  0.51100000000E-03 0.  1.
        -12    1    3    3    0    0 -0.83442486356E+00  0.97879203606E+01 -0.21756049219E+02  0.23871014378E+02  0.00000000000E+00 0.  1.
</event>
<event>
 7    1  0.3221417E-010  0.4778729E+02  0.7816164E-02  0.1312668E+00
        -11   -1    0    0    0    0  0.00000000000E+00  0.00000000000E+00  0.45593999997E+02  0.45594000000E+02  0.51100000000E-03 0. -1.
         11   -1    0    0    0    0 -0.00000000000E+00 -0.00000000000E+00 -0.45593999997E+02  0.45594000000E+02  0.51100000000E-03 0.  1.
    9900012    2    1    2    0    0 -0.35891991157E+02 -0.19669848574E+02  0.14438974838E+02  0.47787286107E+02  0.20000068675E+02 0.  0.
        -12    1    1    2    0    0  0.35891991157E+02  0.19669848574E+02 -0.14438974838E+02  0.43400713893E+02  0.00000000000E+00 0.  1.
         11    1    3    3    0    0 -0.12299901176E+02 -0.13968983597E+02  0.93125639830E+01  0.20812109933E+02  0.51100000000E-03 0. -1.
        -11    1    3    3    0    0 -0.18623905535E+02 -0.78480462348E+01  0.11192818282E+01  0.20240911026E+02  0.51100000000E-03 0.  1.
        -12    1    3    3    0    0 -0.49681844457E+01  0.21471812587E+01  0.40071290263E+01  0.67342651476E+01  0.00000000000E+00 0.  1.
</event>
<event>
 7    1  0.3221417E-010  0.4778727E+02  0.7816164E-02  0.1312668E+00
        -11   -1    0    0    0    0  0.00000000000E+00  0.00000000000E+00  0.45593999997E+02  0.45594000000E+02  0.51100000000E-03 0. -1.
         11   -1    0    0    0    0 -0.00000000000E+00 -0.00000000000E+00 -0.45593999997E+02  0.45594000000E+02  0.51100000000E-03 0.  1.
    9900012    2    1    2    0    0  0.13289874981E+02  0.31323229817E+02  0.26941749405E+02  0.47787270004E+02  0.19999995257E+02 0.  0.
        -12    1    1    2    0    0 -0.13289874981E+02 -0.31323229817E+02 -0.26941749405E+02  0.43400729996E+02  0.00000000000E+00 0.  1.
         11    1    3    3    0    0  0.97288704067E+01  0.28604238530E+02  0.26305228074E+02  0.40060184792E+02  0.51100000000E-03 0. -1.
        -11    1    3    3    0    0  0.37737785362E+00 -0.10696386977E+01  0.22519184677E+01  0.25214436409E+01  0.51100000000E-03 0.  1.
        -12    1    3    3    0    0  0.31836267203E+01  0.37886299849E+01 -0.16153971371E+01  0.52056415711E+01  0.00000000000E+00 0.  1.
</event>
<event>
 7    1  0.3221417E-010  0.4778729E+02  0.7816164E-02  0.1312668E+00
        -11   -1    0    0    0    0  0.00000000000E+00  0.00000000000E+00  0.45593999997E+02  0.45594000000E+02  0.51100000000E-03 0. -1.
         11   -1    0    0    0    0 -0.00000000000E+00 -0.00000000000E+00 -0.45593999997E+02  0.45594000000E+02  0.51100000000E-03 0.  1.
    9900012    2    1    2    0    0 -0.35697150963E+02 -0.14968274856E+02 -0.19628694041E+02  0.47787291840E+02  0.20000094815E+02 0.  0.
         12    1    1    2    0    0  0.35697150963E+02  0.14968274856E+02  0.19628694041E+02  0.43400708160E+02  0.00000000000E+00 0. -1.
         11    1    3    3    0    0  0.14382468344E+00 -0.50844852275E+01  0.10029141093E+01  0.51844491067E+01  0.51100000000E-03 0. -1.
        -11    1    3    3    0    0 -0.11263905161E+02 -0.41363945840E+01 -0.58006173299E+01  0.13327883601E+02  0.51100000000E-03 0.  1.
         12    1    3    3    0    0 -0.24577070486E+02 -0.57473950446E+01 -0.14830990821E+02  0.29274959132E+02  0.00000000000E+00 0. -1.
</event>
<event>
 7    1  0.3221417E-010  0.4778727E+02  0.7816164E-02  0.1312668E+00
        -11   -1    0    0    0    0  0.00000000000E+00  0.00000000000E+00  0.45593999997E+02  0.45594000000E+02  0.51100000000E-03 0. -1.
         11   -1    0    0    0    0 -0.00000000000E+00 -0.00000000000E+00 -0.45593999997E+02  0.45594000000E+02  0.51100000000E-03 0.  1.
    9900012    2    1    2    0    0  0.13853281455E+02 -0.10320269085E+02 -0.39814597457E+02  0.47787268074E+02  0.19999986458E+02 0.  0.
         12    1    1    2    0    0 -0.13853281455E+02  0.10320269085E+02  0.39814597457E+02  0.43400731926E+02  0.00000000000E+00 0. -1.
         11    1    3    3    0    0  0.80239802642E+01  0.10140467758E+01 -0.35913348462E+01  0.88493071132E+01  0.51100000000E-03 0. -1.
        -11    1    3    3    0    0  0.36902688404E+01 -0.57405885643E+01 -0.10471408676E+02  0.12498913596E+02  0.51100000000E-03 0.  1.
         12    1    3    3    0    0  0.21390323499E+01 -0.55937272961E+01 -0.25751853935E+02  0.26439047365E+02  0.00000000000E+00 0. -1.
</event>
<event>
 7    1  0.3221417E-010  0.4778728E+02  0.7816164E-02  0.1312668E+00
        -11   -1    0    0    0    0  0.00000000000E+00  0.00000000000E+00  0.45593999997E+02  0.45594000000E+02  0.51100000000E-03 0. -1.
         11   -1    0    0    0    0 -0.00000000000E+00 -0.00000000000E+00 -0.45593999997E+02  0.45594000000E+02  0.51100000000E-03 0.  1.
    9900012    2    1    2    0    0  0.30973892879E+02 -0.19745555549E+02 -0.23116096652E+02  0.47787275024E+02  0.20000018145E+02 0.  0.
         12    1    1    2    0    0 -0.30973892879E+02  0.19745555549E+02  0.23116096652E+02  0.43400724976E+02  0.00000000000E+00 0. -1.
         11    1    3    3    0    0  0.63408467619E+01 -0.20994420480E+01 -0.75929297854E+01  0.10112693882E+02  0.51100000000E-03 0. -1.
        -11    1    3    3    0    0  0.15819097648E+02 -0.61923187905E+01 -0.15828029768E+02  0.23218854170E+02  0.51100000000E-03 0.  1.
        -12    1    3    3    0    0  0.88139484691E+01 -0.11453794711E+02  0.30486290124E+00  0.14455726972E+02  0.00000000000E+00 0.  1.
</event>
<event>
 7    1  0.3221417E-010  0.4778727E+02  0.7816164E-02  0.1312668E+00
        -11   -1    0    0    0    0  0.00000000000E+00  0.00000000000E+00  0.45593999997E+02  0.45594000000E+02  0.51100000000E-03 0. -1.
         11   -1    0    0    0    0 -0.00000000000E+00 -0.00000000000E+00 -0.45593999997E+02  0.45594000000E+02  0.51100000000E-03 0.  1.
    9900012    2    1    2    0    0  0.10781754869E+02 -0.20747706534E+02  0.36563777033E+02  0.47787270105E+02  0.19999995717E+02 0.  0.
        -12    1    1    2    0    0 -0.10781754869E+02  0.20747706534E+02 -0.36563777033E+02  0.43400729895E+02  0.00000000000E+00 0.  1.
         11    1    3    3    0    0 -0.13120929620E+01 -0.85513243695E+01  0.16696436366E+02  0.18804726108E+02  0.51100000000E-03 0. -1.
        -11    1    3    3    0    0 -0.26961828387E+00 -0.61498796322E+01  0.20912042156E+01  0.65012959356E+01  0.51100000000E-03 0.  1.
         12    1    3    3    0    0  0.12363466115E+02 -0.60465025321E+01  0.17776136451E+02  0.22481248061E+02  0.00000000000E+00 0. -1.
</event>
<event>
 7    1  0.3221417E-010  0.4778727E+02  0.7816164E-02  0.1312668E+00
        -11   -1    0    0    0    0  0.00000000000E+00  0.00000000000E+00  0.45593999997E+02  0.45594000000E+02  0.51100000000E-03 0. -1.
         11   -1    0    0    0    0 -0.00000000000E+00 -0.00000000000E+00 -0.45593999997E+02  0.45594000000E+02  0.51100000000E-03 0.  1.
    9900012    2    1    2    0    0  0.23387407249E+02  0.20275021122E+02 -0.30423281356E+02  0.47787270193E+02  0.19999996116E+02 0.  0.
         12    1    1    2    0    0 -0.23387407249E+02 -0.20275021122E+02  0.30423281356E+02  0.43400729807E+02  0.00000000000E+00 0. -1.
         11    1    3    3    0    0  0.90820928489E+01  0.17761009425E+00 -0.89487563409E+01  0.12751321350E+02  0.51100000000E-03 0. -1.
        -11    1    3    3    0    0  0.71070494941E+01  0.88220819336E+00 -0.53538436407E+01  0.89415930236E+01  0.51100000000E-03 0.  1.
        -12    1    3    3    0    0  0.71982649063E+01  0.19215202834E+02 -0.16120681375E+02  0.26094355819E+02  0.00000000000E+00 0.  1.
</event>
<event>
 7    1  0.3221417E-010  0.4778727E+02  0.7816164E-02  0.1312668E+00
        -11   -1    0    0    0    0  0.00000000000E+00  0.00000000000E+00  0.45593999997E+02  0.45594000000E+02  0.51100000000E-03 0. -1.
         11   -1    0    0    0    0 -0.00000000000E+00 -0.00000000000E+00 -0.45593999997E+02  0.45594000000E+02  0.51100000000E-03 0.  1.
    9900012    2    1    2    0    0 -0.17287349464E+00  0.26115783483E+02  0.34663515559E+02  0.47787270247E+02  0.19999996364E+02 0.  0.
        -12    1    1    2    0    0  0.17287349464E+00 -0.26115783483E+02 -0.34663515559E+02  0.43400729753E+02  0.00000000000E+00 0.  1.
         11    1    3    3    0    0 -0.41163585493E+01  0.14341452673E+02  0.14829066333E+02  0.21036227824E+02  0.51100000000E-03 0.  1.
        -11    1    3    3    0    0  0.67790050457E+00  0.44241740984E+01  0.17937440048E+02  0.18487417919E+02  0.51100000000E-03 0. -1.
        -12    1    3    3    0    0  0.32655845501E+01  0.73501567111E+01  0.18970091780E+01  0.82636245046E+01  0.00000000000E+00 0.  1.
</event>
<event>
 7    1  0.3221417E-010  0.4778727E+02  0.7816164E-02  0.1312668E+00
        -11   -1    0    0    0    0  0.00000000000E+00  0.00000000000E+00  0.45593999997E+02  0.45594000000E+02  0.51100000000E-03 0. -1.
         11   -1    0    0    0    0 -0.00000000000E+00 -0.00000000000E+00 -0.45593999997E+02  0.45594000000E+02  0.51100000000E-03 0.  1.
    9900012    2    1    2    0    0  0.38847195383E+02  0.38310387567E+01 -0.18969493150E+02  0.47787272847E+02  0.20000008218E+02 0.  0.
         12    1    1    2    0    0 -0.38847195383E+02 -0.38310387567E+01  0.18969493150E+02  0.43400727153E+02  0.00000000000E+00 0. -1.
         11    1    3    3    0    0  0.50523280021E+01  0.41744699874E+01 -0.89309550857E+01  0.11077643112E+02  0.51100000000E-03 0. -1.
        -11    1    3    3    0    0  0.77835925785E+01 -0.42608558751E+01 -0.11703765865E+01  0.89503624414E+01  0.51100000000E-03 0.  1.
        -12    1    3    3    0    0  0.26011274802E+02  0.39174246445E+01 -0.88681614775E+01  0.27759267293E+02  0.00000000000E+00 0.  1.
</event>
<event>
 7    1  0.3221417E-010  0.4778727E+02  0.7816164E-02  0.1312668E+00
        -11   -1    0    0    0    0  0.00000000000E+00  0.00000000000E+00  0.45593999997E+02  0.45594000000E+02  0.51100000000E-03 0. -1.
         11   -1    0    0    0    0 -0.00000000000E+00 -0.00000000000E+00 -0.45593999997E+02  0.45594000000E+02  0.51100000000E-03 0.  1.
    9900012    2    1    2    0    0  0.25107408783E+02 -0.29343026975E+01 -0.35279330567E+02  0.47787271050E+02  0.20000000027E+02 0.  0.
         12    1    1    2    0    0 -0.25107408783E+02  0.29343026975E+01  0.35279330567E+02  0.43400728950E+02  0.00000000000E+00 0. -1.
         11    1    3    3    0    0  0.67368768681E+00 -0.49385129412E+00 -0.54893244894E+01  0.55525154490E+01  0.51100000000E-03 0. -1.
        -11    1    3    3    0    0  0.13708946077E+02  0.23312450182E+01 -0.26687840515E+02  0.30093367001E+02  0.51100000000E-03 0.  1.
         12    1    3    3    0    0  0.10724775019E+02 -0.47716964216E+01 -0.31021655626E+01  0.12141388600E+02  0.00000000000E+00 0. -1.
</event>
<event>
 7    1  0.3221417E-010  0.4778727E+02  0.7816164E-02  0.1312668E+00
        -11   -1    0    0    0    0  0.00000000000E+00  0.00000000000E+00  0.45593999997E+02  0.45594000000E+02  0.51100000000E-03 0. -1.
         11   -1    0    0    0    0 -0.00000000000E+00 -0.00000000000E+00 -0.45593999997E+02  0.45594000000E+02  0.51100000000E-03 0.  1.
    9900012    2    1    2    0    0  0.31991516785E+02  0.14696535081E+02 -0.25380661618E+02  0.47787271045E+02  0.20000000004E+02 0.  0.
         12    1    1    2    0    0 -0.31991516785E+02 -0.14696535081E+02  0.25380661618E+02  0.43400728955E+02  0.00000000000E+00 0. -1.
         11    1    3    3    0    0 -0.58640157106E-01  0.49984753813E+00 -0.34364498129E+01  0.34731072265E+01  0.51100000000E-03 0. -1.
        -11    1    3    3    0    0  0.57254052719E+01  0.36384618623E+01 -0.12846563752E+02  0.14527658819E+02  0.51100000000E-03 0.  1.
         12    1    3    3    0    0  0.26324751670E+02  0.10558225681E+02 -0.90976480535E+01  0.29786505000E+02  0.00000000000E+00 0. -1.
</event>
<event>
 7    1  0.3221417E-010  0.4778727E+02  0.7816164E-02  0.1312668E+00
        -11   -1    0    0    0    0  0.00000000000E+00  0.00000000000E+00  0.45593999997E+02  0.45594000000E+02  0.51100000000E-03 0. -1.
         11   -1    0    0    0    0 -0.00000000000E+00 -0.00000000000E+00 -0.45593999997E+02  0.45594000000E+02  0.51100000000E-03 0.  1.
    9900012    2    1    2    0    0  0.18778293359E+02 -0.27069072649E+02 -0.28253567663E+02  0.47787273264E+02  0.20000010121E+02 0.  0.
         12    1    1    2    0    0 -0.18778293359E+02  0.27069072649E+02  0.28253567663E+02  0.43400726736E+02  0.00000000000E+00 0. -1.
         11    1    3    3    0    0  0.27352475099E+01 -0.28180153134E+01 -0.63298484390E+01  0.74491456402E+01  0.51100000000E-03 0.  1.
        -11    1    3    3    0    0  0.22083248288E+00 -0.80368368768E+01 -0.14353648979E+02  0.16451952870E+02  0.51100000000E-03 0. -1.
         12    1    3    3    0    0  0.15822213366E+02 -0.16214220458E+02 -0.75700702450E+01  0.23886174754E+02  0.00000000000E+00 0. -1.
</event>
<event>
 7    1  0.3221417E-010  0.4778727E+02  0.7816164E-02  0.1312668E+00
        -11   -1    0    0    0    0  0.00000000000E+00  0.00000000000E+00  0.45593999997E+02  0.45594000000E+02  0.51100000000E-03 0. -1.
         11   -1    0    0    0    0 -0.00000000000E+00 -0.00000000000E+00 -0.45593999997E+02  0.45594000000E+02  0.51100000000E-03 0.  1.
    9900012    2    1    2    0    0 -0.10082185809E+02 -0.12717230776E+02  0.40252267930E+02  0.47787268407E+02  0.19999987975E+02 0.  0.
        -12    1    1    2    0    0  0.10082185809E+02  0.12717230776E+02 -0.40252267930E+02  0.43400731593E+02  0.00000000000E+00 0.  1.
         11    1    3    3    0    0 -0.39537883928E+01 -0.50552273368E+01  0.23415872573E+02  0.24279432750E+02  0.51100000000E-03 0. -1.
        -11    1    3    3    0    0 -0.52269034837E+01 -0.11395132650E+02  0.12282792024E+02  0.17550970010E+02  0.51100000000E-03 0.  1.
        -12    1    3    3    0    0 -0.90149393303E+00  0.37331292103E+01  0.45536033334E+01  0.59568656464E+01  0.00000000000E+00 0.  1.
</event>
<event>
 7    1  0.3221417E-010  0.4778727E+02  0.7816164E-02  0.1312668E+00
        -11   -1    0    0    0    0  0.00000000000E+00  0.00000000000E+00  0.45593999997E+02  0.45594000000E+02  0.51100000000E-03 0. -1.
         11   -1    0    0    0    0 -0.00000000000E+00 -0.00000000000E+00 -0.45593999997E+02  0.45594000000E+02  0.51100000000E-03 0.  1.
    9900012    2    1    2    0    0 -0.99270010250E+01 -0.20705285135E+02  0.36828919470E+02  0.47787268541E+02  0.19999988587E+02 0.  0.
        -12    1    1    2    0    0  0.99270010250E+01  0.20705285135E+02 -0.36828919470E+02  0.43400731459E+02  0.00000000000E+00 0.  1.
         11    1    3    3    0    0 -0.15787187973E+01 -0.70221464810E+01  0.21280027915E+02  0.22464248987E+02  0.51100000000E-03 0. -1.
        -11    1    3    3    0    0 -0.28386360154E+01 -0.10634190603E+02  0.32016106613E+01  0.11462729836E+02  0.51100000000E-03 0.  1.
         12    1    3    3    0    0 -0.55096462123E+01 -0.30489480505E+01  0.12347280893E+02  0.13860289717E+02  0.00000000000E+00 0. -1.
</event>
<event>
 7    1  0.3221417E-010  0.4778727E+02  0.7816164E-02  0.1312668E+00
        -11   -1    0    0    0    0  0.00000000000E+00  0.00000000000E+00  0.45593999997E+02  0.45594000000E+02  0.51100000000E-03 0.  1.
         11   -1    0    0    0    0 -0.00000000000E+00 -0.00000000000E+00 -0.45593999997E+02  0.45594000000E+02  0.51100000000E-03 0. -1.
    9900012    2    1    2    0    0  0.38734095989E+02 -0.19367523618E+02 -0.28621731018E+01  0.47787271918E+02  0.20000003985E+02 0.  0.
         12    1    1    2    0    0 -0.38734095989E+02  0.19367523618E+02  0.28621731018E+01  0.43400728082E+02  0.00000000000E+00 0. -1.
         11    1    3    3    0    0  0.16755905905E+01 -0.44388462355E+01 -0.15729463925E+01  0.49985118130E+01  0.51100000000E-03 0. -1.
        -11    1    3    3    0    0  0.19004422038E+02 -0.47350110097E+01  0.65073956371E+01  0.20638182684E+02  0.51100000000E-03 0.  1.
        -12    1    3    3    0    0  0.18054083360E+02 -0.10193666372E+02 -0.77966223464E+01  0.22150577421E+02  0.00000000000E+00 0.  1.
</event>
<event>
 7    1  0.3221417E-010  0.4778727E+02  0.7816164E-02  0.1312668E+00
        -11   -1    0    0    0    0  0.00000000000E+00  0.00000000000E+00  0.45593999997E+02  0.45594000000E+02  0.51100000000E-03 0. -1.
         11   -1    0    0    0    0 -0.00000000000E+00 -0.00000000000E+00 -0.45593999997E+02  0.45594000000E+02  0.51100000000E-03 0.  1.
    9900012    2    1    2    0    0 -0.41239210585E+02  0.10566581147E+02 -0.84438325029E+01  0.47787269198E+02  0.19999991583E+02 0.  0.
         12    1    1    2    0    0  0.41239210585E+02 -0.10566581147E+02  0.84438325029E+01  0.43400730802E+02  0.00000000000E+00 0. -1.
         11    1    3    3    0    0 -0.69213588555E+01  0.68728844929E+01 -0.34186507147E+01  0.10335807788E+02  0.51100000000E-03 0. -1.
        -11    1    3    3    0    0 -0.35163264636E+02  0.40671625676E+01 -0.62209094665E+01  0.35940182332E+02  0.51100000000E-03 0.  1.
         12    1    3    3    0    0  0.84541290699E+00 -0.37346591301E+00  0.11957276783E+01  0.15112790782E+01  0.00000000000E+00 0. -1.
</event>
<event>
 7    1  0.3221417E-010  0.4778727E+02  0.7816164E-02  0.1312668E+00
        -11   -1    0    0    0    0  0.00000000000E+00  0.00000000000E+00  0.45593999997E+02  0.45594000000E+02  0.51100000000E-03 0.  1.
         11   -1    0    0    0    0 -0.00000000000E+00 -0.00000000000E+00 -0.45593999997E+02  0.45594000000E+02  0.51100000000E-03 0. -1.
    9900012    2    1    2    0    0  0.14918138911E+02 -0.39550646051E+02 -0.98396704531E+01  0.47787267446E+02  0.19999983591E+02 0.  0.
        -12    1    1    2    0    0 -0.14918138911E+02  0.39550646051E+02  0.98396704531E+01  0.43400732554E+02  0.00000000000E+00 0.  1.
         11    1    3    3    0    0  0.53211822553E+01 -0.11857977427E+02 -0.91225508975E+01  0.15879154398E+02  0.51100000000E-03 0. -1.
        -11    1    3    3    0    0 -0.26146709526E+01 -0.22869019633E+01  0.11474128087E+01  0.36582757133E+01  0.51100000000E-03 0.  1.
        -12    1    3    3    0    0  0.12211627608E+02 -0.25405766661E+02 -0.18645323643E+01  0.28249837335E+02  0.00000000000E+00 0.  1.
</event>
<event>
 7    1  0.3221417E-010  0.4778729E+02  0.7816164E-02  0.1312668E+00
        -11   -1    0    0    0    0  0.00000000000E+00  0.00000000000E+00  0.45593999997E+02  0.45594000000E+02  0.51100000000E-03 0. -1.
         11   -1    0    0    0    0 -0.00000000000E+00 -0.00000000000E+00 -0.45593999997E+02  0.45594000000E+02  0.51100000000E-03 0.  1.
    9900012    2    1    2    0    0 -0.32703800255E+02 -0.20472124453E+02 -0.19873986533E+02  0.47787288354E+02  0.20000078919E+02 0.  0.
         12    1    1    2    0    0  0.32703800255E+02  0.20472124453E+02  0.19873986533E+02  0.43400711646E+02  0.00000000000E+00 0. -1.
         11    1    3    3    0    0  0.23502148515E+00 -0.17125087479E+01 -0.65201650314E+01  0.67454038877E+01  0.51100000000E-03 0. -1.
        -11    1    3    3    0    0 -0.75452780858E+01 -0.49789570929E+01  0.38843048448E+00  0.90483210391E+01  0.51100000000E-03 0.  1.
         12    1    3    3    0    0 -0.25393543654E+02 -0.13780658612E+02 -0.13742251986E+02  0.31993563427E+02  0.00000000000E+00 0. -1.
</event>
<event>
 7    1  0.3221417E-010  0.4778725E+02  0.7816164E-02  0.1312668E+00
        -11   -1    0    0    0    0  0.00000000000E+00  0.00000000000E+00  0.45593999997E+02  0.45594000000E+02  0.51100000000E-03 0. -1.
         11   -1    0    0    0    0 -0.00000000000E+00 -0.00000000000E+00 -0.45593999997E+02  0.45594000000E+02  0.51100000000E-03 0.  1.
    9900012    2    1    2    0    0  0.29779840483E+02 -0.80881753758E+01  0.30518318792E+02  0.47787248141E+02  0.19999895572E+02 0.  0.
        -12    1    1    2    0    0 -0.29779840483E+02  0.80881753758E+01 -0.30518318792E+02  0.43400751859E+02  0.00000000000E+00 0.  1.
         11    1    3    3    0    0  0.20168233631E+02 -0.90631541042E+01  0.29159192246E+02  0.36594492794E+02  0.51100000000E-03 0. -1.
        -11    1    3    3    0    0  0.52009186046E+01 -0.22284437718E+01  0.74304373338E+00  0.57068056061E+01  0.51100000000E-03 0.  1.
         12    1    3    3    0    0  0.44106882469E+01  0.32034225002E+01  0.61608281232E+00  0.54859497407E+01  0.00000000000E+00 0. -1.
</event>
<event>
 7    1  0.3221417E-010  0.4778728E+02  0.7816164E-02  0.1312668E+00
        -11   -1    0    0    0    0  0.00000000000E+00  0.00000000000E+00  0.45593999997E+02  0.45594000000E+02  0.51100000000E-03 0. -1.
         11   -1    0    0    0    0 -0.00000000000E+00 -0.00000000000E+00 -0.45593999997E+02  0.45594000000E+02  0.51100000000E-03 0.  1.
    9900012    2    1    2    0    0 -0.36713279256E+02  0.21667439695E+02  0.81412594118E+01  0.47787275104E+02  0.20000018510E+02 0.  0.
        -12    1    1    2    0    0  0.36713279256E+02 -0.21667439695E+02 -0.81412594118E+01  0.43400724896E+02  0.00000000000E+00 0.  1.
         11    1    3    3    0    0 -0.71137729422E+01 -0.10000690617E+01  0.36548458173E+01  0.80600125192E+01  0.51100000000E-03 0. -1.
        -11    1    3    3    0    0 -0.96011641340E+01  0.37800025453E+01  0.64184334916E+01  0.12151833636E+02  0.51100000000E-03 0.  1.
        -12    1    3    3    0    0 -0.19998342180E+02  0.18887506212E+02 -0.19320198971E+01  0.27575428949E+02  0.00000000000E+00 0.  1.
</event>
<event>
 7    1  0.3221417E-010  0.4778728E+02  0.7816164E-02  0.1312668E+00
        -11   -1    0    0    0    0  0.00000000000E+00  0.00000000000E+00  0.45593999997E+02  0.45594000000E+02  0.51100000000E-03 0.  1.
         11   -1    0    0    0    0 -0.00000000000E+00 -0.00000000000E+00 -0.45593999997E+02  0.45594000000E+02  0.51100000000E-03 0. -1.
    9900012    2    1    2    0    0  0.29146674263E+02 -0.28112981588E+02  0.15612630272E+02  0.47787279058E+02  0.20000036535E+02 0.  0.
         12    1    1    2    0    0 -0.29146674263E+02  0.28112981588E+02 -0.15612630272E+02  0.43400720942E+02  0.00000000000E+00 0. -1.
         11    1    3    3    0    0  0.11912582968E+02 -0.19999040539E+01 -0.29120285194E+00  0.12082799698E+02  0.51100000000E-03 0. -1.
        -11    1    3    3    0    0  0.76345500593E+00 -0.56233016838E+01  0.30086413570E+01  0.64231073827E+01  0.51100000000E-03 0.  1.
        -12    1    3    3    0    0  0.16470636289E+02 -0.20489775850E+02  0.12895191767E+02  0.29281371977E+02  0.00000000000E+00 0.  1.
</event>
<event>
 7    1  0.3221417E-010  0.4778727E+02  0.7816164E-02  0.1312668E+00
        -11   -1    0    0    0    0  0.00000000000E+00  0.00000000000E+00  0.45593999997E+02  0.45594000000E+02  0.51100000000E-03 0. -1.
         11   -1    0    0    0    0 -0.00000000000E+00 -0.00000000000E+00 -0.45593999997E+02  0.45594000000E+02  0.51100000000E-03 0.  1.
    9900012    2    1    2    0    0 -0.19268646477E+02 -0.88240498155E+01  0.37874512120E+02  0.47787271198E+02  0.20000000702E+02 0.  0.
        -12    1    1    2    0    0  0.19268646477E+02  0.88240498155E+01 -0.37874512120E+02  0.43400728802E+02  0.00000000000E+00 0.  1.
         11    1    3    3    0    0 -0.10707139928E+02 -0.41677448820E+01  0.80677410799E+01  0.14039280225E+02  0.51100000000E-03 0. -1.
        -11    1    3    3    0    0 -0.92857945460E+01  0.15896896535E+01  0.19847051692E+02  0.21969491452E+02  0.51100000000E-03 0.  1.
         12    1    3    3    0    0  0.72428799710E+00 -0.62459945870E+01  0.99597193478E+01  0.11778499521E+02  0.00000000000E+00 0. -1.
</event>
<event>
 7    1  0.3221417E-010  0.4778727E+02  0.7816164E-02  0.1312668E+00
        -11   -1    0    0    0    0  0.00000000000E+00  0.00000000000E+00  0.45593999997E+02  0.45594000000E+02  0.51100000000E-03 0. -1.
         11   -1    0    0    0    0 -0.00000000000E+00 -0.00000000000E+00 -0.45593999997E+02  0.45594000000E+02  0.51100000000E-03 0.  1.
    9900012    2    1    2    0    0  0.81762574975E+00  0.26891696200E+02 -0.34055709647E+02  0.47787271943E+02  0.20000004096E+02 0.  0.
         12    1    1    2    0    0 -0.81762574975E+00 -0.26891696200E+02  0.34055709647E+02  0.43400728057E+02  0.00000000000E+00 0. -1.
         11    1    3    3    0    0 -0.11770762434E+01 -0.96364445350E+00 -0.70938708076E+01  0.72551445480E+01  0.51100000000E-03 0. -1.
        -11    1    3    3    0    0  0.24255447960E+01  0.10641445368E+02 -0.35649025830E+01  0.11481818574E+02  0.51100000000E-03 0.  1.
        -12    1    3    3    0    0 -0.43084280291E+00  0.17213895285E+02 -0.23396936256E+02  0.29050308821E+02  0.00000000000E+00 0.  1.
</event>
<event>
 7    1  0.3221417E-010  0.4778726E+02  0.7816164E-02  0.1312668E+00
        -11   -1    0    0    0    0  0.00000000000E+00  0.00000000000E+00  0.45593999997E+02  0.45594000000E+02  0.51100000000E-03 0.  1.
         11   -1    0    0    0    0 -0.00000000000E+00 -0.00000000000E+00 -0.45593999997E+02  0.45594000000E+02  0.51100000000E-03 0. -1.
    9900012    2    1    2    0    0 -0.32959675922E+02 -0.27905469540E+02  0.43091869787E+01  0.47787256233E+02  0.19999932468E+02 0.  0.
        -12    1    1    2    0    0  0.32959675922E+02  0.27905469540E+02 -0.43091869787E+01  0.43400743767E+02  0.00000000000E+00 0.  1.
         11    1    3    3    0    0 -0.14312052269E+02 -0.20064291205E+02  0.33255696317E+01  0.24869057790E+02  0.51100000000E-03 0. -1.
        -11    1    3    3    0    0 -0.19156243021E+02 -0.76632195362E+01  0.29837000594E+01  0.20846799435E+02  0.51100000000E-03 0.  1.
        -12    1    3    3    0    0  0.50861936839E+00 -0.17795879873E+00 -0.20000827124E+01  0.20713990085E+01  0.00000000000E+00 0.  1.
</event>
<event>
 7    1  0.3221417E-010  0.4778727E+02  0.7816164E-02  0.1312668E+00
        -11   -1    0    0    0    0  0.00000000000E+00  0.00000000000E+00  0.45593999997E+02  0.45594000000E+02  0.51100000000E-03 0. -1.
         11   -1    0    0    0    0 -0.00000000000E+00 -0.00000000000E+00 -0.45593999997E+02  0.45594000000E+02  0.51100000000E-03 0.  1.
    9900012    2    1    2    0    0 -0.17347854272E+02 -0.36798626535E+02  0.15117419796E+02  0.47787270236E+02  0.19999996315E+02 0.  0.
        -12    1    1    2    0    0  0.17347854272E+02  0.36798626535E+02 -0.15117419796E+02  0.43400729764E+02  0.00000000000E+00 0.  1.
         11    1    3    3    0    0  0.92772336091E+00 -0.62956863787E+01  0.74882253004E+00  0.64075793445E+01  0.51100000000E-03 0.  1.
        -11    1    3    3    0    0 -0.14509792007E+02 -0.28738993340E+02  0.17051396611E+02  0.36430947407E+02  0.51100000000E-03 0. -1.
         12    1    3    3    0    0 -0.37657856264E+01 -0.17639468162E+01 -0.26827993453E+01  0.49487434851E+01  0.00000000000E+00 0. -1.
</event>
<event>
 7    1  0.3221417E-010  0.4778727E+02  0.7816164E-02  0.1312668E+00
        -11   -1    0    0    0    0  0.00000000000E+00  0.00000000000E+00  0.45593999997E+02  0.45594000000E+02  0.51100000000E-03 0. -1.
         11   -1    0    0    0    0 -0.00000000000E+00 -0.00000000000E+00 -0.45593999997E+02  0.45594000000E+02  0.51100000000E-03 0.  1.
    9900012    2    1    2    0    0 -0.18647765242E+02  0.24885846606E+02  0.30275048480E+02  0.47787273390E+02  0.20000010694E+02 0.  0.
        -12    1    1    2    0    0  0.18647765242E+02 -0.24885846606E+02 -0.30275048480E+02  0.43400726610E+02  0.00000000000E+00 0.  1.
         11    1    3    3    0    0 -0.15430828824E+01  0.65959496656E+01  0.12611798052E+02  0.14315903993E+02  0.51100000000E-03 0. -1.
        -11    1    3    3    0    0 -0.19403335693E+02  0.16882848347E+02  0.16311381111E+02  0.30456217072E+02  0.51100000000E-03 0.  1.
         12    1    3    3    0    0  0.22986533338E+01  0.14070485929E+01  0.13518693174E+01  0.30151523250E+01  0.00000000000E+00 0. -1.
</event>
<event>
 7    1  0.3221417E-010  0.4778727E+02  0.7816164E-02  0.1312668E+00
        -11   -1    0    0    0    0  0.00000000000E+00  0.00000000000E+00  0.45593999997E+02  0.45594000000E+02  0.51100000000E-03 0. -1.
         11   -1    0    0    0    0 -0.00000000000E+00 -0.00000000000E+00 -0.45593999997E+02  0.45594000000E+02  0.51100000000E-03 0.  1.
    9900012    2    1    2    0    0  0.65635769304E+01 -0.33688524925E+01  0.42769073299E+02  0.47787270282E+02  0.19999996524E+02 0.  0.
        -12    1    1    2    0    0 -0.65635769304E+01  0.33688524925E+01 -0.42769073299E+02  0.43400729718E+02  0.00000000000E+00 0.  1.
         11    1    3    3    0    0  0.33076938667E+01 -0.47863752902E+00  0.15203165390E+02  0.15566186775E+02  0.51100000000E-03 0. -1.
        -11    1    3    3    0    0 -0.16335742630E+01 -0.43569757818E+01  0.50221343027E+00  0.46801732261E+01  0.51100000000E-03 0.  1.
        -12    1    3    3    0    0  0.48894573267E+01  0.14667608184E+01  0.27063694479E+02  0.27540910280E+02  0.00000000000E+00 0.  1.
</event>
<event>
 7    1  0.3221417E-010  0.4778727E+02  0.7816164E-02  0.1312668E+00
        -11   -1    0    0    0    0  0.00000000000E+00  0.00000000000E+00  0.45593999997E+02  0.45594000000E+02  0.51100000000E-03 0. -1.
         11   -1    0    0    0    0 -0.00000000000E+00 -0.00000000000E+00 -0.45593999997E+02  0.45594000000E+02  0.51100000000E-03 0.  1.
    9900012    2    1    2    0    0 -0.28138071646E+02  0.14805358537E+02  0.29541044438E+02  0.47787273924E+02  0.20000013131E+02 0.  0.
        -12    1    1    2    0    0  0.28138071646E+02 -0.14805358537E+02 -0.29541044438E+02  0.43400726076E+02  0.00000000000E+00 0.  1.
         11    1    3    3    0    0 -0.92551799159E+01  0.88170920566E+01  0.41350736292E+01  0.13434965642E+02  0.51100000000E-03 0. -1.
        -11    1    3    3    0    0 -0.17414716547E+01 -0.28386669824E+01  0.15340431837E+01  0.36666118573E+01  0.51100000000E-03 0.  1.
         12    1    3    3    0    0 -0.17141420076E+02  0.88269334627E+01  0.23871927625E+02  0.30685696426E+02  0.00000000000E+00 0. -1.
</event>
<event>
 7    1  0.3221417E-010  0.4778727E+02  0.7816164E-02  0.1312668E+00
        -11   -1    0    0    0    0  0.00000000000E+00  0.00000000000E+00  0.45593999997E+02  0.45594000000E+02  0.51100000000E-03 0. -1.
         11   -1    0    0    0    0 -0.00000000000E+00 -0.00000000000E+00 -0.45593999997E+02  0.45594000000E+02  0.51100000000E-03 0.  1.
    9900012    2    1    2    0    0  0.28938895754E+02  0.14716775279E+02  0.28802432710E+02  0.47787270834E+02  0.19999999043E+02 0.  0.
        -12    1    1    2    0    0 -0.28938895754E+02 -0.14716775279E+02 -0.28802432710E+02  0.43400729166E+02  0.00000000000E+00 0.  1.
         11    1    3    3    0    0  0.17193622747E+02  0.80076446648E+01  0.15971292448E+02  0.24795669359E+02  0.51100000000E-03 0. -1.
        -11    1    3    3    0    0  0.85519998593E+01  0.71035122029E+01  0.15316494873E+02  0.18925950509E+02  0.51100000000E-03 0.  1.
        -12    1    3    3    0    0  0.31932731485E+01 -0.39438158885E+00 -0.24853546113E+01  0.40656509666E+01  0.00000000000E+00 0.  1.
</event>
<event>
 7    1  0.3221417E-010  0.4778727E+02  0.7816164E-02  0.1312668E+00
        -11   -1    0    0    0    0  0.00000000000E+00  0.00000000000E+00  0.45593999997E+02  0.45594000000E+02  0.51100000000E-03 0. -1.
         11   -1    0    0    0    0 -0.00000000000E+00 -0.00000000000E+00 -0.45593999997E+02  0.45594000000E+02  0.51100000000E-03 0.  1.
    9900012    2    1    2    0    0 -0.36964012596E+02 -0.77721193113E+01 -0.21374729665E+02  0.47787272656E+02  0.20000007347E+02 0.  0.
         12    1    1    2    0    0  0.36964012596E+02  0.77721193113E+01  0.21374729665E+02  0.43400727344E+02  0.00000000000E+00 0. -1.
         11    1    3    3    0    0 -0.69147573098E+01 -0.21811702600E+01 -0.46604914825E+01  0.86192548097E+01  0.51100000000E-03 0. -1.
        -11    1    3    3    0    0 -0.14111516337E+02  0.42308341670E+01 -0.13866605361E+02  0.20231598937E+02  0.51100000000E-03 0.  1.
         12    1    3    3    0    0 -0.15937738949E+02 -0.98217832183E+01 -0.28476328218E+01  0.18936418909E+02  0.00000000000E+00 0. -1.
</event>
<event>
 7    1  0.3221417E-010  0.4778727E+02  0.7816164E-02  0.1312668E+00
        -11   -1    0    0    0    0  0.00000000000E+00  0.00000000000E+00  0.45593999997E+02  0.45594000000E+02  0.51100000000E-03 0. -1.
         11   -1    0    0    0    0 -0.00000000000E+00 -0.00000000000E+00 -0.45593999997E+02  0.45594000000E+02  0.51100000000E-03 0.  1.
    9900012    2    1    2    0    0 -0.15656384770E+02  0.17699617356E+02  0.36403630869E+02  0.47787272137E+02  0.20000004981E+02 0.  0.
        -12    1    1    2    0    0  0.15656384770E+02 -0.17699617356E+02 -0.36403630869E+02  0.43400727863E+02  0.00000000000E+00 0.  1.
         11    1    3    3    0    0 -0.73582105320E+01  0.53228022328E+01  0.13714316432E+02  0.16448646184E+02  0.51100000000E-03 0. -1.
        -11    1    3    3    0    0  0.14663181854E+01  0.11610851767E+02  0.13980730119E+02  0.18232465075E+02  0.51100000000E-03 0.  1.
        -12    1    3    3    0    0 -0.97644924230E+01  0.76596335670E+00  0.87085843178E+01  0.13106160878E+02  0.00000000000E+00 0.  1.
</event>
<event>
 7    1  0.3221417E-010  0.4778727E+02  0.7816164E-02  0.1312668E+00
        -11   -1    0    0    0    0  0.00000000000E+00  0.00000000000E+00  0.45593999997E+02  0.45594000000E+02  0.51100000000E-03 0. -1.
         11   -1    0    0    0    0 -0.00000000000E+00 -0.00000000000E+00 -0.45593999997E+02  0.45594000000E+02  0.51100000000E-03 0.  1.
    9900012    2    1    2    0    0  0.29663017531E+02 -0.95072394796E+00 -0.31667407911E+02  0.47787271793E+02  0.20000003413E+02 0.  0.
         12    1    1    2    0    0 -0.29663017531E+02  0.95072394796E+00  0.31667407911E+02  0.43400728207E+02  0.00000000000E+00 0. -1.
         11    1    3    3    0    0  0.67159475610E+01 -0.73784554591E+00 -0.13432621234E+02  0.15036079315E+02  0.51100000000E-03 0. -1.
        -11    1    3    3    0    0  0.24373093473E+02 -0.19078544018E+01 -0.14543951981E+02  0.28446689321E+02  0.51100000000E-03 0.  1.
         12    1    3    3    0    0 -0.14260235029E+01  0.16949759997E+01 -0.36908346959E+01  0.43045031563E+01  0.00000000000E+00 0. -1.
</event>
<event>
 7    1  0.5615098E-010  0.4778727E+02  0.7816164E-02  0.1312668E+00
        -11   -1    0    0    0    0  0.00000000000E+00  0.00000000000E+00  0.45593999997E+02  0.45594000000E+02  0.51100000000E-03 0. -1.
         11   -1    0    0    0    0 -0.00000000000E+00 -0.00000000000E+00 -0.45593999997E+02  0.45594000000E+02  0.51100000000E-03 0.  1.
    9900012    2    1    2    0    0  0.12094565877E+02  0.23509636919E+01 -0.41615112867E+02  0.47787272207E+02  0.20000005299E+02 0.  0.
         12    1    1    2    0    0 -0.12094565877E+02 -0.23509636919E+01  0.41615112867E+02  0.43400727793E+02  0.00000000000E+00 0. -1.
         11    1    3    3    0    0  0.71844455943E+00  0.64516614306E+01 -0.14103512957E+02  0.15525758461E+02  0.51100000000E-03 0. -1.
        -11    1    3    3    0    0  0.55087554057E+01 -0.29141955508E+01 -0.25008155397E+02  0.25772985051E+02  0.51100000000E-03 0.  1.
         12    1    3    3    0    0  0.58673659120E+01 -0.11865021880E+01 -0.25034445133E+01  0.64885286944E+01  0.00000000000E+00 0. -1.
</event>
<event>
 7    1  0.3221417E-010  0.4778727E+02  0.7816164E-02  0.1312668E+00
        -11   -1    0    0    0    0  0.00000000000E+00  0.00000000000E+00  0.45593999997E+02  0.45594000000E+02  0.51100000000E-03 0. -1.
         11   -1    0    0    0    0 -0.00000000000E+00 -0.00000000000E+00 -0.45593999997E+02  0.45594000000E+02  0.51100000000E-03 0.  1.
    9900012    2    1    2    0    0 -0.79704536567E+01 -0.35782608670E+02  0.23231450203E+02  0.47787268517E+02  0.19999988476E+02 0.  0.
        -12    1    1    2    0    0  0.79704536567E+01  0.35782608670E+02 -0.23231450203E+02  0.43400731483E+02  0.00000000000E+00 0.  1.
         11    1    3    3    0    0  0.53520981912E+00 -0.15431650435E+02  0.64365852204E+01  0.16728775038E+02  0.51100000000E-03 0. -1.
        -11    1    3    3    0    0  0.10651138401E+00 -0.31698914680E+01  0.10291702141E+02  0.10769340268E+02  0.51100000000E-03 0.  1.
        -12    1    3    3    0    0 -0.86121748598E+01 -0.17181066767E+02  0.65031628416E+01  0.20289153211E+02  0.00000000000E+00 0.  1.
</event>
<event>
 7    1  0.3221417E-010  0.4778727E+02  0.7816164E-02  0.1312668E+00
        -11   -1    0    0    0    0  0.00000000000E+00  0.00000000000E+00  0.45593999997E+02  0.45594000000E+02  0.51100000000E-03 0. -1.
         11   -1    0    0    0    0 -0.00000000000E+00 -0.00000000000E+00 -0.45593999997E+02  0.45594000000E+02  0.51100000000E-03 0.  1.
    9900012    2    1    2    0    0 -0.27901169623E+02  0.19824436396E+02  0.26685945800E+02  0.47787271343E+02  0.20000001360E+02 0.  0.
        -12    1    1    2    0    0  0.27901169623E+02 -0.19824436396E+02 -0.26685945800E+02  0.43400728657E+02  0.00000000000E+00 0.  1.
         11    1    3    3    0    0 -0.22013072283E+02  0.73950085633E+01  0.82610005600E+01  0.24647629369E+02  0.51100000000E-03 0.  1.
        -11    1    3    3    0    0 -0.37778671639E+01  0.61979603835E+01  0.11402504060E+02  0.13516807771E+02  0.51100000000E-03 0. -1.
        -12    1    3    3    0    0 -0.21102301759E+01  0.62314674490E+01  0.70224411802E+01  0.96228342027E+01  0.00000000000E+00 0.  1.
</event>
<event>
 7    1  0.3221417E-010  0.4778727E+02  0.7816164E-02  0.1312668E+00
        -11   -1    0    0    0    0  0.00000000000E+00  0.00000000000E+00  0.45593999997E+02  0.45594000000E+02  0.51100000000E-03 0. -1.
         11   -1    0    0    0    0 -0.00000000000E+00 -0.00000000000E+00 -0.45593999997E+02  0.45594000000E+02  0.51100000000E-03 0.  1.
    9900012    2    1    2    0    0 -0.37523069306E+02  0.16505386034E+02 -0.14255334779E+02  0.47787273416E+02  0.20000010815E+02 0.  0.
         12    1    1    2    0    0  0.37523069306E+02 -0.16505386034E+02  0.14255334779E+02  0.43400726584E+02  0.00000000000E+00 0. -1.
         11    1    3    3    0    0 -0.35892400630E+01  0.21584873015E+01 -0.73648169003E+01  0.84724400203E+01  0.51100000000E-03 0. -1.
        -11    1    3    3    0    0 -0.93213939579E+01  0.83591372081E+01  0.15480624316E+01  0.12615865319E+02  0.51100000000E-03 0.  1.
        -12    1    3    3    0    0 -0.24612435285E+02  0.59877615248E+01 -0.84385803106E+01  0.26698968078E+02  0.00000000000E+00 0.  1.
</event>
<event>
 7    1  0.3221417E-010  0.4778727E+02  0.7816164E-02  0.1312668E+00
        -11   -1    0    0    0    0  0.00000000000E+00  0.00000000000E+00  0.45593999997E+02  0.45594000000E+02  0.51100000000E-03 0. -1.
         11   -1    0    0    0    0 -0.00000000000E+00 -0.00000000000E+00 -0.45593999997E+02  0.45594000000E+02  0.51100000000E-03 0.  1.
    9900012    2    1    2    0    0 -0.66366074935E+01 -0.16133404353E+02  0.39740303141E+02  0.47787274329E+02  0.20000014975E+02 0.  0.
        -12    1    1    2    0    0  0.66366074935E+01  0.16133404353E+02 -0.39740303141E+02  0.43400725671E+02  0.00000000000E+00 0.  1.
         11    1    3    3    0    0 -0.65493575995E+01 -0.71355730637E+01  0.17131777230E+02  0.19680149370E+02  0.51100000000E-03 0. -1.
        -11    1    3    3    0    0 -0.13090108140E+01  0.25885564674E+01  0.27038896110E+00  0.29132875497E+01  0.51100000000E-03 0.  1.
        -12    1    3    3    0    0  0.12217609200E+01 -0.11586387757E+02  0.22338136950E+02  0.25193837409E+02  0.00000000000E+00 0.  1.
</event>
<event>
 7    1  0.3221417E-010  0.4778728E+02  0.7816164E-02  0.1312668E+00
        -11   -1    0    0    0    0  0.00000000000E+00  0.00000000000E+00  0.45593999997E+02  0.45594000000E+02  0.51100000000E-03 0. -1.
         11   -1    0    0    0    0 -0.00000000000E+00 -0.00000000000E+00 -0.45593999997E+02  0.45594000000E+02  0.51100000000E-03 0.  1.
    9900012    2    1    2    0    0  0.29476233032E+02  0.29504915587E+02 -0.12009760400E+02  0.47787277628E+02  0.20000030018E+02 0.  0.
         12    1    1    2    0    0 -0.29476233032E+02 -0.29504915587E+02  0.12009760400E+02  0.43400722372E+02  0.00000000000E+00 0. -1.
         11    1    3    3    0    0  0.14571120079E+02  0.10789213157E+02 -0.15420621454E+01  0.18196225345E+02  0.51100000000E-03 0. -1.
        -11    1    3    3    0    0  0.13887431992E+02  0.18315277716E+02 -0.13299539512E+02  0.26555374534E+02  0.51100000000E-03 0.  1.
         12    1    3    3    0    0  0.10176809615E+01  0.40042471414E+00  0.28318412574E+01  0.30356777494E+01  0.00000000000E+00 0. -1.
</event>
<event>
 7    1  0.3221417E-010  0.4778727E+02  0.7816164E-02  0.1312668E+00
        -11   -1    0    0    0    0  0.00000000000E+00  0.00000000000E+00  0.45593999997E+02  0.45594000000E+02  0.51100000000E-03 0. -1.
         11   -1    0    0    0    0 -0.00000000000E+00 -0.00000000000E+00 -0.45593999997E+02  0.45594000000E+02  0.51100000000E-03 0.  1.
    9900012    2    1    2    0    0 -0.16996434018E+02  0.17822961056E+02  0.35736349790E+02  0.47787269517E+02  0.19999993037E+02 0.  0.
        -12    1    1    2    0    0  0.16996434018E+02 -0.17822961056E+02 -0.35736349790E+02  0.43400730483E+02  0.00000000000E+00 0.  1.
         11    1    3    3    0    0 -0.65451250232E+01  0.16320221694E+01  0.14312109601E+02  0.15822093396E+02  0.51100000000E-03 0. -1.
        -11    1    3    3    0    0 -0.10319563765E+02  0.86772489373E+01  0.58991099503E+01  0.14716913531E+02  0.51100000000E-03 0.  1.
         12    1    3    3    0    0 -0.13174522959E+00  0.75136899497E+01  0.15525130238E+02  0.17248262590E+02  0.00000000000E+00 0. -1.
</event>
<event>
 7    1  0.3221417E-010  0.4778727E+02  0.7816164E-02  0.1312668E+00
        -11   -1    0    0    0    0  0.00000000000E+00  0.00000000000E+00  0.45593999997E+02  0.45594000000E+02  0.51100000000E-03 0. -1.
         11   -1    0    0    0    0 -0.00000000000E+00 -0.00000000000E+00 -0.45593999997E+02  0.45594000000E+02  0.51100000000E-03 0.  1.
    9900012    2    1    2    0    0  0.28103608295E+01 -0.98398523932E+01  0.42177042426E+02  0.47787265779E+02  0.19999975995E+02 0.  0.
        -12    1    1    2    0    0 -0.28103608295E+01  0.98398523932E+01 -0.42177042426E+02  0.43400734221E+02  0.00000000000E+00 0.  1.
         11    1    3    3    0    0  0.63402900678E+01 -0.12746360997E+02  0.26143685337E+02  0.29768461164E+02  0.51100000000E-03 0. -1.
        -11    1    3    3    0    0 -0.36892608507E+01 -0.12202268986E+01  0.57776627653E+01  0.69628289222E+01  0.51100000000E-03 0.  1.
        -12    1    3    3    0    0  0.15933161242E+00  0.41267355027E+01  0.10255694324E+02  0.11055975693E+02  0.00000000000E+00 0.  1.
</event>
<event>
 7    1  0.3221417E-010  0.4778726E+02  0.7816164E-02  0.1312668E+00
        -11   -1    0    0    0    0  0.00000000000E+00  0.00000000000E+00  0.45593999997E+02  0.45594000000E+02  0.51100000000E-03 0. -1.
         11   -1    0    0    0    0 -0.00000000000E+00 -0.00000000000E+00 -0.45593999997E+02  0.45594000000E+02  0.51100000000E-03 0.  1.
    9900012    2    1    2    0    0  0.80122476894E+01 -0.10257961526E+02  0.41402926541E+02  0.47787260215E+02  0.19999950624E+02 0.  0.
        -12    1    1    2    0    0 -0.80122476894E+01  0.10257961526E+02 -0.41402926541E+02  0.43400739785E+02  0.00000000000E+00 0.  1.
         11    1    3    3    0    0  0.10902847615E+02 -0.34353282480E+01  0.16966382215E+02  0.20458047122E+02  0.51100000000E-03 0. -1.
        -11    1    3    3    0    0  0.26147351504E+01 -0.98402465824E+00  0.18279084242E+01  0.33386215573E+01  0.51100000000E-03 0.  1.
        -12    1    3    3    0    0 -0.55053350762E+01 -0.58386086196E+01  0.22608635902E+02  0.23990591536E+02  0.00000000000E+00 0.  1.
</event>
<event>
 7    1  0.3221417E-010  0.4778727E+02  0.7816164E-02  0.1312668E+00
        -11   -1    0    0    0    0  0.00000000000E+00  0.00000000000E+00  0.45593999997E+02  0.45594000000E+02  0.51100000000E-03 0. -1.
         11   -1    0    0    0    0 -0.00000000000E+00 -0.00000000000E+00 -0.45593999997E+02  0.45594000000E+02  0.51100000000E-03 0.  1.
    9900012    2    1    2    0    0 -0.25107788838E+02 -0.11522129577E+02 -0.33473313687E+02  0.47787271210E+02  0.20000000754E+02 0.  0.
         12    1    1    2    0    0  0.25107788838E+02  0.11522129577E+02  0.33473313687E+02  0.43400728790E+02  0.00000000000E+00 0. -1.
         11    1    3    3    0    0 -0.84816247319E+01 -0.29601157805E+01 -0.97275521340E+00  0.90358450901E+01  0.51100000000E-03 0. -1.
        -11    1    3    3    0    0 -0.25760983175E+01  0.15420888887E+01 -0.95271671975E+01  0.99890557989E+01  0.51100000000E-03 0.  1.
        -12    1    3    3    0    0 -0.14050065789E+02 -0.10104102685E+02 -0.22973391276E+02  0.28762370321E+02  0.00000000000E+00 0.  1.
</event>
<event>
 7    1  0.3221417E-010  0.4778726E+02  0.7816164E-02  0.1312668E+00
        -11   -1    0    0    0    0  0.00000000000E+00  0.00000000000E+00  0.45593999997E+02  0.45594000000E+02  0.51100000000E-03 0. -1.
         11   -1    0    0    0    0 -0.00000000000E+00 -0.00000000000E+00 -0.45593999997E+02  0.45594000000E+02  0.51100000000E-03 0.  1.
    9900012    2    1    2    0    0  0.31938093104E+02 -0.19335975696E+01 -0.29323085182E+02  0.47787263655E+02  0.19999966308E+02 0.  0.
         12    1    1    2    0    0 -0.31938093104E+02  0.19335975696E+01  0.29323085182E+02  0.43400736345E+02  0.00000000000E+00 0. -1.
         11    1    3    3    0    0  0.22510034562E+01 -0.49523714441E+01 -0.91086394300E+01  0.10609444472E+02  0.51100000000E-03 0. -1.
        -11    1    3    3    0    0  0.84532482347E+01 -0.27086679587E+01 -0.83603505440E+01  0.12193840630E+02  0.51100000000E-03 0.  1.
        -12    1    3    3    0    0  0.21233841414E+02  0.57274418333E+01 -0.11854095208E+02  0.24983978553E+02  0.00000000000E+00 0.  1.
</event>
<event>
 7    1  0.3221417E-010  0.4778727E+02  0.7816164E-02  0.1312668E+00
        -11   -1    0    0    0    0  0.00000000000E+00  0.00000000000E+00  0.45593999997E+02  0.45594000000E+02  0.51100000000E-03 0. -1.
         11   -1    0    0    0    0 -0.00000000000E+00 -0.00000000000E+00 -0.45593999997E+02  0.45594000000E+02  0.51100000000E-03 0.  1.
    9900012    2    1    2    0    0 -0.23953602859E+02 -0.48365808165E+01 -0.35867193691E+02  0.47787272043E+02  0.20000004554E+02 0.  0.
         12    1    1    2    0    0  0.23953602859E+02  0.48365808165E+01  0.35867193691E+02  0.43400727957E+02  0.00000000000E+00 0. -1.
         11    1    3    3    0    0 -0.29233074318E+01  0.21898358757E+01 -0.12219282124E+02  0.12753507886E+02  0.51100000000E-03 0. -1.
        -11    1    3    3    0    0 -0.18886449993E+02 -0.64635356187E+01 -0.25330664520E+02  0.32250858149E+02  0.51100000000E-03 0.  1.
         12    1    3    3    0    0 -0.21438454343E+01 -0.56288107351E+00  0.16827529537E+01  0.27829060086E+01  0.00000000000E+00 0. -1.
</event>
<event>
 7    1  0.3221417E-010  0.4778727E+02  0.7816164E-02  0.1312668E+00
        -11   -1    0    0    0    0  0.00000000000E+00  0.00000000000E+00  0.45593999997E+02  0.45594000000E+02  0.51100000000E-03 0. -1.
         11   -1    0    0    0    0 -0.00000000000E+00 -0.00000000000E+00 -0.45593999997E+02  0.45594000000E+02  0.51100000000E-03 0.  1.
    9900012    2    1    2    0    0  0.19733875021E+02 -0.15045654148E+02  0.35606539553E+02  0.47787271999E+02  0.20000004351E+02 0.  0.
        -12    1    1    2    0    0 -0.19733875021E+02  0.15045654148E+02 -0.35606539553E+02  0.43400728001E+02  0.00000000000E+00 0.  1.
         11    1    3    3    0    0  0.12485112276E+02 -0.13033651813E+02  0.30935746619E+02  0.35815841848E+02  0.51100000000E-03 0. -1.
        -11    1    3    3    0    0  0.10563754079E+01 -0.39709274935E+01  0.25364001510E+00  0.41168589580E+01  0.51100000000E-03 0.  1.
        -12    1    3    3    0    0  0.61923873375E+01  0.19589251589E+01  0.44171529185E+01  0.78545711927E+01  0.00000000000E+00 0.  1.
</event>
<event>
 7    1  0.3221417E-010  0.4778727E+02  0.7816164E-02  0.1312668E+00
        -11   -1    0    0    0    0  0.00000000000E+00  0.00000000000E+00  0.45593999997E+02  0.45594000000E+02  0.51100000000E-03 0.  1.
         11   -1    0    0    0    0 -0.00000000000E+00 -0.00000000000E+00 -0.45593999997E+02  0.45594000000E+02  0.51100000000E-03 0. -1.
    9900012    2    1    2    0    0  0.23450698243E+02 -0.24809034959E+02  0.26799251123E+02  0.47787270462E+02  0.19999997344E+02 0.  0.
        -12    1    1    2    0    0 -0.23450698243E+02  0.24809034959E+02 -0.26799251123E+02  0.43400729538E+02  0.00000000000E+00 0.  1.
         11    1    3    3    0    0  0.71671756040E+01 -0.52485190275E+01  0.83811261665E+01  0.12213051797E+02  0.51100000000E-03 0. -1.
        -11    1    3    3    0    0  0.14183073482E+02 -0.17339993549E+02  0.21630369602E+02  0.31140132290E+02  0.51100000000E-03 0.  1.
         12    1    3    3    0    0  0.21004491572E+01 -0.22205223831E+01 -0.32122446456E+01  0.44340863748E+01  0.00000000000E+00 0. -1.
</event>
<event>
 7    1  0.3221417E-010  0.4778727E+02  0.7816164E-02  0.1312668E+00
        -11   -1    0    0    0    0  0.00000000000E+00  0.00000000000E+00  0.45593999997E+02  0.45594000000E+02  0.51100000000E-03 0.  1.
         11   -1    0    0    0    0 -0.00000000000E+00 -0.00000000000E+00 -0.45593999997E+02  0.45594000000E+02  0.51100000000E-03 0. -1.
    9900012    2    1    2    0    0 -0.31718428423E+02 -0.29587587582E+02  0.14626215521E+01  0.47787270717E+02  0.19999998505E+02 0.  0.
        -12    1    1    2    0    0  0.31718428423E+02  0.29587587582E+02 -0.14626215521E+01  0.43400729283E+02  0.00000000000E+00 0.  1.
         11    1    3    3    0    0 -0.17126514053E+02 -0.17324499101E+02  0.68194019333E+01  0.25297430614E+02  0.51100000000E-03 0. -1.
        -11    1    3    3    0    0  0.97903008082E+00  0.95535247181E+00  0.23341091213E-01  0.13681167027E+01  0.51100000000E-03 0.  1.
         12    1    3    3    0    0 -0.15570944450E+02 -0.13218440953E+02 -0.53801214724E+01  0.21121723400E+02  0.00000000000E+00 0. -1.
</event>
<event>
 7    1  0.3221417E-010  0.4778727E+02  0.7816164E-02  0.1312668E+00
        -11   -1    0    0    0    0  0.00000000000E+00  0.00000000000E+00  0.45593999997E+02  0.45594000000E+02  0.51100000000E-03 0.  1.
         11   -1    0    0    0    0 -0.00000000000E+00 -0.00000000000E+00 -0.45593999997E+02  0.45594000000E+02  0.51100000000E-03 0. -1.
    9900012    2    1    2    0    0  0.24648829727E+01  0.40182628707E+02  0.16214311829E+02  0.47787271827E+02  0.20000003569E+02 0.  0.
        -12    1    1    2    0    0 -0.24648829727E+01 -0.40182628707E+02 -0.16214311829E+02  0.43400728173E+02  0.00000000000E+00 0.  1.
         11    1    3    3    0    0  0.31544812941E+01  0.16640263239E+02 -0.21537996825E+00  0.16937989896E+02  0.51100000000E-03 0. -1.
        -11    1    3    3    0    0 -0.55655450394E+00 -0.52231613378E+00 -0.91021252042E+00  0.11878780042E+01  0.51100000000E-03 0.  1.
        -12    1    3    3    0    0 -0.13304381744E+00  0.24064681601E+02  0.17339904317E+02  0.29661403928E+02  0.00000000000E+00 0.  1.
</event>
<event>
 7    1  0.3221417E-010  0.4778727E+02  0.7816164E-02  0.1312668E+00
        -11   -1    0    0    0    0  0.00000000000E+00  0.00000000000E+00  0.45593999997E+02  0.45594000000E+02  0.51100000000E-03 0. -1.
         11   -1    0    0    0    0 -0.00000000000E+00 -0.00000000000E+00 -0.45593999997E+02  0.45594000000E+02  0.51100000000E-03 0.  1.
    9900012    2    1    2    0    0 -0.29226485635E+02  0.13559014650E+02 -0.29079006088E+02  0.47787274938E+02  0.20000017750E+02 0.  0.
         12    1    1    2    0    0  0.29226485635E+02 -0.13559014650E+02  0.29079006088E+02  0.43400725062E+02  0.00000000000E+00 0. -1.
         11    1    3    3    0    0  0.12837943618E+01 -0.19038219386E+01 -0.20780317325E+01  0.30969149294E+01  0.51100000000E-03 0. -1.
        -11    1    3    3    0    0 -0.11675741665E+02  0.93924776316E+01 -0.16497480573E+02  0.22286956836E+02  0.51100000000E-03 0.  1.
         12    1    3    3    0    0 -0.18834538332E+02  0.60703589576E+01 -0.10503493782E+02  0.22403403172E+02  0.00000000000E+00 0. -1.
</event>
<event>
 7    1  0.3221417E-010  0.4778727E+02  0.7816164E-02  0.1312668E+00
        -11   -1    0    0    0    0  0.00000000000E+00  0.00000000000E+00  0.45593999997E+02  0.45594000000E+02  0.51100000000E-03 0. -1.
         11   -1    0    0    0    0 -0.00000000000E+00 -0.00000000000E+00 -0.45593999997E+02  0.45594000000E+02  0.51100000000E-03 0.  1.
    9900012    2    1    2    0    0  0.24976792600E+02  0.15883211252E+02  0.31741248017E+02  0.47787269661E+02  0.19999993693E+02 0.  0.
        -12    1    1    2    0    0 -0.24976792600E+02 -0.15883211252E+02 -0.31741248017E+02  0.43400730339E+02  0.00000000000E+00 0.  1.
         11    1    3    3    0    0  0.17940686272E+02  0.96728739724E+01  0.21512333895E+02  0.29634662554E+02  0.51100000000E-03 0. -1.
        -11    1    3    3    0    0  0.62112162091E+01 -0.16704697673E+01  0.20162752961E+01  0.67405520820E+01  0.51100000000E-03 0.  1.
        -12    1    3    3    0    0  0.82489011893E+00  0.78808070469E+01  0.82126388256E+01  0.11412055025E+02  0.00000000000E+00 0.  1.
</event>
<event>
 7    1  0.3221417E-010  0.4778727E+02  0.7816164E-02  0.1312668E+00
        -11   -1    0    0    0    0  0.00000000000E+00  0.00000000000E+00  0.45593999997E+02  0.45594000000E+02  0.51100000000E-03 0.  1.
         11   -1    0    0    0    0 -0.00000000000E+00 -0.00000000000E+00 -0.45593999997E+02  0.45594000000E+02  0.51100000000E-03 0. -1.
    9900012    2    1    2    0    0 -0.77868337311E+01 -0.42475043172E+02  0.43427171282E+01  0.47787271157E+02  0.20000000515E+02 0.  0.
         12    1    1    2    0    0  0.77868337311E+01  0.42475043172E+02 -0.43427171282E+01  0.43400728843E+02  0.00000000000E+00 0. -1.
         11    1    3    3    0    0 -0.70148635065E+01 -0.16881085147E+02  0.16130001131E+01  0.18351597080E+02  0.51100000000E-03 0. -1.
        -11    1    3    3    0    0  0.30617224437E+00 -0.99956907028E+01  0.81359673979E+01  0.12891917616E+02  0.51100000000E-03 0.  1.
         12    1    3    3    0    0 -0.10781424689E+01 -0.15598267322E+02 -0.54062503828E+01  0.16543756461E+02  0.00000000000E+00 0. -1.
</event>
<event>
 7    1  0.3221417E-010  0.4778726E+02  0.7816164E-02  0.1312668E+00
        -11   -1    0    0    0    0  0.00000000000E+00  0.00000000000E+00  0.45593999997E+02  0.45594000000E+02  0.51100000000E-03 0. -1.
         11   -1    0    0    0    0 -0.00000000000E+00 -0.00000000000E+00 -0.45593999997E+02  0.45594000000E+02  0.51100000000E-03 0.  1.
    9900012    2    1    2    0    0  0.80598574473E+01 -0.39738608946E+02 -0.15475984609E+02  0.47787257579E+02  0.19999938607E+02 0.  0.
         12    1    1    2    0    0 -0.80598574473E+01  0.39738608946E+02  0.15475984609E+02  0.43400742421E+02  0.00000000000E+00 0. -1.
         11    1    3    3    0    0 -0.11058852845E+00 -0.26937347513E+00 -0.73057916452E+00  0.78647191207E+00  0.51100000000E-03 0. -1.
        -11    1    3    3    0    0  0.78147296084E+01 -0.23835376856E+02 -0.18193717892E+02  0.30987199933E+02  0.51100000000E-03 0.  1.
         12    1    3    3    0    0  0.35571636740E+00 -0.15633858615E+02  0.34483124470E+01  0.16013585734E+02  0.00000000000E+00 0. -1.
</event>
<event>
 7    1  0.3221417E-010  0.4778727E+02  0.7816164E-02  0.1312668E+00
        -11   -1    0    0    0    0  0.00000000000E+00  0.00000000000E+00  0.45593999997E+02  0.45594000000E+02  0.51100000000E-03 0. -1.
         11   -1    0    0    0    0 -0.00000000000E+00 -0.00000000000E+00 -0.45593999997E+02  0.45594000000E+02  0.51100000000E-03 0.  1.
    9900012    2    1    2    0    0 -0.84664167274E+01  0.31401632723E+02 -0.28738141344E+02  0.47787268235E+02  0.19999987189E+02 0.  0.
         12    1    1    2    0    0  0.84664167274E+01 -0.31401632723E+02  0.28738141344E+02  0.43400731765E+02  0.00000000000E+00 0. -1.
         11    1    3    3    0    0 -0.73888235790E+01  0.82656814257E+01 -0.50196621346E+01  0.12170177136E+02  0.51100000000E-03 0.  1.
        -11    1    3    3    0    0 -0.43915312760E+01  0.14394908596E+01 -0.42619359194E+01  0.62866349444E+01  0.51100000000E-03 0. -1.
        -12    1    3    3    0    0  0.33139381275E+01  0.21696460438E+02 -0.19456543290E+02  0.29330456154E+02  0.00000000000E+00 0.  1.
</event>
<event>
 7    1  0.3221417E-010  0.4778728E+02  0.7816164E-02  0.1312668E+00
        -11   -1    0    0    0    0  0.00000000000E+00  0.00000000000E+00  0.45593999997E+02  0.45594000000E+02  0.51100000000E-03 0. -1.
         11   -1    0    0    0    0 -0.00000000000E+00 -0.00000000000E+00 -0.45593999997E+02  0.45594000000E+02  0.51100000000E-03 0.  1.
    9900012    2    1    2    0    0 -0.11964983914E+02  0.58457952564E+01  0.41307247626E+02  0.47787275712E+02  0.20000021283E+02 0.  0.
        -12    1    1    2    0    0  0.11964983914E+02 -0.58457952564E+01 -0.41307247626E+02  0.43400724288E+02  0.00000000000E+00 0.  1.
         11    1    3    3    0    0 -0.10260710824E+02  0.45731077169E+01  0.22146280581E+02  0.24832503793E+02  0.51100000000E-03 0. -1.
        -11    1    3    3    0    0 -0.14158594998E+01  0.43724164519E+01  0.12329189023E+01  0.47584422906E+01  0.51100000000E-03 0.  1.
         12    1    3    3    0    0 -0.28841358942E+00 -0.30997289124E+01  0.17928048143E+02  0.18196329629E+02  0.00000000000E+00 0. -1.
</event>
<event>
 7    1  0.3221417E-010  0.4778727E+02  0.7816164E-02  0.1312668E+00
        -11   -1    0    0    0    0  0.00000000000E+00  0.00000000000E+00  0.45593999997E+02  0.45594000000E+02  0.51100000000E-03 0. -1.
         11   -1    0    0    0    0 -0.00000000000E+00 -0.00000000000E+00 -0.45593999997E+02  0.45594000000E+02  0.51100000000E-03 0.  1.
    9900012    2    1    2    0    0  0.23963171439E+02 -0.14803075976E+02  0.33019063730E+02  0.47787271741E+02  0.20000003176E+02 0.  0.
        -12    1    1    2    0    0 -0.23963171439E+02  0.14803075976E+02 -0.33019063730E+02  0.43400728259E+02  0.00000000000E+00 0.  1.
         11    1    3    3    0    0  0.21927483503E+02 -0.10504171134E+02  0.29817319931E+02  0.38473688569E+02  0.51100000000E-03 0. -1.
        -11    1    3    3    0    0  0.11920745697E+01  0.31559144561E+00  0.43188327641E+01  0.44914314473E+01  0.51100000000E-03 0.  1.
         12    1    3    3    0    0  0.84361336682E+00 -0.46144962877E+01 -0.11170889647E+01  0.48221517248E+01  0.00000000000E+00 0. -1.
</event>
<event>
 7    1  0.3221417E-010  0.4778727E+02  0.7816164E-02  0.1312668E+00
        -11   -1    0    0    0    0  0.00000000000E+00  0.00000000000E+00  0.45593999997E+02  0.45594000000E+02  0.51100000000E-03 0. -1.
         11   -1    0    0    0    0 -0.00000000000E+00 -0.00000000000E+00 -0.45593999997E+02  0.45594000000E+02  0.51100000000E-03 0.  1.
    9900012    2    1    2    0    0 -0.61023068145E+01 -0.53287839438E+01 -0.42637881998E+02  0.47787273415E+02  0.20000010810E+02 0.  0.
         12    1    1    2    0    0  0.61023068145E+01  0.53287839438E+01  0.42637881998E+02  0.43400726585E+02  0.00000000000E+00 0. -1.
         11    1    3    3    0    0 -0.59280879970E+00  0.69664158311E+00 -0.70489818144E+00  0.11548218372E+01  0.51100000000E-03 0. -1.
        -11    1    3    3    0    0 -0.10687722327E+01 -0.91557643119E+00 -0.39367763915E+02  0.39392910405E+02  0.51100000000E-03 0.  1.
        -12    1    3    3    0    0 -0.44407257821E+01 -0.51098490957E+01 -0.25652199022E+01  0.72395411732E+01  0.00000000000E+00 0.  1.
</event>
<event>
 7    1  0.3221417E-010  0.4778727E+02  0.7816164E-02  0.1312668E+00
        -11   -1    0    0    0    0  0.00000000000E+00  0.00000000000E+00  0.45593999997E+02  0.45594000000E+02  0.51100000000E-03 0. -1.
         11   -1    0    0    0    0 -0.00000000000E+00 -0.00000000000E+00 -0.45593999997E+02  0.45594000000E+02  0.51100000000E-03 0.  1.
    9900012    2    1    2    0    0 -0.11997125740E+02 -0.40178185816E+00  0.41707680980E+02  0.47787272962E+02  0.20000008744E+02 0.  0.
        -12    1    1    2    0    0  0.11997125740E+02  0.40178185816E+00 -0.41707680980E+02  0.43400727038E+02  0.00000000000E+00 0.  1.
         11    1    3    3    0    0 -0.93389328045E+01  0.34984835482E+01  0.16545918577E+02  0.19318966714E+02  0.51100000000E-03 0. -1.
        -11    1    3    3    0    0 -0.57258375279E+01  0.23654066058E+01  0.13942344581E+02  0.15256780017E+02  0.51100000000E-03 0.  1.
        -12    1    3    3    0    0  0.30676445920E+01 -0.62656720122E+01  0.11219417821E+02  0.13211526231E+02  0.00000000000E+00 0.  1.
</event>
<event>
 7    1  0.3221417E-010  0.4778727E+02  0.7816164E-02  0.1312668E+00
        -11   -1    0    0    0    0  0.00000000000E+00  0.00000000000E+00  0.45593999997E+02  0.45594000000E+02  0.51100000000E-03 0. -1.
         11   -1    0    0    0    0 -0.00000000000E+00 -0.00000000000E+00 -0.45593999997E+02  0.45594000000E+02  0.51100000000E-03 0.  1.
    9900012    2    1    2    0    0  0.87467567810E+01 -0.10919731005E+02 -0.41083777607E+02  0.47787273487E+02  0.20000011136E+02 0.  0.
         12    1    1    2    0    0 -0.87467567810E+01  0.10919731005E+02  0.41083777607E+02  0.43400726513E+02  0.00000000000E+00 0. -1.
         11    1    3    3    0    0 -0.30027126497E+01 -0.53589816741E+01 -0.72485987560E+01  0.95014289466E+01  0.51100000000E-03 0. -1.
        -11    1    3    3    0    0  0.94778127622E+01 -0.66303144219E+01 -0.13419995402E+02  0.17716836087E+02  0.51100000000E-03 0.  1.
        -12    1    3    3    0    0  0.22716566684E+01  0.10695650908E+01 -0.20415183448E+02  0.20569008453E+02  0.00000000000E+00 0.  1.
</event>
<event>
 7    1  0.3221417E-010  0.4778727E+02  0.7816164E-02  0.1312668E+00
        -11   -1    0    0    0    0  0.00000000000E+00  0.00000000000E+00  0.45593999997E+02  0.45594000000E+02  0.51100000000E-03 0.  1.
         11   -1    0    0    0    0 -0.00000000000E+00 -0.00000000000E+00 -0.45593999997E+02  0.45594000000E+02  0.51100000000E-03 0. -1.
    9900012    2    1    2    0    0 -0.37930615689E+02  0.17549784417E+02  0.11700287651E+02  0.47787271081E+02  0.20000000165E+02 0.  0.
         12    1    1    2    0    0  0.37930615689E+02 -0.17549784417E+02 -0.11700287651E+02  0.43400728919E+02  0.00000000000E+00 0. -1.
         11    1    3    3    0    0 -0.75707161545E+01  0.94889923245E+01  0.71745839085E+01  0.14100757886E+02  0.51100000000E-03 0. -1.
        -11    1    3    3    0    0 -0.18722570585E+02  0.24714110015E+01  0.76960242707E+01  0.20392923073E+02  0.51100000000E-03 0.  1.
         12    1    3    3    0    0 -0.11637328950E+02  0.55893810908E+01 -0.31703205287E+01  0.13293590122E+02  0.00000000000E+00 0. -1.
</event>
<event>
 7    1  0.3221417E-010  0.4778728E+02  0.7816164E-02  0.1312668E+00
        -11   -1    0    0    0    0  0.00000000000E+00  0.00000000000E+00  0.45593999997E+02  0.45594000000E+02  0.51100000000E-03 0. -1.
         11   -1    0    0    0    0 -0.00000000000E+00 -0.00000000000E+00 -0.45593999997E+02  0.45594000000E+02  0.51100000000E-03 0.  1.
    9900012    2    1    2    0    0  0.64897717375E+01  0.81184570344E+01  0.42137823312E+02  0.47787278401E+02  0.20000033541E+02 0.  0.
        -12    1    1    2    0    0 -0.64897717375E+01 -0.81184570344E+01 -0.42137823312E+02  0.43400721599E+02  0.00000000000E+00 0.  1.
         11    1    3    3    0    0  0.67837802853E+01  0.90551396641E+00  0.20638912794E+02  0.21744064755E+02  0.51100000000E-03 0. -1.
        -11    1    3    3    0    0  0.39920692794E-01  0.66826704378E+01  0.26581587306E+01  0.71920432382E+01  0.51100000000E-03 0.  1.
         12    1    3    3    0    0 -0.33392924061E+00  0.53027263016E+00  0.18840751788E+02  0.18851170407E+02  0.00000000000E+00 0. -1.
</event>
<event>
 7    1  0.3221417E-010  0.4778723E+02  0.7816164E-02  0.1312668E+00
        -11   -1    0    0    0    0  0.00000000000E+00  0.00000000000E+00  0.45593999997E+02  0.45594000000E+02  0.51100000000E-03 0. -1.
         11   -1    0    0    0    0 -0.00000000000E+00 -0.00000000000E+00 -0.45593999997E+02  0.45594000000E+02  0.51100000000E-03 0.  1.
    9900012    2    1    2    0    0 -0.17552126694E+02 -0.18218376817E+02  0.35265281750E+02  0.47787233852E+02  0.19999830425E+02 0.  0.
        -12    1    1    2    0    0  0.17552126694E+02  0.18218376817E+02 -0.35265281750E+02  0.43400766148E+02  0.00000000000E+00 0.  1.
         11    1    3    3    0    0 -0.13392393261E+02 -0.89497248771E+01  0.66617949204E+01  0.17430814222E+02  0.51100000000E-03 0. -1.
        -11    1    3    3    0    0 -0.15584285435E+01 -0.30398591018E+01  0.96515781069E+01  0.10238281257E+02  0.51100000000E-03 0.  1.
         12    1    3    3    0    0 -0.26013048891E+01 -0.62287928379E+01  0.18951908723E+02  0.20118138373E+02  0.00000000000E+00 0. -1.
</event>
<event>
 7    1  0.3221417E-010  0.4778727E+02  0.7816164E-02  0.1312668E+00
        -11   -1    0    0    0    0  0.00000000000E+00  0.00000000000E+00  0.45593999997E+02  0.45594000000E+02  0.51100000000E-03 0. -1.
         11   -1    0    0    0    0 -0.00000000000E+00 -0.00000000000E+00 -0.45593999997E+02  0.45594000000E+02  0.51100000000E-03 0.  1.
    9900012    2    1    2    0    0 -0.19113714945E+02 -0.65170242486E+01 -0.38416374197E+02  0.47787268319E+02  0.19999987573E+02 0.  0.
         12    1    1    2    0    0  0.19113714945E+02  0.65170242486E+01  0.38416374197E+02  0.43400731681E+02  0.00000000000E+00 0. -1.
         11    1    3    3    0    0 -0.53356678650E+01 -0.34560153011E+01 -0.38454528045E+01  0.74297308740E+01  0.51100000000E-03 0. -1.
        -11    1    3    3    0    0 -0.10381134104E+02  0.53917934535E+01 -0.20191567329E+02  0.23335354580E+02  0.51100000000E-03 0.  1.
        -12    1    3    3    0    0 -0.33969129756E+01 -0.84528024009E+01 -0.14379354063E+02  0.17022182865E+02  0.00000000000E+00 0.  1.
</event>
<event>
 7    1  0.3221417E-010  0.4778727E+02  0.7816164E-02  0.1312668E+00
        -11   -1    0    0    0    0  0.00000000000E+00  0.00000000000E+00  0.45593999997E+02  0.45594000000E+02  0.51100000000E-03 0.  1.
         11   -1    0    0    0    0 -0.00000000000E+00 -0.00000000000E+00 -0.45593999997E+02  0.45594000000E+02  0.51100000000E-03 0. -1.
    9900012    2    1    2    0    0  0.38312506565E+02  0.18499704864E+02  0.85753363869E+01  0.47787266901E+02  0.19999981108E+02 0.  0.
         12    1    1    2    0    0 -0.38312506565E+02 -0.18499704864E+02 -0.85753363869E+01  0.43400733099E+02  0.00000000000E+00 0. -1.
         11    1    3    3    0    0  0.21300008803E+01 -0.20748974112E+01  0.44211968239E+01  0.53281408234E+01  0.51100000000E-03 0. -1.
        -11    1    3    3    0    0  0.97004795249E+01  0.88637472755E+01  0.30106168055E+01  0.13480694811E+02  0.51100000000E-03 0.  1.
         12    1    3    3    0    0  0.26482026160E+02  0.11710855000E+02  0.11435227576E+01  0.28978431267E+02  0.00000000000E+00 0. -1.
</event>
<event>
 7    1  0.3221417E-010  0.4778727E+02  0.7816164E-02  0.1312668E+00
        -11   -1    0    0    0    0  0.00000000000E+00  0.00000000000E+00  0.45593999997E+02  0.45594000000E+02  0.51100000000E-03 0. -1.
         11   -1    0    0    0    0 -0.00000000000E+00 -0.00000000000E+00 -0.45593999997E+02  0.45594000000E+02  0.51100000000E-03 0.  1.
    9900012    2    1    2    0    0 -0.14127475512E+02  0.29401266615E+02  0.28628715080E+02  0.47787269937E+02  0.19999994950E+02 0.  0.
        -12    1    1    2    0    0  0.14127475512E+02 -0.29401266615E+02 -0.28628715080E+02  0.43400730063E+02  0.00000000000E+00 0.  1.
         11    1    3    3    0    0 -0.46974847537E+01  0.26405548643E+01  0.85085841138E+01  0.10071489308E+02  0.51100000000E-03 0. -1.
        -11    1    3    3    0    0  0.35591084823E+01  0.10472454392E+02  0.66075763518E+01  0.12884083968E+02  0.51100000000E-03 0.  1.
        -12    1    3    3    0    0 -0.12989099240E+02  0.16288257358E+02  0.13512554614E+02  0.24831696661E+02  0.00000000000E+00 0.  1.
</event>
<event>
 7    1  0.3221417E-010  0.4778727E+02  0.7816164E-02  0.1312668E+00
        -11   -1    0    0    0    0  0.00000000000E+00  0.00000000000E+00  0.45593999997E+02  0.45594000000E+02  0.51100000000E-03 0. -1.
         11   -1    0    0    0    0 -0.00000000000E+00 -0.00000000000E+00 -0.45593999997E+02  0.45594000000E+02  0.51100000000E-03 0.  1.
    9900012    2    1    2    0    0 -0.13851220061E+02 -0.10564868282E+02  0.39751105468E+02  0.47787272760E+02  0.20000007823E+02 0.  0.
        -12    1    1    2    0    0  0.13851220061E+02  0.10564868282E+02 -0.39751105468E+02  0.43400727240E+02  0.00000000000E+00 0.  1.
         11    1    3    3    0    0 -0.73127864597E+01 -0.60461903523E+01  0.67183303401E+01  0.11626230103E+02  0.51100000000E-03 0. -1.
        -11    1    3    3    0    0  0.17043397157E+01  0.25034199538E+01  0.31176198758E+01  0.43464283363E+01  0.51100000000E-03 0.  1.
         12    1    3    3    0    0 -0.82427733170E+01 -0.70220978832E+01  0.29915155252E+02  0.31814614321E+02  0.00000000000E+00 0. -1.
</event>
<event>
 7    1  0.3408469E-010  0.4778727E+02  0.7816164E-02  0.1312668E+00
        -11   -1    0    0    0    0  0.00000000000E+00  0.00000000000E+00  0.45593999997E+02  0.45594000000E+02  0.51100000000E-03 0. -1.
         11   -1    0    0    0    0 -0.00000000000E+00 -0.00000000000E+00 -0.45593999997E+02  0.45594000000E+02  0.51100000000E-03 0.  1.
    9900012    2    1    2    0    0  0.25049538805E+02  0.28216752423E+02 -0.21446653005E+02  0.47787269168E+02  0.19999991443E+02 0.  0.
         12    1    1    2    0    0 -0.25049538805E+02 -0.28216752423E+02  0.21446653005E+02  0.43400730832E+02  0.00000000000E+00 0. -1.
         11    1    3    3    0    0  0.26806221462E+01  0.11067689973E+02 -0.19945140279E+01  0.11561037276E+02  0.51100000000E-03 0. -1.
        -11    1    3    3    0    0  0.19088717950E+02  0.18409503103E+02 -0.14716626731E+02  0.30329326734E+02  0.51100000000E-03 0.  1.
         12    1    3    3    0    0  0.32801987081E+01 -0.12604406535E+01 -0.47355122461E+01  0.58969051577E+01  0.00000000000E+00 0. -1.
</event>
<event>
 7    1  0.3221417E-010  0.4778727E+02  0.7816164E-02  0.1312668E+00
        -11   -1    0    0    0    0  0.00000000000E+00  0.00000000000E+00  0.45593999997E+02  0.45594000000E+02  0.51100000000E-03 0. -1.
         11   -1    0    0    0    0 -0.00000000000E+00 -0.00000000000E+00 -0.45593999997E+02  0.45594000000E+02  0.51100000000E-03 0.  1.
    9900012    2    1    2    0    0 -0.91819315796E+00  0.24875471275E+02  0.35552657910E+02  0.47787266892E+02  0.19999981067E+02 0.  0.
        -12    1    1    2    0    0  0.91819315796E+00 -0.24875471275E+02 -0.35552657910E+02  0.43400733108E+02  0.00000000000E+00 0.  1.
         11    1    3    3    0    0  0.59866471215E+00  0.82109928151E+01  0.22735467927E+02  0.24180163452E+02  0.51100000000E-03 0. -1.
        -11    1    3    3    0    0  0.13302209157E+01  0.47470403324E+00 -0.13145300794E+01  0.19294613742E+01  0.51100000000E-03 0.  1.
         12    1    3    3    0    0 -0.28470787858E+01  0.16189774427E+02  0.14131720062E+02  0.21677642066E+02  0.00000000000E+00 0. -1.
</event>
<event>
 7    1  0.3221417E-010  0.4778728E+02  0.7816164E-02  0.1312668E+00
        -11   -1    0    0    0    0  0.00000000000E+00  0.00000000000E+00  0.45593999997E+02  0.45594000000E+02  0.51100000000E-03 0. -1.
         11   -1    0    0    0    0 -0.00000000000E+00 -0.00000000000E+00 -0.45593999997E+02  0.45594000000E+02  0.51100000000E-03 0.  1.
    9900012    2    1    2    0    0  0.24916113827E+02 -0.21168086147E+02  0.28543330674E+02  0.47787281973E+02  0.20000049826E+02 0.  0.
        -12    1    1    2    0    0 -0.24916113827E+02  0.21168086147E+02 -0.28543330674E+02  0.43400718027E+02  0.00000000000E+00 0.  1.
         11    1    3    3    0    0  0.42738212990E+01 -0.85764984928E+01  0.76624277134E+01  0.12269257256E+02  0.51100000000E-03 0. -1.
        -11    1    3    3    0    0  0.39402929712E+01 -0.11310952823E+02  0.84457023052E+01  0.14655833315E+02  0.51100000000E-03 0.  1.
        -12    1    3    3    0    0  0.16701999557E+02 -0.12806348312E+01  0.12435200655E+02  0.20862191402E+02  0.00000000000E+00 0.  1.
</event>
<event>
 7    1  0.3221417E-010  0.4778727E+02  0.7816164E-02  0.1312668E+00
        -11   -1    0    0    0    0  0.00000000000E+00  0.00000000000E+00  0.45593999997E+02  0.45594000000E+02  0.51100000000E-03 0. -1.
         11   -1    0    0    0    0 -0.00000000000E+00 -0.00000000000E+00 -0.45593999997E+02  0.45594000000E+02  0.51100000000E-03 0.  1.
    9900012    2    1    2    0    0  0.19889368557E+02  0.37420781536E+01  0.38393140226E+02  0.47787270203E+02  0.19999996163E+02 0.  0.
        -12    1    1    2    0    0 -0.19889368557E+02 -0.37420781536E+01 -0.38393140226E+02  0.43400729797E+02  0.00000000000E+00 0.  1.
         11    1    3    3    0    0  0.15321924098E+02  0.14334650895E+01  0.18726605335E+02  0.24238439056E+02  0.51100000000E-03 0. -1.
        -11    1    3    3    0    0 -0.28061909486E+01  0.37989916397E+00  0.13358388794E+02  0.13655240110E+02  0.51100000000E-03 0.  1.
         12    1    3    3    0    0  0.73736354075E+01  0.19287139002E+01  0.63081460970E+01  0.98935910372E+01  0.00000000000E+00 0. -1.
</event>
<event>
 7    1  0.3221417E-010  0.4778727E+02  0.7816164E-02  0.1312668E+00
        -11   -1    0    0    0    0  0.00000000000E+00  0.00000000000E+00  0.45593999997E+02  0.45594000000E+02  0.51100000000E-03 0. -1.
         11   -1    0    0    0    0 -0.00000000000E+00 -0.00000000000E+00 -0.45593999997E+02  0.45594000000E+02  0.51100000000E-03 0.  1.
    9900012    2    1    2    0    0 -0.26068478009E+01 -0.30508932291E+02 -0.30757643973E+02  0.47787271115E+02  0.20000000321E+02 0.  0.
         12    1    1    2    0    0  0.26068478009E+01  0.30508932291E+02  0.30757643973E+02  0.43400728885E+02  0.00000000000E+00 0. -1.
         11    1    3    3    0    0  0.12804179793E+01 -0.72728125107E+01 -0.15559584953E+02  0.17223064658E+02  0.51100000000E-03 0. -1.
        -11    1    3    3    0    0 -0.32314928349E+01 -0.19625474098E+01 -0.66065752099E+01  0.76118969083E+01  0.51100000000E-03 0.  1.
        -12    1    3    3    0    0 -0.65577294528E+00 -0.21273572371E+02 -0.85914838093E+01  0.22952309549E+02  0.00000000000E+00 0.  1.
</event>
<event>
 7    1  0.3221417E-010  0.4778727E+02  0.7816164E-02  0.1312668E+00
        -11   -1    0    0    0    0  0.00000000000E+00  0.00000000000E+00  0.45593999997E+02  0.45594000000E+02  0.51100000000E-03 0. -1.
         11   -1    0    0    0    0 -0.00000000000E+00 -0.00000000000E+00 -0.45593999997E+02  0.45594000000E+02  0.51100000000E-03 0.  1.
    9900012    2    1    2    0    0  0.25316536458E+02 -0.10233180202E+02 -0.33733934331E+02  0.47787270505E+02  0.19999997541E+02 0.  0.
         12    1    1    2    0    0 -0.25316536458E+02  0.10233180202E+02  0.33733934331E+02  0.43400729495E+02  0.00000000000E+00 0. -1.
         11    1    3    3    0    0  0.57815564679E+01  0.19279598706E+01 -0.29904233601E+01  0.67886711946E+01  0.51100000000E-03 0. -1.
        -11    1    3    3    0    0  0.19082892313E+02 -0.10910595377E+02 -0.32224709483E+02  0.39008073165E+02  0.51100000000E-03 0.  1.
        -12    1    3    3    0    0  0.45208767675E+00 -0.12505446958E+01  0.14811985124E+01  0.19905261457E+01  0.00000000000E+00 0.  1.
</event>
<event>
 7    1  0.3221417E-010  0.4778727E+02  0.7816164E-02  0.1312668E+00
        -11   -1    0    0    0    0  0.00000000000E+00  0.00000000000E+00  0.45593999997E+02  0.45594000000E+02  0.51100000000E-03 0. -1.
         11   -1    0    0    0    0 -0.00000000000E+00 -0.00000000000E+00 -0.45593999997E+02  0.45594000000E+02  0.51100000000E-03 0.  1.
    9900012    2    1    2    0    0 -0.13708546631E+02 -0.18488305454E+02  0.36795130577E+02  0.47787270473E+02  0.19999997397E+02 0.  0.
        -12    1    1    2    0    0  0.13708546631E+02  0.18488305454E+02 -0.36795130577E+02  0.43400729527E+02  0.00000000000E+00 0.  1.
         11    1    3    3    0    0 -0.58612781449E+01 -0.99804454750E+00  0.92712619817E+01  0.11013944498E+02  0.51100000000E-03 0.  1.
        -11    1    3    3    0    0 -0.66437844123E+01 -0.20103990696E+02  0.21933580541E+02  0.30485935590E+02  0.51100000000E-03 0. -1.
         12    1    3    3    0    0 -0.12034840739E+01  0.26137297894E+01  0.55902880541E+01  0.62873903852E+01  0.00000000000E+00 0. -1.
</event>
<event>
 7    1  0.3221417E-010  0.4778727E+02  0.7816164E-02  0.1312668E+00
        -11   -1    0    0    0    0  0.00000000000E+00  0.00000000000E+00  0.45593999997E+02  0.45594000000E+02  0.51100000000E-03 0. -1.
         11   -1    0    0    0    0 -0.00000000000E+00 -0.00000000000E+00 -0.45593999997E+02  0.45594000000E+02  0.51100000000E-03 0.  1.
    9900012    2    1    2    0    0  0.71078761480E+01  0.17431158723E+02 -0.39105709398E+02  0.47787266074E+02  0.19999977338E+02 0.  0.
         12    1    1    2    0    0 -0.71078761480E+01 -0.17431158723E+02  0.39105709398E+02  0.43400733926E+02  0.00000000000E+00 0. -1.
         11    1    3    3    0    0  0.10056673494E+02  0.60600071860E+01 -0.18832515696E+02  0.22192882115E+02  0.51100000000E-03 0. -1.
        -11    1    3    3    0    0  0.44153702767E+00  0.78052807017E+01 -0.43889059783E+01  0.89654814553E+01  0.51100000000E-03 0.  1.
        -12    1    3    3    0    0 -0.33903343739E+01  0.35658708355E+01 -0.15884287724E+02  0.16628902504E+02  0.00000000000E+00 0.  1.
</event>
<event>
 7    1  0.3221417E-010  0.4778727E+02  0.7816164E-02  0.1312668E+00
        -11   -1    0    0    0    0  0.00000000000E+00  0.00000000000E+00  0.45593999997E+02  0.45594000000E+02  0.51100000000E-03 0. -1.
         11   -1    0    0    0    0 -0.00000000000E+00 -0.00000000000E+00 -0.45593999997E+02  0.45594000000E+02  0.51100000000E-03 0.  1.
    9900012    2    1    2    0    0 -0.50955268479E+01  0.42615828048E+02  0.64459493493E+01  0.47787268934E+02  0.19999990378E+02 0.  0.
         12    1    1    2    0    0  0.50955268479E+01 -0.42615828048E+02 -0.64459493493E+01  0.43400731066E+02  0.00000000000E+00 0. -1.
         11    1    3    3    0    0  0.26555971159E+01  0.97809157469E+01 -0.94477929218E+00  0.10178954615E+02  0.51100000000E-03 0. -1.
        -11    1    3    3    0    0 -0.74463772865E+01  0.31974726280E+02  0.10420234736E+02  0.34444345654E+02  0.51100000000E-03 0.  1.
        -12    1    3    3    0    0 -0.30474667736E+00  0.86018602121E+00 -0.30295060949E+01  0.31639686642E+01  0.00000000000E+00 0.  1.
</event>
<event>
 7    1  0.3221417E-010  0.4778727E+02  0.7816164E-02  0.1312668E+00
        -11   -1    0    0    0    0  0.00000000000E+00  0.00000000000E+00  0.45593999997E+02  0.45594000000E+02  0.51100000000E-03 0. -1.
         11   -1    0    0    0    0 -0.00000000000E+00 -0.00000000000E+00 -0.45593999997E+02  0.45594000000E+02  0.51100000000E-03 0.  1.
    9900012    2    1    2    0    0 -0.75006239386E+01 -0.20984326043E+02 -0.37242746072E+02  0.47787269201E+02  0.19999991595E+02 0.  0.
         12    1    1    2    0    0  0.75006239386E+01  0.20984326043E+02  0.37242746072E+02  0.43400730799E+02  0.00000000000E+00 0. -1.
         11    1    3    3    0    0 -0.18266933605E+01 -0.20414902975E+01 -0.10645997272E+02  0.10992804439E+02  0.51100000000E-03 0.  1.
        -11    1    3    3    0    0 -0.30662158009E+01 -0.19274550010E+02 -0.14235960228E+02  0.24157245731E+02  0.51100000000E-03 0. -1.
         12    1    3    3    0    0 -0.26077147771E+01  0.33171426495E+00 -0.12360788572E+02  0.12637219031E+02  0.00000000000E+00 0. -1.
</event>
<event>
 7    1  0.3221417E-010  0.4778727E+02  0.7816164E-02  0.1312668E+00
        -11   -1    0    0    0    0  0.00000000000E+00  0.00000000000E+00  0.45593999997E+02  0.45594000000E+02  0.51100000000E-03 0. -1.
         11   -1    0    0    0    0 -0.00000000000E+00 -0.00000000000E+00 -0.45593999997E+02  0.45594000000E+02  0.51100000000E-03 0.  1.
    9900012    2    1    2    0    0  0.67184675007E+01 -0.26026505082E+02 -0.34075010604E+02  0.47787272817E+02  0.20000008082E+02 0.  0.
         12    1    1    2    0    0 -0.67184675007E+01  0.26026505082E+02  0.34075010604E+02  0.43400727183E+02  0.00000000000E+00 0. -1.
         11    1    3    3    0    0  0.26715507368E+01 -0.27093361788E+02 -0.28229498774E+02  0.39218516514E+02  0.51100000000E-03 0. -1.
        -11    1    3    3    0    0  0.33086172567E+01 -0.67645452755E+00 -0.57558801287E+01  0.66734320403E+01  0.51100000000E-03 0.  1.
         12    1    3    3    0    0  0.73829950722E+00  0.17433112334E+01 -0.89631701876E-01  0.18953242627E+01  0.00000000000E+00 0. -1.
</event>
<event>
 7    1  0.3221417E-010  0.4778727E+02  0.7816164E-02  0.1312668E+00
        -11   -1    0    0    0    0  0.00000000000E+00  0.00000000000E+00  0.45593999997E+02  0.45594000000E+02  0.51100000000E-03 0. -1.
         11   -1    0    0    0    0 -0.00000000000E+00 -0.00000000000E+00 -0.45593999997E+02  0.45594000000E+02  0.51100000000E-03 0.  1.
    9900012    2    1    2    0    0 -0.64574886745E+01 -0.24067106186E+02 -0.35534471555E+02  0.47787269259E+02  0.19999991859E+02 0.  0.
         12    1    1    2    0    0  0.64574886745E+01  0.24067106186E+02  0.35534471555E+02  0.43400730741E+02  0.00000000000E+00 0. -1.
         11    1    3    3    0    0 -0.64378455754E+01 -0.22183644168E+01 -0.31103703058E+01  0.74860804189E+01  0.51100000000E-03 0. -1.
        -11    1    3    3    0    0  0.23790010388E+01 -0.13300844004E+02 -0.12161459287E+02  0.18178921569E+02  0.51100000000E-03 0.  1.
        -12    1    3    3    0    0 -0.23986441380E+01 -0.85478977655E+01 -0.20262641963E+02  0.22122267271E+02  0.00000000000E+00 0.  1.
</event>
<event>
 7    1  0.3221417E-010  0.4778727E+02  0.7816164E-02  0.1312668E+00
        -11   -1    0    0    0    0  0.00000000000E+00  0.00000000000E+00  0.45593999997E+02  0.45594000000E+02  0.51100000000E-03 0.  1.
         11   -1    0    0    0    0 -0.00000000000E+00 -0.00000000000E+00 -0.45593999997E+02  0.45594000000E+02  0.51100000000E-03 0. -1.
    9900012    2    1    2    0    0  0.36228025684E+02  0.17748213747E+02 -0.16004822054E+02  0.47787271145E+02  0.20000000460E+02 0.  0.
         12    1    1    2    0    0 -0.36228025684E+02 -0.17748213747E+02  0.16004822054E+02  0.43400728855E+02  0.00000000000E+00 0. -1.
         11    1    3    3    0    0  0.21204215611E+02  0.72887336798E+01 -0.18588021225E+02  0.29124885093E+02  0.51100000000E-03 0. -1.
        -11    1    3    3    0    0  0.33979971450E+01  0.37442025662E+01  0.63828602406E+00  0.50963562242E+01  0.51100000000E-03 0.  1.
         12    1    3    3    0    0  0.11625812928E+02  0.67152775006E+01  0.19449131477E+01  0.13566029828E+02  0.00000000000E+00 0. -1.
</event>
<event>
 7    1  0.3221417E-010  0.4778729E+02  0.7816164E-02  0.1312668E+00
        -11   -1    0    0    0    0  0.00000000000E+00  0.00000000000E+00  0.45593999997E+02  0.45594000000E+02  0.51100000000E-03 0. -1.
         11   -1    0    0    0    0 -0.00000000000E+00 -0.00000000000E+00 -0.45593999997E+02  0.45594000000E+02  0.51100000000E-03 0.  1.
    9900012    2    1    2    0    0  0.22574596561E+02  0.25981541589E+02  0.26438012770E+02  0.47787292259E+02  0.20000096724E+02 0.  0.
        -12    1    1    2    0    0 -0.22574596561E+02 -0.25981541589E+02 -0.26438012770E+02  0.43400707741E+02  0.00000000000E+00 0.  1.
         11    1    3    3    0    0  0.89857226190E+01  0.15923804569E+02  0.14240074992E+02  0.23175213030E+02  0.51100000000E-03 0. -1.
        -11    1    3    3    0    0 -0.23138767813E+01  0.22643448311E+01  0.24642055941E+00  0.32468456426E+01  0.51100000000E-03 0.  1.
        -12    1    3    3    0    0  0.15902750723E+02  0.77933921884E+01  0.11951517219E+02  0.21365233586E+02  0.00000000000E+00 0.  1.
</event>
<event>
 7    1  0.3221417E-010  0.4778725E+02  0.7816164E-02  0.1312668E+00
        -11   -1    0    0    0    0  0.00000000000E+00  0.00000000000E+00  0.45593999997E+02  0.45594000000E+02  0.51100000000E-03 0.  1.
         11   -1    0    0    0    0 -0.00000000000E+00 -0.00000000000E+00 -0.45593999997E+02  0.45594000000E+02  0.51100000000E-03 0. -1.
    9900012    2    1    2    0    0  0.22748942989E+02 -0.26075299802E+02 -0.26195218206E+02  0.47787249733E+02  0.19999902831E+02 0.  0.
         12    1    1    2    0    0 -0.22748942989E+02  0.26075299802E+02  0.26195218206E+02  0.43400750267E+02  0.00000000000E+00 0. -1.
         11    1    3    3    0    0  0.27947245809E+01 -0.61129490665E+01 -0.43317212770E+01  0.79964017692E+01  0.51100000000E-03 0. -1.
        -11    1    3    3    0    0  0.46436271664E+01 -0.97137694052E+01  0.54533808655E+00  0.10780444481E+02  0.51100000000E-03 0.  1.
        -12    1    3    3    0    0  0.15310591241E+02 -0.10248581331E+02 -0.22408835016E+02  0.29010403482E+02  0.00000000000E+00 0.  1.
</event>
<event>
 7    1  0.3221417E-010  0.4778726E+02  0.7816164E-02  0.1312668E+00
        -11   -1    0    0    0    0  0.00000000000E+00  0.00000000000E+00  0.45593999997E+02  0.45594000000E+02  0.51100000000E-03 0. -1.
         11   -1    0    0    0    0 -0.00000000000E+00 -0.00000000000E+00 -0.45593999997E+02  0.45594000000E+02  0.51100000000E-03 0.  1.
    9900012    2    1    2    0    0 -0.88467721864E+00 -0.47543909983E+01 -0.43130464900E+02  0.47787263946E+02  0.19999967637E+02 0.  0.
         12    1    1    2    0    0  0.88467721864E+00  0.47543909983E+01  0.43130464900E+02  0.43400736054E+02  0.00000000000E+00 0. -1.
         11    1    3    3    0    0 -0.40939562295E+01 -0.81243174834E+01 -0.16293388638E+02  0.18661176966E+02  0.51100000000E-03 0. -1.
        -11    1    3    3    0    0  0.12062360717E+00  0.19528313050E+01  0.11566060601E+00  0.19599688256E+01  0.51100000000E-03 0.  1.
        -12    1    3    3    0    0  0.30886554037E+01  0.14170951800E+01 -0.26952736867E+02  0.27166118155E+02  0.00000000000E+00 0.  1.
</event>
<event>
 7    1  0.3221417E-010  0.4778727E+02  0.7816164E-02  0.1312668E+00
        -11   -1    0    0    0    0  0.00000000000E+00  0.00000000000E+00  0.45593999997E+02  0.45594000000E+02  0.51100000000E-03 0. -1.
         11   -1    0    0    0    0 -0.00000000000E+00 -0.00000000000E+00 -0.45593999997E+02  0.45594000000E+02  0.51100000000E-03 0.  1.
    9900012    2    1    2    0    0  0.34086758604E+02  0.26718369841E+02  0.28009126450E+01  0.47787268316E+02  0.19999987559E+02 0.  0.
         12    1    1    2    0    0 -0.34086758604E+02 -0.26718369841E+02 -0.28009126450E+01  0.43400731684E+02  0.00000000000E+00 0. -1.
         11    1    3    3    0    0  0.15989440094E+02  0.97634164115E+01  0.12420348676E+01  0.18775759517E+02  0.51100000000E-03 0. -1.
        -11    1    3    3    0    0  0.14699875916E+02  0.16315036094E+02 -0.41386301980E+01  0.22347147802E+02  0.51100000000E-03 0.  1.
         12    1    3    3    0    0  0.33974425943E+01  0.63991733492E+00  0.56975079753E+01  0.66643609976E+01  0.00000000000E+00 0. -1.
</event>
<event>
 7    1  0.3221417E-010  0.4778727E+02  0.7816164E-02  0.1312668E+00
        -11   -1    0    0    0    0  0.00000000000E+00  0.00000000000E+00  0.45593999997E+02  0.45594000000E+02  0.51100000000E-03 0. -1.
         11   -1    0    0    0    0 -0.00000000000E+00 -0.00000000000E+00 -0.45593999997E+02  0.45594000000E+02  0.51100000000E-03 0.  1.
    9900012    2    1    2    0    0 -0.10201503549E+02  0.19300758376E+02 -0.37510443822E+02  0.47787270233E+02  0.19999996302E+02 0.  0.
         12    1    1    2    0    0  0.10201503549E+02 -0.19300758376E+02  0.37510443822E+02  0.43400729767E+02  0.00000000000E+00 0. -1.
         11    1    3    3    0    0 -0.53232323507E+01  0.42397989017E+01 -0.32201690623E+01  0.75287572971E+01  0.51100000000E-03 0. -1.
        -11    1    3    3    0    0 -0.50847986088E+00 -0.20110942108E+01 -0.10211054780E+02  0.10419630112E+02  0.51100000000E-03 0.  1.
        -12    1    3    3    0    0 -0.43697913375E+01  0.17072053685E+02 -0.24079219980E+02  0.29838882825E+02  0.00000000000E+00 0.  1.
</event>
<event>
 7    1  0.3221417E-010  0.4778727E+02  0.7816164E-02  0.1312668E+00
        -11   -1    0    0    0    0  0.00000000000E+00  0.00000000000E+00  0.45593999997E+02  0.45594000000E+02  0.51100000000E-03 0. -1.
         11   -1    0    0    0    0 -0.00000000000E+00 -0.00000000000E+00 -0.45593999997E+02  0.45594000000E+02  0.51100000000E-03 0.  1.
    9900012    2    1    2    0    0 -0.22563317769E+02 -0.46592007099E+00  0.37071592435E+02  0.47787270099E+02  0.19999995690E+02 0.  0.
        -12    1    1    2    0    0  0.22563317769E+02  0.46592007099E+00 -0.37071592435E+02  0.43400729901E+02  0.00000000000E+00 0.  1.
         11    1    3    3    0    0 -0.87589568698E+01  0.23312007830E+00  0.26173273207E+01  0.91446198927E+01  0.51100000000E-03 0. -1.
        -11    1    3    3    0    0 -0.39132887081E+01  0.47022262867E+01  0.14254188055E+02  0.15511500183E+02  0.51100000000E-03 0.  1.
        -12    1    3    3    0    0 -0.98910721912E+01 -0.54012664360E+01  0.20200077059E+02  0.23131150023E+02  0.00000000000E+00 0.  1.
</event>
<event>
 7    1  0.3221417E-010  0.4778727E+02  0.7816164E-02  0.1312668E+00
        -11   -1    0    0    0    0  0.00000000000E+00  0.00000000000E+00  0.45593999997E+02  0.45594000000E+02  0.51100000000E-03 0. -1.
         11   -1    0    0    0    0 -0.00000000000E+00 -0.00000000000E+00 -0.45593999997E+02  0.45594000000E+02  0.51100000000E-03 0.  1.
    9900012    2    1    2    0    0  0.46867130204E+00  0.31991516151E+01  0.43280120699E+02  0.47787273375E+02  0.20000010625E+02 0.  0.
        -12    1    1    2    0    0 -0.46867130204E+00 -0.31991516151E+01 -0.43280120699E+02  0.43400726625E+02  0.00000000000E+00 0.  1.
         11    1    3    3    0    0  0.18182144857E+01  0.29390346716E+01  0.19193595373E+01  0.39531974415E+01  0.51100000000E-03 0.  1.
        -11    1    3    3    0    0  0.68775396621E+00  0.11209090335E+01 -0.84970449738E+00  0.15657076910E+01  0.51100000000E-03 0. -1.
         12    1    3    3    0    0 -0.20372971499E+01 -0.86079209002E+00  0.42210465659E+02  0.42268368242E+02  0.00000000000E+00 0. -1.
</event>
<event>
 7    1  0.3221417E-010  0.4778727E+02  0.7816164E-02  0.1312668E+00
        -11   -1    0    0    0    0  0.00000000000E+00  0.00000000000E+00  0.45593999997E+02  0.45594000000E+02  0.51100000000E-03 0. -1.
         11   -1    0    0    0    0 -0.00000000000E+00 -0.00000000000E+00 -0.45593999997E+02  0.45594000000E+02  0.51100000000E-03 0.  1.
    9900012    2    1    2    0    0  0.21884672221E+02  0.11525989494E+02  0.35662810689E+02  0.47787269842E+02  0.19999994517E+02 0.  0.
        -12    1    1    2    0    0 -0.21884672221E+02 -0.11525989494E+02 -0.35662810689E+02  0.43400730158E+02  0.00000000000E+00 0.  1.
         11    1    3    3    0    0  0.37835344605E+01  0.90590949111E+01  0.28964629150E+01  0.10235811219E+02  0.51100000000E-03 0.  1.
        -11    1    3    3    0    0  0.86377180843E+01  0.58083769457E+00  0.14315077357E+02  0.16729285284E+02  0.51100000000E-03 0. -1.
        -12    1    3    3    0    0  0.94634196760E+01  0.18860568886E+01  0.18451270417E+02  0.20822173339E+02  0.00000000000E+00 0.  1.
</event>
<event>
 7    1  0.3221417E-010  0.4778726E+02  0.7816164E-02  0.1312668E+00
        -11   -1    0    0    0    0  0.00000000000E+00  0.00000000000E+00  0.45593999997E+02  0.45594000000E+02  0.51100000000E-03 0. -1.
         11   -1    0    0    0    0 -0.00000000000E+00 -0.00000000000E+00 -0.45593999997E+02  0.45594000000E+02  0.51100000000E-03 0.  1.
    9900012    2    1    2    0    0  0.25564968080E+02 -0.99327234313E+01  0.33636251156E+02  0.47787262915E+02  0.19999962936E+02 0.  0.
        -12    1    1    2    0    0 -0.25564968080E+02  0.99327234313E+01 -0.33636251156E+02  0.43400737085E+02  0.00000000000E+00 0.  1.
         11    1    3    3    0    0 -0.46449236577E+00 -0.41175287509E+01  0.10112031984E+02  0.10928082507E+02  0.51100000000E-03 0. -1.
        -11    1    3    3    0    0  0.98455917236E+01  0.16121469414E+01  0.12185842245E+02  0.15748950620E+02  0.51100000000E-03 0.  1.
         12    1    3    3    0    0  0.16183868722E+02 -0.74273416219E+01  0.11338376927E+02  0.21110229788E+02  0.00000000000E+00 0. -1.
</event>
<event>
 7    1  0.3221417E-010  0.4778727E+02  0.7816164E-02  0.1312668E+00
        -11   -1    0    0    0    0  0.00000000000E+00  0.00000000000E+00  0.45593999997E+02  0.45594000000E+02  0.51100000000E-03 0. -1.
         11   -1    0    0    0    0 -0.00000000000E+00 -0.00000000000E+00 -0.45593999997E+02  0.45594000000E+02  0.51100000000E-03 0.  1.
    9900012    2    1    2    0    0  0.50560123239E+01 -0.19614176764E+02 -0.38384163418E+02  0.47787271987E+02  0.20000004299E+02 0.  0.
         12    1    1    2    0    0 -0.50560123239E+01  0.19614176764E+02  0.38384163418E+02  0.43400728013E+02  0.00000000000E+00 0. -1.
         11    1    3    3    0    0 -0.64542132447E+01 -0.60908542912E+01 -0.13950053010E+02  0.16533582608E+02  0.51100000000E-03 0. -1.
        -11    1    3    3    0    0  0.42304420422E+01 -0.47168902399E+01 -0.15514969773E+02  0.16758877669E+02  0.51100000000E-03 0.  1.
        -12    1    3    3    0    0  0.72797835265E+01 -0.88064322325E+01 -0.89191406353E+01  0.14494811711E+02  0.00000000000E+00 0.  1.
</event>
<event>
 7    1  0.3221417E-010  0.4778727E+02  0.7816164E-02  0.1312668E+00
        -11   -1    0    0    0    0  0.00000000000E+00  0.00000000000E+00  0.45593999997E+02  0.45594000000E+02  0.51100000000E-03 0. -1.
         11   -1    0    0    0    0 -0.00000000000E+00 -0.00000000000E+00 -0.45593999997E+02  0.45594000000E+02  0.51100000000E-03 0.  1.
    9900012    2    1    2    0    0  0.29727241947E+02  0.21800526417E+01  0.31546185337E+02  0.47787270137E+02  0.19999995864E+02 0.  0.
        -12    1    1    2    0    0 -0.29727241947E+02 -0.21800526417E+01 -0.31546185337E+02  0.43400729863E+02  0.00000000000E+00 0.  1.
         11    1    3    3    0    0  0.14041868270E+02 -0.19826540275E+01  0.93073512207E+01  0.16962658061E+02  0.51100000000E-03 0. -1.
        -11    1    3    3    0    0  0.97630458893E-01 -0.35007377787E+01  0.65074556314E+01  0.73899712961E+01  0.51100000000E-03 0.  1.
         12    1    3    3    0    0  0.15587743218E+02  0.76634444479E+01  0.15731378485E+02  0.23434640780E+02  0.00000000000E+00 0. -1.
</event>
<event>
 7    1  0.3221417E-010  0.4778728E+02  0.7816164E-02  0.1312668E+00
        -11   -1    0    0    0    0  0.00000000000E+00  0.00000000000E+00  0.45593999997E+02  0.45594000000E+02  0.51100000000E-03 0. -1.
         11   -1    0    0    0    0 -0.00000000000E+00 -0.00000000000E+00 -0.45593999997E+02  0.45594000000E+02  0.51100000000E-03 0.  1.
    9900012    2    1    2    0    0  0.30082644001E+02 -0.11250807862E+02  0.29190353836E+02  0.47787275298E+02  0.20000019391E+02 0.  0.
        -12    1    1    2    0    0 -0.30082644001E+02  0.11250807862E+02 -0.29190353836E+02  0.43400724702E+02  0.00000000000E+00 0.  1.
         11    1    3    3    0    0  0.12002782916E+01 -0.13790161554E+01  0.88532724044E+01  0.90400656005E+01  0.51100000000E-03 0. -1.
        -11    1    3    3    0    0  0.24285741181E+02 -0.50298181841E+01  0.20333312665E+02  0.32070857486E+02  0.51100000000E-03 0.  1.
        -12    1    3    3    0    0  0.45966245280E+01 -0.48419735230E+01  0.37687670915E-02  0.66763522115E+01  0.00000000000E+00 0.  1.
</event>
<event>
 7    1  0.3221417E-010  0.4778727E+02  0.7816164E-02  0.1312668E+00
        -11   -1    0    0    0    0  0.00000000000E+00  0.00000000000E+00  0.45593999997E+02  0.45594000000E+02  0.51100000000E-03 0. -1.
         11   -1    0    0    0    0 -0.00000000000E+00 -0.00000000000E+00 -0.45593999997E+02  0.45594000000E+02  0.51100000000E-03 0.  1.
    9900012    2    1    2    0    0 -0.31732728940E+02 -0.82554772198E+01  0.28434212329E+02  0.47787269351E+02  0.19999992279E+02 0.  0.
        -12    1    1    2    0    0  0.31732728940E+02  0.82554772198E+01 -0.28434212329E+02  0.43400730649E+02  0.00000000000E+00 0.  1.
         11    1    3    3    0    0 -0.24314907232E+02 -0.75404989025E+01  0.11191047574E+02  0.27808512787E+02  0.51100000000E-03 0. -1.
        -11    1    3    3    0    0 -0.26908847859E+01 -0.36227747363E+01  0.69946849862E+01  0.83241201360E+01  0.51100000000E-03 0.  1.
         12    1    3    3    0    0 -0.47269369221E+01  0.29077964191E+01  0.10248479769E+02  0.11654636428E+02  0.00000000000E+00 0. -1.
</event>
<event>
 7    1  0.3221417E-010  0.4778727E+02  0.7816164E-02  0.1312668E+00
        -11   -1    0    0    0    0  0.00000000000E+00  0.00000000000E+00  0.45593999997E+02  0.45594000000E+02  0.51100000000E-03 0. -1.
         11   -1    0    0    0    0 -0.00000000000E+00 -0.00000000000E+00 -0.45593999997E+02  0.45594000000E+02  0.51100000000E-03 0.  1.
    9900012    2    1    2    0    0  0.18409118722E+02 -0.17001427303E+02  0.35435566014E+02  0.47787268196E+02  0.19999987011E+02 0.  0.
        -12    1    1    2    0    0 -0.18409118722E+02  0.17001427303E+02 -0.35435566014E+02  0.43400731804E+02  0.00000000000E+00 0.  1.
         11    1    3    3    0    0  0.67960743571E+01 -0.13476484592E+02  0.15028399080E+02  0.21299179392E+02  0.51100000000E-03 0. -1.
        -11    1    3    3    0    0  0.21501411878E+01 -0.10574349797E+01  0.15240715884E+02  0.15427919393E+02  0.51100000000E-03 0.  1.
         12    1    3    3    0    0  0.94629031770E+01 -0.24675077314E+01  0.51664510497E+01  0.11060169411E+02  0.00000000000E+00 0. -1.
</event>
<event>
 7    1  0.3221417E-010  0.4778727E+02  0.7816164E-02  0.1312668E+00
        -11   -1    0    0    0    0  0.00000000000E+00  0.00000000000E+00  0.45593999997E+02  0.45594000000E+02  0.51100000000E-03 0.  1.
         11   -1    0    0    0    0 -0.00000000000E+00 -0.00000000000E+00 -0.45593999997E+02  0.45594000000E+02  0.51100000000E-03 0. -1.
    9900012    2    1    2    0    0 -0.23060714619E+02  0.32225033555E+02  0.17702374009E+02  0.47787269685E+02  0.19999993801E+02 0.  0.
         12    1    1    2    0    0  0.23060714619E+02 -0.32225033555E+02 -0.17702374009E+02  0.43400730315E+02  0.00000000000E+00 0. -1.
         11    1    3    3    0    0  0.17900852829E+01  0.81560838091E+00  0.29770196236E+01  0.35682304369E+01  0.51100000000E-03 0. -1.
        -11    1    3    3    0    0  0.79513640960E-01  0.62178981946E+00  0.27680951101E+01  0.28381853002E+01  0.51100000000E-03 0.  1.
         12    1    3    3    0    0 -0.24930313542E+02  0.30787635355E+02  0.11957259275E+02  0.41380853948E+02  0.00000000000E+00 0. -1.
</event>
<event>
 7    1  0.3221417E-010  0.4778727E+02  0.7816164E-02  0.1312668E+00
        -11   -1    0    0    0    0  0.00000000000E+00  0.00000000000E+00  0.45593999997E+02  0.45594000000E+02  0.51100000000E-03 0. -1.
         11   -1    0    0    0    0 -0.00000000000E+00 -0.00000000000E+00 -0.45593999997E+02  0.45594000000E+02  0.51100000000E-03 0.  1.
    9900012    2    1    2    0    0 -0.23079141188E+02  0.23332526783E+02 -0.28400171862E+02  0.47787270446E+02  0.19999997272E+02 0.  0.
         12    1    1    2    0    0  0.23079141188E+02 -0.23332526783E+02  0.28400171862E+02  0.43400729554E+02  0.00000000000E+00 0. -1.
         11    1    3    3    0    0 -0.43409144032E+01 -0.25358710567E+01 -0.24304971011E+01  0.55840394242E+01  0.51100000000E-03 0.  1.
        -11    1    3    3    0    0 -0.11255361242E+02  0.11957631216E+02 -0.79633581928E+01  0.18250566429E+02  0.51100000000E-03 0. -1.
        -12    1    3    3    0    0 -0.74828655424E+01  0.13910766623E+02 -0.18006316568E+02  0.23952664593E+02  0.00000000000E+00 0.  1.
</event>
<event>
 7    1  0.3221417E-010  0.4778728E+02  0.7816164E-02  0.1312668E+00
        -11   -1    0    0    0    0  0.00000000000E+00  0.00000000000E+00  0.45593999997E+02  0.45594000000E+02  0.51100000000E-03 0. -1.
         11   -1    0    0    0    0 -0.00000000000E+00 -0.00000000000E+00 -0.45593999997E+02  0.45594000000E+02  0.51100000000E-03 0.  1.
    9900012    2    1    2    0    0  0.37896793052E+02 -0.84624246511E+01  0.19386668473E+02  0.47787280316E+02  0.20000042273E+02 0.  0.
        -12    1    1    2    0    0 -0.37896793052E+02  0.84624246511E+01 -0.19386668473E+02  0.43400719684E+02  0.00000000000E+00 0.  1.
         11    1    3    3    0    0  0.13218569590E+02 -0.74413055630E+00 -0.77791387241E+00  0.13262332470E+02  0.51100000000E-03 0. -1.
        -11    1    3    3    0    0  0.81608633147E+01 -0.77366598921E+01  0.58917185590E+01  0.12695193743E+02  0.51100000000E-03 0.  1.
         12    1    3    3    0    0  0.16517360147E+02  0.18365797288E-01  0.14272863786E+02  0.21829754103E+02  0.00000000000E+00 0. -1.
</event>
<event>
 7    1  0.3221417E-010  0.4778727E+02  0.7816164E-02  0.1312668E+00
        -11   -1    0    0    0    0  0.00000000000E+00  0.00000000000E+00  0.45593999997E+02  0.45594000000E+02  0.51100000000E-03 0. -1.
         11   -1    0    0    0    0 -0.00000000000E+00 -0.00000000000E+00 -0.45593999997E+02  0.45594000000E+02  0.51100000000E-03 0.  1.
    9900012    2    1    2    0    0  0.87469455783E+01  0.19866956540E+02  0.37582150344E+02  0.47787273698E+02  0.20000012097E+02 0.  0.
        -12    1    1    2    0    0 -0.87469455783E+01 -0.19866956540E+02 -0.37582150344E+02  0.43400726302E+02  0.00000000000E+00 0.  1.
         11    1    3    3    0    0 -0.10518394774E+01  0.74913783984E+01  0.44966127542E+01  0.88003774417E+01  0.51100000000E-03 0. -1.
        -11    1    3    3    0    0  0.86344478056E+01  0.15214989035E+02  0.27015723150E+02  0.32185382984E+02  0.51100000000E-03 0.  1.
        -12    1    3    3    0    0  0.11643372502E+01 -0.28394108937E+01  0.60698144392E+01  0.68015132714E+01  0.00000000000E+00 0.  1.
</event>
<event>
 7    1  0.3221417E-010  0.4778724E+02  0.7816164E-02  0.1312668E+00
        -11   -1    0    0    0    0  0.00000000000E+00  0.00000000000E+00  0.45593999997E+02  0.45594000000E+02  0.51100000000E-03 0. -1.
         11   -1    0    0    0    0 -0.00000000000E+00 -0.00000000000E+00 -0.45593999997E+02  0.45594000000E+02  0.51100000000E-03 0.  1.
    9900012    2    1    2    0    0  0.28091940280E+02  0.19589690432E+01  0.33024707623E+02  0.47787239846E+02  0.19999857751E+02 0.  0.
        -12    1    1    2    0    0 -0.28091940280E+02 -0.19589690432E+01 -0.33024707623E+02  0.43400760154E+02  0.00000000000E+00 0.  1.
         11    1    3    3    0    0  0.17398519699E+02  0.84567427419E+01  0.24333886985E+02  0.31086380323E+02  0.51100000000E-03 0. -1.
        -11    1    3    3    0    0  0.47000888671E+01 -0.56657863540E+01  0.75473050469E+01  0.10542949497E+02  0.51100000000E-03 0.  1.
        -12    1    3    3    0    0  0.59933317141E+01 -0.83198734469E+00  0.11435155908E+01  0.61579100256E+01  0.00000000000E+00 0.  1.
</event>
<event>
 7    1  0.3221417E-010  0.4778727E+02  0.7816164E-02  0.1312668E+00
        -11   -1    0    0    0    0  0.00000000000E+00  0.00000000000E+00  0.45593999997E+02  0.45594000000E+02  0.51100000000E-03 0. -1.
         11   -1    0    0    0    0 -0.00000000000E+00 -0.00000000000E+00 -0.45593999997E+02  0.45594000000E+02  0.51100000000E-03 0.  1.
    9900012    2    1    2    0    0 -0.24712631364E+02  0.49510448929E+01 -0.35332649423E+02  0.47787272935E+02  0.20000008622E+02 0.  0.
         12    1    1    2    0    0  0.24712631364E+02 -0.49510448929E+01  0.35332649423E+02  0.43400727065E+02  0.00000000000E+00 0. -1.
         11    1    3    3    0    0 -0.77396600177E+01  0.80002719948E+01 -0.18963412651E+02  0.21989036105E+02  0.51100000000E-03 0. -1.
        -11    1    3    3    0    0 -0.15172190894E+02  0.12420952704E+01 -0.11640047555E+02  0.19163216967E+02  0.51100000000E-03 0.  1.
        -12    1    3    3    0    0 -0.18007804525E+01 -0.42913223723E+01 -0.47291892170E+01  0.66350198637E+01  0.00000000000E+00 0.  1.
</event>
<event>
 7    1  0.3221417E-010  0.4778728E+02  0.7816164E-02  0.1312668E+00
        -11   -1    0    0    0    0  0.00000000000E+00  0.00000000000E+00  0.45593999997E+02  0.45594000000E+02  0.51100000000E-03 0. -1.
         11   -1    0    0    0    0 -0.00000000000E+00 -0.00000000000E+00 -0.45593999997E+02  0.45594000000E+02  0.51100000000E-03 0.  1.
    9900012    2    1    2    0    0  0.25281958070E+02 -0.10623802605E+02 -0.33638964145E+02  0.47787280024E+02  0.20000040944E+02 0.  0.
         12    1    1    2    0    0 -0.25281958070E+02  0.10623802605E+02  0.33638964145E+02  0.43400719976E+02  0.00000000000E+00 0. -1.
         11    1    3    3    0    0  0.41227305415E+01 -0.94809789415E+01 -0.11379178990E+02  0.15374380754E+02  0.51100000000E-03 0. -1.
        -11    1    3    3    0    0  0.51896786203E+01 -0.49151969669E+01 -0.70159205041E+01  0.10015740920E+02  0.51100000000E-03 0.  1.
         12    1    3    3    0    0  0.15969548909E+02  0.37723733036E+01 -0.15243864651E+02  0.22397158350E+02  0.00000000000E+00 0. -1.
</event>
<event>
 7    1  0.3221417E-010  0.4778727E+02  0.7816164E-02  0.1312668E+00
        -11   -1    0    0    0    0  0.00000000000E+00  0.00000000000E+00  0.45593999997E+02  0.45594000000E+02  0.51100000000E-03 0. -1.
         11   -1    0    0    0    0 -0.00000000000E+00 -0.00000000000E+00 -0.45593999997E+02  0.45594000000E+02  0.51100000000E-03 0.  1.
    9900012    2    1    2    0    0  0.12240134249E+02 -0.23525731859E+02  0.34356108864E+02  0.47787272331E+02  0.20000005866E+02 0.  0.
        -12    1    1    2    0    0 -0.12240134249E+02  0.23525731859E+02 -0.34356108864E+02  0.43400727669E+02  0.00000000000E+00 0.  1.
         11    1    3    3    0    0  0.55095942625E+01 -0.15545223785E+02  0.23921916553E+02  0.29056285091E+02  0.51100000000E-03 0. -1.
        -11    1    3    3    0    0 -0.99892445083E+00  0.16804933445E+01  0.47077084381E+01  0.50974922205E+01  0.51100000000E-03 0.  1.
        -12    1    3    3    0    0  0.77294644373E+01 -0.96610014185E+01  0.57264838725E+01  0.13633495019E+02  0.00000000000E+00 0.  1.
</event>
<event>
 7    1  0.3221417E-010  0.4778726E+02  0.7816164E-02  0.1312668E+00
        -11   -1    0    0    0    0  0.00000000000E+00  0.00000000000E+00  0.45593999997E+02  0.45594000000E+02  0.51100000000E-03 0. -1.
         11   -1    0    0    0    0 -0.00000000000E+00 -0.00000000000E+00 -0.45593999997E+02  0.45594000000E+02  0.51100000000E-03 0.  1.
    9900012    2    1    2    0    0 -0.16764800830E+02  0.15611447498E+02  0.36862557398E+02  0.47787262935E+02  0.19999963025E+02 0.  0.
        -12    1    1    2    0    0  0.16764800830E+02 -0.15611447498E+02 -0.36862557398E+02  0.43400737065E+02  0.00000000000E+00 0.  1.
         11    1    3    3    0    0 -0.83271025448E+01  0.76164273856E+01  0.64387874742E+01  0.12992635888E+02  0.51100000000E-03 0. -1.
        -11    1    3    3    0    0 -0.46154402048E+01  0.10964443837E+02  0.23597013675E+02  0.26426130469E+02  0.51100000000E-03 0.  1.
        -12    1    3    3    0    0 -0.38222580800E+01 -0.29694237243E+01  0.68267562494E+01  0.83684965778E+01  0.00000000000E+00 0.  1.
</event>
<event>
 7    1  0.3221417E-010  0.4778727E+02  0.7816164E-02  0.1312668E+00
        -11   -1    0    0    0    0  0.00000000000E+00  0.00000000000E+00  0.45593999997E+02  0.45594000000E+02  0.51100000000E-03 0. -1.
         11   -1    0    0    0    0 -0.00000000000E+00 -0.00000000000E+00 -0.45593999997E+02  0.45594000000E+02  0.51100000000E-03 0.  1.
    9900012    2    1    2    0    0 -0.15001720754E+02  0.27276247147E+02  0.30241985221E+02  0.47787274729E+02  0.20000016797E+02 0.  0.
        -12    1    1    2    0    0  0.15001720754E+02 -0.27276247147E+02 -0.30241985221E+02  0.43400725271E+02  0.00000000000E+00 0.  1.
         11    1    3    3    0    0 -0.41866572491E+01  0.25556513579E-01  0.11626460460E+02  0.12357319092E+02  0.51100000000E-03 0. -1.
        -11    1    3    3    0    0 -0.36432693255E+01  0.95010003740E+01  0.26826091519E+01  0.10523251000E+02  0.51100000000E-03 0.  1.
        -12    1    3    3    0    0 -0.71717941797E+01  0.17749690259E+02  0.15932915609E+02  0.24906704637E+02  0.00000000000E+00 0.  1.
</event>
<event>
 7    1  0.3221417E-010  0.4778727E+02  0.7816164E-02  0.1312668E+00
        -11   -1    0    0    0    0  0.00000000000E+00  0.00000000000E+00  0.45593999997E+02  0.45594000000E+02  0.51100000000E-03 0. -1.
         11   -1    0    0    0    0 -0.00000000000E+00 -0.00000000000E+00 -0.45593999997E+02  0.45594000000E+02  0.51100000000E-03 0.  1.
    9900012    2    1    2    0    0  0.11209441689E+02  0.11268278455E+02 -0.40385611618E+02  0.47787270650E+02  0.19999998202E+02 0.  0.
         12    1    1    2    0    0 -0.11209441689E+02 -0.11268278455E+02  0.40385611618E+02  0.43400729350E+02  0.00000000000E+00 0. -1.
         11    1    3    3    0    0  0.98657650457E+01  0.45191921914E+01 -0.17681986376E+02  0.20746302332E+02  0.51100000000E-03 0.  1.
        -11    1    3    3    0    0 -0.31107658353E+01  0.78188963524E+01 -0.78906633911E+01  0.11535795303E+02  0.51100000000E-03 0. -1.
         12    1    3    3    0    0  0.44544424790E+01 -0.10698100889E+01 -0.14812961851E+02  0.15505173015E+02  0.00000000000E+00 0. -1.
</event>
<event>
 7    1  0.3221417E-010  0.4778728E+02  0.7816164E-02  0.1312668E+00
        -11   -1    0    0    0    0  0.00000000000E+00  0.00000000000E+00  0.45593999997E+02  0.45594000000E+02  0.51100000000E-03 0. -1.
         11   -1    0    0    0    0 -0.00000000000E+00 -0.00000000000E+00 -0.45593999997E+02  0.45594000000E+02  0.51100000000E-03 0.  1.
    9900012    2    1    2    0    0  0.41586077935E+02  0.20440079663E+01 -0.12249206874E+02  0.47787275172E+02  0.20000018818E+02 0.  0.
         12    1    1    2    0    0 -0.41586077935E+02 -0.20440079663E+01  0.12249206874E+02  0.43400724828E+02  0.00000000000E+00 0. -1.
         11    1    3    3    0    0  0.13589174764E+02 -0.29626134563E+01 -0.51196393337E+00  0.13917789213E+02  0.51100000000E-03 0. -1.
        -11    1    3    3    0    0  0.16894635544E+02 -0.41037144844E+01 -0.57836362148E+01  0.18322653489E+02  0.51100000000E-03 0.  1.
         12    1    3    3    0    0  0.11102267627E+02  0.91103359071E+01 -0.59536067254E+01  0.15546832470E+02  0.00000000000E+00 0. -1.
</event>
<event>
 7    1  0.3221417E-010  0.4778728E+02  0.7816164E-02  0.1312668E+00
        -11   -1    0    0    0    0  0.00000000000E+00  0.00000000000E+00  0.45593999997E+02  0.45594000000E+02  0.51100000000E-03 0. -1.
         11   -1    0    0    0    0 -0.00000000000E+00 -0.00000000000E+00 -0.45593999997E+02  0.45594000000E+02  0.51100000000E-03 0.  1.
    9900012    2    1    2    0    0 -0.34765255331E+02  0.79136200705E+01  0.24746192654E+02  0.47787280978E+02  0.20000045289E+02 0.  0.
        -12    1    1    2    0    0  0.34765255331E+02 -0.79136200705E+01 -0.24746192654E+02  0.43400719022E+02  0.00000000000E+00 0.  1.
         11    1    3    3    0    0 -0.12862553383E+02 -0.90027722681E+00  0.90877651244E+01  0.15774766364E+02  0.51100000000E-03 0. -1.
        -11    1    3    3    0    0 -0.17649108912E+02  0.12116808799E+02  0.15828860226E+02  0.26624442101E+02  0.51100000000E-03 0.  1.
        -12    1    3    3    0    0 -0.42535930354E+01 -0.33029115021E+01 -0.17043269647E+00  0.53880725130E+01  0.00000000000E+00 0.  1.
</event>
<event>
 7    1  0.3221417E-010  0.4778727E+02  0.7816164E-02  0.1312668E+00
        -11   -1    0    0    0    0  0.00000000000E+00  0.00000000000E+00  0.45593999997E+02  0.45594000000E+02  0.51100000000E-03 0. -1.
         11   -1    0    0    0    0 -0.00000000000E+00 -0.00000000000E+00 -0.45593999997E+02  0.45594000000E+02  0.51100000000E-03 0.  1.
    9900012    2    1    2    0    0  0.67452042623E+01  0.33202521047E+02 -0.27124124587E+02  0.47787270524E+02  0.19999997629E+02 0.  0.
         12    1    1    2    0    0 -0.67452042623E+01 -0.33202521047E+02  0.27124124587E+02  0.43400729476E+02  0.00000000000E+00 0. -1.
         11    1    3    3    0    0  0.73758459185E+00  0.92644679299E+01 -0.82970094165E+01  0.12458521685E+02  0.51100000000E-03 0. -1.
        -11    1    3    3    0    0 -0.48839592053E+01  0.68986137259E+01 -0.10447186719E+02  0.13438290050E+02  0.51100000000E-03 0.  1.
         12    1    3    3    0    0  0.10891578876E+02  0.17039439391E+02 -0.83799284511E+01  0.21890458790E+02  0.00000000000E+00 0. -1.
</event>
<event>
 7    1  0.3221417E-010  0.4778727E+02  0.7816164E-02  0.1312668E+00
        -11   -1    0    0    0    0  0.00000000000E+00  0.00000000000E+00  0.45593999997E+02  0.45594000000E+02  0.51100000000E-03 0. -1.
         11   -1    0    0    0    0 -0.00000000000E+00 -0.00000000000E+00 -0.45593999997E+02  0.45594000000E+02  0.51100000000E-03 0.  1.
    9900012    2    1    2    0    0 -0.16783372577E+02  0.30252373289E+02  0.26205649607E+02  0.47787265490E+02  0.19999974677E+02 0.  0.
        -12    1    1    2    0    0  0.16783372577E+02 -0.30252373289E+02 -0.26205649607E+02  0.43400734510E+02  0.00000000000E+00 0.  1.
         11    1    3    3    0    0 -0.58142059788E+01  0.10579779421E+02  0.25123397825E+01  0.12330797833E+02  0.51100000000E-03 0. -1.
        -11    1    3    3    0    0  0.11408384820E+01  0.12784745198E+01 -0.12956214034E+01  0.21481723911E+01  0.51100000000E-03 0.  1.
         12    1    3    3    0    0 -0.12110005080E+02  0.18394119348E+02  0.24988931228E+02  0.33308295266E+02  0.00000000000E+00 0. -1.
</event>
<event>
 7    1  0.3221417E-010  0.4778727E+02  0.7816164E-02  0.1312668E+00
        -11   -1    0    0    0    0  0.00000000000E+00  0.00000000000E+00  0.45593999997E+02  0.45594000000E+02  0.51100000000E-03 0. -1.
         11   -1    0    0    0    0 -0.00000000000E+00 -0.00000000000E+00 -0.45593999997E+02  0.45594000000E+02  0.51100000000E-03 0.  1.
    9900012    2    1    2    0    0 -0.10678244559E+02 -0.25205132486E+01 -0.41991020442E+02  0.47787266232E+02  0.19999978056E+02 0.  0.
         12    1    1    2    0    0  0.10678244559E+02  0.25205132486E+01  0.41991020442E+02  0.43400733768E+02  0.00000000000E+00 0. -1.
         11    1    3    3    0    0 -0.63006019771E+01  0.15673618057E+01 -0.50302053328E+01  0.82132316572E+01  0.51100000000E-03 0. -1.
        -11    1    3    3    0    0  0.12899665188E+01  0.39851149011E+01 -0.90733453384E+01  0.99935354248E+01  0.51100000000E-03 0.  1.
        -12    1    3    3    0    0 -0.56676091007E+01 -0.80729899555E+01 -0.27887469770E+02  0.29580499150E+02  0.00000000000E+00 0.  1.
</event>
<event>
 7    1  0.3221417E-010  0.4778728E+02  0.7816164E-02  0.1312668E+00
        -11   -1    0    0    0    0  0.00000000000E+00  0.00000000000E+00  0.45593999997E+02  0.45594000000E+02  0.51100000000E-03 0. -1.
         11   -1    0    0    0    0 -0.00000000000E+00 -0.00000000000E+00 -0.45593999997E+02  0.45594000000E+02  0.51100000000E-03 0.  1.
    9900012    2    1    2    0    0  0.30879068468E+02  0.28716866076E+02 -0.10268744247E+02  0.47787281399E+02  0.20000047209E+02 0.  0.
         12    1    1    2    0    0 -0.30879068468E+02 -0.28716866076E+02  0.10268744247E+02  0.43400718601E+02  0.00000000000E+00 0. -1.
         11    1    3    3    0    0  0.12402260553E+02  0.15888363674E+02 -0.87579973262E+01  0.21976320996E+02  0.51100000000E-03 0.  1.
        -11    1    3    3    0    0  0.11391070021E+02  0.11992674655E+02  0.37331314539E+01  0.16956326027E+02  0.51100000000E-03 0. -1.
         12    1    3    3    0    0  0.70857378940E+01  0.83582774678E+00 -0.52438783752E+01  0.88546343763E+01  0.00000000000E+00 0. -1.
</event>
<event>
 7    1  0.3221417E-010  0.4778727E+02  0.7816164E-02  0.1312668E+00
        -11   -1    0    0    0    0  0.00000000000E+00  0.00000000000E+00  0.45593999997E+02  0.45594000000E+02  0.51100000000E-03 0. -1.
         11   -1    0    0    0    0 -0.00000000000E+00 -0.00000000000E+00 -0.45593999997E+02  0.45594000000E+02  0.51100000000E-03 0.  1.
    9900012    2    1    2    0    0 -0.11023477851E+02  0.23204928773E+01  0.41913262540E+02  0.47787270422E+02  0.19999997163E+02 0.  0.
        -12    1    1    2    0    0  0.11023477851E+02 -0.23204928773E+01 -0.41913262540E+02  0.43400729578E+02  0.00000000000E+00 0.  1.
         11    1    3    3    0    0  0.72190496649E+00  0.53536628945E+01  0.10076343358E+02  0.11433090085E+02  0.51100000000E-03 0. -1.
        -11    1    3    3    0    0  0.26845832514E+01 -0.59691894770E+00  0.70811407491E+01  0.75964369301E+01  0.51100000000E-03 0.  1.
         12    1    3    3    0    0 -0.14429966069E+02 -0.24362510695E+01  0.24755778433E+02  0.28757743407E+02  0.00000000000E+00 0. -1.
</event>
<event>
 7    1  0.3221417E-010  0.4778727E+02  0.7816164E-02  0.1312668E+00
        -11   -1    0    0    0    0  0.00000000000E+00  0.00000000000E+00  0.45593999997E+02  0.45594000000E+02  0.51100000000E-03 0. -1.
         11   -1    0    0    0    0 -0.00000000000E+00 -0.00000000000E+00 -0.45593999997E+02  0.45594000000E+02  0.51100000000E-03 0.  1.
    9900012    2    1    2    0    0 -0.24314339672E+02  0.19972702226E+02  0.29891933936E+02  0.47787266569E+02  0.19999979594E+02 0.  0.
        -12    1    1    2    0    0  0.24314339672E+02 -0.19972702226E+02 -0.29891933936E+02  0.43400733431E+02  0.00000000000E+00 0.  1.
         11    1    3    3    0    0  0.63743358661E+00  0.56762590055E+01 -0.43514714922E+00  0.57284894324E+01  0.51100000000E-03 0. -1.
        -11    1    3    3    0    0 -0.62376657368E+01  0.16363259873E+01  0.82273608422E+01  0.10453492396E+02  0.51100000000E-03 0.  1.
         12    1    3    3    0    0 -0.18714107522E+02  0.12660117233E+02  0.22099720243E+02  0.31605284741E+02  0.00000000000E+00 0. -1.
</event>
<event>
 7    1  0.3221417E-010  0.4778728E+02  0.7816164E-02  0.1312668E+00
        -11   -1    0    0    0    0  0.00000000000E+00  0.00000000000E+00  0.45593999997E+02  0.45594000000E+02  0.51100000000E-03 0. -1.
         11   -1    0    0    0    0 -0.00000000000E+00 -0.00000000000E+00 -0.45593999997E+02  0.45594000000E+02  0.51100000000E-03 0.  1.
    9900012    2    1    2    0    0  0.35985191526E+02  0.18215253415E+02  0.16027886944E+02  0.47787278508E+02  0.20000034028E+02 0.  0.
        -12    1    1    2    0    0 -0.35985191526E+02 -0.18215253415E+02 -0.16027886944E+02  0.43400721492E+02  0.00000000000E+00 0.  1.
         11    1    3    3    0    0  0.25870836351E+02  0.19096596412E+02  0.15127355416E+02  0.35536137244E+02  0.51100000000E-03 0. -1.
        -11    1    3    3    0    0  0.31999545933E+01  0.21002405677E+01 -0.18285622613E+01  0.42419759601E+01  0.51100000000E-03 0.  1.
         12    1    3    3    0    0  0.69144005816E+01 -0.29815835647E+01  0.27290937893E+01  0.80091653040E+01  0.00000000000E+00 0. -1.
</event>
<event>
 7    1  0.3221417E-010  0.4778727E+02  0.7816164E-02  0.1312668E+00
        -11   -1    0    0    0    0  0.00000000000E+00  0.00000000000E+00  0.45593999997E+02  0.45594000000E+02  0.51100000000E-03 0. -1.
         11   -1    0    0    0    0 -0.00000000000E+00 -0.00000000000E+00 -0.45593999997E+02  0.45594000000E+02  0.51100000000E-03 0.  1.
    9900012    2    1    2    0    0  0.79572846488E+00 -0.27785630377E+02  0.33330896335E+02  0.47787273166E+02  0.20000009673E+02 0.  0.
        -12    1    1    2    0    0 -0.79572846488E+00  0.27785630377E+02 -0.33330896335E+02  0.43400726834E+02  0.00000000000E+00 0.  1.
         11    1    3    3    0    0 -0.37143594066E+01 -0.70301687346E+01  0.14944985817E+02  0.16928447642E+02  0.51100000000E-03 0.  1.
        -11    1    3    3    0    0  0.27364293481E+01  0.53659271210E+00  0.19033241447E+00  0.27950320222E+01  0.51100000000E-03 0. -1.
         12    1    3    3    0    0  0.17736585234E+01 -0.21292054355E+02  0.18195578103E+02  0.28063793502E+02  0.00000000000E+00 0. -1.
</event>
<event>
 7    1  0.3221417E-010  0.4778727E+02  0.7816164E-02  0.1312668E+00
        -11   -1    0    0    0    0  0.00000000000E+00  0.00000000000E+00  0.45593999997E+02  0.45594000000E+02  0.51100000000E-03 0. -1.
         11   -1    0    0    0    0 -0.00000000000E+00 -0.00000000000E+00 -0.45593999997E+02  0.45594000000E+02  0.51100000000E-03 0.  1.
    9900012    2    1    2    0    0  0.22362883557E+02  0.17495683089E+02  0.32824168910E+02  0.47787267836E+02  0.19999985372E+02 0.  0.
        -12    1    1    2    0    0 -0.22362883557E+02 -0.17495683089E+02 -0.32824168910E+02  0.43400732164E+02  0.00000000000E+00 0.  1.
         11    1    3    3    0    0  0.17035002282E+02  0.13794180513E+02  0.14458017802E+02  0.26258427176E+02  0.51100000000E-03 0. -1.
        -11    1    3    3    0    0 -0.16693854354E+01  0.32068519375E+01  0.32375892371E+01  0.48531156395E+01  0.51100000000E-03 0.  1.
         12    1    3    3    0    0  0.69972667109E+01  0.49465063892E+00  0.15128561871E+02  0.16675725020E+02  0.00000000000E+00 0. -1.
</event>
<event>
 7    1  0.3221417E-010  0.4778727E+02  0.7816164E-02  0.1312668E+00
        -11   -1    0    0    0    0  0.00000000000E+00  0.00000000000E+00  0.45593999997E+02  0.45594000000E+02  0.51100000000E-03 0. -1.
         11   -1    0    0    0    0 -0.00000000000E+00 -0.00000000000E+00 -0.45593999997E+02  0.45594000000E+02  0.51100000000E-03 0.  1.
    9900012    2    1    2    0    0  0.15879668797E+02 -0.44801235882E+01  0.40142095999E+02  0.47787271208E+02  0.20000000747E+02 0.  0.
        -12    1    1    2    0    0 -0.15879668797E+02  0.44801235882E+01 -0.40142095999E+02  0.43400728792E+02  0.00000000000E+00 0.  1.
         11    1    3    3    0    0  0.13296472185E+02 -0.42011743448E+01  0.25225458267E+02  0.28823077273E+02  0.51100000000E-03 0. -1.
        -11    1    3    3    0    0 -0.16697999613E+01 -0.50470781715E+01  0.64984775496E+01  0.83959180977E+01  0.51100000000E-03 0.  1.
         12    1    3    3    0    0  0.42529965742E+01  0.47681289281E+01  0.84181601816E+01  0.10568275837E+02  0.00000000000E+00 0. -1.
</event>
<event>
 7    1  0.3221417E-010  0.4778727E+02  0.7816164E-02  0.1312668E+00
        -11   -1    0    0    0    0  0.00000000000E+00  0.00000000000E+00  0.45593999997E+02  0.45594000000E+02  0.51100000000E-03 0.  1.
         11   -1    0    0    0    0 -0.00000000000E+00 -0.00000000000E+00 -0.45593999997E+02  0.45594000000E+02  0.51100000000E-03 0. -1.
    9900012    2    1    2    0    0 -0.85618052246E+01 -0.42386506632E+02  0.37017055304E+01  0.47787273313E+02  0.20000010342E+02 0.  0.
        -12    1    1    2    0    0  0.85618052246E+01  0.42386506632E+02 -0.37017055304E+01  0.43400726687E+02  0.00000000000E+00 0.  1.
         11    1    3    3    0    0 -0.58633991800E+01 -0.15952146194E+02 -0.22531886486E+01  0.17144307437E+02  0.51100000000E-03 0. -1.
        -11    1    3    3    0    0 -0.73639494888E+00 -0.16436557076E+02 -0.34118935129E+01  0.16803086134E+02  0.51100000000E-03 0.  1.
        -12    1    3    3    0    0 -0.19620110957E+01 -0.99978033617E+01  0.93667876919E+01  0.13839879742E+02  0.00000000000E+00 0.  1.
</event>
<event>
 7    1  0.3221417E-010  0.4778725E+02  0.7816164E-02  0.1312668E+00
        -11   -1    0    0    0    0  0.00000000000E+00  0.00000000000E+00  0.45593999997E+02  0.45594000000E+02  0.51100000000E-03 0. -1.
         11   -1    0    0    0    0 -0.00000000000E+00 -0.00000000000E+00 -0.45593999997E+02  0.45594000000E+02  0.51100000000E-03 0.  1.
    9900012    2    1    2    0    0  0.38950720416E+02  0.17826460710E+02 -0.69773881108E+01  0.47787248080E+02  0.19999895296E+02 0.  0.
         12    1    1    2    0    0 -0.38950720416E+02 -0.17826460710E+02  0.69773881108E+01  0.43400751920E+02  0.00000000000E+00 0. -1.
         11    1    3    3    0    0  0.18884718687E+02  0.13826332775E+02 -0.83381269166E+01  0.24846014542E+02  0.51100000000E-03 0. -1.
        -11    1    3    3    0    0  0.11086770223E+02 -0.12205956216E+01 -0.31906438265E+01  0.11601143734E+02  0.51100000000E-03 0.  1.
         12    1    3    3    0    0  0.89792315060E+01  0.52207235567E+01  0.45513826323E+01  0.11340089804E+02  0.00000000000E+00 0. -1.
</event>
<event>
 7    1  0.3221417E-010  0.4778727E+02  0.7816164E-02  0.1312668E+00
        -11   -1    0    0    0    0  0.00000000000E+00  0.00000000000E+00  0.45593999997E+02  0.45594000000E+02  0.51100000000E-03 0. -1.
         11   -1    0    0    0    0 -0.00000000000E+00 -0.00000000000E+00 -0.45593999997E+02  0.45594000000E+02  0.51100000000E-03 0.  1.
    9900012    2    1    2    0    0  0.21433309662E+02 -0.10663414008E+01  0.37723990487E+02  0.47787270682E+02  0.19999998349E+02 0.  0.
        -12    1    1    2    0    0 -0.21433309662E+02  0.10663414008E+01 -0.37723990487E+02  0.43400729318E+02  0.00000000000E+00 0.  1.
         11    1    3    3    0    0  0.52855785164E+01  0.35131825256E+01  0.15782006975E+02  0.17010336156E+02  0.51100000000E-03 0. -1.
        -11    1    3    3    0    0 -0.75729939038E+00 -0.18815034256E+01 -0.91080429453E+00  0.22233133453E+01  0.51100000000E-03 0.  1.
        -12    1    3    3    0    0  0.16905030536E+02 -0.26980205008E+01  0.22852787806E+02  0.28553621181E+02  0.00000000000E+00 0.  1.
</event>
<event>
 7    1  0.3221417E-010  0.4778726E+02  0.7816164E-02  0.1312668E+00
        -11   -1    0    0    0    0  0.00000000000E+00  0.00000000000E+00  0.45593999997E+02  0.45594000000E+02  0.51100000000E-03 0. -1.
         11   -1    0    0    0    0 -0.00000000000E+00 -0.00000000000E+00 -0.45593999997E+02  0.45594000000E+02  0.51100000000E-03 0.  1.
    9900012    2    1    2    0    0  0.40643025918E+02  0.64262656734E+01 -0.13801144578E+02  0.47787262242E+02  0.19999959865E+02 0.  0.
         12    1    1    2    0    0 -0.40643025918E+02 -0.64262656734E+01  0.13801144578E+02  0.43400737758E+02  0.00000000000E+00 0. -1.
         11    1    3    3    0    0  0.11624324253E+02  0.46836874542E+01 -0.26244739060E+01  0.12804284676E+02  0.51100000000E-03 0. -1.
        -11    1    3    3    0    0  0.15134894991E+02 -0.22957268721E+01 -0.13411633205E+02  0.20352083769E+02  0.51100000000E-03 0.  1.
         12    1    3    3    0    0  0.13883806674E+02  0.40383050912E+01  0.22349625328E+01  0.14630893797E+02  0.00000000000E+00 0. -1.
</event>
<event>
 7    1  0.3221417E-010  0.4778727E+02  0.7816164E-02  0.1312668E+00
        -11   -1    0    0    0    0  0.00000000000E+00  0.00000000000E+00  0.45593999997E+02  0.45594000000E+02  0.51100000000E-03 0. -1.
         11   -1    0    0    0    0 -0.00000000000E+00 -0.00000000000E+00 -0.45593999997E+02  0.45594000000E+02  0.51100000000E-03 0.  1.
    9900012    2    1    2    0    0 -0.14855256971E+02  0.33095567186E+02  0.23824948886E+02  0.47787269401E+02  0.19999992509E+02 0.  0.
        -12    1    1    2    0    0  0.14855256971E+02 -0.33095567186E+02 -0.23824948886E+02  0.43400730599E+02  0.00000000000E+00 0.  1.
         11    1    3    3    0    0 -0.47813461798E+01  0.27760404313E+01  0.91552907398E+01  0.10695186794E+02  0.51100000000E-03 0. -1.
        -11    1    3    3    0    0 -0.35719219240E+01  0.19993497057E+02  0.14381222488E+02  0.24886102775E+02  0.51100000000E-03 0.  1.
        -12    1    3    3    0    0 -0.65019888668E+01  0.10326029698E+02  0.28843565883E+00  0.12205979833E+02  0.00000000000E+00 0.  1.
</event>
<event>
 7    1  0.3221417E-010  0.4778727E+02  0.7816164E-02  0.1312668E+00
        -11   -1    0    0    0    0  0.00000000000E+00  0.00000000000E+00  0.45593999997E+02  0.45594000000E+02  0.51100000000E-03 0. -1.
         11   -1    0    0    0    0 -0.00000000000E+00 -0.00000000000E+00 -0.45593999997E+02  0.45594000000E+02  0.51100000000E-03 0.  1.
    9900012    2    1    2    0    0 -0.40334745937E+01 -0.41661052372E+02  0.11476548754E+02  0.47787269899E+02  0.19999994777E+02 0.  0.
        -12    1    1    2    0    0  0.40334745937E+01  0.41661052372E+02 -0.11476548754E+02  0.43400730101E+02  0.00000000000E+00 0.  1.
         11    1    3    3    0    0 -0.45173501456E+00 -0.26632429563E+02  0.11376243210E+02  0.28963930652E+02  0.51100000000E-03 0. -1.
        -11    1    3    3    0    0  0.13268046167E+01 -0.32284655311E+01  0.41443722145E+01  0.54184150349E+01  0.51100000000E-03 0.  1.
        -12    1    3    3    0    0 -0.49085441958E+01 -0.11800157277E+02 -0.40440666711E+01  0.13404924212E+02  0.00000000000E+00 0.  1.
</event>
<event>
 7    1  0.3221417E-010  0.4778727E+02  0.7816164E-02  0.1312668E+00
        -11   -1    0    0    0    0  0.00000000000E+00  0.00000000000E+00  0.45593999997E+02  0.45594000000E+02  0.51100000000E-03 0.  1.
         11   -1    0    0    0    0 -0.00000000000E+00 -0.00000000000E+00 -0.45593999997E+02  0.45594000000E+02  0.51100000000E-03 0. -1.
    9900012    2    1    2    0    0 -0.25060853460E+02 -0.22738281460E+02 -0.27176228925E+02  0.47787271452E+02  0.20000001860E+02 0.  0.
         12    1    1    2    0    0  0.25060853460E+02  0.22738281460E+02  0.27176228925E+02  0.43400728548E+02  0.00000000000E+00 0. -1.
         11    1    3    3    0    0 -0.98284933473E+01  0.11647935643E+01 -0.79814036282E+01  0.12714512561E+02  0.51100000000E-03 0. -1.
        -11    1    3    3    0    0 -0.22203701171E+01 -0.52153087401E+01 -0.65050426817E+00  0.57054925095E+01  0.51100000000E-03 0.  1.
        -12    1    3    3    0    0 -0.13011989995E+02 -0.18687766284E+02 -0.18544321029E+02  0.29367266382E+02  0.00000000000E+00 0.  1.
</event>
<event>
 7    1  0.3221417E-010  0.4778727E+02  0.7816164E-02  0.1312668E+00
        -11   -1    0    0    0    0  0.00000000000E+00  0.00000000000E+00  0.45593999997E+02  0.45594000000E+02  0.51100000000E-03 0. -1.
         11   -1    0    0    0    0 -0.00000000000E+00 -0.00000000000E+00 -0.45593999997E+02  0.45594000000E+02  0.51100000000E-03 0.  1.
    9900012    2    1    2    0    0  0.35340509293E+02 -0.26128700207E+01  0.25056827693E+02  0.47787270734E+02  0.19999998584E+02 0.  0.
        -12    1    1    2    0    0 -0.35340509293E+02  0.26128700207E+01 -0.25056827693E+02  0.43400729266E+02  0.00000000000E+00 0.  1.
         11    1    3    3    0    0  0.56578211560E+01  0.37077867391E+01  0.56442947650E+01  0.88100332798E+01  0.51100000000E-03 0. -1.
        -11    1    3    3    0    0  0.86273474067E+00  0.30000612711E+01  0.24270237543E+00  0.31310674805E+01  0.51100000000E-03 0.  1.
         12    1    3    3    0    0  0.28819953396E+02 -0.93207180309E+01  0.19169830553E+02  0.35846169974E+02  0.00000000000E+00 0. -1.
</event>
<event>
 7    1  0.3221417E-010  0.4778728E+02  0.7816164E-02  0.1312668E+00
        -11   -1    0    0    0    0  0.00000000000E+00  0.00000000000E+00  0.45593999997E+02  0.45594000000E+02  0.51100000000E-03 0. -1.
         11   -1    0    0    0    0 -0.00000000000E+00 -0.00000000000E+00 -0.45593999997E+02  0.45594000000E+02  0.51100000000E-03 0.  1.
    9900012    2    1    2    0    0  0.11988950318E+02 -0.29110725855E+02 -0.29873960043E+02  0.47787276755E+02  0.20000026038E+02 0.  0.
         12    1    1    2    0    0 -0.11988950318E+02  0.29110725855E+02  0.29873960043E+02  0.43400723245E+02  0.00000000000E+00 0. -1.
         11    1    3    3    0    0  0.86567771410E+01 -0.76162775163E+01 -0.41878520479E+01  0.12267256364E+02  0.51100000000E-03 0. -1.
        -11    1    3    3    0    0 -0.32874609553E+01 -0.12927819719E+02 -0.11090043845E+02  0.17347189829E+02  0.51100000000E-03 0.  1.
         12    1    3    3    0    0  0.66196341321E+01 -0.85666286190E+01 -0.14596064150E+02  0.18172830561E+02  0.00000000000E+00 0. -1.
</event>
<event>
 7    1  0.3221417E-010  0.4778727E+02  0.7816164E-02  0.1312668E+00
        -11   -1    0    0    0    0  0.00000000000E+00  0.00000000000E+00  0.45593999997E+02  0.45594000000E+02  0.51100000000E-03 0. -1.
         11   -1    0    0    0    0 -0.00000000000E+00 -0.00000000000E+00 -0.45593999997E+02  0.45594000000E+02  0.51100000000E-03 0.  1.
    9900012    2    1    2    0    0 -0.14089909415E+02 -0.27152499212E+02  0.30787004555E+02  0.47787269473E+02  0.19999992835E+02 0.  0.
        -12    1    1    2    0    0  0.14089909415E+02  0.27152499212E+02 -0.30787004555E+02  0.43400730527E+02  0.00000000000E+00 0.  1.
         11    1    3    3    0    0  0.14179773661E+01 -0.15873658083E+02  0.18128914816E+02  0.24137962495E+02  0.51100000000E-03 0. -1.
        -11    1    3    3    0    0 -0.56182845794E+01 -0.60073667526E+01  0.26987539253E+01  0.86566072988E+01  0.51100000000E-03 0.  1.
         12    1    3    3    0    0 -0.98896022014E+01 -0.52714743763E+01  0.99593358139E+01  0.14992699679E+02  0.00000000000E+00 0. -1.
</event>
<event>
 7    1  0.3221417E-010  0.4778727E+02  0.7816164E-02  0.1312668E+00
        -11   -1    0    0    0    0  0.00000000000E+00  0.00000000000E+00  0.45593999997E+02  0.45594000000E+02  0.51100000000E-03 0. -1.
         11   -1    0    0    0    0 -0.00000000000E+00 -0.00000000000E+00 -0.45593999997E+02  0.45594000000E+02  0.51100000000E-03 0.  1.
    9900012    2    1    2    0    0 -0.22389506614E+02  0.35232835814E+02 -0.11873514702E+02  0.47787273309E+02  0.20000010327E+02 0.  0.
         12    1    1    2    0    0  0.22389506614E+02 -0.35232835814E+02  0.11873514702E+02  0.43400726691E+02  0.00000000000E+00 0. -1.
         11    1    3    3    0    0 -0.11993791039E+02  0.10016917723E+02 -0.76794848975E+01  0.17411609710E+02  0.51100000000E-03 0. -1.
        -11    1    3    3    0    0  0.13210727639E+01  0.49885433874E+01 -0.47205700039E+01  0.69938958956E+01  0.51100000000E-03 0.  1.
         12    1    3    3    0    0 -0.11716788339E+02  0.20227374703E+02  0.52654019930E+00  0.23381767703E+02  0.00000000000E+00 0. -1.
</event>
<event>
 7    1  0.3221417E-010  0.4778727E+02  0.7816164E-02  0.1312668E+00
        -11   -1    0    0    0    0  0.00000000000E+00  0.00000000000E+00  0.45593999997E+02  0.45594000000E+02  0.51100000000E-03 0. -1.
         11   -1    0    0    0    0 -0.00000000000E+00 -0.00000000000E+00 -0.45593999997E+02  0.45594000000E+02  0.51100000000E-03 0.  1.
    9900012    2    1    2    0    0 -0.74628645040E+01  0.37476837143E+01 -0.42589714620E+02  0.47787271075E+02  0.20000000138E+02 0.  0.
         12    1    1    2    0    0  0.74628645040E+01 -0.37476837143E+01  0.42589714620E+02  0.43400728925E+02  0.00000000000E+00 0. -1.
         11    1    3    3    0    0 -0.65072413322E+01  0.13308052825E+01 -0.32139954731E+01  0.73786854939E+01  0.51100000000E-03 0. -1.
        -11    1    3    3    0    0  0.18192503685E+01 -0.25215460581E+01 -0.93573369983E+01  0.98604068064E+01  0.51100000000E-03 0.  1.
        -12    1    3    3    0    0 -0.27748735402E+01  0.49384244899E+01 -0.30018382149E+02  0.30548178774E+02  0.00000000000E+00 0.  1.
</event>
<event>
 7    1  0.3221417E-010  0.4778727E+02  0.7816164E-02  0.1312668E+00
        -11   -1    0    0    0    0  0.00000000000E+00  0.00000000000E+00  0.45593999997E+02  0.45594000000E+02  0.51100000000E-03 0. -1.
         11   -1    0    0    0    0 -0.00000000000E+00 -0.00000000000E+00 -0.45593999997E+02  0.45594000000E+02  0.51100000000E-03 0.  1.
    9900012    2    1    2    0    0 -0.86652406080E+00  0.40016675333E+02 -0.16779106388E+02  0.47787267519E+02  0.19999983927E+02 0.  0.
         12    1    1    2    0    0  0.86652406080E+00 -0.40016675333E+02  0.16779106388E+02  0.43400732481E+02  0.00000000000E+00 0. -1.
         11    1    3    3    0    0  0.13506894789E+01 -0.56646972939E+00 -0.32724720385E+01  0.35852926696E+01  0.51100000000E-03 0. -1.
        -11    1    3    3    0    0 -0.41532984855E+01  0.14817718822E+02 -0.80273377465E+00  0.15409706719E+02  0.51100000000E-03 0.  1.
        -12    1    3    3    0    0  0.19360849458E+01  0.25765426241E+02 -0.12703900575E+02  0.28792268131E+02  0.00000000000E+00 0.  1.
</event>
<event>
 7    1  0.3221417E-010  0.4778726E+02  0.7816164E-02  0.1312668E+00
        -11   -1    0    0    0    0  0.00000000000E+00  0.00000000000E+00  0.45593999997E+02  0.45594000000E+02  0.51100000000E-03 0. -1.
         11   -1    0    0    0    0 -0.00000000000E+00 -0.00000000000E+00 -0.45593999997E+02  0.45594000000E+02  0.51100000000E-03 0.  1.
    9900012    2    1    2    0    0  0.13457017534E+02  0.35417736710E+02 -0.21168769289E+02  0.47787260516E+02  0.19999951997E+02 0.  0.
         12    1    1    2    0    0 -0.13457017534E+02 -0.35417736710E+02  0.21168769289E+02  0.43400739484E+02  0.00000000000E+00 0. -1.
         11    1    3    3    0    0  0.12102444284E+02  0.19748588618E+02 -0.75247340633E+01  0.24353593842E+02  0.51100000000E-03 0. -1.
        -11    1    3    3    0    0  0.17761320014E+01  0.14256437400E+02 -0.58675341777E+01  0.15518653608E+02  0.51100000000E-03 0.  1.
        -12    1    3    3    0    0 -0.42155875110E+00  0.14127106917E+01 -0.77765010481E+01  0.79150130657E+01  0.00000000000E+00 0.  1.
</event>
<event>
 7    1  0.3221417E-010  0.4778727E+02  0.7816164E-02  0.1312668E+00
        -11   -1    0    0    0    0  0.00000000000E+00  0.00000000000E+00  0.45593999997E+02  0.45594000000E+02  0.51100000000E-03 0. -1.
         11   -1    0    0    0    0 -0.00000000000E+00 -0.00000000000E+00 -0.45593999997E+02  0.45594000000E+02  0.51100000000E-03 0.  1.
    9900012    2    1    2    0    0  0.23665692136E+02 -0.10404645159E+02  0.34861172776E+02  0.47787274286E+02  0.20000014780E+02 0.  0.
        -12    1    1    2    0    0 -0.23665692136E+02  0.10404645159E+02 -0.34861172776E+02  0.43400725714E+02  0.00000000000E+00 0.  1.
         11    1    3    3    0    0  0.38559666772E+01 -0.51575161877E+00  0.65257047520E+01  0.75973219966E+01  0.51100000000E-03 0. -1.
        -11    1    3    3    0    0  0.39382007247E+01 -0.10854657366E+02  0.17433142739E+02  0.20910463350E+02  0.51100000000E-03 0.  1.
        -12    1    3    3    0    0  0.15871524735E+02  0.96576382572E+00  0.10902325285E+02  0.19279488940E+02  0.00000000000E+00 0.  1.
</event>
<event>
 7    1  0.3221417E-010  0.4778727E+02  0.7816164E-02  0.1312668E+00
        -11   -1    0    0    0    0  0.00000000000E+00  0.00000000000E+00  0.45593999997E+02  0.45594000000E+02  0.51100000000E-03 0.  1.
         11   -1    0    0    0    0 -0.00000000000E+00 -0.00000000000E+00 -0.45593999997E+02  0.45594000000E+02  0.51100000000E-03 0. -1.
    9900012    2    1    2    0    0 -0.71179260432E+01 -0.42761053569E+02 -0.21096165424E+01  0.47787273561E+02  0.20000011475E+02 0.  0.
         12    1    1    2    0    0  0.71179260432E+01  0.42761053569E+02  0.21096165424E+01  0.43400726439E+02  0.00000000000E+00 0. -1.
         11    1    3    3    0    0 -0.60694197709E+01 -0.21069883538E+02 -0.26359485249E+01  0.22084521130E+02  0.51100000000E-03 0.  1.
        -11    1    3    3    0    0 -0.13713148474E+01 -0.29819836787E+01 -0.51867988216E+01  0.61380463787E+01  0.51100000000E-03 0. -1.
        -12    1    3    3    0    0  0.32280857509E+00 -0.18709186352E+02  0.57131308042E+01  0.19564706052E+02  0.00000000000E+00 0.  1.
</event>
<event>
 7    1  0.3221417E-010  0.4778729E+02  0.7816164E-02  0.1312668E+00
        -11   -1    0    0    0    0  0.00000000000E+00  0.00000000000E+00  0.45593999997E+02  0.45594000000E+02  0.51100000000E-03 0. -1.
         11   -1    0    0    0    0 -0.00000000000E+00 -0.00000000000E+00 -0.45593999997E+02  0.45594000000E+02  0.51100000000E-03 0.  1.
    9900012    2    1    2    0    0 -0.24805265845E+02 -0.18520766589E+02  0.30418774231E+02  0.47787287628E+02  0.20000075612E+02 0.  0.
        -12    1    1    2    0    0  0.24805265845E+02  0.18520766589E+02 -0.30418774231E+02  0.43400712372E+02  0.00000000000E+00 0.  1.
         11    1    3    3    0    0 -0.64018586524E+01 -0.34707934733E+01  0.12174711571E+02  0.14186395019E+02  0.51100000000E-03 0. -1.
        -11    1    3    3    0    0 -0.66487907613E+01 -0.14818752332E+02  0.85044151402E+01  0.18333764382E+02  0.51100000000E-03 0.  1.
         12    1    3    3    0    0 -0.11754616432E+02 -0.23122078307E+00  0.97396475199E+01  0.15267128228E+02  0.00000000000E+00 0. -1.
</event>
<event>
 7    1  0.3221417E-010  0.4778727E+02  0.7816164E-02  0.1312668E+00
        -11   -1    0    0    0    0  0.00000000000E+00  0.00000000000E+00  0.45593999997E+02  0.45594000000E+02  0.51100000000E-03 0. -1.
         11   -1    0    0    0    0 -0.00000000000E+00 -0.00000000000E+00 -0.45593999997E+02  0.45594000000E+02  0.51100000000E-03 0.  1.
    9900012    2    1    2    0    0  0.26613198686E+02 -0.10980582055E+02 -0.32477495272E+02  0.47787271600E+02  0.20000002532E+02 0.  0.
         12    1    1    2    0    0 -0.26613198686E+02  0.10980582055E+02  0.32477495272E+02  0.43400728400E+02  0.00000000000E+00 0. -1.
         11    1    3    3    0    0 -0.16186403423E+01  0.40467298763E-03 -0.29765669190E+01  0.33882071374E+01  0.51100000000E-03 0. -1.
        -11    1    3    3    0    0  0.18390805134E+02 -0.13057762900E+02 -0.16421640231E+02  0.27899769776E+02  0.51100000000E-03 0.  1.
         12    1    3    3    0    0  0.98410338942E+01  0.20767761723E+01 -0.13079288122E+02  0.16499294686E+02  0.00000000000E+00 0. -1.
</event>
<event>
 7    1  0.3221417E-010  0.4778727E+02  0.7816164E-02  0.1312668E+00
        -11   -1    0    0    0    0  0.00000000000E+00  0.00000000000E+00  0.45593999997E+02  0.45594000000E+02  0.51100000000E-03 0. -1.
         11   -1    0    0    0    0 -0.00000000000E+00 -0.00000000000E+00 -0.45593999997E+02  0.45594000000E+02  0.51100000000E-03 0.  1.
    9900012    2    1    2    0    0 -0.14450991059E+02  0.16032154231E+02  0.37653183635E+02  0.47787270171E+02  0.19999996018E+02 0.  0.
        -12    1    1    2    0    0  0.14450991059E+02 -0.16032154231E+02 -0.37653183635E+02  0.43400729829E+02  0.00000000000E+00 0.  1.
         11    1    3    3    0    0 -0.82534548344E+01  0.68094341120E+01  0.11043714539E+02  0.15376980871E+02  0.51100000000E-03 0. -1.
        -11    1    3    3    0    0  0.24990250267E+01  0.92227215098E+01  0.16572133537E+02  0.19129540725E+02  0.51100000000E-03 0.  1.
        -12    1    3    3    0    0 -0.86965612509E+01 -0.13911733765E-05  0.10037335559E+02  0.13280748575E+02  0.00000000000E+00 0.  1.
</event>
<event>
 7    1  0.3221417E-010  0.4778727E+02  0.7816164E-02  0.1312668E+00
        -11   -1    0    0    0    0  0.00000000000E+00  0.00000000000E+00  0.45593999997E+02  0.45594000000E+02  0.51100000000E-03 0. -1.
         11   -1    0    0    0    0 -0.00000000000E+00 -0.00000000000E+00 -0.45593999997E+02  0.45594000000E+02  0.51100000000E-03 0.  1.
    9900012    2    1    2    0    0  0.23439635228E+02  0.11817429719E+02 -0.34562337795E+02  0.47787270298E+02  0.19999996597E+02 0.  0.
         12    1    1    2    0    0 -0.23439635228E+02 -0.11817429719E+02  0.34562337795E+02  0.43400729702E+02  0.00000000000E+00 0. -1.
         11    1    3    3    0    0  0.66594533388E+01  0.29653019169E+01 -0.12496178568E+01  0.73961394848E+01  0.51100000000E-03 0. -1.
        -11    1    3    3    0    0  0.10843529814E+02  0.62856636997E+00 -0.92081821435E+01  0.14239657761E+02  0.51100000000E-03 0.  1.
         12    1    3    3    0    0  0.59366520753E+01  0.82235614325E+01 -0.24104537795E+02  0.26151473052E+02  0.00000000000E+00 0. -1.
</event>
<event>
 7    1  0.3221417E-010  0.4778728E+02  0.7816164E-02  0.1312668E+00
        -11   -1    0    0    0    0  0.00000000000E+00  0.00000000000E+00  0.45593999997E+02  0.45594000000E+02  0.51100000000E-03 0.  1.
         11   -1    0    0    0    0 -0.00000000000E+00 -0.00000000000E+00 -0.45593999997E+02  0.45594000000E+02  0.51100000000E-03 0. -1.
    9900012    2    1    2    0    0 -0.39501256077E+02 -0.17476127750E+02  0.42258846831E+01  0.47787281410E+02  0.20000047260E+02 0.  0.
         12    1    1    2    0    0  0.39501256077E+02  0.17476127750E+02 -0.42258846831E+01  0.43400718590E+02  0.00000000000E+00 0. -1.
         11    1    3    3    0    0 -0.46690377133E+01  0.35981580556E+00  0.33359094830E+01  0.57495802388E+01  0.51100000000E-03 0. -1.
        -11    1    3    3    0    0 -0.21915385838E+02 -0.75555855050E+01  0.73375009473E+01  0.24314808845E+02  0.51100000000E-03 0.  1.
        -12    1    3    3    0    0 -0.12916832525E+02 -0.10280358051E+02 -0.64475257472E+01  0.17722892326E+02  0.00000000000E+00 0.  1.
</event>
<event>
 7    1  0.3221417E-010  0.4778727E+02  0.7816164E-02  0.1312668E+00
        -11   -1    0    0    0    0  0.00000000000E+00  0.00000000000E+00  0.45593999997E+02  0.45594000000E+02  0.51100000000E-03 0. -1.
         11   -1    0    0    0    0 -0.00000000000E+00 -0.00000000000E+00 -0.45593999997E+02  0.45594000000E+02  0.51100000000E-03 0.  1.
    9900012    2    1    2    0    0 -0.10452417840E+02 -0.13622190917E+02 -0.39859830778E+02  0.47787271507E+02  0.20000002107E+02 0.  0.
         12    1    1    2    0    0  0.10452417840E+02  0.13622190917E+02  0.39859830778E+02  0.43400728493E+02  0.00000000000E+00 0. -1.
         11    1    3    3    0    0 -0.57578646901E+01 -0.11263998763E+02 -0.10231273683E+02  0.16269899673E+02  0.51100000000E-03 0.  1.
        -11    1    3    3    0    0  0.15060504194E+01  0.18292950670E+01 -0.28152148791E+01  0.36796662056E+01  0.51100000000E-03 0. -1.
        -12    1    3    3    0    0 -0.62006035693E+01 -0.41874872217E+01 -0.26813342216E+02  0.27837705628E+02  0.00000000000E+00 0.  1.
</event>
<event>
 7    1  0.3221417E-010  0.4778727E+02  0.7816164E-02  0.1312668E+00
        -11   -1    0    0    0    0  0.00000000000E+00  0.00000000000E+00  0.45593999997E+02  0.45594000000E+02  0.51100000000E-03 0. -1.
         11   -1    0    0    0    0 -0.00000000000E+00 -0.00000000000E+00 -0.45593999997E+02  0.45594000000E+02  0.51100000000E-03 0.  1.
    9900012    2    1    2    0    0 -0.22965431156E+02  0.72826366625E+01  0.36099525836E+02  0.47787267396E+02  0.19999983365E+02 0.  0.
        -12    1    1    2    0    0  0.22965431156E+02 -0.72826366625E+01 -0.36099525836E+02  0.43400732604E+02  0.00000000000E+00 0.  1.
         11    1    3    3    0    0 -0.70274713607E+01  0.79776962209E+01  0.83025814679E+01  0.13489323557E+02  0.51100000000E-03 0. -1.
        -11    1    3    3    0    0  0.12321448279E+01 -0.25386511931E+01  0.37807857726E+01  0.47177613416E+01  0.51100000000E-03 0.  1.
         12    1    3    3    0    0 -0.17170104624E+02  0.18435916346E+01  0.24016158596E+02  0.29580182498E+02  0.00000000000E+00 0. -1.
</event>
<event>
 7    1  0.3221417E-010  0.4778727E+02  0.7816164E-02  0.1312668E+00
        -11   -1    0    0    0    0  0.00000000000E+00  0.00000000000E+00  0.45593999997E+02  0.45594000000E+02  0.51100000000E-03 0.  1.
         11   -1    0    0    0    0 -0.00000000000E+00 -0.00000000000E+00 -0.45593999997E+02  0.45594000000E+02  0.51100000000E-03 0. -1.
    9900012    2    1    2    0    0  0.30113361321E+02 -0.19171381821E+02 -0.24683326286E+02  0.47787274113E+02  0.20000013991E+02 0.  0.
         12    1    1    2    0    0 -0.30113361321E+02  0.19171381821E+02  0.24683326286E+02  0.43400725887E+02  0.00000000000E+00 0. -1.
         11    1    3    3    0    0  0.14517997632E+02  0.79877334701E+00 -0.72288222067E+01  0.16237800494E+02  0.51100000000E-03 0. -1.
        -11    1    3    3    0    0  0.91781546749E+01 -0.10786583488E+02 -0.13775532207E+02  0.19757383289E+02  0.51100000000E-03 0.  1.
        -12    1    3    3    0    0  0.64172090140E+01 -0.91835716801E+01 -0.36789718721E+01  0.11792090331E+02  0.00000000000E+00 0.  1.
</event>
<event>
 7    1  0.3221417E-010  0.4778727E+02  0.7816164E-02  0.1312668E+00
        -11   -1    0    0    0    0  0.00000000000E+00  0.00000000000E+00  0.45593999997E+02  0.45594000000E+02  0.51100000000E-03 0.  1.
         11   -1    0    0    0    0 -0.00000000000E+00 -0.00000000000E+00 -0.45593999997E+02  0.45594000000E+02  0.51100000000E-03 0. -1.
    9900012    2    1    2    0    0 -0.25530655873E+02  0.33325951280E+02  0.11008630163E+02  0.47787270097E+02  0.19999995682E+02 0.  0.
         12    1    1    2    0    0  0.25530655873E+02 -0.33325951280E+02 -0.11008630163E+02  0.43400729903E+02  0.00000000000E+00 0. -1.
         11    1    3    3    0    0  0.15546013760E+01  0.56745737289E+01  0.27677760579E+01  0.65021655631E+01  0.51100000000E-03 0. -1.
        -11    1    3    3    0    0 -0.23089394336E+02  0.27879911323E+02  0.87730157361E+01  0.37247488393E+02  0.51100000000E-03 0.  1.
         12    1    3    3    0    0 -0.39958629129E+01 -0.22853377231E+00 -0.53216163127E+00  0.40376161414E+01  0.00000000000E+00 0. -1.
</event>
<event>
 7    1  0.3221417E-010  0.4778727E+02  0.7816164E-02  0.1312668E+00
        -11   -1    0    0    0    0  0.00000000000E+00  0.00000000000E+00  0.45593999997E+02  0.45594000000E+02  0.51100000000E-03 0. -1.
         11   -1    0    0    0    0 -0.00000000000E+00 -0.00000000000E+00 -0.45593999997E+02  0.45594000000E+02  0.51100000000E-03 0.  1.
    9900012    2    1    2    0    0 -0.37293144198E+02  0.14429649765E+00  0.22199628805E+02  0.47787274837E+02  0.20000017291E+02 0.  0.
        -12    1    1    2    0    0  0.37293144198E+02 -0.14429649765E+00 -0.22199628805E+02  0.43400725163E+02  0.00000000000E+00 0.  1.
         11    1    3    3    0    0 -0.25621297076E+00 -0.20523751649E+01  0.39953811279E+01  0.44989953904E+01  0.51100000000E-03 0. -1.
        -11    1    3    3    0    0 -0.10642262288E+02  0.54770290297E+01  0.19767490904E+01  0.12131081189E+02  0.51100000000E-03 0.  1.
         12    1    3    3    0    0 -0.26394668939E+02 -0.32803573671E+01  0.16227498586E+02  0.31157198257E+02  0.00000000000E+00 0. -1.
</event>
<event>
 7    1  0.3604681E-010  0.4778727E+02  0.7816164E-02  0.1312668E+00
        -11   -1    0    0    0    0  0.00000000000E+00  0.00000000000E+00  0.45593999997E+02  0.45594000000E+02  0.51100000000E-03 0. -1.
         11   -1    0    0    0    0 -0.00000000000E+00 -0.00000000000E+00 -0.45593999997E+02  0.45594000000E+02  0.51100000000E-03 0.  1.
    9900012    2    1    2    0    0  0.26528743178E+01  0.15552778945E+02 -0.40431380431E+02  0.47787271912E+02  0.20000003955E+02 0.  0.
         12    1    1    2    0    0 -0.26528743178E+01 -0.15552778945E+02  0.40431380431E+02  0.43400728088E+02  0.00000000000E+00 0. -1.
         11    1    3    3    0    0 -0.41580090142E+01  0.20029389791E+01 -0.15734553820E+01  0.48761219854E+01  0.51100000000E-03 0. -1.
        -11    1    3    3    0    0  0.15028481613E+00  0.22161876170E+01 -0.18789750152E+02  0.18920591537E+02  0.51100000000E-03 0.  1.
         12    1    3    3    0    0  0.66605985159E+01  0.11333652349E+02 -0.20068174896E+02  0.23990558389E+02  0.00000000000E+00 0. -1.
</event>
<event>
 7    1  0.3221417E-010  0.4778729E+02  0.7816164E-02  0.1312668E+00
        -11   -1    0    0    0    0  0.00000000000E+00  0.00000000000E+00  0.45593999997E+02  0.45594000000E+02  0.51100000000E-03 0. -1.
         11   -1    0    0    0    0 -0.00000000000E+00 -0.00000000000E+00 -0.45593999997E+02  0.45594000000E+02  0.51100000000E-03 0.  1.
    9900012    2    1    2    0    0  0.34899506281E+02  0.21440882051E+01  0.25710878226E+02  0.47787286734E+02  0.20000071534E+02 0.  0.
        -12    1    1    2    0    0 -0.34899506281E+02 -0.21440882051E+01 -0.25710878226E+02  0.43400713266E+02  0.00000000000E+00 0.  1.
         11    1    3    3    0    0 -0.91529122472E+00 -0.61023430362E+00  0.10187017006E+01  0.14992989520E+01  0.51100000000E-03 0.  1.
        -11    1    3    3    0    0  0.79037275144E+01 -0.55933184314E+01  0.88937809741E+01  0.13147374642E+02  0.51100000000E-03 0. -1.
         12    1    3    3    0    0  0.27911069991E+02  0.83476409401E+01  0.15798395551E+02  0.33140613140E+02  0.00000000000E+00 0. -1.
</event>
<event>
 7    1  0.3221417E-010  0.4778727E+02  0.7816164E-02  0.1312668E+00
        -11   -1    0    0    0    0  0.00000000000E+00  0.00000000000E+00  0.45593999997E+02  0.45594000000E+02  0.51100000000E-03 0. -1.
         11   -1    0    0    0    0 -0.00000000000E+00 -0.00000000000E+00 -0.45593999997E+02  0.45594000000E+02  0.51100000000E-03 0.  1.
    9900012    2    1    2    0    0 -0.11560372294E+02 -0.38981306147E+02  0.15180212660E+02  0.47787270825E+02  0.19999999000E+02 0.  0.
        -12    1    1    2    0    0  0.11560372294E+02  0.38981306147E+02 -0.15180212660E+02  0.43400729175E+02  0.00000000000E+00 0.  1.
         11    1    3    3    0    0  0.15168501739E+01 -0.18919047350E+01  0.58067288495E+01  0.62927131008E+01  0.51100000000E-03 0. -1.
        -11    1    3    3    0    0 -0.87014407659E+01 -0.23173372905E+02  0.10446734286E+02  0.26867350832E+02  0.51100000000E-03 0.  1.
        -12    1    3    3    0    0 -0.43757817015E+01 -0.13916028507E+02 -0.10732504753E+01  0.14627206893E+02  0.00000000000E+00 0.  1.
</event>
<event>
 7    1  0.3221417E-010  0.4778727E+02  0.7816164E-02  0.1312668E+00
        -11   -1    0    0    0    0  0.00000000000E+00  0.00000000000E+00  0.45593999997E+02  0.45594000000E+02  0.51100000000E-03 0. -1.
         11   -1    0    0    0    0 -0.00000000000E+00 -0.00000000000E+00 -0.45593999997E+02  0.45594000000E+02  0.51100000000E-03 0.  1.
    9900012    2    1    2    0    0 -0.11075800126E+02  0.11116064078E+02 -0.40464588472E+02  0.47787272481E+02  0.20000006550E+02 0.  0.
         12    1    1    2    0    0  0.11075800126E+02 -0.11116064078E+02  0.40464588472E+02  0.43400727519E+02  0.00000000000E+00 0. -1.
         11    1    3    3    0    0 -0.67357541987E+01 -0.67098751061E+00 -0.15687792294E+02  0.17085884121E+02  0.51100000000E-03 0. -1.
        -11    1    3    3    0    0  0.38675368561E+01  0.48671284198E+01 -0.14771635939E+02  0.16026478370E+02  0.51100000000E-03 0.  1.
         12    1    3    3    0    0 -0.82075827836E+01  0.69199231686E+01 -0.10005160239E+02  0.14674909990E+02  0.00000000000E+00 0. -1.
</event>
<event>
 7    1  0.3221417E-010  0.4778727E+02  0.7816164E-02  0.1312668E+00
        -11   -1    0    0    0    0  0.00000000000E+00  0.00000000000E+00  0.45593999997E+02  0.45594000000E+02  0.51100000000E-03 0. -1.
         11   -1    0    0    0    0 -0.00000000000E+00 -0.00000000000E+00 -0.45593999997E+02  0.45594000000E+02  0.51100000000E-03 0.  1.
    9900012    2    1    2    0    0  0.18399786351E+02  0.18416686753E+02 -0.34726027282E+02  0.47787268905E+02  0.19999990247E+02 0.  0.
         12    1    1    2    0    0 -0.18399786351E+02 -0.18416686753E+02  0.34726027282E+02  0.43400731095E+02  0.00000000000E+00 0. -1.
         11    1    3    3    0    0  0.11987577863E+02  0.11576602050E+02 -0.88970414155E+01  0.18891190652E+02  0.51100000000E-03 0. -1.
        -11    1    3    3    0    0  0.44500849008E+01  0.20091389648E+01 -0.36067254618E+01  0.60702853163E+01  0.51100000000E-03 0.  1.
        -12    1    3    3    0    0  0.19621235873E+01  0.48309457389E+01 -0.22222260405E+02  0.22825792937E+02  0.00000000000E+00 0.  1.
</event>
<event>
 7    1  0.3221417E-010  0.4778727E+02  0.7816164E-02  0.1312668E+00
        -11   -1    0    0    0    0  0.00000000000E+00  0.00000000000E+00  0.45593999997E+02  0.45594000000E+02  0.51100000000E-03 0.  1.
         11   -1    0    0    0    0 -0.00000000000E+00 -0.00000000000E+00 -0.45593999997E+02  0.45594000000E+02  0.51100000000E-03 0. -1.
    9900012    2    1    2    0    0 -0.34280711616E+02  0.32456750290E+01 -0.26418206481E+02  0.47787271562E+02  0.20000002362E+02 0.  0.
         12    1    1    2    0    0  0.34280711616E+02 -0.32456750290E+01  0.26418206481E+02  0.43400728438E+02  0.00000000000E+00 0. -1.
         11    1    3    3    0    0 -0.90974753823E+01  0.63205527339E+01 -0.97862723374E+01  0.14781223620E+02  0.51100000000E-03 0. -1.
        -11    1    3    3    0    0 -0.18150122507E+02 -0.34854074537E+01 -0.18034367746E+02  0.25822730925E+02  0.51100000000E-03 0.  1.
        -12    1    3    3    0    0 -0.70331137259E+01  0.41052974874E+00  0.14024336032E+01  0.71833170170E+01  0.00000000000E+00 0.  1.
</event>
<event>
 7    1  0.3221417E-010  0.4778727E+02  0.7816164E-02  0.1312668E+00
        -11   -1    0    0    0    0  0.00000000000E+00  0.00000000000E+00  0.45593999997E+02  0.45594000000E+02  0.51100000000E-03 0. -1.
         11   -1    0    0    0    0 -0.00000000000E+00 -0.00000000000E+00 -0.45593999997E+02  0.45594000000E+02  0.51100000000E-03 0.  1.
    9900012    2    1    2    0    0  0.45156304131E+01 -0.62708469996E+00  0.43160617296E+02  0.47787273754E+02  0.20000012356E+02 0.  0.
        -12    1    1    2    0    0 -0.45156304131E+01  0.62708469996E+00 -0.43160617296E+02  0.43400726246E+02  0.00000000000E+00 0.  1.
         11    1    3    3    0    0  0.55201380442E+01  0.44433629702E+01  0.32964772876E+02  0.33717823915E+02  0.51100000000E-03 0. -1.
        -11    1    3    3    0    0 -0.46881097325E-01  0.15026886283E+01 -0.40716197378E+00  0.15575789177E+01  0.51100000000E-03 0.  1.
        -12    1    3    3    0    0 -0.95762653379E+00 -0.65731362984E+01  0.10603006394E+02  0.12511870922E+02  0.00000000000E+00 0.  1.
</event>
<event>
 7    1  0.3221417E-010  0.4778727E+02  0.7816164E-02  0.1312668E+00
        -11   -1    0    0    0    0  0.00000000000E+00  0.00000000000E+00  0.45593999997E+02  0.45594000000E+02  0.51100000000E-03 0. -1.
         11   -1    0    0    0    0 -0.00000000000E+00 -0.00000000000E+00 -0.45593999997E+02  0.45594000000E+02  0.51100000000E-03 0.  1.
    9900012    2    1    2    0    0 -0.34793626755E+02 -0.14159988108E+02  0.21737558263E+02  0.47787272296E+02  0.20000005707E+02 0.  0.
        -12    1    1    2    0    0  0.34793626755E+02  0.14159988108E+02 -0.21737558263E+02  0.43400727704E+02  0.00000000000E+00 0.  1.
         11    1    3    3    0    0 -0.18993939689E+02  0.22040059548E+01  0.85811207739E+01  0.20958602558E+02  0.51100000000E-03 0. -1.
        -11    1    3    3    0    0 -0.10716688152E+02 -0.92476457673E+01  0.54355064025E+01  0.15162819240E+02  0.51100000000E-03 0.  1.
        -12    1    3    3    0    0 -0.50829989142E+01 -0.71163482957E+01  0.77209310861E+01  0.11665850499E+02  0.00000000000E+00 0.  1.
</event>
<event>
 7    1  0.3299555E-010  0.4778727E+02  0.7816164E-02  0.1312668E+00
        -11   -1    0    0    0    0  0.00000000000E+00  0.00000000000E+00  0.45593999997E+02  0.45594000000E+02  0.51100000000E-03 0. -1.
         11   -1    0    0    0    0 -0.00000000000E+00 -0.00000000000E+00 -0.45593999997E+02  0.45594000000E+02  0.51100000000E-03 0.  1.
    9900012    2    1    2    0    0  0.35011026712E+02 -0.14785337578E+02 -0.20958171030E+02  0.47787272682E+02  0.20000007468E+02 0.  0.
         12    1    1    2    0    0 -0.35011026712E+02  0.14785337578E+02  0.20958171030E+02  0.43400727318E+02  0.00000000000E+00 0. -1.
         11    1    3    3    0    0  0.14261661061E+02 -0.19842338504E+00 -0.16547887464E+02  0.21846439706E+02  0.51100000000E-03 0. -1.
        -11    1    3    3    0    0  0.68213588023E+01 -0.62078915576E+01 -0.26212408189E+01  0.95885221589E+01  0.51100000000E-03 0.  1.
         12    1    3    3    0    0  0.13928006849E+02 -0.83790226357E+01 -0.17890427479E+01  0.16352310817E+02  0.00000000000E+00 0. -1.
</event>
<event>
 7    1  0.3221417E-010  0.4778727E+02  0.7816164E-02  0.1312668E+00
        -11   -1    0    0    0    0  0.00000000000E+00  0.00000000000E+00  0.45593999997E+02  0.45594000000E+02  0.51100000000E-03 0. -1.
         11   -1    0    0    0    0 -0.00000000000E+00 -0.00000000000E+00 -0.45593999997E+02  0.45594000000E+02  0.51100000000E-03 0.  1.
    9900012    2    1    2    0    0  0.14294352711E+02 -0.19008170972E+02 -0.36304050553E+02  0.47787272245E+02  0.20000005474E+02 0.  0.
         12    1    1    2    0    0 -0.14294352711E+02  0.19008170972E+02  0.36304050553E+02  0.43400727755E+02  0.00000000000E+00 0. -1.
         11    1    3    3    0    0  0.22449489938E+01 -0.45733506054E+01 -0.39712994983E+01  0.64596092537E+01  0.51100000000E-03 0. -1.
        -11    1    3    3    0    0  0.10053155964E+02 -0.96020257777E+01 -0.33231456308E+02  0.36022139477E+02  0.51100000000E-03 0.  1.
        -12    1    3    3    0    0  0.19962477537E+01 -0.48327945889E+01  0.89870525370E+00  0.53055235148E+01  0.00000000000E+00 0.  1.
</event>
<event>
 7    1  0.3221417E-010  0.4778727E+02  0.7816164E-02  0.1312668E+00
        -11   -1    0    0    0    0  0.00000000000E+00  0.00000000000E+00  0.45593999997E+02  0.45594000000E+02  0.51100000000E-03 0. -1.
         11   -1    0    0    0    0 -0.00000000000E+00 -0.00000000000E+00 -0.45593999997E+02  0.45594000000E+02  0.51100000000E-03 0.  1.
    9900012    2    1    2    0    0  0.98678740665E+01  0.29221039928E+02 -0.30534884396E+02  0.47787270996E+02  0.19999999778E+02 0.  0.
         12    1    1    2    0    0 -0.98678740665E+01 -0.29221039928E+02  0.30534884396E+02  0.43400729004E+02  0.00000000000E+00 0. -1.
         11    1    3    3    0    0  0.15177160552E+01 -0.80759495779E+00  0.89901731432E+00  0.19400783574E+01  0.51100000000E-03 0. -1.
        -11    1    3    3    0    0  0.48565199823E+01  0.90068513070E+01 -0.37210439275E+01  0.10888311392E+02  0.51100000000E-03 0.  1.
         12    1    3    3    0    0  0.34936380290E+01  0.21021783578E+02 -0.27712857783E+02  0.34958881246E+02  0.00000000000E+00 0. -1.
</event>
<event>
 7    1  0.3221417E-010  0.4778727E+02  0.7816164E-02  0.1312668E+00
        -11   -1    0    0    0    0  0.00000000000E+00  0.00000000000E+00  0.45593999997E+02  0.45594000000E+02  0.51100000000E-03 0.  1.
         11   -1    0    0    0    0 -0.00000000000E+00 -0.00000000000E+00 -0.45593999997E+02  0.45594000000E+02  0.51100000000E-03 0. -1.
    9900012    2    1    2    0    0  0.29337013103E+02  0.29772563549E+02 -0.11685766963E+02  0.47787273881E+02  0.20000012935E+02 0.  0.
        -12    1    1    2    0    0 -0.29337013103E+02 -0.29772563549E+02  0.11685766963E+02  0.43400726119E+02  0.00000000000E+00 0.  1.
         11    1    3    3    0    0 -0.52421546875E+00  0.41652476316E+01 -0.16522916927E+01  0.45115582440E+01  0.51100000000E-03 0. -1.
        -11    1    3    3    0    0  0.10273482987E+01  0.59484036296E+01  0.20034215117E+01  0.63602396403E+01  0.51100000000E-03 0.  1.
         12    1    3    3    0    0  0.28833880273E+02  0.19658912288E+02 -0.12036896782E+02  0.36915475997E+02  0.00000000000E+00 0. -1.
</event>
<event>
 7    1  0.3221417E-010  0.4778728E+02  0.7816164E-02  0.1312668E+00
        -11   -1    0    0    0    0  0.00000000000E+00  0.00000000000E+00  0.45593999997E+02  0.45594000000E+02  0.51100000000E-03 0.  1.
         11   -1    0    0    0    0 -0.00000000000E+00 -0.00000000000E+00 -0.45593999997E+02  0.45594000000E+02  0.51100000000E-03 0. -1.
    9900012    2    1    2    0    0  0.67679850727E+01 -0.32732292975E+02 -0.27684181601E+02  0.47787279542E+02  0.20000038743E+02 0.  0.
         12    1    1    2    0    0 -0.67679850727E+01  0.32732292975E+02  0.27684181601E+02  0.43400720458E+02  0.00000000000E+00 0. -1.
         11    1    3    3    0    0  0.56219190711E+01 -0.96997768211E+01 -0.70213604999E+01  0.13228421975E+02  0.51100000000E-03 0. -1.
        -11    1    3    3    0    0 -0.34596012703E+01 -0.12639207844E+02 -0.28228746918E+01  0.13404739373E+02  0.51100000000E-03 0.  1.
         12    1    3    3    0    0  0.46056672720E+01 -0.10393308310E+02 -0.17839946410E+02  0.21154118193E+02  0.00000000000E+00 0. -1.
</event>
<event>
 7    1  0.3221417E-010  0.4778727E+02  0.7816164E-02  0.1312668E+00
        -11   -1    0    0    0    0  0.00000000000E+00  0.00000000000E+00  0.45593999997E+02  0.45594000000E+02  0.51100000000E-03 0. -1.
         11   -1    0    0    0    0 -0.00000000000E+00 -0.00000000000E+00 -0.45593999997E+02  0.45594000000E+02  0.51100000000E-03 0.  1.
    9900012    2    1    2    0    0  0.10225688560E+02  0.93499187741E+01 -0.41129524565E+02  0.47787268686E+02  0.19999989249E+02 0.  0.
         12    1    1    2    0    0 -0.10225688560E+02 -0.93499187741E+01  0.41129524565E+02  0.43400731314E+02  0.00000000000E+00 0. -1.
         11    1    3    3    0    0  0.57929607643E+01  0.65998020369E+00 -0.66274816567E+01  0.88270879489E+01  0.51100000000E-03 0. -1.
        -11    1    3    3    0    0 -0.51843986540E+01  0.50630027641E+01 -0.19243677823E+02  0.20562857846E+02  0.51100000000E-03 0.  1.
        -12    1    3    3    0    0  0.96171264496E+01  0.36269358063E+01 -0.15258365085E+02  0.18397322891E+02  0.00000000000E+00 0.  1.
</event>
<event>
 7    1  0.3221417E-010  0.4778726E+02  0.7816164E-02  0.1312668E+00
        -11   -1    0    0    0    0  0.00000000000E+00  0.00000000000E+00  0.45593999997E+02  0.45594000000E+02  0.51100000000E-03 0. -1.
         11   -1    0    0    0    0 -0.00000000000E+00 -0.00000000000E+00 -0.45593999997E+02  0.45594000000E+02  0.51100000000E-03 0.  1.
    9900012    2    1    2    0    0 -0.92143907339E+01 -0.31982112750E+02  0.27854322887E+02  0.47787264568E+02  0.19999970471E+02 0.  0.
        -12    1    1    2    0    0  0.92143907339E+01  0.31982112750E+02 -0.27854322887E+02  0.43400735432E+02  0.00000000000E+00 0.  1.
         11    1    3    3    0    0 -0.56114292104E+00  0.21478337291E+00  0.19434258832E+01  0.20341872332E+01  0.51100000000E-03 0. -1.
        -11    1    3    3    0    0 -0.71328927158E+01 -0.10274107676E+02  0.10191444336E+01  0.12548868581E+02  0.51100000000E-03 0.  1.
         12    1    3    3    0    0 -0.15203550971E+01 -0.21922788446E+02  0.24891752571E+02  0.33204208753E+02  0.00000000000E+00 0. -1.
</event>
<event>
 7    1  0.3221417E-010  0.4778727E+02  0.7816164E-02  0.1312668E+00
        -11   -1    0    0    0    0  0.00000000000E+00  0.00000000000E+00  0.45593999997E+02  0.45594000000E+02  0.51100000000E-03 0. -1.
         11   -1    0    0    0    0 -0.00000000000E+00 -0.00000000000E+00 -0.45593999997E+02  0.45594000000E+02  0.51100000000E-03 0.  1.
    9900012    2    1    2    0    0 -0.40325287255E+02 -0.11996486698E+02  0.10657326126E+02  0.47787273215E+02  0.20000009896E+02 0.  0.
         12    1    1    2    0    0  0.40325287255E+02  0.11996486698E+02 -0.10657326126E+02  0.43400726785E+02  0.00000000000E+00 0. -1.
         11    1    3    3    0    0 -0.96668604138E+01 -0.20074163425E+01  0.52459307075E+01  0.11180237023E+02  0.51100000000E-03 0. -1.
        -11    1    3    3    0    0 -0.13188206642E+02 -0.20685611709E+01 -0.56145178932E+01  0.14482076895E+02  0.51100000000E-03 0.  1.
         12    1    3    3    0    0 -0.17470220199E+02 -0.79205091842E+01  0.11025913312E+02  0.22124959297E+02  0.00000000000E+00 0. -1.
</event>
<event>
 7    1  0.3221417E-010  0.4778727E+02  0.7816164E-02  0.1312668E+00
        -11   -1    0    0    0    0  0.00000000000E+00  0.00000000000E+00  0.45593999997E+02  0.45594000000E+02  0.51100000000E-03 0. -1.
         11   -1    0    0    0    0 -0.00000000000E+00 -0.00000000000E+00 -0.45593999997E+02  0.45594000000E+02  0.51100000000E-03 0.  1.
    9900012    2    1    2    0    0 -0.74928058481E+01  0.14737357767E+01 -0.42723637976E+02  0.47787270991E+02  0.19999999756E+02 0.  0.
         12    1    1    2    0    0  0.74928058481E+01 -0.14737357767E+01  0.42723637976E+02  0.43400729009E+02  0.00000000000E+00 0. -1.
         11    1    3    3    0    0  0.22714809882E+01 -0.18223031711E+01 -0.27859404273E+02  0.28011191003E+02  0.51100000000E-03 0. -1.
        -11    1    3    3    0    0 -0.39669692839E+01  0.41921537016E+01 -0.11850033626E+02  0.13180830594E+02  0.51100000000E-03 0.  1.
         12    1    3    3    0    0 -0.57973175524E+01 -0.89611475381E+00 -0.30142000777E+01  0.65952493936E+01  0.00000000000E+00 0. -1.
</event>
<event>
 7    1  0.3221417E-010  0.4778726E+02  0.7816164E-02  0.1312668E+00
        -11   -1    0    0    0    0  0.00000000000E+00  0.00000000000E+00  0.45593999997E+02  0.45594000000E+02  0.51100000000E-03 0. -1.
         11   -1    0    0    0    0 -0.00000000000E+00 -0.00000000000E+00 -0.45593999997E+02  0.45594000000E+02  0.51100000000E-03 0.  1.
    9900012    2    1    2    0    0  0.27536312280E+02 -0.14577078171E+01 -0.33514939895E+02  0.47787255741E+02  0.19999930227E+02 0.  0.
         12    1    1    2    0    0 -0.27536312280E+02  0.14577078171E+01  0.33514939895E+02  0.43400744259E+02  0.00000000000E+00 0. -1.
         11    1    3    3    0    0 -0.17221088698E+01 -0.18173470398E+01 -0.23378667627E+01  0.34254971148E+01  0.51100000000E-03 0. -1.
        -11    1    3    3    0    0  0.13730752115E+02 -0.54431880934E+01 -0.17264412718E+02  0.22720514894E+02  0.51100000000E-03 0.  1.
         12    1    3    3    0    0  0.15527669034E+02  0.58028273161E+01 -0.13912660414E+02  0.21641243733E+02  0.00000000000E+00 0. -1.
</event>
<event>
 7    1  0.3221417E-010  0.4778729E+02  0.7816164E-02  0.1312668E+00
        -11   -1    0    0    0    0  0.00000000000E+00  0.00000000000E+00  0.45593999997E+02  0.45594000000E+02  0.51100000000E-03 0. -1.
         11   -1    0    0    0    0 -0.00000000000E+00 -0.00000000000E+00 -0.45593999997E+02  0.45594000000E+02  0.51100000000E-03 0.  1.
    9900012    2    1    2    0    0 -0.40159602430E+02 -0.13237480768E+02 -0.97773807785E+01  0.47787288723E+02  0.20000080604E+02 0.  0.
        -12    1    1    2    0    0  0.40159602430E+02  0.13237480768E+02  0.97773807785E+01  0.43400711277E+02  0.00000000000E+00 0.  1.
         11    1    3    3    0    0 -0.17380583641E+02 -0.13609543825E+02 -0.33196111577E+01  0.22323176058E+02  0.51100000000E-03 0. -1.
        -11    1    3    3    0    0 -0.76513211179E+01 -0.29690664198E+01  0.10042553520E+01  0.82684097218E+01  0.51100000000E-03 0.  1.
        -12    1    3    3    0    0 -0.15127697671E+02  0.33411294768E+01 -0.74620249728E+01  0.17195702943E+02  0.00000000000E+00 0.  1.
</event>
<event>
 7    1  0.3221417E-010  0.4778727E+02  0.7816164E-02  0.1312668E+00
        -11   -1    0    0    0    0  0.00000000000E+00  0.00000000000E+00  0.45593999997E+02  0.45594000000E+02  0.51100000000E-03 0. -1.
         11   -1    0    0    0    0 -0.00000000000E+00 -0.00000000000E+00 -0.45593999997E+02  0.45594000000E+02  0.51100000000E-03 0.  1.
    9900012    2    1    2    0    0 -0.17458897329E+02  0.20695452865E+02 -0.33919144614E+02  0.47787271474E+02  0.20000001959E+02 0.  0.
         12    1    1    2    0    0  0.17458897329E+02 -0.20695452865E+02  0.33919144614E+02  0.43400728526E+02  0.00000000000E+00 0. -1.
         11    1    3    3    0    0 -0.30502316660E+01  0.12983974384E+02 -0.18605776371E+02  0.22892409629E+02  0.51100000000E-03 0. -1.
        -11    1    3    3    0    0 -0.62558162602E+01  0.65762313790E+01 -0.20823597155E+01  0.93122649488E+01  0.51100000000E-03 0.  1.
         12    1    3    3    0    0 -0.81528494026E+01  0.11352471025E+01 -0.13231008528E+02  0.15582596896E+02  0.00000000000E+00 0. -1.
</event>
<event>
 7    1  0.3221417E-010  0.4778727E+02  0.7816164E-02  0.1312668E+00
        -11   -1    0    0    0    0  0.00000000000E+00  0.00000000000E+00  0.45593999997E+02  0.45594000000E+02  0.51100000000E-03 0.  1.
         11   -1    0    0    0    0 -0.00000000000E+00 -0.00000000000E+00 -0.45593999997E+02  0.45594000000E+02  0.51100000000E-03 0. -1.
    9900012    2    1    2    0    0  0.20817346126E+02 -0.28796255929E+02  0.24920611196E+02  0.47787272844E+02  0.20000008205E+02 0.  0.
        -12    1    1    2    0    0 -0.20817346126E+02  0.28796255929E+02 -0.24920611196E+02  0.43400727156E+02  0.00000000000E+00 0.  1.
         11    1    3    3    0    0  0.60356884227E+00 -0.14398108273E+01 -0.14387739659E+01  0.21230688523E+01  0.51100000000E-03 0. -1.
        -11    1    3    3    0    0  0.10072066791E+02 -0.11884448958E+02  0.29967156355E+01  0.15864014666E+02  0.51100000000E-03 0.  1.
        -12    1    3    3    0    0  0.10141710493E+02 -0.15471996144E+02  0.23362669527E+02  0.29800189325E+02  0.00000000000E+00 0.  1.
</event>
<event>
 7    1  0.3221417E-010  0.4778728E+02  0.7816164E-02  0.1312668E+00
        -11   -1    0    0    0    0  0.00000000000E+00  0.00000000000E+00  0.45593999997E+02  0.45594000000E+02  0.51100000000E-03 0. -1.
         11   -1    0    0    0    0 -0.00000000000E+00 -0.00000000000E+00 -0.45593999997E+02  0.45594000000E+02  0.51100000000E-03 0.  1.
    9900012    2    1    2    0    0  0.34131742364E+02 -0.17881380727E+00 -0.26806997191E+02  0.47787275241E+02  0.20000019136E+02 0.  0.
         12    1    1    2    0    0 -0.34131742364E+02  0.17881380727E+00  0.26806997191E+02  0.43400724759E+02  0.00000000000E+00 0. -1.
         11    1    3    3    0    0  0.16016498608E+02  0.28106895674E+01 -0.64113327185E+01  0.17479513466E+02  0.51100000000E-03 0. -1.
        -11    1    3    3    0    0  0.77077348933E+01  0.47730858617E+01 -0.57502016232E+01  0.10735750779E+02  0.51100000000E-03 0.  1.
        -12    1    3    3    0    0  0.10407508863E+02 -0.77625892364E+01 -0.14645462849E+02  0.19572010996E+02  0.00000000000E+00 0.  1.
</event>
<event>
 7    1  0.3221417E-010  0.4778728E+02  0.7816164E-02  0.1312668E+00
        -11   -1    0    0    0    0  0.00000000000E+00  0.00000000000E+00  0.45593999997E+02  0.45594000000E+02  0.51100000000E-03 0. -1.
         11   -1    0    0    0    0 -0.00000000000E+00 -0.00000000000E+00 -0.45593999997E+02  0.45594000000E+02  0.51100000000E-03 0.  1.
    9900012    2    1    2    0    0  0.11842454500E+02 -0.26623016016E+02  0.32165095399E+02  0.47787284886E+02  0.20000063111E+02 0.  0.
        -12    1    1    2    0    0 -0.11842454500E+02  0.26623016016E+02 -0.32165095399E+02  0.43400715114E+02  0.00000000000E+00 0.  1.
         11    1    3    3    0    0  0.25368311734E+00 -0.62697155695E+01 -0.23136732167E+00  0.62791097733E+01  0.51100000000E-03 0. -1.
        -11    1    3    3    0    0  0.43828679926E+01 -0.71878661164E+00  0.95601766849E+01  0.10541497263E+02  0.51100000000E-03 0.  1.
         12    1    3    3    0    0  0.72059033901E+01 -0.19634513835E+02  0.22836286035E+02  0.30966677850E+02  0.00000000000E+00 0. -1.
</event>
<event>
 7    1  0.3221417E-010  0.4778727E+02  0.7816164E-02  0.1312668E+00
        -11   -1    0    0    0    0  0.00000000000E+00  0.00000000000E+00  0.45593999997E+02  0.45594000000E+02  0.51100000000E-03 0. -1.
         11   -1    0    0    0    0 -0.00000000000E+00 -0.00000000000E+00 -0.45593999997E+02  0.45594000000E+02  0.51100000000E-03 0.  1.
    9900012    2    1    2    0    0 -0.12279278669E+02 -0.12270223786E+02  0.39777932976E+02  0.47787273874E+02  0.20000012901E+02 0.  0.
        -12    1    1    2    0    0  0.12279278669E+02  0.12270223786E+02 -0.39777932976E+02  0.43400726126E+02  0.00000000000E+00 0.  1.
         11    1    3    3    0    0 -0.15469803912E+02 -0.78248403820E+01  0.20317081253E+02  0.26708177605E+02  0.51100000000E-03 0. -1.
        -11    1    3    3    0    0  0.10041161512E+01  0.14035713611E+01  0.28305856098E+01  0.33151888282E+01  0.51100000000E-03 0.  1.
        -12    1    3    3    0    0  0.21864090912E+01 -0.58489547648E+01  0.16630266113E+02  0.17763907440E+02  0.00000000000E+00 0.  1.
</event>
<event>
 7    1  0.3221417E-010  0.4778727E+02  0.7816164E-02  0.1312668E+00
        -11   -1    0    0    0    0  0.00000000000E+00  0.00000000000E+00  0.45593999997E+02  0.45594000000E+02  0.51100000000E-03 0. -1.
         11   -1    0    0    0    0 -0.00000000000E+00 -0.00000000000E+00 -0.45593999997E+02  0.45594000000E+02  0.51100000000E-03 0.  1.
    9900012    2    1    2    0    0  0.31532603669E+02  0.58971468976E+01 -0.29232541740E+02  0.47787274980E+02  0.20000017944E+02 0.  0.
         12    1    1    2    0    0 -0.31532603669E+02 -0.58971468976E+01  0.29232541740E+02  0.43400725020E+02  0.00000000000E+00 0. -1.
         11    1    3    3    0    0 -0.25616822564E+00  0.46506413855E+01 -0.12097132959E+01  0.48122233922E+01  0.51100000000E-03 0.  1.
        -11    1    3    3    0    0  0.64759747182E+01 -0.25176348860E+01 -0.51043561445E+01  0.86215535654E+01  0.51100000000E-03 0. -1.
        -12    1    3    3    0    0  0.25312797177E+02  0.37641403980E+01 -0.22918472299E+02  0.34353498022E+02  0.00000000000E+00 0.  1.
</event>
<event>
 7    1  0.3221417E-010  0.4778727E+02  0.7816164E-02  0.1312668E+00
        -11   -1    0    0    0    0  0.00000000000E+00  0.00000000000E+00  0.45593999997E+02  0.45594000000E+02  0.51100000000E-03 0. -1.
         11   -1    0    0    0    0 -0.00000000000E+00 -0.00000000000E+00 -0.45593999997E+02  0.45594000000E+02  0.51100000000E-03 0.  1.
    9900012    2    1    2    0    0  0.35428364923E+01 -0.52739631339E+01 -0.42933167290E+02  0.47787271537E+02  0.20000002247E+02 0.  0.
         12    1    1    2    0    0 -0.35428364923E+01  0.52739631339E+01  0.42933167290E+02  0.43400728463E+02  0.00000000000E+00 0. -1.
         11    1    3    3    0    0 -0.94793728644E+00 -0.30591708144E+01 -0.23974870031E+02  0.24187837945E+02  0.51100000000E-03 0. -1.
        -11    1    3    3    0    0  0.88229524479E+01 -0.30873056844E+01 -0.14958451279E+02  0.17638911849E+02  0.51100000000E-03 0.  1.
         12    1    3    3    0    0 -0.43321786692E+01  0.87251336494E+00 -0.39998459795E+01  0.59605217434E+01  0.00000000000E+00 0. -1.
</event>
<event>
 7    1  0.3221417E-010  0.4778727E+02  0.7816164E-02  0.1312668E+00
        -11   -1    0    0    0    0  0.00000000000E+00  0.00000000000E+00  0.45593999997E+02  0.45594000000E+02  0.51100000000E-03 0. -1.
         11   -1    0    0    0    0 -0.00000000000E+00 -0.00000000000E+00 -0.45593999997E+02  0.45594000000E+02  0.51100000000E-03 0.  1.
    9900012    2    1    2    0    0  0.58894269909E+01  0.55064491342E+01 -0.42645243379E+02  0.47787272872E+02  0.20000008334E+02 0.  0.
         12    1    1    2    0    0 -0.58894269909E+01 -0.55064491342E+01  0.42645243379E+02  0.43400727128E+02  0.00000000000E+00 0. -1.
         11    1    3    3    0    0  0.18461026476E+01  0.56946311010E+01 -0.50283406773E+01  0.78180002936E+01  0.51100000000E-03 0. -1.
        -11    1    3    3    0    0  0.99887258290E+00 -0.54960594079E+01 -0.81948525277E+01  0.99176622075E+01  0.51100000000E-03 0.  1.
         12    1    3    3    0    0  0.30444517604E+01  0.53078774410E+01 -0.29422050174E+02  0.30051610371E+02  0.00000000000E+00 0. -1.
</event>
<event>
 7    1  0.3221417E-010  0.4778728E+02  0.7816164E-02  0.1312668E+00
        -11   -1    0    0    0    0  0.00000000000E+00  0.00000000000E+00  0.45593999997E+02  0.45594000000E+02  0.51100000000E-03 0. -1.
         11   -1    0    0    0    0 -0.00000000000E+00 -0.00000000000E+00 -0.45593999997E+02  0.45594000000E+02  0.51100000000E-03 0.  1.
    9900012    2    1    2    0    0  0.85589533284E+00 -0.26828523409E+01 -0.43309265819E+02  0.47787276973E+02  0.20000027032E+02 0.  0.
         12    1    1    2    0    0 -0.85589533284E+00  0.26828523409E+01  0.43309265819E+02  0.43400723027E+02  0.00000000000E+00 0. -1.
         11    1    3    3    0    0 -0.43263312973E+01 -0.62459013288E+00 -0.10335134960E+02  0.11221509267E+02  0.51100000000E-03 0. -1.
        -11    1    3    3    0    0  0.90321853324E+01 -0.39997977929E+01 -0.29234078416E+02  0.30857901668E+02  0.51100000000E-03 0.  1.
        -12    1    3    3    0    0 -0.38499587023E+01  0.19415355849E+01 -0.37400524429E+01  0.57078660384E+01  0.00000000000E+00 0.  1.
</event>
<event>
 7    1  0.3641902E-010  0.4778729E+02  0.7816164E-02  0.1312668E+00
        -11   -1    0    0    0    0  0.00000000000E+00  0.00000000000E+00  0.45593999997E+02  0.45594000000E+02  0.51100000000E-03 0. -1.
         11   -1    0    0    0    0 -0.00000000000E+00 -0.00000000000E+00 -0.45593999997E+02  0.45594000000E+02  0.51100000000E-03 0.  1.
    9900012    2    1    2    0    0  0.11264699328E+02 -0.36386447285E+02 -0.20802748130E+02  0.47787293476E+02  0.20000102275E+02 0.  0.
         12    1    1    2    0    0 -0.11264699328E+02  0.36386447285E+02  0.20802748130E+02  0.43400706524E+02  0.00000000000E+00 0. -1.
         11    1    3    3    0    0  0.65300521285E+01 -0.11632143132E+02 -0.16210351401E+01  0.13437860314E+02  0.51100000000E-03 0. -1.
        -11    1    3    3    0    0 -0.10297865806E+00 -0.22952897549E+02 -0.13317369999E+02  0.26536737826E+02  0.51100000000E-03 0.  1.
         12    1    3    3    0    0  0.48376258575E+01 -0.18014066045E+01 -0.58643429910E+01  0.78126953357E+01  0.00000000000E+00 0. -1.
</event>
<event>
 7    1  0.3221417E-010  0.4778727E+02  0.7816164E-02  0.1312668E+00
        -11   -1    0    0    0    0  0.00000000000E+00  0.00000000000E+00  0.45593999997E+02  0.45594000000E+02  0.51100000000E-03 0. -1.
         11   -1    0    0    0    0 -0.00000000000E+00 -0.00000000000E+00 -0.45593999997E+02  0.45594000000E+02  0.51100000000E-03 0.  1.
    9900012    2    1    2    0    0 -0.31269715163E+02  0.63148616250E+01 -0.29427037981E+02  0.47787272725E+02  0.20000007662E+02 0.  0.
         12    1    1    2    0    0  0.31269715163E+02 -0.63148616250E+01  0.29427037981E+02  0.43400727275E+02  0.00000000000E+00 0. -1.
         11    1    3    3    0    0 -0.13541775783E+02  0.36336680536E+01 -0.86375950132E+01  0.16467886408E+02  0.51100000000E-03 0.  1.
        -11    1    3    3    0    0 -0.11568864329E+02 -0.44356198333E+00 -0.21456692213E+02  0.24380832843E+02  0.51100000000E-03 0. -1.
         12    1    3    3    0    0 -0.61590750512E+01  0.31247555548E+01  0.66724924588E+00  0.69385534745E+01  0.00000000000E+00 0. -1.
</event>
<event>
 7    1  0.3221417E-010  0.4778732E+02  0.7816164E-02  0.1312668E+00
        -11   -1    0    0    0    0  0.00000000000E+00  0.00000000000E+00  0.45593999997E+02  0.45594000000E+02  0.51100000000E-03 0. -1.
         11   -1    0    0    0    0 -0.00000000000E+00 -0.00000000000E+00 -0.45593999997E+02  0.45594000000E+02  0.51100000000E-03 0.  1.
    9900012    2    1    2    0    0  0.21329862726E+01 -0.84712680944E+01  0.42512436668E+02  0.47787316998E+02  0.20000209519E+02 0.  0.
        -12    1    1    2    0    0 -0.21329862726E+01  0.84712680944E+01 -0.42512436668E+02  0.43400683002E+02  0.00000000000E+00 0.  1.
         11    1    3    3    0    0 -0.39060403554E+01  0.69202428468E+00  0.16423252476E+02  0.16895539974E+02  0.51100000000E-03 0. -1.
        -11    1    3    3    0    0  0.27004233270E+01 -0.18924118444E+01 -0.30504435808E+00  0.33115798428E+01  0.51100000000E-03 0.  1.
         12    1    3    3    0    0  0.33386033010E+01 -0.72708805347E+01  0.26394228551E+02  0.27580197181E+02  0.00000000000E+00 0. -1.
</event>
<event>
 7    1  0.3221417E-010  0.4778727E+02  0.7816164E-02  0.1312668E+00
        -11   -1    0    0    0    0  0.00000000000E+00  0.00000000000E+00  0.45593999997E+02  0.45594000000E+02  0.51100000000E-03 0. -1.
         11   -1    0    0    0    0 -0.00000000000E+00 -0.00000000000E+00 -0.45593999997E+02  0.45594000000E+02  0.51100000000E-03 0.  1.
    9900012    2    1    2    0    0  0.30902731463E+02  0.28708018265E+02  0.10222245096E+02  0.47787269368E+02  0.19999992358E+02 0.  0.
        -12    1    1    2    0    0 -0.30902731463E+02 -0.28708018265E+02 -0.10222245096E+02  0.43400730632E+02  0.00000000000E+00 0.  1.
         11    1    3    3    0    0  0.11071648245E+02  0.12535990680E+02  0.78164620069E+01  0.18461569157E+02  0.51100000000E-03 0. -1.
        -11    1    3    3    0    0  0.76728679453E+01  0.43848948853E+01  0.75545316317E+01  0.11626313005E+02  0.51100000000E-03 0.  1.
        -12    1    3    3    0    0  0.12158215273E+02  0.11787132699E+02 -0.51487485428E+01  0.17699387206E+02  0.00000000000E+00 0.  1.
</event>
<event>
 7    1  0.3221417E-010  0.4778727E+02  0.7816164E-02  0.1312668E+00
        -11   -1    0    0    0    0  0.00000000000E+00  0.00000000000E+00  0.45593999997E+02  0.45594000000E+02  0.51100000000E-03 0.  1.
         11   -1    0    0    0    0 -0.00000000000E+00 -0.00000000000E+00 -0.45593999997E+02  0.45594000000E+02  0.51100000000E-03 0. -1.
    9900012    2    1    2    0    0  0.23850767714E+01 -0.42523972015E+02 -0.83454623758E+01  0.47787268101E+02  0.19999986579E+02 0.  0.
         12    1    1    2    0    0 -0.23850767714E+01  0.42523972015E+02  0.83454623758E+01  0.43400731899E+02  0.00000000000E+00 0. -1.
         11    1    3    3    0    0 -0.25603620449E+01 -0.17822792903E+02 -0.11500381421E+02  0.21365069009E+02  0.51100000000E-03 0. -1.
        -11    1    3    3    0    0 -0.30993322934E+00 -0.15093486004E+02  0.33731446599E+01  0.15468919921E+02  0.51100000000E-03 0.  1.
        -12    1    3    3    0    0  0.52553720457E+01 -0.96076931074E+01 -0.21822561504E+00  0.10953279171E+02  0.00000000000E+00 0.  1.
</event>
<event>
 7    1  0.3221417E-010  0.4778727E+02  0.7816164E-02  0.1312668E+00
        -11   -1    0    0    0    0  0.00000000000E+00  0.00000000000E+00  0.45593999997E+02  0.45594000000E+02  0.51100000000E-03 0. -1.
         11   -1    0    0    0    0 -0.00000000000E+00 -0.00000000000E+00 -0.45593999997E+02  0.45594000000E+02  0.51100000000E-03 0.  1.
    9900012    2    1    2    0    0 -0.72184193527E+01 -0.38699487623E+02  0.18272031311E+02  0.47787273641E+02  0.20000011841E+02 0.  0.
        -12    1    1    2    0    0  0.72184193527E+01  0.38699487623E+02 -0.18272031311E+02  0.43400726359E+02  0.00000000000E+00 0.  1.
         11    1    3    3    0    0 -0.53691529659E+01 -0.23398823089E+02  0.97523843553E+01  0.25912192620E+02  0.51100000000E-03 0. -1.
        -11    1    3    3    0    0 -0.40018338382E+01 -0.16888788632E+02  0.65420318486E+01  0.18548424097E+02  0.51100000000E-03 0.  1.
        -12    1    3    3    0    0  0.21525674513E+01  0.15881240973E+01  0.19776151071E+01  0.33266569245E+01  0.00000000000E+00 0.  1.
</event>
<event>
 7    1  0.3221417E-010  0.4778727E+02  0.7816164E-02  0.1312668E+00
        -11   -1    0    0    0    0  0.00000000000E+00  0.00000000000E+00  0.45593999997E+02  0.45594000000E+02  0.51100000000E-03 0. -1.
         11   -1    0    0    0    0 -0.00000000000E+00 -0.00000000000E+00 -0.45593999997E+02  0.45594000000E+02  0.51100000000E-03 0.  1.
    9900012    2    1    2    0    0 -0.75766461739E+00  0.60658083367E+01  0.42968071508E+02  0.47787271255E+02  0.20000000959E+02 0.  0.
        -12    1    1    2    0    0  0.75766461739E+00 -0.60658083367E+01 -0.42968071508E+02  0.43400728745E+02  0.00000000000E+00 0.  1.
         11    1    3    3    0    0 -0.57342133534E+01  0.20102403610E+01  0.18564188557E+02  0.19533339861E+02  0.51100000000E-03 0. -1.
        -11    1    3    3    0    0  0.23796415842E+01 -0.46101511460E+01  0.92169510975E+01  0.10576784741E+02  0.51100000000E-03 0.  1.
        -12    1    3    3    0    0  0.25969071518E+01  0.86657191217E+01  0.15186931854E+02  0.17677146653E+02  0.00000000000E+00 0.  1.
</event>
<event>
 7    1  0.3221417E-010  0.4778727E+02  0.7816164E-02  0.1312668E+00
        -11   -1    0    0    0    0  0.00000000000E+00  0.00000000000E+00  0.45593999997E+02  0.45594000000E+02  0.51100000000E-03 0. -1.
         11   -1    0    0    0    0 -0.00000000000E+00 -0.00000000000E+00 -0.45593999997E+02  0.45594000000E+02  0.51100000000E-03 0.  1.
    9900012    2    1    2    0    0 -0.46012678601E+01  0.31595725314E+02  0.29396628585E+02  0.47787270787E+02  0.19999998826E+02 0.  0.
        -12    1    1    2    0    0  0.46012678601E+01 -0.31595725314E+02 -0.29396628585E+02  0.43400729213E+02  0.00000000000E+00 0.  1.
         11    1    3    3    0    0 -0.48193646362E+01  0.21480793411E+02  0.21719592848E+02  0.30925579619E+02  0.51100000000E-03 0. -1.
        -11    1    3    3    0    0  0.10748320740E+01  0.50122708514E+00  0.70938318806E+01  0.71922836144E+01  0.51100000000E-03 0.  1.
        -12    1    3    3    0    0 -0.85673529790E+00  0.96137048179E+01  0.58320385727E+00  0.96694075535E+01  0.00000000000E+00 0.  1.
</event>
<event>
 7    1  0.3221417E-010  0.4778734E+02  0.7816164E-02  0.1312667E+00
        -11   -1    0    0    0    0  0.00000000000E+00  0.00000000000E+00  0.45593999997E+02  0.45594000000E+02  0.51100000000E-03 0. -1.
         11   -1    0    0    0    0 -0.00000000000E+00 -0.00000000000E+00 -0.45593999997E+02  0.45594000000E+02  0.51100000000E-03 0.  1.
    9900012    2    1    2    0    0  0.11441425270E+02  0.25881580450E+01  0.41785319625E+02  0.47787335138E+02  0.20000292228E+02 0.  0.
        -12    1    1    2    0    0 -0.11441425270E+02 -0.25881580450E+01 -0.41785319625E+02  0.43400664862E+02  0.00000000000E+00 0.  1.
         11    1    3    3    0    0  0.53522286837E+01  0.36996058419E+01  0.18308125657E+02  0.19429897082E+02  0.51100000000E-03 0. -1.
        -11    1    3    3    0    0 -0.45060874288E+01 -0.24596319187E+01  0.62522937332E+01  0.80898572472E+01  0.51100000000E-03 0.  1.
        -12    1    3    3    0    0  0.10595284015E+02  0.13481841218E+01  0.17224900235E+02  0.20267580809E+02  0.00000000000E+00 0.  1.
</event>
<event>
 7    1  0.3221417E-010  0.4778729E+02  0.7816164E-02  0.1312668E+00
        -11   -1    0    0    0    0  0.00000000000E+00  0.00000000000E+00  0.45593999997E+02  0.45594000000E+02  0.51100000000E-03 0. -1.
         11   -1    0    0    0    0 -0.00000000000E+00 -0.00000000000E+00 -0.45593999997E+02  0.45594000000E+02  0.51100000000E-03 0.  1.
    9900012    2    1    2    0    0  0.28859240416E+02 -0.57498492554E+00  0.32410422641E+02  0.47787287324E+02  0.20000074223E+02 0.  0.
        -12    1    1    2    0    0 -0.28859240416E+02  0.57498492554E+00 -0.32410422641E+02  0.43400712676E+02  0.00000000000E+00 0.  1.
         11    1    3    3    0    0  0.17000697816E+02 -0.21329108179E+00  0.15002991949E+02  0.22675074135E+02  0.51100000000E-03 0. -1.
        -11    1    3    3    0    0  0.13999084897E+02 -0.79476468658E-01  0.95075238158E+01  0.16922579704E+02  0.51100000000E-03 0.  1.
        -12    1    3    3    0    0 -0.21405422972E+01 -0.28221737509E+00  0.78999068762E+01  0.81896334854E+01  0.00000000000E+00 0.  1.
</event>
<event>
 7    1  0.3221417E-010  0.4778729E+02  0.7816164E-02  0.1312668E+00
        -11   -1    0    0    0    0  0.00000000000E+00  0.00000000000E+00  0.45593999997E+02  0.45594000000E+02  0.51100000000E-03 0. -1.
         11   -1    0    0    0    0 -0.00000000000E+00 -0.00000000000E+00 -0.45593999997E+02  0.45594000000E+02  0.51100000000E-03 0.  1.
    9900012    2    1    2    0    0 -0.15373408629E+02 -0.69569424846E+01  0.39986010785E+02  0.47787288024E+02  0.20000077414E+02 0.  0.
        -12    1    1    2    0    0  0.15373408629E+02  0.69569424846E+01 -0.39986010785E+02  0.43400711976E+02  0.00000000000E+00 0.  1.
         11    1    3    3    0    0 -0.47988320064E+01 -0.70036397794E+01  0.29082203643E+02  0.30296110770E+02  0.51100000000E-03 0. -1.
        -11    1    3    3    0    0 -0.41055863987E+00 -0.22635587532E+01 -0.14072918387E+00  0.23047910079E+01  0.51100000000E-03 0.  1.
        -12    1    3    3    0    0 -0.10164017983E+02  0.23102560480E+01  0.11044536325E+02  0.15186386245E+02  0.00000000000E+00 0.  1.
</event>
<event>
 7    1  0.3221417E-010  0.4778727E+02  0.7816164E-02  0.1312668E+00
        -11   -1    0    0    0    0  0.00000000000E+00  0.00000000000E+00  0.45593999997E+02  0.45594000000E+02  0.51100000000E-03 0.  1.
         11   -1    0    0    0    0 -0.00000000000E+00 -0.00000000000E+00 -0.45593999997E+02  0.45594000000E+02  0.51100000000E-03 0. -1.
    9900012    2    1    2    0    0  0.37926599590E+02  0.20749997959E+02  0.38254130927E+01  0.47787272390E+02  0.20000006133E+02 0.  0.
        -12    1    1    2    0    0 -0.37926599590E+02 -0.20749997959E+02 -0.38254130927E+01  0.43400727610E+02  0.00000000000E+00 0.  1.
         11    1    3    3    0    0  0.23756647268E+02  0.12265776580E+02  0.31611300262E+01  0.26922487029E+02  0.51100000000E-03 0. -1.
        -11    1    3    3    0    0  0.17154794349E+01  0.62780674885E+01  0.41824208097E+01  0.77362552422E+01  0.51100000000E-03 0.  1.
         12    1    3    3    0    0  0.12454472887E+02  0.22061538907E+01 -0.35181377432E+01  0.13128530118E+02  0.00000000000E+00 0. -1.
</event>
<event>
 7    1  0.3221417E-010  0.4778727E+02  0.7816164E-02  0.1312668E+00
        -11   -1    0    0    0    0  0.00000000000E+00  0.00000000000E+00  0.45593999997E+02  0.45594000000E+02  0.51100000000E-03 0. -1.
         11   -1    0    0    0    0 -0.00000000000E+00 -0.00000000000E+00 -0.45593999997E+02  0.45594000000E+02  0.51100000000E-03 0.  1.
    9900012    2    1    2    0    0 -0.28856070920E+02 -0.28095680787E+02  0.16173535034E+02  0.47787270244E+02  0.19999996353E+02 0.  0.
        -12    1    1    2    0    0  0.28856070920E+02  0.28095680787E+02 -0.16173535034E+02  0.43400729756E+02  0.00000000000E+00 0.  1.
         11    1    3    3    0    0 -0.15016804910E+02 -0.25800849904E+02  0.78723225415E+01  0.30873317735E+02  0.51100000000E-03 0. -1.
        -11    1    3    3    0    0 -0.30123921755E+01  0.12124518479E+01  0.10216196781E+01  0.34041523365E+01  0.51100000000E-03 0.  1.
         12    1    3    3    0    0 -0.10826873834E+02 -0.35072827304E+01  0.72795928143E+01  0.13509800173E+02  0.00000000000E+00 0. -1.
</event>
<event>
 7    1  0.3221417E-010  0.4778728E+02  0.7816164E-02  0.1312668E+00
        -11   -1    0    0    0    0  0.00000000000E+00  0.00000000000E+00  0.45593999997E+02  0.45594000000E+02  0.51100000000E-03 0.  1.
         11   -1    0    0    0    0 -0.00000000000E+00 -0.00000000000E+00 -0.45593999997E+02  0.45594000000E+02  0.51100000000E-03 0. -1.
    9900012    2    1    2    0    0  0.39774662684E+02  0.16809712942E+02 -0.43626267847E+01  0.47787277042E+02  0.20000027347E+02 0.  0.
         12    1    1    2    0    0 -0.39774662684E+02 -0.16809712942E+02  0.43626267847E+01  0.43400722958E+02  0.00000000000E+00 0. -1.
         11    1    3    3    0    0  0.11183663519E+02  0.62230479508E+01 -0.28755930560E+01  0.13117533731E+02  0.51100000000E-03 0. -1.
        -11    1    3    3    0    0  0.13528265768E+02  0.11718877974E+02 -0.60455528405E+01  0.18891659140E+02  0.51100000000E-03 0.  1.
         12    1    3    3    0    0  0.15062733397E+02 -0.11322129830E+01  0.45585191118E+01  0.15778084171E+02  0.00000000000E+00 0. -1.
</event>
<event>
 7    1  0.3221417E-010  0.4778727E+02  0.7816164E-02  0.1312668E+00
        -11   -1    0    0    0    0  0.00000000000E+00  0.00000000000E+00  0.45593999997E+02  0.45594000000E+02  0.51100000000E-03 0. -1.
         11   -1    0    0    0    0 -0.00000000000E+00 -0.00000000000E+00 -0.45593999997E+02  0.45594000000E+02  0.51100000000E-03 0.  1.
    9900012    2    1    2    0    0 -0.26634306213E+02  0.91569388120E+01  0.33021021511E+02  0.47787266625E+02  0.19999979851E+02 0.  0.
        -12    1    1    2    0    0  0.26634306213E+02 -0.91569388120E+01 -0.33021021511E+02  0.43400733375E+02  0.00000000000E+00 0.  1.
         11    1    3    3    0    0 -0.19426765923E+02  0.64309989584E+01  0.14719758309E+02  0.25207702529E+02  0.51100000000E-03 0. -1.
        -11    1    3    3    0    0 -0.24484132746E+01 -0.34019026292E+01  0.22633735750E+01  0.47634577003E+01  0.51100000000E-03 0.  1.
         12    1    3    3    0    0 -0.47591270148E+01  0.61278424827E+01  0.16037889627E+02  0.17816106396E+02  0.00000000000E+00 0. -1.
</event>
<event>
 7    1  0.3221417E-010  0.4778727E+02  0.7816164E-02  0.1312668E+00
        -11   -1    0    0    0    0  0.00000000000E+00  0.00000000000E+00  0.45593999997E+02  0.45594000000E+02  0.51100000000E-03 0. -1.
         11   -1    0    0    0    0 -0.00000000000E+00 -0.00000000000E+00 -0.45593999997E+02  0.45594000000E+02  0.51100000000E-03 0.  1.
    9900012    2    1    2    0    0  0.21379646044E+02  0.37739998675E+02  0.14922189360E+01  0.47787268643E+02  0.19999989050E+02 0.  0.
        -12    1    1    2    0    0 -0.21379646044E+02 -0.37739998675E+02 -0.14922189360E+01  0.43400731357E+02  0.00000000000E+00 0.  1.
         11    1    3    3    0    0  0.47567102120E+00  0.15414740797E+02 -0.37265442384E+00  0.15426579930E+02  0.51100000000E-03 0. -1.
        -11    1    3    3    0    0  0.53069440531E+01  0.16700326477E+01  0.32462141032E+01  0.64413174500E+01  0.51100000000E-03 0.  1.
         12    1    3    3    0    0  0.15597030970E+02  0.20655225230E+02 -0.13813407434E+01  0.25919371263E+02  0.00000000000E+00 0. -1.
</event>
<event>
 7    1  0.3221417E-010  0.4778730E+02  0.7816164E-02  0.1312668E+00
        -11   -1    0    0    0    0  0.00000000000E+00  0.00000000000E+00  0.45593999997E+02  0.45594000000E+02  0.51100000000E-03 0. -1.
         11   -1    0    0    0    0 -0.00000000000E+00 -0.00000000000E+00 -0.45593999997E+02  0.45594000000E+02  0.51100000000E-03 0.  1.
    9900012    2    1    2    0    0  0.22428470376E+01 -0.43240693239E+02 -0.29719977777E+01  0.47787300865E+02  0.20000135962E+02 0.  0.
        -12    1    1    2    0    0 -0.22428470376E+01  0.43240693239E+02  0.29719977777E+01  0.43400699135E+02  0.00000000000E+00 0.  1.
         11    1    3    3    0    0  0.52274367310E+00 -0.34603176432E+02 -0.30951222185E+01  0.34745256682E+02  0.51100000000E-03 0. -1.
        -11    1    3    3    0    0 -0.32997819953E+01 -0.45122386964E+01  0.24997819461E+01  0.61235422191E+01  0.51100000000E-03 0.  1.
        -12    1    3    3    0    0  0.50198853598E+01 -0.41252781109E+01 -0.23766575053E+01  0.69185019633E+01  0.00000000000E+00 0.  1.
</event>
<event>
 7    1  0.3221417E-010  0.4778727E+02  0.7816164E-02  0.1312668E+00
        -11   -1    0    0    0    0  0.00000000000E+00  0.00000000000E+00  0.45593999997E+02  0.45594000000E+02  0.51100000000E-03 0. -1.
         11   -1    0    0    0    0 -0.00000000000E+00 -0.00000000000E+00 -0.45593999997E+02  0.45594000000E+02  0.51100000000E-03 0.  1.
    9900012    2    1    2    0    0  0.30969303916E+02 -0.26436710895E+02 -0.15020850929E+02  0.47787269239E+02  0.19999991766E+02 0.  0.
         12    1    1    2    0    0 -0.30969303916E+02  0.26436710895E+02  0.15020850929E+02  0.43400730761E+02  0.00000000000E+00 0. -1.
         11    1    3    3    0    0  0.89217088250E+01 -0.57491643943E+01 -0.12356966935E+02  0.16289395682E+02  0.51100000000E-03 0. -1.
        -11    1    3    3    0    0  0.17981610394E+01 -0.51868869220E+01  0.14232955183E+01  0.56712387940E+01  0.51100000000E-03 0.  1.
        -12    1    3    3    0    0  0.20249434052E+02 -0.15500659578E+02 -0.40871795123E+01  0.25826634763E+02  0.00000000000E+00 0.  1.
</event>
<event>
 7    1  0.3221417E-010  0.4778730E+02  0.7816164E-02  0.1312668E+00
        -11   -1    0    0    0    0  0.00000000000E+00  0.00000000000E+00  0.45593999997E+02  0.45594000000E+02  0.51100000000E-03 0. -1.
         11   -1    0    0    0    0 -0.00000000000E+00 -0.00000000000E+00 -0.45593999997E+02  0.45594000000E+02  0.51100000000E-03 0.  1.
    9900012    2    1    2    0    0  0.28670405692E+02  0.40518152025E+01  0.32329731423E+02  0.47787298360E+02  0.20000124542E+02 0.  0.
        -12    1    1    2    0    0 -0.28670405692E+02 -0.40518152025E+01 -0.32329731423E+02  0.43400701640E+02  0.00000000000E+00 0.  1.
         11    1    3    3    0    0  0.13937899037E+02  0.91640933450E+01  0.23646805026E+02  0.28938158625E+02  0.51100000000E-03 0. -1.
        -11    1    3    3    0    0  0.29638672654E+01 -0.68164328963E+00 -0.74642908082E+00  0.31315017763E+01  0.51100000000E-03 0.  1.
         12    1    3    3    0    0  0.11768639390E+02 -0.44306348529E+01  0.94293554778E+01  0.15717637959E+02  0.00000000000E+00 0. -1.
</event>
<event>
 7    1  0.3221417E-010  0.4778727E+02  0.7816164E-02  0.1312668E+00
        -11   -1    0    0    0    0  0.00000000000E+00  0.00000000000E+00  0.45593999997E+02  0.45594000000E+02  0.51100000000E-03 0. -1.
         11   -1    0    0    0    0 -0.00000000000E+00 -0.00000000000E+00 -0.45593999997E+02  0.45594000000E+02  0.51100000000E-03 0.  1.
    9900012    2    1    2    0    0 -0.92461697381E+00 -0.17720523585E+02 -0.39607466979E+02  0.47787270591E+02  0.19999997935E+02 0.  0.
         12    1    1    2    0    0  0.92461697381E+00  0.17720523585E+02  0.39607466979E+02  0.43400729409E+02  0.00000000000E+00 0. -1.
         11    1    3    3    0    0  0.45475374355E+01 -0.92436471077E+01 -0.46852489545E+01  0.11317096209E+02  0.51100000000E-03 0.  1.
        -11    1    3    3    0    0 -0.13750409138E+01 -0.17543293176E+01 -0.12712128903E+02  0.12906069517E+02  0.51100000000E-03 0. -1.
        -12    1    3    3    0    0 -0.40971134955E+01 -0.67225471599E+01 -0.22210089122E+02  0.23564104865E+02  0.00000000000E+00 0.  1.
</event>
<event>
 7    1  0.4407380E-010  0.4778727E+02  0.7816164E-02  0.1312668E+00
        -11   -1    0    0    0    0  0.00000000000E+00  0.00000000000E+00  0.45593999997E+02  0.45594000000E+02  0.51100000000E-03 0. -1.
         11   -1    0    0    0    0 -0.00000000000E+00 -0.00000000000E+00 -0.45593999997E+02  0.45594000000E+02  0.51100000000E-03 0.  1.
    9900012    2    1    2    0    0  0.40229960987E+01 -0.13733251235E+01 -0.43192045714E+02  0.47787270370E+02  0.19999996923E+02 0.  0.
         12    1    1    2    0    0 -0.40229960987E+01  0.13733251235E+01  0.43192045714E+02  0.43400729630E+02  0.00000000000E+00 0. -1.
         11    1    3    3    0    0 -0.41894780893E+01 -0.16037591256E+01 -0.65423603765E+01  0.79326067311E+01  0.51100000000E-03 0. -1.
        -11    1    3    3    0    0  0.31259967505E+01  0.46286308291E+01 -0.29560891238E+02  0.30083922120E+02  0.51100000000E-03 0.  1.
         12    1    3    3    0    0  0.50864774376E+01 -0.43981968269E+01 -0.70887940991E+01  0.97707415189E+01  0.00000000000E+00 0. -1.
</event>
<event>
 7    1  0.3221417E-010  0.4778727E+02  0.7816164E-02  0.1312668E+00
        -11   -1    0    0    0    0  0.00000000000E+00  0.00000000000E+00  0.45593999997E+02  0.45594000000E+02  0.51100000000E-03 0. -1.
         11   -1    0    0    0    0 -0.00000000000E+00 -0.00000000000E+00 -0.45593999997E+02  0.45594000000E+02  0.51100000000E-03 0.  1.
    9900012    2    1    2    0    0  0.14299506828E+01 -0.31467009993E+02  0.29856419556E+02  0.47787271140E+02  0.20000000437E+02 0.  0.
        -12    1    1    2    0    0 -0.14299506828E+01  0.31467009993E+02 -0.29856419556E+02  0.43400728860E+02  0.00000000000E+00 0.  1.
         11    1    3    3    0    0 -0.25712979196E+01 -0.19378642565E+01  0.90054554653E+01  0.95637398159E+01  0.51100000000E-03 0. -1.
        -11    1    3    3    0    0  0.59211500201E+01 -0.71431278144E+01  0.38368499496E+01  0.10040204696E+02  0.51100000000E-03 0.  1.
         12    1    3    3    0    0 -0.19199014177E+01 -0.22386017922E+02  0.17014114141E+02  0.28183326629E+02  0.00000000000E+00 0. -1.
</event>
<event>
 7    1  0.3221417E-010  0.4778727E+02  0.7816164E-02  0.1312668E+00
        -11   -1    0    0    0    0  0.00000000000E+00  0.00000000000E+00  0.45593999997E+02  0.45594000000E+02  0.51100000000E-03 0. -1.
         11   -1    0    0    0    0 -0.00000000000E+00 -0.00000000000E+00 -0.45593999997E+02  0.45594000000E+02  0.51100000000E-03 0.  1.
    9900012    2    1    2    0    0  0.30823669905E+02 -0.13639928746E+01  0.30523174957E+02  0.47787270600E+02  0.19999997972E+02 0.  0.
        -12    1    1    2    0    0 -0.30823669905E+02  0.13639928746E+01 -0.30523174957E+02  0.43400729400E+02  0.00000000000E+00 0.  1.
         11    1    3    3    0    0  0.15015540713E+02  0.63903791200E+00  0.13270971709E+02  0.20049776126E+02  0.51100000000E-03 0. -1.
        -11    1    3    3    0    0 -0.18736856214E+01 -0.11086205731E+01  0.68850408887E+01  0.72210474090E+01  0.51100000000E-03 0.  1.
        -12    1    3    3    0    0  0.17681814814E+02 -0.89441021352E+00  0.10367162359E+02  0.20516447064E+02  0.00000000000E+00 0.  1.
</event>
<event>
 7    1  0.3221417E-010  0.4778726E+02  0.7816164E-02  0.1312668E+00
        -11   -1    0    0    0    0  0.00000000000E+00  0.00000000000E+00  0.45593999997E+02  0.45594000000E+02  0.51100000000E-03 0. -1.
         11   -1    0    0    0    0 -0.00000000000E+00 -0.00000000000E+00 -0.45593999997E+02  0.45594000000E+02  0.51100000000E-03 0.  1.
    9900012    2    1    2    0    0 -0.22611209031E+01  0.17393978886E+02  0.39698375271E+02  0.47787260740E+02  0.19999953016E+02 0.  0.
        -12    1    1    2    0    0  0.22611209031E+01 -0.17393978886E+02 -0.39698375271E+02  0.43400739260E+02  0.00000000000E+00 0.  1.
         11    1    3    3    0    0  0.21996680698E+01  0.12846044443E+02  0.23079512714E+02  0.26505156193E+02  0.51100000000E-03 0. -1.
        -11    1    3    3    0    0 -0.54587805929E+01  0.32293394743E+01  0.18026949265E+02  0.19110149635E+02  0.51100000000E-03 0.  1.
        -12    1    3    3    0    0  0.99799162006E+00  0.13185949679E+01 -0.14080867076E+01  0.21719549119E+01  0.00000000000E+00 0.  1.
</event>
<event>
 7    1  0.3221417E-010  0.4778732E+02  0.7816164E-02  0.1312668E+00
        -11   -1    0    0    0    0  0.00000000000E+00  0.00000000000E+00  0.45593999997E+02  0.45594000000E+02  0.51100000000E-03 0. -1.
         11   -1    0    0    0    0 -0.00000000000E+00 -0.00000000000E+00 -0.45593999997E+02  0.45594000000E+02  0.51100000000E-03 0.  1.
    9900012    2    1    2    0    0 -0.20884211805E+02 -0.31333644955E+02  0.21579426750E+02  0.47787317197E+02  0.20000210429E+02 0.  0.
        -12    1    1    2    0    0  0.20884211805E+02  0.31333644955E+02 -0.21579426750E+02  0.43400682803E+02  0.00000000000E+00 0.  1.
         11    1    3    3    0    0 -0.52461452590E+01 -0.99030434753E+01  0.13105001540E+02  0.17243357439E+02  0.51100000000E-03 0. -1.
        -11    1    3    3    0    0 -0.18868751257E+01 -0.12032655865E+02  0.64018358775E+01  0.13759673244E+02  0.51100000000E-03 0.  1.
         12    1    3    3    0    0 -0.13751191421E+02 -0.93979456140E+01  0.20725893321E+01  0.16784286514E+02  0.00000000000E+00 0. -1.
</event>
<event>
 7    1  0.3221417E-010  0.4778728E+02  0.7816164E-02  0.1312668E+00
        -11   -1    0    0    0    0  0.00000000000E+00  0.00000000000E+00  0.45593999997E+02  0.45594000000E+02  0.51100000000E-03 0. -1.
         11   -1    0    0    0    0 -0.00000000000E+00 -0.00000000000E+00 -0.45593999997E+02  0.45594000000E+02  0.51100000000E-03 0.  1.
    9900012    2    1    2    0    0  0.19359828260E+02 -0.22928969400E+02  0.31354143050E+02  0.47787275646E+02  0.20000020983E+02 0.  0.
        -12    1    1    2    0    0 -0.19359828260E+02  0.22928969400E+02 -0.31354143050E+02  0.43400724354E+02  0.00000000000E+00 0.  1.
         11    1    3    3    0    0  0.84480891823E+01 -0.43077981750E+00  0.98799932758E+01  0.13006538720E+02  0.51100000000E-03 0. -1.
        -11    1    3    3    0    0  0.28376081469E+01 -0.58159527298E+01  0.75258112277E-01  0.64717068997E+01  0.51100000000E-03 0.  1.
         12    1    3    3    0    0  0.80741309311E+01 -0.16682236853E+02  0.21398891662E+02  0.28309030027E+02  0.00000000000E+00 0. -1.
</event>
<event>
 7    1  0.3221417E-010  0.4778727E+02  0.7816164E-02  0.1312668E+00
        -11   -1    0    0    0    0  0.00000000000E+00  0.00000000000E+00  0.45593999997E+02  0.45594000000E+02  0.51100000000E-03 0. -1.
         11   -1    0    0    0    0 -0.00000000000E+00 -0.00000000000E+00 -0.45593999997E+02  0.45594000000E+02  0.51100000000E-03 0.  1.
    9900012    2    1    2    0    0 -0.27378847259E+02  0.15104467755E+02  0.30097792664E+02  0.47787270206E+02  0.19999996175E+02 0.  0.
        -12    1    1    2    0    0  0.27378847259E+02 -0.15104467755E+02 -0.30097792664E+02  0.43400729794E+02  0.00000000000E+00 0.  1.
         11    1    3    3    0    0 -0.23986567357E-02  0.40624265392E+00  0.70774416963E+01  0.70890916254E+01  0.51100000000E-03 0. -1.
        -11    1    3    3    0    0 -0.10476467239E+02  0.96626651162E+00  0.25812971218E+01  0.10832965054E+02  0.51100000000E-03 0.  1.
         12    1    3    3    0    0 -0.16899981364E+02  0.13731958590E+02  0.20439053846E+02  0.29865213526E+02  0.00000000000E+00 0. -1.
</event>
<event>
 7    1  0.3221417E-010  0.4778727E+02  0.7816164E-02  0.1312668E+00
        -11   -1    0    0    0    0  0.00000000000E+00  0.00000000000E+00  0.45593999997E+02  0.45594000000E+02  0.51100000000E-03 0. -1.
         11   -1    0    0    0    0 -0.00000000000E+00 -0.00000000000E+00 -0.45593999997E+02  0.45594000000E+02  0.51100000000E-03 0.  1.
    9900012    2    1    2    0    0  0.22393464516E+02  0.33432182377E+02  0.16261773716E+02  0.47787270099E+02  0.19999995689E+02 0.  0.
        -12    1    1    2    0    0 -0.22393464516E+02 -0.33432182377E+02 -0.16261773716E+02  0.43400729901E+02  0.00000000000E+00 0.  1.
         11    1    3    3    0    0  0.47489230359E+01  0.10733388588E+02  0.11809158904E+02  0.16649748793E+02  0.51100000000E-03 0. -1.
        -11    1    3    3    0    0  0.85665531712E+01  0.29326189588E+01  0.91733276390E+00  0.91009662593E+01  0.51100000000E-03 0.  1.
        -12    1    3    3    0    0  0.90779883087E+01  0.19766174831E+02  0.35352820484E+01  0.22036555047E+02  0.00000000000E+00 0.  1.
</event>
<event>
 7    1  0.3221417E-010  0.4778727E+02  0.7816164E-02  0.1312668E+00
        -11   -1    0    0    0    0  0.00000000000E+00  0.00000000000E+00  0.45593999997E+02  0.45594000000E+02  0.51100000000E-03 0. -1.
         11   -1    0    0    0    0 -0.00000000000E+00 -0.00000000000E+00 -0.45593999997E+02  0.45594000000E+02  0.51100000000E-03 0.  1.
    9900012    2    1    2    0    0  0.76661161966E+01 -0.18870908223E+01  0.42676611259E+02  0.47787267312E+02  0.19999982981E+02 0.  0.
        -12    1    1    2    0    0 -0.76661161966E+01  0.18870908223E+01 -0.42676611259E+02  0.43400732688E+02  0.00000000000E+00 0.  1.
         11    1    3    3    0    0  0.77469630976E+01 -0.66979105557E+01  0.24460018517E+02  0.26517351851E+02  0.51100000000E-03 0. -1.
        -11    1    3    3    0    0  0.97294805684E+00  0.98307276096E-01 -0.10338400600E+01  0.14230663275E+01  0.51100000000E-03 0.  1.
        -12    1    3    3    0    0 -0.10537949578E+01  0.47125124573E+01  0.19250432802E+02  0.19846849134E+02  0.00000000000E+00 0.  1.
</event>
<event>
 7    1  0.3221417E-010  0.4778727E+02  0.7816164E-02  0.1312668E+00
        -11   -1    0    0    0    0  0.00000000000E+00  0.00000000000E+00  0.45593999997E+02  0.45594000000E+02  0.51100000000E-03 0. -1.
         11   -1    0    0    0    0 -0.00000000000E+00 -0.00000000000E+00 -0.45593999997E+02  0.45594000000E+02  0.51100000000E-03 0.  1.
    9900012    2    1    2    0    0 -0.27914508046E+02  0.61046984969E+01  0.32667046395E+02  0.47787273930E+02  0.20000013157E+02 0.  0.
        -12    1    1    2    0    0  0.27914508046E+02 -0.61046984969E+01 -0.32667046395E+02  0.43400726070E+02  0.00000000000E+00 0.  1.
         11    1    3    3    0    0 -0.14412023630E+02  0.13111707721E+01  0.10636617836E+02  0.17960045467E+02  0.51100000000E-03 0. -1.
        -11    1    3    3    0    0 -0.29482936714E+01  0.55286381840E+01  0.10814442828E+01  0.63582857549E+01  0.51100000000E-03 0.  1.
        -12    1    3    3    0    0 -0.10554190745E+02 -0.73511045910E+00  0.20948984276E+02  0.23468942709E+02  0.00000000000E+00 0.  1.
</event>
<event>
 7    1  0.3221417E-010  0.4778727E+02  0.7816164E-02  0.1312668E+00
        -11   -1    0    0    0    0  0.00000000000E+00  0.00000000000E+00  0.45593999997E+02  0.45594000000E+02  0.51100000000E-03 0.  1.
         11   -1    0    0    0    0 -0.00000000000E+00 -0.00000000000E+00 -0.45593999997E+02  0.45594000000E+02  0.51100000000E-03 0. -1.
    9900012    2    1    2    0    0 -0.60982971073E+01  0.33892655490E+02 -0.26414423892E+02  0.47787272894E+02  0.20000008433E+02 0.  0.
         12    1    1    2    0    0  0.60982971073E+01 -0.33892655490E+02  0.26414423892E+02  0.43400727106E+02  0.00000000000E+00 0. -1.
         11    1    3    3    0    0 -0.71764201546E+01  0.25705671835E+02 -0.12329964465E+02  0.29399159762E+02  0.51100000000E-03 0.  1.
        -11    1    3    3    0    0 -0.36150173962E+01  0.29426271170E+01 -0.69354284529E+01  0.83562894404E+01  0.51100000000E-03 0. -1.
         12    1    3    3    0    0  0.46931404435E+01  0.52443565379E+01 -0.71490309733E+01  0.10031823691E+02  0.00000000000E+00 0. -1.
</event>
<event>
 7    1  0.3221417E-010  0.4778727E+02  0.7816164E-02  0.1312668E+00
        -11   -1    0    0    0    0  0.00000000000E+00  0.00000000000E+00  0.45593999997E+02  0.45594000000E+02  0.51100000000E-03 0. -1.
         11   -1    0    0    0    0 -0.00000000000E+00 -0.00000000000E+00 -0.45593999997E+02  0.45594000000E+02  0.51100000000E-03 0.  1.
    9900012    2    1    2    0    0  0.11922824526E+02 -0.40477891003E+02  0.10149402688E+02  0.47787265218E+02  0.19999973435E+02 0.  0.
         12    1    1    2    0    0 -0.11922824526E+02  0.40477891003E+02 -0.10149402688E+02  0.43400734782E+02  0.00000000000E+00 0. -1.
         11    1    3    3    0    0  0.43391924632E+01 -0.15576330041E+02  0.11165024682E+02  0.19649641859E+02  0.51100000000E-03 0. -1.
        -11    1    3    3    0    0  0.89959062512E+00 -0.14105142376E+02  0.36703253378E+01  0.14602588575E+02  0.51100000000E-03 0.  1.
         12    1    3    3    0    0  0.66840414372E+01 -0.10796418586E+02 -0.46859473318E+01  0.13535034784E+02  0.00000000000E+00 0. -1.
</event>
<event>
 7    1  0.3221417E-010  0.4778727E+02  0.7816164E-02  0.1312668E+00
        -11   -1    0    0    0    0  0.00000000000E+00  0.00000000000E+00  0.45593999997E+02  0.45594000000E+02  0.51100000000E-03 0. -1.
         11   -1    0    0    0    0 -0.00000000000E+00 -0.00000000000E+00 -0.45593999997E+02  0.45594000000E+02  0.51100000000E-03 0.  1.
    9900012    2    1    2    0    0 -0.89646332779E+01  0.80314387989E+01  0.41698380592E+02  0.47787267253E+02  0.19999982714E+02 0.  0.
        -12    1    1    2    0    0  0.89646332779E+01 -0.80314387989E+01 -0.41698380592E+02  0.43400732747E+02  0.00000000000E+00 0.  1.
         11    1    3    3    0    0  0.49526423910E+00  0.71689543066E+00  0.93642849557E-01  0.87635322184E+00  0.51100000000E-03 0. -1.
        -11    1    3    3    0    0 -0.33432376725E+00  0.20085139324E+00 -0.18764388842E+01  0.19165429322E+01  0.51100000000E-03 0.  1.
         12    1    3    3    0    0 -0.91255737497E+01  0.71136919750E+01  0.43481176626E+02  0.44994371099E+02  0.00000000000E+00 0. -1.
</event>
<event>
 7    1  0.3221417E-010  0.4778727E+02  0.7816164E-02  0.1312668E+00
        -11   -1    0    0    0    0  0.00000000000E+00  0.00000000000E+00  0.45593999997E+02  0.45594000000E+02  0.51100000000E-03 0. -1.
         11   -1    0    0    0    0 -0.00000000000E+00 -0.00000000000E+00 -0.45593999997E+02  0.45594000000E+02  0.51100000000E-03 0.  1.
    9900012    2    1    2    0    0 -0.16856982054E+02  0.96770597786E+00  0.39981609338E+02  0.47787269775E+02  0.19999994212E+02 0.  0.
        -12    1    1    2    0    0  0.16856982054E+02 -0.96770597786E+00 -0.39981609338E+02  0.43400730225E+02  0.00000000000E+00 0.  1.
         11    1    3    3    0    0  0.29423187947E+01  0.10938924375E+01  0.46896683157E+01  0.56432995425E+01  0.51100000000E-03 0. -1.
        -11    1    3    3    0    0 -0.17920826138E+01 -0.40724304543E+01  0.89149948835E+01  0.99636029595E+01  0.51100000000E-03 0.  1.
         12    1    3    3    0    0 -0.18007218235E+02  0.39462439946E+01  0.26376946139E+02  0.32180367273E+02  0.00000000000E+00 0. -1.
</event>
<event>
 7    1  0.3221417E-010  0.4778726E+02  0.7816164E-02  0.1312668E+00
        -11   -1    0    0    0    0  0.00000000000E+00  0.00000000000E+00  0.45593999997E+02  0.45594000000E+02  0.51100000000E-03 0. -1.
         11   -1    0    0    0    0 -0.00000000000E+00 -0.00000000000E+00 -0.45593999997E+02  0.45594000000E+02  0.51100000000E-03 0.  1.
    9900012    2    1    2    0    0 -0.14694802204E+02 -0.10430054004E+02 -0.39482914985E+02  0.47787264821E+02  0.19999971624E+02 0.  0.
         12    1    1    2    0    0  0.14694802204E+02  0.10430054004E+02  0.39482914985E+02  0.43400735179E+02  0.00000000000E+00 0. -1.
         11    1    3    3    0    0 -0.83729130580E+01 -0.76515554936E+01 -0.11106176611E+02  0.15874480581E+02  0.51100000000E-03 0. -1.
        -11    1    3    3    0    0 -0.98174133186E+01  0.24202602287E+00 -0.16980101596E+02  0.19615402910E+02  0.51100000000E-03 0.  1.
        -12    1    3    3    0    0  0.34955241723E+01 -0.30205245337E+01 -0.11396636778E+02  0.12297381329E+02  0.00000000000E+00 0.  1.
</event>
<event>
 7    1  0.3221417E-010  0.4778727E+02  0.7816164E-02  0.1312668E+00
        -11   -1    0    0    0    0  0.00000000000E+00  0.00000000000E+00  0.45593999997E+02  0.45594000000E+02  0.51100000000E-03 0.  1.
         11   -1    0    0    0    0 -0.00000000000E+00 -0.00000000000E+00 -0.45593999997E+02  0.45594000000E+02  0.51100000000E-03 0. -1.
    9900012    2    1    2    0    0  0.35071182391E+02 -0.18081251610E+02 -0.18074947172E+02  0.47787271787E+02  0.20000003387E+02 0.  0.
         12    1    1    2    0    0 -0.35071182391E+02  0.18081251610E+02  0.18074947172E+02  0.43400728213E+02  0.00000000000E+00 0. -1.
         11    1    3    3    0    0  0.16962866625E+02 -0.92345482661E+01 -0.12431050933E+02  0.22968385955E+02  0.51100000000E-03 0.  1.
        -11    1    3    3    0    0  0.93584474403E+01  0.26449228359E+01 -0.22855911008E+01  0.99899991112E+01  0.51100000000E-03 0. -1.
         12    1    3    3    0    0  0.87498683265E+01 -0.11491626180E+02 -0.33583051375E+01  0.14828886721E+02  0.00000000000E+00 0. -1.
</event>
<event>
 7    1  0.3221417E-010  0.4778727E+02  0.7816164E-02  0.1312668E+00
        -11   -1    0    0    0    0  0.00000000000E+00  0.00000000000E+00  0.45593999997E+02  0.45594000000E+02  0.51100000000E-03 0. -1.
         11   -1    0    0    0    0 -0.00000000000E+00 -0.00000000000E+00 -0.45593999997E+02  0.45594000000E+02  0.51100000000E-03 0.  1.
    9900012    2    1    2    0    0  0.15921277402E+02 -0.12037613582E+02  0.38538712645E+02  0.47787267435E+02  0.19999983544E+02 0.  0.
        -12    1    1    2    0    0 -0.15921277402E+02  0.12037613582E+02 -0.38538712645E+02  0.43400732565E+02  0.00000000000E+00 0.  1.
         11    1    3    3    0    0  0.73121916069E+01 -0.44439910669E+01  0.25568266592E+02  0.26962074465E+02  0.51100000000E-03 0. -1.
        -11    1    3    3    0    0  0.83519799763E+01 -0.10464777489E+02  0.10256756551E+02  0.16866184887E+02  0.51100000000E-03 0.  1.
         12    1    3    3    0    0  0.25710581847E+00  0.28711549745E+01  0.27136895018E+01  0.39590080831E+01  0.00000000000E+00 0. -1.
</event>
<event>
 7    1  0.3221417E-010  0.4778727E+02  0.7816164E-02  0.1312668E+00
        -11   -1    0    0    0    0  0.00000000000E+00  0.00000000000E+00  0.45593999997E+02  0.45594000000E+02  0.51100000000E-03 0. -1.
         11   -1    0    0    0    0 -0.00000000000E+00 -0.00000000000E+00 -0.45593999997E+02  0.45594000000E+02  0.51100000000E-03 0.  1.
    9900012    2    1    2    0    0  0.28485048359E+02  0.28531618274E+02 -0.16067734209E+02  0.47787270698E+02  0.19999998420E+02 0.  0.
         12    1    1    2    0    0 -0.28485048359E+02 -0.28531618274E+02  0.16067734209E+02  0.43400729302E+02  0.00000000000E+00 0. -1.
         11    1    3    3    0    0  0.57855035885E+01  0.16436068110E+02 -0.17288464657E+01  0.17510148401E+02  0.51100000000E-03 0. -1.
        -11    1    3    3    0    0  0.11987928720E+02  0.72755468810E+01 -0.38810133040E+01  0.14550129963E+02  0.51100000000E-03 0.  1.
         12    1    3    3    0    0  0.10711616050E+02  0.48200032834E+01 -0.10457874440E+02  0.15726992333E+02  0.00000000000E+00 0. -1.
</event>
<event>
 7    1  0.3221417E-010  0.4778725E+02  0.7816164E-02  0.1312668E+00
        -11   -1    0    0    0    0  0.00000000000E+00  0.00000000000E+00  0.45593999997E+02  0.45594000000E+02  0.51100000000E-03 0. -1.
         11   -1    0    0    0    0 -0.00000000000E+00 -0.00000000000E+00 -0.45593999997E+02  0.45594000000E+02  0.51100000000E-03 0.  1.
    9900012    2    1    2    0    0  0.50671008781E+01 -0.12196554874E+02 -0.41342394244E+02  0.47787250883E+02  0.19999908074E+02 0.  0.
         12    1    1    2    0    0 -0.50671008781E+01  0.12196554874E+02  0.41342394244E+02  0.43400749117E+02  0.00000000000E+00 0. -1.
         11    1    3    3    0    0  0.53837805267E+01 -0.58235912005E+01 -0.34060799372E+01  0.86313781072E+01  0.51100000000E-03 0. -1.
        -11    1    3    3    0    0  0.25986595378E+01 -0.39336920782E+00 -0.16592541697E+02  0.16799411030E+02  0.51100000000E-03 0.  1.
         12    1    3    3    0    0 -0.29153391863E+01 -0.59795944658E+01 -0.21343772610E+02  0.22356461745E+02  0.00000000000E+00 0. -1.
</event>
<event>
 7    1  0.3221417E-010  0.4778727E+02  0.7816164E-02  0.1312668E+00
        -11   -1    0    0    0    0  0.00000000000E+00  0.00000000000E+00  0.45593999997E+02  0.45594000000E+02  0.51100000000E-03 0. -1.
         11   -1    0    0    0    0 -0.00000000000E+00 -0.00000000000E+00 -0.45593999997E+02  0.45594000000E+02  0.51100000000E-03 0.  1.
    9900012    2    1    2    0    0 -0.19866430543E+02  0.65338616421E+01  0.38029681388E+02  0.47787273313E+02  0.20000010343E+02 0.  0.
        -12    1    1    2    0    0  0.19866430543E+02 -0.65338616421E+01 -0.38029681388E+02  0.43400726687E+02  0.00000000000E+00 0.  1.
         11    1    3    3    0    0 -0.76755035234E+01  0.91161648048E+00  0.34946105286E+01  0.84827296287E+01  0.51100000000E-03 0. -1.
        -11    1    3    3    0    0 -0.79766491280E+01 -0.25161578103E+01  0.95675922777E+01  0.12708139269E+02  0.51100000000E-03 0.  1.
         12    1    3    3    0    0 -0.42142778921E+01  0.81384029720E+01  0.24967478582E+02  0.26596404415E+02  0.00000000000E+00 0. -1.
</event>
<event>
 7    1  0.3221417E-010  0.4778727E+02  0.7816164E-02  0.1312668E+00
        -11   -1    0    0    0    0  0.00000000000E+00  0.00000000000E+00  0.45593999997E+02  0.45594000000E+02  0.51100000000E-03 0. -1.
         11   -1    0    0    0    0 -0.00000000000E+00 -0.00000000000E+00 -0.45593999997E+02  0.45594000000E+02  0.51100000000E-03 0.  1.
    9900012    2    1    2    0    0  0.27271647226E+02 -0.11464011537E+02  0.31756208816E+02  0.47787273032E+02  0.20000009064E+02 0.  0.
        -12    1    1    2    0    0 -0.27271647226E+02  0.11464011537E+02 -0.31756208816E+02  0.43400726968E+02  0.00000000000E+00 0.  1.
         11    1    3    3    0    0  0.78507925131E-01 -0.22832045287E+01  0.34223800992E+01  0.41148356248E+01  0.51100000000E-03 0. -1.
        -11    1    3    3    0    0  0.20715757410E+02 -0.78059489565E+01  0.29567713949E+02  0.36936772363E+02  0.51100000000E-03 0.  1.
        -12    1    3    3    0    0  0.64773818911E+01 -0.13748580514E+01 -0.12338852320E+01  0.67356650444E+01  0.00000000000E+00 0.  1.
</event>
<event>
 7    1  0.5019977E-010  0.4778727E+02  0.7816164E-02  0.1312668E+00
        -11   -1    0    0    0    0  0.00000000000E+00  0.00000000000E+00  0.45593999997E+02  0.45594000000E+02  0.51100000000E-03 0. -1.
         11   -1    0    0    0    0 -0.00000000000E+00 -0.00000000000E+00 -0.45593999997E+02  0.45594000000E+02  0.51100000000E-03 0.  1.
    9900012    2    1    2    0    0  0.47838090232E+01  0.67447306194E+01 -0.42605717234E+02  0.47787270042E+02  0.19999995429E+02 0.  0.
         12    1    1    2    0    0 -0.47838090232E+01 -0.67447306194E+01  0.42605717234E+02  0.43400729958E+02  0.00000000000E+00 0. -1.
         11    1    3    3    0    0 -0.41507793598E+01  0.64053315675E+01 -0.77161616625E+01  0.10853404666E+02  0.51100000000E-03 0. -1.
        -11    1    3    3    0    0  0.51194631438E+01  0.41979718594E+01 -0.17174200580E+02  0.18406114105E+02  0.51100000000E-03 0.  1.
         12    1    3    3    0    0  0.38151252392E+01 -0.38585728075E+01 -0.17715354991E+02  0.18527751271E+02  0.00000000000E+00 0. -1.
</event>
<event>
 7    1  0.3221417E-010  0.4778727E+02  0.7816164E-02  0.1312668E+00
        -11   -1    0    0    0    0  0.00000000000E+00  0.00000000000E+00  0.45593999997E+02  0.45594000000E+02  0.51100000000E-03 0. -1.
         11   -1    0    0    0    0 -0.00000000000E+00 -0.00000000000E+00 -0.45593999997E+02  0.45594000000E+02  0.51100000000E-03 0.  1.
    9900012    2    1    2    0    0 -0.80333511622E+01 -0.25461078064E+02 -0.34217274265E+02  0.47787273218E+02  0.20000009910E+02 0.  0.
         12    1    1    2    0    0  0.80333511622E+01  0.25461078064E+02  0.34217274265E+02  0.43400726782E+02  0.00000000000E+00 0. -1.
         11    1    3    3    0    0  0.36566393866E+00 -0.71503388344E+01 -0.30867622010E+01  0.77967401335E+01  0.51100000000E-03 0. -1.
        -11    1    3    3    0    0 -0.20325835898E+01 -0.73922347399E+01 -0.24594118280E+02  0.25761350600E+02  0.51100000000E-03 0.  1.
         12    1    3    3    0    0 -0.63664315111E+01 -0.10918504490E+02 -0.65363937839E+01  0.14229182485E+02  0.00000000000E+00 0. -1.
</event>
<event>
 7    1  0.3221417E-010  0.4778727E+02  0.7816164E-02  0.1312668E+00
        -11   -1    0    0    0    0  0.00000000000E+00  0.00000000000E+00  0.45593999997E+02  0.45594000000E+02  0.51100000000E-03 0.  1.
         11   -1    0    0    0    0 -0.00000000000E+00 -0.00000000000E+00 -0.45593999997E+02  0.45594000000E+02  0.51100000000E-03 0. -1.
    9900012    2    1    2    0    0  0.15171086145E+02 -0.40594296462E+02 -0.23589802604E+01  0.47787267888E+02  0.19999985607E+02 0.  0.
        -12    1    1    2    0    0 -0.15171086145E+02  0.40594296462E+02  0.23589802604E+01  0.43400732112E+02  0.00000000000E+00 0.  1.
         11    1    3    3    0    0  0.13880259426E+01  0.14988276798E+01  0.21910312241E+01  0.29956165504E+01  0.51100000000E-03 0. -1.
        -11    1    3    3    0    0  0.27313840498E+01 -0.13566049405E+02  0.15365591009E+00  0.13839138907E+02  0.51100000000E-03 0.  1.
         12    1    3    3    0    0  0.11051676152E+02 -0.28527074736E+02 -0.47036673946E+01  0.30952512430E+02  0.00000000000E+00 0. -1.
</event>
<event>
 7    1  0.3221417E-010  0.4778728E+02  0.7816164E-02  0.1312668E+00
        -11   -1    0    0    0    0  0.00000000000E+00  0.00000000000E+00  0.45593999997E+02  0.45594000000E+02  0.51100000000E-03 0. -1.
         11   -1    0    0    0    0 -0.00000000000E+00 -0.00000000000E+00 -0.45593999997E+02  0.45594000000E+02  0.51100000000E-03 0.  1.
    9900012    2    1    2    0    0  0.21357577972E+02 -0.92479692490E+01  0.36632660864E+02  0.47787275190E+02  0.20000018902E+02 0.  0.
        -12    1    1    2    0    0 -0.21357577972E+02  0.92479692490E+01 -0.36632660864E+02  0.43400724810E+02  0.00000000000E+00 0.  1.
         11    1    3    3    0    0 -0.15905698583E+01 -0.25941990874E-01 -0.84966943152E+00  0.18034754961E+01  0.51100000000E-03 0.  1.
        -11    1    3    3    0    0  0.34664687239E+01 -0.45897473324E+01  0.41269933261E+01  0.70791426150E+01  0.51100000000E-03 0. -1.
        -12    1    3    3    0    0  0.19481679106E+02 -0.46322799258E+01  0.33355336969E+02  0.38904657079E+02  0.00000000000E+00 0.  1.
</event>
<event>
 7    1  0.3221417E-010  0.4778727E+02  0.7816164E-02  0.1312668E+00
        -11   -1    0    0    0    0  0.00000000000E+00  0.00000000000E+00  0.45593999997E+02  0.45594000000E+02  0.51100000000E-03 0. -1.
         11   -1    0    0    0    0 -0.00000000000E+00 -0.00000000000E+00 -0.45593999997E+02  0.45594000000E+02  0.51100000000E-03 0.  1.
    9900012    2    1    2    0    0  0.30654159233E+02 -0.30539126117E+02 -0.33626954165E+01  0.47787269330E+02  0.19999992183E+02 0.  0.
         12    1    1    2    0    0 -0.30654159233E+02  0.30539126117E+02  0.33626954165E+01  0.43400730670E+02  0.00000000000E+00 0. -1.
         11    1    3    3    0    0  0.56275241989E-03 -0.55096590155E+01 -0.39080860459E+01  0.67549596288E+01  0.51100000000E-03 0. -1.
        -11    1    3    3    0    0  0.18082026041E+02 -0.17029596990E+02 -0.46131680770E+01  0.25263573764E+02  0.51100000000E-03 0.  1.
         12    1    3    3    0    0  0.12571570440E+02 -0.79998701108E+01  0.51585587063E+01  0.15768735937E+02  0.00000000000E+00 0. -1.
</event>
<event>
 7    1  0.3221417E-010  0.4778728E+02  0.7816164E-02  0.1312668E+00
        -11   -1    0    0    0    0  0.00000000000E+00  0.00000000000E+00  0.45593999997E+02  0.45594000000E+02  0.51100000000E-03 0.  1.
         11   -1    0    0    0    0 -0.00000000000E+00 -0.00000000000E+00 -0.45593999997E+02  0.45594000000E+02  0.51100000000E-03 0. -1.
    9900012    2    1    2    0    0  0.18214135831E+02  0.36432648538E+02  0.14984332506E+02  0.47787275995E+02  0.20000022571E+02 0.  0.
        -12    1    1    2    0    0 -0.18214135831E+02 -0.36432648538E+02 -0.14984332506E+02  0.43400724005E+02  0.00000000000E+00 0.  1.
         11    1    3    3    0    0  0.56070245098E+01  0.33530807409E+01  0.49275385591E+01  0.81830624353E+01  0.51100000000E-03 0.  1.
        -11    1    3    3    0    0  0.51391951319E+01  0.24118602023E+02  0.73296256272E+00  0.24670944946E+02  0.51100000000E-03 0. -1.
         12    1    3    3    0    0  0.74679161893E+01  0.89609657734E+01  0.93238313839E+01  0.14933268613E+02  0.00000000000E+00 0. -1.
</event>
<event>
 7    1  0.3221417E-010  0.4778726E+02  0.7816164E-02  0.1312668E+00
        -11   -1    0    0    0    0  0.00000000000E+00  0.00000000000E+00  0.45593999997E+02  0.45594000000E+02  0.51100000000E-03 0. -1.
         11   -1    0    0    0    0 -0.00000000000E+00 -0.00000000000E+00 -0.45593999997E+02  0.45594000000E+02  0.51100000000E-03 0.  1.
    9900012    2    1    2    0    0  0.11422039123E+02 -0.18945884209E+02 -0.37339179098E+02  0.47787264962E+02  0.19999972266E+02 0.  0.
         12    1    1    2    0    0 -0.11422039123E+02  0.18945884209E+02  0.37339179098E+02  0.43400735038E+02  0.00000000000E+00 0. -1.
         11    1    3    3    0    0  0.83565683422E+01 -0.13122480043E+02 -0.80518555837E+01  0.17517536800E+02  0.51100000000E-03 0. -1.
        -11    1    3    3    0    0 -0.30120757587E+00 -0.35069025082E+01 -0.11972683040E+02  0.12479352172E+02  0.51100000000E-03 0.  1.
         12    1    3    3    0    0  0.33666783564E+01 -0.23165016578E+01 -0.17314640474E+02  0.17790375989E+02  0.00000000000E+00 0. -1.
</event>
<event>
 7    1  0.3926853E-010  0.4778727E+02  0.7816164E-02  0.1312668E+00
        -11   -1    0    0    0    0  0.00000000000E+00  0.00000000000E+00  0.45593999997E+02  0.45594000000E+02  0.51100000000E-03 0. -1.
         11   -1    0    0    0    0 -0.00000000000E+00 -0.00000000000E+00 -0.45593999997E+02  0.45594000000E+02  0.51100000000E-03 0.  1.
    9900012    2    1    2    0    0  0.36014368359E+02  0.15495254261E+02 -0.18614119914E+02  0.47787273127E+02  0.20000009495E+02 0.  0.
         12    1    1    2    0    0 -0.36014368359E+02 -0.15495254261E+02  0.18614119914E+02  0.43400726873E+02  0.00000000000E+00 0. -1.
         11    1    3    3    0    0  0.25346491913E+01 -0.22176406505E+01 -0.43114213890E+01  0.54708985763E+01  0.51100000000E-03 0. -1.
        -11    1    3    3    0    0  0.13025747128E+02  0.11862919772E+02 -0.11045750071E+02  0.20794411476E+02  0.51100000000E-03 0.  1.
         12    1    3    3    0    0  0.20453972040E+02  0.58499751399E+01 -0.32569484545E+01  0.21521963074E+02  0.00000000000E+00 0. -1.
</event>
<event>
 7    1  0.3221417E-010  0.4778728E+02  0.7816164E-02  0.1312668E+00
        -11   -1    0    0    0    0  0.00000000000E+00  0.00000000000E+00  0.45593999997E+02  0.45594000000E+02  0.51100000000E-03 0. -1.
         11   -1    0    0    0    0 -0.00000000000E+00 -0.00000000000E+00 -0.45593999997E+02  0.45594000000E+02  0.51100000000E-03 0.  1.
    9900012    2    1    2    0    0 -0.10599534121E+02  0.16092605531E+02  0.38888309478E+02  0.47787277767E+02  0.20000030649E+02 0.  0.
        -12    1    1    2    0    0  0.10599534121E+02 -0.16092605531E+02 -0.38888309478E+02  0.43400722233E+02  0.00000000000E+00 0.  1.
         11    1    3    3    0    0 -0.42247693624E+01 -0.16087302326E+01  0.16649441211E+01  0.48175438051E+01  0.51100000000E-03 0.  1.
        -11    1    3    3    0    0 -0.83428083598E+01  0.10611929913E+02  0.18910035388E+02  0.23233702813E+02  0.51100000000E-03 0. -1.
         12    1    3    3    0    0  0.19680436011E+01  0.70894058503E+01  0.18313329969E+02  0.19736031148E+02  0.00000000000E+00 0. -1.
</event>
<event>
 7    1  0.3221417E-010  0.4778726E+02  0.7816164E-02  0.1312668E+00
        -11   -1    0    0    0    0  0.00000000000E+00  0.00000000000E+00  0.45593999997E+02  0.45594000000E+02  0.51100000000E-03 0.  1.
         11   -1    0    0    0    0 -0.00000000000E+00 -0.00000000000E+00 -0.45593999997E+02  0.45594000000E+02  0.51100000000E-03 0. -1.
    9900012    2    1    2    0    0 -0.59778533116E+01 -0.42842002221E+02  0.35287468152E+01  0.47787263387E+02  0.19999965085E+02 0.  0.
        -12    1    1    2    0    0  0.59778533116E+01  0.42842002221E+02 -0.35287468152E+01  0.43400736613E+02  0.00000000000E+00 0.  1.
         11    1    3    3    0    0  0.46444537924E-01 -0.11200209410E+02 -0.37444323878E+01  0.11809641065E+02  0.51100000000E-03 0. -1.
        -11    1    3    3    0    0  0.12908573786E+01 -0.23574592770E+02  0.15136118831E+01  0.23658376069E+02  0.51100000000E-03 0.  1.
        -12    1    3    3    0    0 -0.73151552281E+01 -0.80672000409E+01  0.57595673199E+01  0.12319246252E+02  0.00000000000E+00 0.  1.
</event>
<event>
 7    1  0.3221417E-010  0.4778730E+02  0.7816164E-02  0.1312668E+00
        -11   -1    0    0    0    0  0.00000000000E+00  0.00000000000E+00  0.45593999997E+02  0.45594000000E+02  0.51100000000E-03 0. -1.
         11   -1    0    0    0    0 -0.00000000000E+00 -0.00000000000E+00 -0.45593999997E+02  0.45594000000E+02  0.51100000000E-03 0.  1.
    9900012    2    1    2    0    0 -0.39168940060E+02 -0.13889239198E+02 -0.12510168124E+02  0.47787295658E+02  0.20000112223E+02 0.  0.
         12    1    1    2    0    0  0.39168940060E+02  0.13889239198E+02  0.12510168124E+02  0.43400704342E+02  0.00000000000E+00 0. -1.
         11    1    3    3    0    0 -0.10527319345E+02 -0.34696618908E+01 -0.11268260729E+02  0.15806223659E+02  0.51100000000E-03 0. -1.
        -11    1    3    3    0    0 -0.22300502361E+02 -0.97533116504E+01 -0.46059053044E+01  0.24772037817E+02  0.51100000000E-03 0.  1.
        -12    1    3    3    0    0 -0.63411183540E+01 -0.66626565712E+00  0.33639979097E+01  0.72090341823E+01  0.00000000000E+00 0.  1.
</event>
<event>
 7    1  0.3221417E-010  0.4778727E+02  0.7816164E-02  0.1312668E+00
        -11   -1    0    0    0    0  0.00000000000E+00  0.00000000000E+00  0.45593999997E+02  0.45594000000E+02  0.51100000000E-03 0. -1.
         11   -1    0    0    0    0 -0.00000000000E+00 -0.00000000000E+00 -0.45593999997E+02  0.45594000000E+02  0.51100000000E-03 0.  1.
    9900012    2    1    2    0    0 -0.32845231663E+02  0.14495065530E+02  0.24386618320E+02  0.47787270504E+02  0.19999997535E+02 0.  0.
        -12    1    1    2    0    0  0.32845231663E+02 -0.14495065530E+02 -0.24386618320E+02  0.43400729496E+02  0.00000000000E+00 0.  1.
         11    1    3    3    0    0 -0.30841238532E+02  0.70525629079E+01  0.23300633136E+02  0.39291731223E+02  0.51100000000E-03 0. -1.
        -11    1    3    3    0    0  0.13016939157E+00  0.28749907902E+01  0.18137181762E+01  0.34017774763E+01  0.51100000000E-03 0.  1.
         12    1    3    3    0    0 -0.21341625230E+01  0.45675118320E+01 -0.72773299213E+00  0.50937618042E+01  0.00000000000E+00 0. -1.
</event>
<event>
 7    1  0.3221417E-010  0.4778728E+02  0.7816164E-02  0.1312668E+00
        -11   -1    0    0    0    0  0.00000000000E+00  0.00000000000E+00  0.45593999997E+02  0.45594000000E+02  0.51100000000E-03 0. -1.
         11   -1    0    0    0    0 -0.00000000000E+00 -0.00000000000E+00 -0.45593999997E+02  0.45594000000E+02  0.51100000000E-03 0.  1.
    9900012    2    1    2    0    0  0.70909375862E+01  0.37886552731E+02  0.19948700290E+02  0.47787275157E+02  0.20000018750E+02 0.  0.
        -12    1    1    2    0    0 -0.70909375862E+01 -0.37886552731E+02 -0.19948700290E+02  0.43400724843E+02  0.00000000000E+00 0.  1.
         11    1    3    3    0    0 -0.14857671135E+01  0.86787538105E+01  0.65303818042E+01  0.10962397475E+02  0.51100000000E-03 0. -1.
        -11    1    3    3    0    0  0.12166289406E+02  0.26657618827E+02  0.91641628145E+01  0.30702265712E+02  0.51100000000E-03 0.  1.
        -12    1    3    3    0    0 -0.35895847066E+01  0.25501800926E+01  0.42541556710E+01  0.61226119707E+01  0.00000000000E+00 0.  1.
</event>
<event>
 7    1  0.3221417E-010  0.4778729E+02  0.7816164E-02  0.1312668E+00
        -11   -1    0    0    0    0  0.00000000000E+00  0.00000000000E+00  0.45593999997E+02  0.45594000000E+02  0.51100000000E-03 0. -1.
         11   -1    0    0    0    0 -0.00000000000E+00 -0.00000000000E+00 -0.45593999997E+02  0.45594000000E+02  0.51100000000E-03 0.  1.
    9900012    2    1    2    0    0  0.21324500004E+02  0.27430612211E+02  0.26008629951E+02  0.47787290113E+02  0.20000086943E+02 0.  0.
        -12    1    1    2    0    0 -0.21324500004E+02 -0.27430612211E+02 -0.26008629951E+02  0.43400709887E+02  0.00000000000E+00 0.  1.
         11    1    3    3    0    0  0.92521576654E+01  0.53407711340E+01  0.10925087891E+02  0.15280176814E+02  0.51100000000E-03 0. -1.
        -11    1    3    3    0    0 -0.15229222960E+01  0.21608567008E+01 -0.16780095277E+01  0.31311835202E+01  0.51100000000E-03 0.  1.
         12    1    3    3    0    0  0.13595264635E+02  0.19928984376E+02  0.16761551588E+02  0.29375929779E+02  0.00000000000E+00 0. -1.
</event>
<event>
 7    1  0.3221417E-010  0.4778727E+02  0.7816164E-02  0.1312668E+00
        -11   -1    0    0    0    0  0.00000000000E+00  0.00000000000E+00  0.45593999997E+02  0.45594000000E+02  0.51100000000E-03 0.  1.
         11   -1    0    0    0    0 -0.00000000000E+00 -0.00000000000E+00 -0.45593999997E+02  0.45594000000E+02  0.51100000000E-03 0. -1.
    9900012    2    1    2    0    0 -0.70295962997E+01  0.40524469549E+02 -0.13855517148E+02  0.47787271759E+02  0.20000003259E+02 0.  0.
         12    1    1    2    0    0  0.70295962997E+01 -0.40524469549E+02  0.13855517148E+02  0.43400728241E+02  0.00000000000E+00 0. -1.
         11    1    3    3    0    0  0.54183443320E+01  0.22226567046E+02 -0.32999178898E+01  0.23114242282E+02  0.51100000000E-03 0. -1.
        -11    1    3    3    0    0 -0.55718327766E+01  0.10537786217E+02 -0.52300213546E+01  0.13017042002E+02  0.51100000000E-03 0.  1.
         12    1    3    3    0    0 -0.68761078550E+01  0.77601162864E+01 -0.53255779040E+01  0.11655987475E+02  0.00000000000E+00 0. -1.
</event>
<event>
 7    1  0.3221417E-010  0.4778727E+02  0.7816164E-02  0.1312668E+00
        -11   -1    0    0    0    0  0.00000000000E+00  0.00000000000E+00  0.45593999997E+02  0.45594000000E+02  0.51100000000E-03 0.  1.
         11   -1    0    0    0    0 -0.00000000000E+00 -0.00000000000E+00 -0.45593999997E+02  0.45594000000E+02  0.51100000000E-03 0. -1.
    9900012    2    1    2    0    0 -0.74918851650E+01  0.42007948551E+02  0.79263826104E+01  0.47787266987E+02  0.19999981500E+02 0.  0.
        -12    1    1    2    0    0  0.74918851650E+01 -0.42007948551E+02 -0.79263826104E+01  0.43400733013E+02  0.00000000000E+00 0.  1.
         11    1    3    3    0    0 -0.75908095675E+01  0.34348916049E+02  0.10499181464E+02  0.36711050588E+02  0.51100000000E-03 0. -1.
        -11    1    3    3    0    0 -0.14236806441E+00 -0.12391714325E+01  0.88217162516E+00  0.15277570299E+01  0.51100000000E-03 0.  1.
        -12    1    3    3    0    0  0.24129246688E+00  0.88982039346E+01 -0.34549704782E+01  0.95484593690E+01  0.00000000000E+00 0.  1.
</event>
<event>
 7    1  0.3221417E-010  0.4778727E+02  0.7816164E-02  0.1312668E+00
        -11   -1    0    0    0    0  0.00000000000E+00  0.00000000000E+00  0.45593999997E+02  0.45594000000E+02  0.51100000000E-03 0. -1.
         11   -1    0    0    0    0 -0.00000000000E+00 -0.00000000000E+00 -0.45593999997E+02  0.45594000000E+02  0.51100000000E-03 0.  1.
    9900012    2    1    2    0    0 -0.38073521547E+01 -0.19567651798E+02 -0.38551711051E+02  0.47787270141E+02  0.19999995883E+02 0.  0.
         12    1    1    2    0    0  0.38073521547E+01  0.19567651798E+02  0.38551711051E+02  0.43400729859E+02  0.00000000000E+00 0. -1.
         11    1    3    3    0    0 -0.98105709480E+01 -0.15464091420E+02 -0.26667943018E+02  0.32350650857E+02  0.51100000000E-03 0. -1.
        -11    1    3    3    0    0  0.21245877884E+01 -0.41884103649E+01 -0.25846906362E+01  0.53607164261E+01  0.51100000000E-03 0.  1.
        -12    1    3    3    0    0  0.38786310050E+01  0.84849986611E-01 -0.92990773964E+01  0.10075902859E+02  0.00000000000E+00 0.  1.
</event>
<event>
 7    1  0.3221417E-010  0.4778728E+02  0.7816164E-02  0.1312668E+00
        -11   -1    0    0    0    0  0.00000000000E+00  0.00000000000E+00  0.45593999997E+02  0.45594000000E+02  0.51100000000E-03 0. -1.
         11   -1    0    0    0    0 -0.00000000000E+00 -0.00000000000E+00 -0.45593999997E+02  0.45594000000E+02  0.51100000000E-03 0.  1.
    9900012    2    1    2    0    0 -0.17554005440E+02  0.38985220399E+02 -0.74587119652E+01  0.47787275343E+02  0.20000019599E+02 0.  0.
         12    1    1    2    0    0  0.17554005440E+02 -0.38985220399E+02  0.74587119652E+01  0.43400724657E+02  0.00000000000E+00 0. -1.
         11    1    3    3    0    0 -0.81465874559E+00  0.15644106999E+02 -0.54991817967E+00  0.15674953363E+02  0.51100000000E-03 0. -1.
        -11    1    3    3    0    0 -0.71819071806E+01  0.18872185078E+02 -0.14794736241E+01  0.20246678810E+02  0.51100000000E-03 0.  1.
        -12    1    3    3    0    0 -0.95574395143E+01  0.44689283220E+01 -0.54293201614E+01  0.11865643170E+02  0.00000000000E+00 0.  1.
</event>
<event>
 7    1  0.3221417E-010  0.4778728E+02  0.7816164E-02  0.1312668E+00
        -11   -1    0    0    0    0  0.00000000000E+00  0.00000000000E+00  0.45593999997E+02  0.45594000000E+02  0.51100000000E-03 0. -1.
         11   -1    0    0    0    0 -0.00000000000E+00 -0.00000000000E+00 -0.45593999997E+02  0.45594000000E+02  0.51100000000E-03 0.  1.
    9900012    2    1    2    0    0  0.18806890919E+02  0.22810611538E+01  0.39047669255E+02  0.47787275809E+02  0.20000021722E+02 0.  0.
        -12    1    1    2    0    0 -0.18806890919E+02 -0.22810611538E+01 -0.39047669255E+02  0.43400724191E+02  0.00000000000E+00 0.  1.
         11    1    3    3    0    0  0.25034216036E+01  0.98628048350E+00  0.50257662044E+01  0.57007188248E+01  0.51100000000E-03 0. -1.
        -11    1    3    3    0    0  0.75897541391E+01 -0.78757116512E+01  0.22311476634E+02  0.24848202989E+02  0.51100000000E-03 0.  1.
        -12    1    3    3    0    0  0.87137151767E+01  0.91704923215E+01  0.11710426417E+02  0.17238353995E+02  0.00000000000E+00 0.  1.
</event>
<event>
 7    1  0.3221417E-010  0.4778727E+02  0.7816164E-02  0.1312668E+00
        -11   -1    0    0    0    0  0.00000000000E+00  0.00000000000E+00  0.45593999997E+02  0.45594000000E+02  0.51100000000E-03 0. -1.
         11   -1    0    0    0    0 -0.00000000000E+00 -0.00000000000E+00 -0.45593999997E+02  0.45594000000E+02  0.51100000000E-03 0.  1.
    9900012    2    1    2    0    0 -0.41093333070E+02 -0.47608272084E+01  0.13126150387E+02  0.47787270485E+02  0.19999997448E+02 0.  0.
        -12    1    1    2    0    0  0.41093333070E+02  0.47608272084E+01 -0.13126150387E+02  0.43400729515E+02  0.00000000000E+00 0.  1.
         11    1    3    3    0    0 -0.20329787959E+02  0.15231168675E+01  0.99128333367E+01  0.22669019133E+02  0.51100000000E-03 0. -1.
        -11    1    3    3    0    0 -0.15253300957E+02 -0.80754732764E+01  0.65168833131E+01  0.18448474926E+02  0.51100000000E-03 0.  1.
         12    1    3    3    0    0 -0.55102441536E+01  0.17915292005E+01 -0.33035662630E+01  0.66697764252E+01  0.00000000000E+00 0. -1.
</event>
<event>
 7    1  0.3221417E-010  0.4778727E+02  0.7816164E-02  0.1312668E+00
        -11   -1    0    0    0    0  0.00000000000E+00  0.00000000000E+00  0.45593999997E+02  0.45594000000E+02  0.51100000000E-03 0. -1.
         11   -1    0    0    0    0 -0.00000000000E+00 -0.00000000000E+00 -0.45593999997E+02  0.45594000000E+02  0.51100000000E-03 0.  1.
    9900012    2    1    2    0    0  0.29256853710E+01  0.10397264760E+02 -0.42035228391E+02  0.47787272180E+02  0.20000005178E+02 0.  0.
         12    1    1    2    0    0 -0.29256853710E+01 -0.10397264760E+02  0.42035228391E+02  0.43400727820E+02  0.00000000000E+00 0. -1.
         11    1    3    3    0    0 -0.14545475464E+01  0.86373971858E+01 -0.66175623582E+01  0.10977817203E+02  0.51100000000E-03 0. -1.
        -11    1    3    3    0    0 -0.20881719476E+01 -0.15951210804E+01 -0.11998371834E+02  0.12282744004E+02  0.51100000000E-03 0.  1.
        -12    1    3    3    0    0  0.64684048651E+01  0.33549886545E+01 -0.23419294199E+02  0.24526710973E+02  0.00000000000E+00 0.  1.
</event>
<event>
 7    1  0.3221417E-010  0.4778728E+02  0.7816164E-02  0.1312668E+00
        -11   -1    0    0    0    0  0.00000000000E+00  0.00000000000E+00  0.45593999997E+02  0.45594000000E+02  0.51100000000E-03 0. -1.
         11   -1    0    0    0    0 -0.00000000000E+00 -0.00000000000E+00 -0.45593999997E+02  0.45594000000E+02  0.51100000000E-03 0.  1.
    9900012    2    1    2    0    0 -0.28801173858E+02  0.55470288553E+01 -0.31989763529E+02  0.47787284391E+02  0.20000060854E+02 0.  0.
         12    1    1    2    0    0  0.28801173858E+02 -0.55470288553E+01  0.31989763529E+02  0.43400715609E+02  0.00000000000E+00 0. -1.
         11    1    3    3    0    0 -0.15317511477E+02 -0.43954049707E+01 -0.63832950258E+01  0.17166601247E+02  0.51100000000E-03 0. -1.
        -11    1    3    3    0    0 -0.53437020920E+01  0.32623575892E+01 -0.95636870642E+01  0.11430758488E+02  0.51100000000E-03 0.  1.
         12    1    3    3    0    0 -0.81399602883E+01  0.66800762368E+01 -0.16042781439E+02  0.19189924657E+02  0.00000000000E+00 0. -1.
</event>
<event>
 7    1  0.3221417E-010  0.4778726E+02  0.7816164E-02  0.1312668E+00
        -11   -1    0    0    0    0  0.00000000000E+00  0.00000000000E+00  0.45593999997E+02  0.45594000000E+02  0.51100000000E-03 0. -1.
         11   -1    0    0    0    0 -0.00000000000E+00 -0.00000000000E+00 -0.45593999997E+02  0.45594000000E+02  0.51100000000E-03 0.  1.
    9900012    2    1    2    0    0 -0.18464424060E+02 -0.32796679260E+02  0.21611726114E+02  0.47787264615E+02  0.19999970684E+02 0.  0.
        -12    1    1    2    0    0  0.18464424060E+02  0.32796679260E+02 -0.21611726114E+02  0.43400735385E+02  0.00000000000E+00 0.  1.
         11    1    3    3    0    0 -0.14572751851E+02 -0.16694986719E+02  0.41085066892E+01  0.22538134474E+02  0.51100000000E-03 0. -1.
        -11    1    3    3    0    0  0.20530701158E+01 -0.35004274486E+01  0.24635275835E+01  0.47473211013E+01  0.51100000000E-03 0.  1.
         12    1    3    3    0    0 -0.59447423243E+01 -0.12601265093E+02  0.15039691841E+02  0.20501809040E+02  0.00000000000E+00 0. -1.
</event>
<event>
 7    1  0.3221417E-010  0.4778728E+02  0.7816164E-02  0.1312668E+00
        -11   -1    0    0    0    0  0.00000000000E+00  0.00000000000E+00  0.45593999997E+02  0.45594000000E+02  0.51100000000E-03 0. -1.
         11   -1    0    0    0    0 -0.00000000000E+00 -0.00000000000E+00 -0.45593999997E+02  0.45594000000E+02  0.51100000000E-03 0.  1.
    9900012    2    1    2    0    0  0.20264627030E+02  0.11217195020E+02  0.36703434297E+02  0.47787278094E+02  0.20000032141E+02 0.  0.
        -12    1    1    2    0    0 -0.20264627030E+02 -0.11217195020E+02 -0.36703434297E+02  0.43400721906E+02  0.00000000000E+00 0.  1.
         11    1    3    3    0    0  0.10364752737E+02  0.11592882674E+02  0.25254299939E+02  0.29658096595E+02  0.51100000000E-03 0. -1.
        -11    1    3    3    0    0  0.10338201350E+02  0.73098668829E+00  0.12706877378E+02  0.16397484004E+02  0.51100000000E-03 0.  1.
         12    1    3    3    0    0 -0.43832705692E+00 -0.11066743425E+01 -0.12577430199E+01  0.17316974947E+01  0.00000000000E+00 0. -1.
</event>
<event>
 7    1  0.3221417E-010  0.4778727E+02  0.7816164E-02  0.1312668E+00
        -11   -1    0    0    0    0  0.00000000000E+00  0.00000000000E+00  0.45593999997E+02  0.45594000000E+02  0.51100000000E-03 0. -1.
         11   -1    0    0    0    0 -0.00000000000E+00 -0.00000000000E+00 -0.45593999997E+02  0.45594000000E+02  0.51100000000E-03 0.  1.
    9900012    2    1    2    0    0  0.22728279215E+02  0.25350541054E+02 -0.26914654438E+02  0.47787271535E+02  0.20000002235E+02 0.  0.
         12    1    1    2    0    0 -0.22728279215E+02 -0.25350541054E+02  0.26914654438E+02  0.43400728465E+02  0.00000000000E+00 0. -1.
         11    1    3    3    0    0 -0.13849840600E+01  0.29913972801E+01 -0.28730130355E+01  0.43727385809E+01  0.51100000000E-03 0. -1.
        -11    1    3    3    0    0  0.19754220636E+02  0.23998404536E+02 -0.22932780105E+02  0.38627257951E+02  0.51100000000E-03 0.  1.
         12    1    3    3    0    0  0.43590426386E+01 -0.16392607623E+01 -0.11088612975E+01  0.47872750025E+01  0.00000000000E+00 0. -1.
</event>
<event>
 7    1  0.3221417E-010  0.4778727E+02  0.7816164E-02  0.1312668E+00
        -11   -1    0    0    0    0  0.00000000000E+00  0.00000000000E+00  0.45593999997E+02  0.45594000000E+02  0.51100000000E-03 0. -1.
         11   -1    0    0    0    0 -0.00000000000E+00 -0.00000000000E+00 -0.45593999997E+02  0.45594000000E+02  0.51100000000E-03 0.  1.
    9900012    2    1    2    0    0  0.30252330536E+02 -0.16963673885E+02  0.26089339529E+02  0.47787269919E+02  0.19999994867E+02 0.  0.
        -12    1    1    2    0    0 -0.30252330536E+02  0.16963673885E+02 -0.26089339529E+02  0.43400730081E+02  0.00000000000E+00 0.  1.
         11    1    3    3    0    0  0.93161987788E+00  0.24208524639E+01  0.13461651145E+01  0.29224310129E+01  0.51100000000E-03 0. -1.
        -11    1    3    3    0    0  0.17783715055E+02 -0.77387846665E+01  0.19862348975E+02  0.27760803597E+02  0.51100000000E-03 0.  1.
        -12    1    3    3    0    0  0.11536995603E+02 -0.11645741683E+02  0.48808254403E+01  0.17104035309E+02  0.00000000000E+00 0.  1.
</event>
<event>
 7    1  0.3221417E-010  0.4778726E+02  0.7816164E-02  0.1312668E+00
        -11   -1    0    0    0    0  0.00000000000E+00  0.00000000000E+00  0.45593999997E+02  0.45594000000E+02  0.51100000000E-03 0. -1.
         11   -1    0    0    0    0 -0.00000000000E+00 -0.00000000000E+00 -0.45593999997E+02  0.45594000000E+02  0.51100000000E-03 0.  1.
    9900012    2    1    2    0    0  0.20655403474E+02 -0.32719943190E+02  0.19656650029E+02  0.47787259622E+02  0.19999947920E+02 0.  0.
        -12    1    1    2    0    0 -0.20655403474E+02  0.32719943190E+02 -0.19656650029E+02  0.43400740378E+02  0.00000000000E+00 0.  1.
         11    1    3    3    0    0  0.57704328880E+01 -0.80551852451E+01  0.84536675550E+01  0.13024914604E+02  0.51100000000E-03 0. -1.
        -11    1    3    3    0    0 -0.25315687895E+01 -0.39938054814E+01 -0.14100042382E+01  0.49343120059E+01  0.51100000000E-03 0.  1.
        -12    1    3    3    0    0  0.17416539376E+02 -0.20670952463E+02  0.12612986712E+02  0.29828033012E+02  0.00000000000E+00 0.  1.
</event>
<event>
 7    1  0.3221417E-010  0.4778727E+02  0.7816164E-02  0.1312668E+00
        -11   -1    0    0    0    0  0.00000000000E+00  0.00000000000E+00  0.45593999997E+02  0.45594000000E+02  0.51100000000E-03 0.  1.
         11   -1    0    0    0    0 -0.00000000000E+00 -0.00000000000E+00 -0.45593999997E+02  0.45594000000E+02  0.51100000000E-03 0. -1.
    9900012    2    1    2    0    0  0.37558047388E+02 -0.72717018051E+01 -0.20497281923E+02  0.47787272621E+02  0.20000007189E+02 0.  0.
         12    1    1    2    0    0 -0.37558047388E+02  0.72717018051E+01  0.20497281923E+02  0.43400727379E+02  0.00000000000E+00 0. -1.
         11    1    3    3    0    0  0.27786676377E+02  0.16155324132E+01 -0.80853768835E+01  0.28984179282E+02  0.51100000000E-03 0. -1.
        -11    1    3    3    0    0  0.80274344383E+01 -0.49377487580E+01 -0.63627356234E+01  0.11371256366E+02  0.51100000000E-03 0.  1.
         12    1    3    3    0    0  0.17439365733E+01 -0.39494854603E+01 -0.60491694161E+01  0.74318369733E+01  0.00000000000E+00 0. -1.
</event>
<event>
 7    1  0.3221417E-010  0.4778727E+02  0.7816164E-02  0.1312668E+00
        -11   -1    0    0    0    0  0.00000000000E+00  0.00000000000E+00  0.45593999997E+02  0.45594000000E+02  0.51100000000E-03 0. -1.
         11   -1    0    0    0    0 -0.00000000000E+00 -0.00000000000E+00 -0.45593999997E+02  0.45594000000E+02  0.51100000000E-03 0.  1.
    9900012    2    1    2    0    0 -0.10871952389E+02 -0.34277579049E+01 -0.41876896224E+02  0.47787270625E+02  0.19999998086E+02 0.  0.
         12    1    1    2    0    0  0.10871952389E+02  0.34277579049E+01  0.41876896224E+02  0.43400729375E+02  0.00000000000E+00 0. -1.
         11    1    3    3    0    0 -0.81757266604E+00 -0.45594116256E+01 -0.43202795914E+01  0.63341515173E+01  0.51100000000E-03 0. -1.
        -11    1    3    3    0    0 -0.27920891239E+01  0.11201539817E+01  0.18983903461E+00  0.30143897788E+01  0.51100000000E-03 0.  1.
        -12    1    3    3    0    0 -0.72622905987E+01  0.11499739009E-01 -0.37746455667E+02  0.38438729328E+02  0.00000000000E+00 0.  1.
</event>
<event>
 7    1  0.3221417E-010  0.4778728E+02  0.7816164E-02  0.1312668E+00
        -11   -1    0    0    0    0  0.00000000000E+00  0.00000000000E+00  0.45593999997E+02  0.45594000000E+02  0.51100000000E-03 0. -1.
         11   -1    0    0    0    0 -0.00000000000E+00 -0.00000000000E+00 -0.45593999997E+02  0.45594000000E+02  0.51100000000E-03 0.  1.
    9900012    2    1    2    0    0 -0.81040570108E+01  0.41521032138E+02  0.96928336889E+01  0.47787275643E+02  0.20000020966E+02 0.  0.
        -12    1    1    2    0    0  0.81040570108E+01 -0.41521032138E+02 -0.96928336889E+01  0.43400724357E+02  0.00000000000E+00 0.  1.
         11    1    3    3    0    0 -0.35423622607E+01  0.15954302136E+02  0.11170440424E+02  0.19795626451E+02  0.51100000000E-03 0. -1.
        -11    1    3    3    0    0 -0.64744759507E+01  0.82008478541E+01 -0.12128785144E+01  0.10518736564E+02  0.51100000000E-03 0.  1.
        -12    1    3    3    0    0  0.19127812006E+01  0.17365882147E+02 -0.26472822055E+00  0.17472912628E+02  0.00000000000E+00 0.  1.
</event>
<event>
 7    1  0.3221417E-010  0.4778727E+02  0.7816164E-02  0.1312668E+00
        -11   -1    0    0    0    0  0.00000000000E+00  0.00000000000E+00  0.45593999997E+02  0.45594000000E+02  0.51100000000E-03 0. -1.
         11   -1    0    0    0    0 -0.00000000000E+00 -0.00000000000E+00 -0.45593999997E+02  0.45594000000E+02  0.51100000000E-03 0.  1.
    9900012    2    1    2    0    0 -0.38365084392E+02  0.17346162631E+02  0.10528749384E+02  0.47787267033E+02  0.19999981712E+02 0.  0.
        -12    1    1    2    0    0  0.38365084392E+02 -0.17346162631E+02 -0.10528749384E+02  0.43400732967E+02  0.00000000000E+00 0.  1.
         11    1    3    3    0    0 -0.19722262984E+02  0.14636705196E+02  0.42513813188E+01  0.24925389457E+02  0.51100000000E-03 0. -1.
        -11    1    3    3    0    0 -0.11035761746E+02  0.24365614191E+01  0.93354223417E+01  0.14658614512E+02  0.51100000000E-03 0.  1.
         12    1    3    3    0    0 -0.76070596631E+01  0.27289601566E+00 -0.30580542762E+01  0.82032630648E+01  0.00000000000E+00 0. -1.
</event>
<event>
 7    1  0.3221417E-010  0.4778727E+02  0.7816164E-02  0.1312668E+00
        -11   -1    0    0    0    0  0.00000000000E+00  0.00000000000E+00  0.45593999997E+02  0.45594000000E+02  0.51100000000E-03 0. -1.
         11   -1    0    0    0    0 -0.00000000000E+00 -0.00000000000E+00 -0.45593999997E+02  0.45594000000E+02  0.51100000000E-03 0.  1.
    9900012    2    1    2    0    0 -0.49017158935E+01  0.27736832103E+02 -0.33019153702E+02  0.47787272068E+02  0.20000004667E+02 0.  0.
         12    1    1    2    0    0  0.49017158935E+01 -0.27736832103E+02  0.33019153702E+02  0.43400727932E+02  0.00000000000E+00 0. -1.
         11    1    3    3    0    0  0.50763246943E+01  0.38359920026E+01 -0.13442285755E+02  0.14872086391E+02  0.51100000000E-03 0.  1.
        -11    1    3    3    0    0 -0.15214283671E+01  0.60632729577E+01 -0.22340221744E+01  0.66384394681E+01  0.51100000000E-03 0. -1.
        -12    1    3    3    0    0 -0.84566122207E+01  0.17837567143E+02 -0.17342845772E+02  0.26276746209E+02  0.00000000000E+00 0.  1.
</event>
<event>
 7    1  0.3221417E-010  0.4778727E+02  0.7816164E-02  0.1312668E+00
        -11   -1    0    0    0    0  0.00000000000E+00  0.00000000000E+00  0.45593999997E+02  0.45594000000E+02  0.51100000000E-03 0. -1.
         11   -1    0    0    0    0 -0.00000000000E+00 -0.00000000000E+00 -0.45593999997E+02  0.45594000000E+02  0.51100000000E-03 0.  1.
    9900012    2    1    2    0    0 -0.11025433796E+02  0.72923405663E+01  0.41338660581E+02  0.47787270975E+02  0.19999999681E+02 0.  0.
        -12    1    1    2    0    0  0.11025433796E+02 -0.72923405663E+01 -0.41338660581E+02  0.43400729025E+02  0.00000000000E+00 0.  1.
         11    1    3    3    0    0  0.38222432154E+01 -0.30082527092E+01  0.13193324889E+02  0.14061399271E+02  0.51100000000E-03 0. -1.
        -11    1    3    3    0    0 -0.45280745318E+01  0.37552727130E+01  0.12971197117E+02  0.14242804746E+02  0.51100000000E-03 0.  1.
         12    1    3    3    0    0 -0.10319602480E+02  0.65453205626E+01  0.15174138574E+02  0.19483066958E+02  0.00000000000E+00 0. -1.
</event>
<event>
 7    1  0.3221417E-010  0.4778726E+02  0.7816164E-02  0.1312668E+00
        -11   -1    0    0    0    0  0.00000000000E+00  0.00000000000E+00  0.45593999997E+02  0.45594000000E+02  0.51100000000E-03 0.  1.
         11   -1    0    0    0    0 -0.00000000000E+00 -0.00000000000E+00 -0.45593999997E+02  0.45594000000E+02  0.51100000000E-03 0. -1.
    9900012    2    1    2    0    0  0.38300747532E+02  0.16565683543E+02  0.11927068854E+02  0.47787261479E+02  0.19999956388E+02 0.  0.
        -12    1    1    2    0    0 -0.38300747532E+02 -0.16565683543E+02 -0.11927068854E+02  0.43400738521E+02  0.00000000000E+00 0.  1.
         11    1    3    3    0    0  0.95737891450E+01  0.85857205475E+01  0.46569349785E+01  0.13676954324E+02  0.51100000000E-03 0. -1.
        -11    1    3    3    0    0  0.24252920940E+02  0.64754948639E+01 -0.39817905023E+00  0.25105671763E+02  0.51100000000E-03 0.  1.
         12    1    3    3    0    0  0.44740374465E+01  0.15044681312E+01  0.76683129256E+01  0.90046353927E+01  0.00000000000E+00 0. -1.
</event>
<event>
 7    1  0.3221417E-010  0.4778727E+02  0.7816164E-02  0.1312668E+00
        -11   -1    0    0    0    0  0.00000000000E+00  0.00000000000E+00  0.45593999997E+02  0.45594000000E+02  0.51100000000E-03 0. -1.
         11   -1    0    0    0    0 -0.00000000000E+00 -0.00000000000E+00 -0.45593999997E+02  0.45594000000E+02  0.51100000000E-03 0.  1.
    9900012    2    1    2    0    0  0.31760016468E+02 -0.80812717755E+00  0.29568078501E+02  0.47787274409E+02  0.20000015341E+02 0.  0.
        -12    1    1    2    0    0 -0.31760016468E+02  0.80812717755E+00 -0.29568078501E+02  0.43400725591E+02  0.00000000000E+00 0.  1.
         11    1    3    3    0    0  0.92930651159E+01 -0.38961982411E+01  0.14293584195E+02  0.17488509639E+02  0.51100000000E-03 0. -1.
        -11    1    3    3    0    0  0.59483454327E+01 -0.11099373797E+01  0.11268844465E+02  0.12790685291E+02  0.51100000000E-03 0.  1.
         12    1    3    3    0    0  0.16518605919E+02  0.41980084433E+01  0.40056498403E+01  0.17508079479E+02  0.00000000000E+00 0. -1.
</event>
<event>
 7    1  0.3221417E-010  0.4778727E+02  0.7816164E-02  0.1312668E+00
        -11   -1    0    0    0    0  0.00000000000E+00  0.00000000000E+00  0.45593999997E+02  0.45594000000E+02  0.51100000000E-03 0. -1.
         11   -1    0    0    0    0 -0.00000000000E+00 -0.00000000000E+00 -0.45593999997E+02  0.45594000000E+02  0.51100000000E-03 0.  1.
    9900012    2    1    2    0    0 -0.52288639026E+00 -0.20793740281E+02 -0.38091603662E+02  0.47787270575E+02  0.19999997860E+02 0.  0.
         12    1    1    2    0    0  0.52288639026E+00  0.20793740281E+02  0.38091603662E+02  0.43400729425E+02  0.00000000000E+00 0. -1.
         11    1    3    3    0    0 -0.19599100674E+01  0.42307310837E+00 -0.16876470993E-01  0.20051242863E+01  0.51100000000E-03 0. -1.
        -11    1    3    3    0    0  0.74426713907E+01 -0.10053451628E+02 -0.15788613819E+02  0.20143127207E+02  0.51100000000E-03 0.  1.
        -12    1    3    3    0    0 -0.60056477136E+01 -0.11163361761E+02 -0.22286113372E+02  0.25639019082E+02  0.00000000000E+00 0.  1.
</event>
<event>
 7    1  0.3221417E-010  0.4778727E+02  0.7816164E-02  0.1312668E+00
        -11   -1    0    0    0    0  0.00000000000E+00  0.00000000000E+00  0.45593999997E+02  0.45594000000E+02  0.51100000000E-03 0. -1.
         11   -1    0    0    0    0 -0.00000000000E+00 -0.00000000000E+00 -0.45593999997E+02  0.45594000000E+02  0.51100000000E-03 0.  1.
    9900012    2    1    2    0    0 -0.19696733785E+02 -0.30330300128E+01  0.38554671756E+02  0.47787270662E+02  0.19999998257E+02 0.  0.
        -12    1    1    2    0    0  0.19696733785E+02  0.30330300128E+01 -0.38554671756E+02  0.43400729338E+02  0.00000000000E+00 0.  1.
         11    1    3    3    0    0 -0.12242709875E+02  0.68412865133E+00  0.14926288341E+02  0.19316988922E+02  0.51100000000E-03 0.  1.
        -11    1    3    3    0    0 -0.98249917423E+01  0.64483455844E+00  0.20091892123E+02  0.22374771590E+02  0.51100000000E-03 0. -1.
        -12    1    3    3    0    0  0.23709678328E+01 -0.43619932225E+01  0.35364912916E+01  0.60955101504E+01  0.00000000000E+00 0.  1.
</event>
<event>
 7    1  0.3221417E-010  0.4778727E+02  0.7816164E-02  0.1312668E+00
        -11   -1    0    0    0    0  0.00000000000E+00  0.00000000000E+00  0.45593999997E+02  0.45594000000E+02  0.51100000000E-03 0. -1.
         11   -1    0    0    0    0 -0.00000000000E+00 -0.00000000000E+00 -0.45593999997E+02  0.45594000000E+02  0.51100000000E-03 0.  1.
    9900012    2    1    2    0    0  0.10452003443E+02 -0.18997390416E+02 -0.37596254864E+02  0.47787267306E+02  0.19999982955E+02 0.  0.
         12    1    1    2    0    0 -0.10452003443E+02  0.18997390416E+02  0.37596254864E+02  0.43400732694E+02  0.00000000000E+00 0. -1.
         11    1    3    3    0    0  0.49340932319E+01 -0.50357458356E+01 -0.98296049810E+00  0.71183020267E+01  0.51100000000E-03 0. -1.
        -11    1    3    3    0    0  0.16106191623E+01 -0.11076086153E+02 -0.16231467495E+02  0.19716346412E+02  0.51100000000E-03 0.  1.
         12    1    3    3    0    0  0.39072910485E+01 -0.28855584268E+01 -0.20381826871E+02  0.20952618867E+02  0.00000000000E+00 0. -1.
</event>
<event>
 7    1  0.3221417E-010  0.4778727E+02  0.7816164E-02  0.1312668E+00
        -11   -1    0    0    0    0  0.00000000000E+00  0.00000000000E+00  0.45593999997E+02  0.45594000000E+02  0.51100000000E-03 0. -1.
         11   -1    0    0    0    0 -0.00000000000E+00 -0.00000000000E+00 -0.45593999997E+02  0.45594000000E+02  0.51100000000E-03 0.  1.
    9900012    2    1    2    0    0  0.30064726655E+02  0.22493441393E+02  0.21766497677E+02  0.47787272867E+02  0.20000008312E+02 0.  0.
        -12    1    1    2    0    0 -0.30064726655E+02 -0.22493441393E+02 -0.21766497677E+02  0.43400727133E+02  0.00000000000E+00 0.  1.
         11    1    3    3    0    0  0.20689085653E+02  0.98389283766E+01  0.11451857142E+02  0.25612258959E+02  0.51100000000E-03 0. -1.
        -11    1    3    3    0    0  0.81778432628E+01  0.13883677456E+01  0.46210548328E+01  0.94952005486E+01  0.51100000000E-03 0.  1.
        -12    1    3    3    0    0  0.11977977392E+01  0.11266145271E+02  0.56935857027E+01  0.12679813360E+02  0.00000000000E+00 0.  1.
</event>
<event>
 7    1  0.3221417E-010  0.4778727E+02  0.7816164E-02  0.1312668E+00
        -11   -1    0    0    0    0  0.00000000000E+00  0.00000000000E+00  0.45593999997E+02  0.45594000000E+02  0.51100000000E-03 0. -1.
         11   -1    0    0    0    0 -0.00000000000E+00 -0.00000000000E+00 -0.45593999997E+02  0.45594000000E+02  0.51100000000E-03 0.  1.
    9900012    2    1    2    0    0  0.40260660293E+02  0.48444352554E+01  0.15467202264E+02  0.47787266527E+02  0.19999979401E+02 0.  0.
        -12    1    1    2    0    0 -0.40260660293E+02 -0.48444352554E+01 -0.15467202264E+02  0.43400733473E+02  0.00000000000E+00 0.  1.
         11    1    3    3    0    0  0.19182558890E+02 -0.45385906440E+01  0.44574010001E+01  0.20209844001E+02  0.51100000000E-03 0. -1.
        -11    1    3    3    0    0  0.30964614182E+00  0.26800327592E+01 -0.73254076797E+00  0.27955451278E+01  0.51100000000E-03 0.  1.
         12    1    3    3    0    0  0.20768455261E+02  0.67029931402E+01  0.11742342032E+02  0.24781877398E+02  0.00000000000E+00 0. -1.
</event>
<event>
 7    1  0.3221417E-010  0.4778727E+02  0.7816164E-02  0.1312668E+00
        -11   -1    0    0    0    0  0.00000000000E+00  0.00000000000E+00  0.45593999997E+02  0.45594000000E+02  0.51100000000E-03 0.  1.
         11   -1    0    0    0    0 -0.00000000000E+00 -0.00000000000E+00 -0.45593999997E+02  0.45594000000E+02  0.51100000000E-03 0. -1.
    9900012    2    1    2    0    0  0.42461029233E+02 -0.87878358571E+01 -0.18595760250E+01  0.47787273214E+02  0.20000009892E+02 0.  0.
         12    1    1    2    0    0 -0.42461029233E+02  0.87878358571E+01  0.18595760250E+01  0.43400726786E+02  0.00000000000E+00 0. -1.
         11    1    3    3    0    0 -0.31419532399E+00 -0.32751057993E+01 -0.99892325549E-01  0.32916584628E+01  0.51100000000E-03 0. -1.
        -11    1    3    3    0    0 -0.17194529296E+00  0.76952265566E+00 -0.73706920492E+00  0.10793523870E+01  0.51100000000E-03 0.  1.
        -12    1    3    3    0    0  0.42947169850E+02 -0.62822527135E+01 -0.10226144945E+01  0.43416262364E+02  0.00000000000E+00 0.  1.
</event>
<event>
 7    1  0.3221417E-010  0.4778727E+02  0.7816164E-02  0.1312668E+00
        -11   -1    0    0    0    0  0.00000000000E+00  0.00000000000E+00  0.45593999997E+02  0.45594000000E+02  0.51100000000E-03 0. -1.
         11   -1    0    0    0    0 -0.00000000000E+00 -0.00000000000E+00 -0.45593999997E+02  0.45594000000E+02  0.51100000000E-03 0.  1.
    9900012    2    1    2    0    0  0.18940192347E+02  0.16045878852E+02  0.35600870293E+02  0.47787273279E+02  0.20000010190E+02 0.  0.
        -12    1    1    2    0    0 -0.18940192347E+02 -0.16045878852E+02 -0.35600870293E+02  0.43400726721E+02  0.00000000000E+00 0.  1.
         11    1    3    3    0    0  0.95939535788E+00 -0.39815324992E+01  0.49347443398E+01  0.64128575888E+01  0.51100000000E-03 0.  1.
        -11    1    3    3    0    0  0.13679764553E+01  0.13158494206E+01  0.57804670106E+01  0.60841284012E+01  0.51100000000E-03 0. -1.
        -12    1    3    3    0    0  0.16612820534E+02  0.18711561931E+02  0.24885658942E+02  0.35290287289E+02  0.00000000000E+00 0.  1.
</event>
<event>
 7    1  0.3221417E-010  0.4778728E+02  0.7816164E-02  0.1312668E+00
        -11   -1    0    0    0    0  0.00000000000E+00  0.00000000000E+00  0.45593999997E+02  0.45594000000E+02  0.51100000000E-03 0. -1.
         11   -1    0    0    0    0 -0.00000000000E+00 -0.00000000000E+00 -0.45593999997E+02  0.45594000000E+02  0.51100000000E-03 0.  1.
    9900012    2    1    2    0    0 -0.15323259791E+02 -0.26238195166E+02  0.30989958933E+02  0.47787277300E+02  0.20000028523E+02 0.  0.
        -12    1    1    2    0    0  0.15323259791E+02  0.26238195166E+02 -0.30989958933E+02  0.43400722700E+02  0.00000000000E+00 0.  1.
         11    1    3    3    0    0 -0.89134703226E+00  0.29970327636E+00  0.82285179731E+01  0.82820788381E+01  0.51100000000E-03 0. -1.
        -11    1    3    3    0    0 -0.17921110775E+01 -0.11145457106E+02  0.35526108846E+01  0.11834437907E+02  0.51100000000E-03 0.  1.
         12    1    3    3    0    0 -0.12639801681E+02 -0.15392441336E+02  0.19208830075E+02  0.27670760555E+02  0.00000000000E+00 0. -1.
</event>
<event>
 7    1  0.3221417E-010  0.4778727E+02  0.7816164E-02  0.1312668E+00
        -11   -1    0    0    0    0  0.00000000000E+00  0.00000000000E+00  0.45593999997E+02  0.45594000000E+02  0.51100000000E-03 0. -1.
         11   -1    0    0    0    0 -0.00000000000E+00 -0.00000000000E+00 -0.45593999997E+02  0.45594000000E+02  0.51100000000E-03 0.  1.
    9900012    2    1    2    0    0 -0.31092864599E+02  0.11964489660E+02  0.27815611419E+02  0.47787268665E+02  0.19999989152E+02 0.  0.
        -12    1    1    2    0    0  0.31092864599E+02 -0.11964489660E+02 -0.27815611419E+02  0.43400731335E+02  0.00000000000E+00 0.  1.
         11    1    3    3    0    0 -0.13698675389E+02  0.70623888707E+01  0.48754558884E+01  0.16164810990E+02  0.51100000000E-03 0. -1.
        -11    1    3    3    0    0 -0.16020627892E+02 -0.10902446627E+00  0.13971386905E+02  0.21257282439E+02  0.51100000000E-03 0.  1.
        -12    1    3    3    0    0 -0.13735613189E+01  0.50111252551E+01  0.89687686256E+01  0.10365175236E+02  0.00000000000E+00 0.  1.
</event>
<event>
 7    1  0.3221417E-010  0.4778727E+02  0.7816164E-02  0.1312668E+00
        -11   -1    0    0    0    0  0.00000000000E+00  0.00000000000E+00  0.45593999997E+02  0.45594000000E+02  0.51100000000E-03 0. -1.
         11   -1    0    0    0    0 -0.00000000000E+00 -0.00000000000E+00 -0.45593999997E+02  0.45594000000E+02  0.51100000000E-03 0.  1.
    9900012    2    1    2    0    0  0.32539500557E+01 -0.19591109952E+02 -0.38590457503E+02  0.47787272006E+02  0.20000004386E+02 0.  0.
         12    1    1    2    0    0 -0.32539500557E+01  0.19591109952E+02  0.38590457503E+02  0.43400727994E+02  0.00000000000E+00 0. -1.
         11    1    3    3    0    0  0.19307211751E+01 -0.22550635165E+01 -0.15586869718E+02  0.15867057181E+02  0.51100000000E-03 0. -1.
        -11    1    3    3    0    0 -0.61465295808E+01 -0.67131412852E+01 -0.85226873837E+01  0.12469253879E+02  0.51100000000E-03 0.  1.
         12    1    3    3    0    0  0.74697584615E+01 -0.10622905150E+02 -0.14480900401E+02  0.19450960946E+02  0.00000000000E+00 0. -1.
</event>
<event>
 7    1  0.3221417E-010  0.4778727E+02  0.7816164E-02  0.1312668E+00
        -11   -1    0    0    0    0  0.00000000000E+00  0.00000000000E+00  0.45593999997E+02  0.45594000000E+02  0.51100000000E-03 0. -1.
         11   -1    0    0    0    0 -0.00000000000E+00 -0.00000000000E+00 -0.45593999997E+02  0.45594000000E+02  0.51100000000E-03 0.  1.
    9900012    2    1    2    0    0  0.12953550811E+01 -0.35379012873E+02 -0.25105196705E+02  0.47787269612E+02  0.19999993467E+02 0.  0.
         12    1    1    2    0    0 -0.12953550811E+01  0.35379012873E+02  0.25105196705E+02  0.43400730388E+02  0.00000000000E+00 0. -1.
         11    1    3    3    0    0 -0.26206573710E+01 -0.20034019127E+01  0.14427825253E+01  0.36004285795E+01  0.51100000000E-03 0. -1.
        -11    1    3    3    0    0  0.39888008953E+01 -0.24082889223E+02 -0.12719814005E+02  0.27526164907E+02  0.51100000000E-03 0.  1.
        -12    1    3    3    0    0 -0.72788443243E-01 -0.92927217371E+01 -0.13828165225E+02  0.16660676125E+02  0.00000000000E+00 0.  1.
</event>
<event>
 7    1  0.3221417E-010  0.4778727E+02  0.7816164E-02  0.1312668E+00
        -11   -1    0    0    0    0  0.00000000000E+00  0.00000000000E+00  0.45593999997E+02  0.45594000000E+02  0.51100000000E-03 0. -1.
         11   -1    0    0    0    0 -0.00000000000E+00 -0.00000000000E+00 -0.45593999997E+02  0.45594000000E+02  0.51100000000E-03 0.  1.
    9900012    2    1    2    0    0 -0.21846912929E+02 -0.14617141428E+02  0.34535123730E+02  0.47787271906E+02  0.20000003929E+02 0.  0.
        -12    1    1    2    0    0  0.21846912929E+02  0.14617141428E+02 -0.34535123730E+02  0.43400728094E+02  0.00000000000E+00 0.  1.
         11    1    3    3    0    0 -0.16585039962E+01 -0.31257467103E+01  0.92500181001E+01  0.99037247092E+01  0.51100000000E-03 0. -1.
        -11    1    3    3    0    0 -0.92933155368E+01  0.57036357756E+00  0.20602686575E+01  0.95360230432E+01  0.51100000000E-03 0.  1.
         12    1    3    3    0    0 -0.10895093396E+02 -0.12061758295E+02  0.23224836972E+02  0.28347524154E+02  0.00000000000E+00 0. -1.
</event>
<event>
 7    1  0.4556937E-010  0.4778728E+02  0.7816164E-02  0.1312668E+00
        -11   -1    0    0    0    0  0.00000000000E+00  0.00000000000E+00  0.45593999997E+02  0.45594000000E+02  0.51100000000E-03 0. -1.
         11   -1    0    0    0    0 -0.00000000000E+00 -0.00000000000E+00 -0.45593999997E+02  0.45594000000E+02  0.51100000000E-03 0.  1.
    9900012    2    1    2    0    0 -0.26833273627E+00  0.95130108597E+01 -0.42344456028E+02  0.47787281868E+02  0.20000049348E+02 0.  0.
         12    1    1    2    0    0  0.26833273627E+00 -0.95130108597E+01  0.42344456028E+02  0.43400718132E+02  0.00000000000E+00 0. -1.
         11    1    3    3    0    0 -0.19479994588E+01 -0.10010495324E+01 -0.15771467935E+00  0.21958315597E+01  0.51100000000E-03 0. -1.
        -11    1    3    3    0    0 -0.27772818705E+01  0.41880076255E+01 -0.33833350782E+02  0.34204507421E+02  0.51100000000E-03 0.  1.
         12    1    3    3    0    0  0.44569485930E+01  0.63260527666E+01 -0.83533905664E+01  0.11386942887E+02  0.00000000000E+00 0. -1.
</event>
<event>
 7    1  0.3221417E-010  0.4778727E+02  0.7816164E-02  0.1312668E+00
        -11   -1    0    0    0    0  0.00000000000E+00  0.00000000000E+00  0.45593999997E+02  0.45594000000E+02  0.51100000000E-03 0. -1.
         11   -1    0    0    0    0 -0.00000000000E+00 -0.00000000000E+00 -0.45593999997E+02  0.45594000000E+02  0.51100000000E-03 0.  1.
    9900012    2    1    2    0    0 -0.18175695877E+02 -0.94105573911E+01  0.38271514816E+02  0.47787270082E+02  0.19999995614E+02 0.  0.
        -12    1    1    2    0    0  0.18175695877E+02  0.94105573911E+01 -0.38271514816E+02  0.43400729918E+02  0.00000000000E+00 0.  1.
         11    1    3    3    0    0 -0.64852155734E+01 -0.12702482828E+02  0.19625424217E+02  0.24260428005E+02  0.51100000000E-03 0. -1.
        -11    1    3    3    0    0  0.78998985333E+00 -0.73652178425E+00  0.25167383164E+01  0.27387077832E+01  0.51100000000E-03 0.  1.
         12    1    3    3    0    0 -0.12480470157E+02  0.40284472213E+01  0.16129352283E+02  0.20788134294E+02  0.00000000000E+00 0. -1.
</event>
<event>
 7    1  0.3221417E-010  0.4778727E+02  0.7816164E-02  0.1312668E+00
        -11   -1    0    0    0    0  0.00000000000E+00  0.00000000000E+00  0.45593999997E+02  0.45594000000E+02  0.51100000000E-03 0.  1.
         11   -1    0    0    0    0 -0.00000000000E+00 -0.00000000000E+00 -0.45593999997E+02  0.45594000000E+02  0.51100000000E-03 0. -1.
    9900012    2    1    2    0    0 -0.42861334496E+01 -0.33793729171E+02  0.26893045329E+02  0.47787274680E+02  0.20000016577E+02 0.  0.
        -12    1    1    2    0    0  0.42861334496E+01  0.33793729171E+02 -0.26893045329E+02  0.43400725320E+02  0.00000000000E+00 0.  1.
         11    1    3    3    0    0  0.35156752917E+01 -0.25583338431E+02  0.12108918570E+02  0.28521800210E+02  0.51100000000E-03 0. -1.
        -11    1    3    3    0    0 -0.45058759148E+01 -0.28274978494E+01  0.35999641912E+01  0.64231926864E+01  0.51100000000E-03 0.  1.
         12    1    3    3    0    0 -0.32959328265E+01 -0.53828928907E+01  0.11184162568E+02  0.12842281784E+02  0.00000000000E+00 0. -1.
</event>
<event>
 7    1  0.3221417E-010  0.4778726E+02  0.7816164E-02  0.1312668E+00
        -11   -1    0    0    0    0  0.00000000000E+00  0.00000000000E+00  0.45593999997E+02  0.45594000000E+02  0.51100000000E-03 0. -1.
         11   -1    0    0    0    0 -0.00000000000E+00 -0.00000000000E+00 -0.45593999997E+02  0.45594000000E+02  0.51100000000E-03 0.  1.
    9900012    2    1    2    0    0  0.15598993551E+02 -0.20900916243E+02  0.34690737017E+02  0.47787261131E+02  0.19999954799E+02 0.  0.
        -12    1    1    2    0    0 -0.15598993551E+02  0.20900916243E+02 -0.34690737017E+02  0.43400738869E+02  0.00000000000E+00 0.  1.
         11    1    3    3    0    0 -0.14073238284E+01 -0.19375646397E+01  0.67683155727E+00  0.24885373835E+01  0.51100000000E-03 0. -1.
        -11    1    3    3    0    0  0.13403520950E+02 -0.98526909698E+01  0.30769293164E+02  0.34978268900E+02  0.51100000000E-03 0.  1.
        -12    1    3    3    0    0  0.36027964300E+01 -0.91106606337E+01  0.32446122963E+01  0.10320454847E+02  0.00000000000E+00 0.  1.
</event>
<event>
 7    1  0.3221417E-010  0.4778727E+02  0.7816164E-02  0.1312668E+00
        -11   -1    0    0    0    0  0.00000000000E+00  0.00000000000E+00  0.45593999997E+02  0.45594000000E+02  0.51100000000E-03 0. -1.
         11   -1    0    0    0    0 -0.00000000000E+00 -0.00000000000E+00 -0.45593999997E+02  0.45594000000E+02  0.51100000000E-03 0.  1.
    9900012    2    1    2    0    0 -0.17382823090E+02 -0.69531462722E+01  0.39155006000E+02  0.47787271014E+02  0.19999999861E+02 0.  0.
        -12    1    1    2    0    0  0.17382823090E+02  0.69531462722E+01 -0.39155006000E+02  0.43400728986E+02  0.00000000000E+00 0.  1.
         11    1    3    3    0    0 -0.87553412835E+01  0.48861682452E+01  0.17676005797E+02  0.20321708154E+02  0.51100000000E-03 0. -1.
        -11    1    3    3    0    0  0.34266080547E+00 -0.46875465622E+01  0.10858539163E+02  0.11832091202E+02  0.51100000000E-03 0.  1.
        -12    1    3    3    0    0 -0.89701426120E+01 -0.71517679551E+01  0.10620461040E+02  0.15633471658E+02  0.00000000000E+00 0.  1.
</event>
<event>
 7    1  0.3221417E-010  0.4778728E+02  0.7816164E-02  0.1312668E+00
        -11   -1    0    0    0    0  0.00000000000E+00  0.00000000000E+00  0.45593999997E+02  0.45594000000E+02  0.51100000000E-03 0. -1.
         11   -1    0    0    0    0 -0.00000000000E+00 -0.00000000000E+00 -0.45593999997E+02  0.45594000000E+02  0.51100000000E-03 0.  1.
    9900012    2    1    2    0    0 -0.31355146811E+02  0.45423178544E+01  0.29662175484E+02  0.47787279528E+02  0.20000038680E+02 0.  0.
        -12    1    1    2    0    0  0.31355146811E+02 -0.45423178544E+01 -0.29662175484E+02  0.43400720472E+02  0.00000000000E+00 0.  1.
         11    1    3    3    0    0 -0.17732132679E+01 -0.21349182302E+01  0.52460558910E+01  0.59349190236E+01  0.51100000000E-03 0. -1.
        -11    1    3    3    0    0 -0.82548352489E+01  0.20870432397E+01 -0.74932449769E+00  0.85474874633E+01  0.51100000000E-03 0.  1.
         12    1    3    3    0    0 -0.21327098294E+02  0.45901928449E+01  0.25165444091E+02  0.33304873041E+02  0.00000000000E+00 0. -1.
</event>
<event>
 7    1  0.3221417E-010  0.4778727E+02  0.7816164E-02  0.1312668E+00
        -11   -1    0    0    0    0  0.00000000000E+00  0.00000000000E+00  0.45593999997E+02  0.45594000000E+02  0.51100000000E-03 0. -1.
         11   -1    0    0    0    0 -0.00000000000E+00 -0.00000000000E+00 -0.45593999997E+02  0.45594000000E+02  0.51100000000E-03 0.  1.
    9900012    2    1    2    0    0  0.33535497233E+02  0.26683336626E+02 -0.68551808084E+01  0.47787268070E+02  0.19999986438E+02 0.  0.
         12    1    1    2    0    0 -0.33535497233E+02 -0.26683336626E+02  0.68551808084E+01  0.43400731930E+02  0.00000000000E+00 0. -1.
         11    1    3    3    0    0  0.68775051815E+01  0.10850133891E+02  0.36532947145E+01  0.13355599781E+02  0.51100000000E-03 0. -1.
        -11    1    3    3    0    0  0.11019347166E+02  0.85029108503E+01  0.53958237003E+00  0.13928986118E+02  0.51100000000E-03 0.  1.
        -12    1    3    3    0    0  0.15638644886E+02  0.73302918838E+01 -0.11048057893E+02  0.20502682170E+02  0.00000000000E+00 0.  1.
</event>
<event>
 7    1  0.3221417E-010  0.4778728E+02  0.7816164E-02  0.1312668E+00
        -11   -1    0    0    0    0  0.00000000000E+00  0.00000000000E+00  0.45593999997E+02  0.45594000000E+02  0.51100000000E-03 0.  1.
         11   -1    0    0    0    0 -0.00000000000E+00 -0.00000000000E+00 -0.45593999997E+02  0.45594000000E+02  0.51100000000E-03 0. -1.
    9900012    2    1    2    0    0 -0.25721768151E+02  0.12494709506E+02 -0.32648059188E+02  0.47787275453E+02  0.20000020100E+02 0.  0.
         12    1    1    2    0    0  0.25721768151E+02 -0.12494709506E+02  0.32648059188E+02  0.43400724547E+02  0.00000000000E+00 0. -1.
         11    1    3    3    0    0 -0.70587158304E+01  0.18985261422E+01 -0.57330071590E+01  0.92896308879E+01  0.51100000000E-03 0. -1.
        -11    1    3    3    0    0 -0.14602372116E+02 -0.53846046109E+00 -0.94886083854E+01  0.17422769597E+02  0.51100000000E-03 0.  1.
         12    1    3    3    0    0 -0.40606802045E+01  0.11134643825E+02 -0.17426443644E+02  0.21074874968E+02  0.00000000000E+00 0. -1.
</event>
<event>
 7    1  0.3221417E-010  0.4778727E+02  0.7816164E-02  0.1312668E+00
        -11   -1    0    0    0    0  0.00000000000E+00  0.00000000000E+00  0.45593999997E+02  0.45594000000E+02  0.51100000000E-03 0. -1.
         11   -1    0    0    0    0 -0.00000000000E+00 -0.00000000000E+00 -0.45593999997E+02  0.45594000000E+02  0.51100000000E-03 0.  1.
    9900012    2    1    2    0    0 -0.39324521939E+02 -0.12305352975E+02  0.13630246261E+02  0.47787270159E+02  0.19999995964E+02 0.  0.
        -12    1    1    2    0    0  0.39324521939E+02  0.12305352975E+02 -0.13630246261E+02  0.43400729841E+02  0.00000000000E+00 0.  1.
         11    1    3    3    0    0 -0.49624796668E+01 -0.16813211906E+01 -0.35553375377E+01  0.63319405128E+01  0.51100000000E-03 0.  1.
        -11    1    3    3    0    0 -0.83694465312E+01 -0.43797432669E+01  0.10038894453E+02  0.13784382047E+02  0.51100000000E-03 0. -1.
        -12    1    3    3    0    0 -0.25992595741E+02 -0.62442885176E+01  0.71466893458E+01  0.27670947599E+02  0.00000000000E+00 0.  1.
</event>
<event>
 7    1  0.3221417E-010  0.4778727E+02  0.7816164E-02  0.1312668E+00
        -11   -1    0    0    0    0  0.00000000000E+00  0.00000000000E+00  0.45593999997E+02  0.45594000000E+02  0.51100000000E-03 0. -1.
         11   -1    0    0    0    0 -0.00000000000E+00 -0.00000000000E+00 -0.45593999997E+02  0.45594000000E+02  0.51100000000E-03 0.  1.
    9900012    2    1    2    0    0  0.13855752267E+02  0.30773458061E+02  0.27288007332E+02  0.47787274937E+02  0.20000017746E+02 0.  0.
        -12    1    1    2    0    0 -0.13855752267E+02 -0.30773458061E+02 -0.27288007332E+02  0.43400725063E+02  0.00000000000E+00 0.  1.
         11    1    3    3    0    0 -0.29995861664E+01  0.40407777317E+01  0.49627583888E+01  0.70678407547E+01  0.51100000000E-03 0. -1.
        -11    1    3    3    0    0  0.80838814144E+01  0.35159205863E+01  0.87949876723E+01  0.12452415216E+02  0.51100000000E-03 0.  1.
        -12    1    3    3    0    0  0.87714570189E+01  0.23216759743E+02  0.13530261271E+02  0.28267018966E+02  0.00000000000E+00 0.  1.
</event>
<event>
 7    1  0.3221417E-010  0.4778728E+02  0.7816164E-02  0.1312668E+00
        -11   -1    0    0    0    0  0.00000000000E+00  0.00000000000E+00  0.45593999997E+02  0.45594000000E+02  0.51100000000E-03 0. -1.
         11   -1    0    0    0    0 -0.00000000000E+00 -0.00000000000E+00 -0.45593999997E+02  0.45594000000E+02  0.51100000000E-03 0.  1.
    9900012    2    1    2    0    0  0.14489232799E+01  0.36551551156E+02 -0.23356105044E+02  0.47787275198E+02  0.20000018937E+02 0.  0.
         12    1    1    2    0    0 -0.14489232799E+01 -0.36551551156E+02  0.23356105044E+02  0.43400724802E+02  0.00000000000E+00 0. -1.
         11    1    3    3    0    0  0.24229875752E+01  0.93609443683E+01 -0.13083274607E+02  0.16268688421E+02  0.51100000000E-03 0. -1.
        -11    1    3    3    0    0 -0.52412411322E+01  0.20871480008E+02 -0.10381645046E+02  0.23892840778E+02  0.51100000000E-03 0.  1.
         12    1    3    3    0    0  0.42671768368E+01  0.63191267791E+01  0.10881460889E+00  0.76257459980E+01  0.00000000000E+00 0. -1.
</event>
<event>
 7    1  0.3221417E-010  0.4778726E+02  0.7816164E-02  0.1312668E+00
        -11   -1    0    0    0    0  0.00000000000E+00  0.00000000000E+00  0.45593999997E+02  0.45594000000E+02  0.51100000000E-03 0. -1.
         11   -1    0    0    0    0 -0.00000000000E+00 -0.00000000000E+00 -0.45593999997E+02  0.45594000000E+02  0.51100000000E-03 0.  1.
    9900012    2    1    2    0    0  0.11962912985E+02 -0.14793195968E+02  0.39008646944E+02  0.47787257259E+02  0.19999937148E+02 0.  0.
        -12    1    1    2    0    0 -0.11962912985E+02  0.14793195968E+02 -0.39008646944E+02  0.43400742741E+02  0.00000000000E+00 0.  1.
         11    1    3    3    0    0  0.11444848028E+00 -0.10368899376E+02  0.26334956798E+02  0.28302952541E+02  0.51100000000E-03 0. -1.
        -11    1    3    3    0    0  0.74174929335E+01 -0.13302779788E+01  0.11812866969E+02  0.14011875935E+02  0.51100000000E-03 0.  1.
        -12    1    3    3    0    0  0.44309715714E+01 -0.30940186140E+01  0.86082317681E+00  0.54724287836E+01  0.00000000000E+00 0.  1.
</event>
<event>
 7    1  0.3221417E-010  0.4778728E+02  0.7816164E-02  0.1312668E+00
        -11   -1    0    0    0    0  0.00000000000E+00  0.00000000000E+00  0.45593999997E+02  0.45594000000E+02  0.51100000000E-03 0. -1.
         11   -1    0    0    0    0 -0.00000000000E+00 -0.00000000000E+00 -0.45593999997E+02  0.45594000000E+02  0.51100000000E-03 0.  1.
    9900012    2    1    2    0    0 -0.18591678684E+02 -0.71555298995E+01 -0.38558663369E+02  0.47787278286E+02  0.20000033018E+02 0.  0.
         12    1    1    2    0    0  0.18591678684E+02  0.71555298995E+01  0.38558663369E+02  0.43400721714E+02  0.00000000000E+00 0. -1.
         11    1    3    3    0    0 -0.16227775414E+01  0.27196412039E+01 -0.26739415752E+00  0.31782629097E+01  0.51100000000E-03 0. -1.
        -11    1    3    3    0    0 -0.15515044362E+02 -0.72646033786E+01 -0.21191597542E+02  0.27250226980E+02  0.51100000000E-03 0.  1.
         12    1    3    3    0    0 -0.14538567806E+01 -0.26105677248E+01 -0.17099671670E+02  0.17358788396E+02  0.00000000000E+00 0. -1.
</event>
<event>
 7    1  0.3221417E-010  0.4778726E+02  0.7816164E-02  0.1312668E+00
        -11   -1    0    0    0    0  0.00000000000E+00  0.00000000000E+00  0.45593999997E+02  0.45594000000E+02  0.51100000000E-03 0. -1.
         11   -1    0    0    0    0 -0.00000000000E+00 -0.00000000000E+00 -0.45593999997E+02  0.45594000000E+02  0.51100000000E-03 0.  1.
    9900012    2    1    2    0    0  0.36400956706E+02  0.18639029770E+02  0.14532064232E+02  0.47787263017E+02  0.19999963398E+02 0.  0.
        -12    1    1    2    0    0 -0.36400956706E+02 -0.18639029770E+02 -0.14532064232E+02  0.43400736983E+02  0.00000000000E+00 0.  1.
         11    1    3    3    0    0  0.38611775610E+01  0.55794132853E+01 -0.36587993906E+01  0.77087844702E+01  0.51100000000E-03 0. -1.
        -11    1    3    3    0    0  0.75133070260E+01  0.20370169377E+01  0.72077153723E+01  0.10608976464E+02  0.51100000000E-03 0.  1.
         12    1    3    3    0    0  0.25026472119E+02  0.11022599547E+02  0.10983148250E+02  0.29469502082E+02  0.00000000000E+00 0. -1.
</event>
<event>
 7    1  0.3221417E-010  0.4778726E+02  0.7816164E-02  0.1312668E+00
        -11   -1    0    0    0    0  0.00000000000E+00  0.00000000000E+00  0.45593999997E+02  0.45594000000E+02  0.51100000000E-03 0. -1.
         11   -1    0    0    0    0 -0.00000000000E+00 -0.00000000000E+00 -0.45593999997E+02  0.45594000000E+02  0.51100000000E-03 0.  1.
    9900012    2    1    2    0    0  0.25302449029E+02 -0.35232159124E+01 -0.35085567550E+02  0.47787262362E+02  0.19999960412E+02 0.  0.
         12    1    1    2    0    0 -0.25302449029E+02  0.35232159124E+01  0.35085567550E+02  0.43400737638E+02  0.00000000000E+00 0. -1.
         11    1    3    3    0    0  0.16615810033E+02 -0.86175315166E+01 -0.11895518282E+02  0.22177699338E+02  0.51100000000E-03 0. -1.
        -11    1    3    3    0    0  0.61387115539E+01  0.20173742556E+01 -0.10737154416E+02  0.12531562697E+02  0.51100000000E-03 0.  1.
         12    1    3    3    0    0  0.25479274423E+01  0.30769413486E+01 -0.12452894853E+02  0.13078000326E+02  0.00000000000E+00 0. -1.
</event>
<event>
 7    1  0.3221417E-010  0.4778727E+02  0.7816164E-02  0.1312668E+00
        -11   -1    0    0    0    0  0.00000000000E+00  0.00000000000E+00  0.45593999997E+02  0.45594000000E+02  0.51100000000E-03 0. -1.
         11   -1    0    0    0    0 -0.00000000000E+00 -0.00000000000E+00 -0.45593999997E+02  0.45594000000E+02  0.51100000000E-03 0.  1.
    9900012    2    1    2    0    0  0.17477592902E+02 -0.16460261406E+02  0.36155454472E+02  0.47787270199E+02  0.19999996145E+02 0.  0.
        -12    1    1    2    0    0 -0.17477592902E+02  0.16460261406E+02 -0.36155454472E+02  0.43400729801E+02  0.00000000000E+00 0.  1.
         11    1    3    3    0    0  0.71716606913E+01 -0.37852468788E+01  0.86989767433E+01  0.11892561021E+02  0.51100000000E-03 0. -1.
        -11    1    3    3    0    0 -0.32332835601E+01 -0.25873759571E+01  0.61783737428E+00  0.41869272988E+01  0.51100000000E-03 0.  1.
        -12    1    3    3    0    0  0.13539215771E+02 -0.10087638570E+02  0.26838640355E+02  0.31707781879E+02  0.00000000000E+00 0.  1.
</event>
<event>
 7    1  0.3221417E-010  0.4778727E+02  0.7816164E-02  0.1312668E+00
        -11   -1    0    0    0    0  0.00000000000E+00  0.00000000000E+00  0.45593999997E+02  0.45594000000E+02  0.51100000000E-03 0. -1.
         11   -1    0    0    0    0 -0.00000000000E+00 -0.00000000000E+00 -0.45593999997E+02  0.45594000000E+02  0.51100000000E-03 0.  1.
    9900012    2    1    2    0    0 -0.36570707341E+02  0.90652023190E+01 -0.21541322859E+02  0.47787272828E+02  0.20000008134E+02 0.  0.
         12    1    1    2    0    0  0.36570707341E+02 -0.90652023190E+01  0.21541322859E+02  0.43400727172E+02  0.00000000000E+00 0. -1.
         11    1    3    3    0    0 -0.60174594761E+01  0.68216090017E+01 -0.69161923439E+01  0.11427068072E+02  0.51100000000E-03 0. -1.
        -11    1    3    3    0    0 -0.24362020388E+02 -0.61369707345E+00 -0.16325439673E+02  0.29332654879E+02  0.51100000000E-03 0.  1.
         12    1    3    3    0    0 -0.61912274766E+01  0.28572903908E+01  0.17003091579E+01  0.70275498772E+01  0.00000000000E+00 0. -1.
</event>
<event>
 7    1  0.3221417E-010  0.4778727E+02  0.7816164E-02  0.1312668E+00
        -11   -1    0    0    0    0  0.00000000000E+00  0.00000000000E+00  0.45593999997E+02  0.45594000000E+02  0.51100000000E-03 0. -1.
         11   -1    0    0    0    0 -0.00000000000E+00 -0.00000000000E+00 -0.45593999997E+02  0.45594000000E+02  0.51100000000E-03 0.  1.
    9900012    2    1    2    0    0  0.61951090616E+01 -0.80507334466E+01 -0.42195135638E+02  0.47787272393E+02  0.20000006148E+02 0.  0.
         12    1    1    2    0    0 -0.61951090616E+01  0.80507334466E+01  0.42195135638E+02  0.43400727607E+02  0.00000000000E+00 0. -1.
         11    1    3    3    0    0  0.12729101177E+00 -0.11176694458E+01  0.95485185962E+00  0.14755101920E+01  0.51100000000E-03 0. -1.
        -11    1    3    3    0    0 -0.22609650642E+01  0.39374432464E+00 -0.24535952075E+02  0.24643050584E+02  0.51100000000E-03 0.  1.
        -12    1    3    3    0    0  0.83287831140E+01 -0.73268083255E+01 -0.18614035423E+02  0.21668711617E+02  0.00000000000E+00 0.  1.
</event>
<event>
 7    1  0.3221417E-010  0.4778729E+02  0.7816164E-02  0.1312668E+00
        -11   -1    0    0    0    0  0.00000000000E+00  0.00000000000E+00  0.45593999997E+02  0.45594000000E+02  0.51100000000E-03 0. -1.
         11   -1    0    0    0    0 -0.00000000000E+00 -0.00000000000E+00 -0.45593999997E+02  0.45594000000E+02  0.51100000000E-03 0.  1.
    9900012    2    1    2    0    0 -0.41394255237E+01  0.28195364300E+02 -0.32733903045E+02  0.47787287791E+02  0.20000076354E+02 0.  0.
         12    1    1    2    0    0  0.41394255237E+01 -0.28195364300E+02  0.32733903045E+02  0.43400712209E+02  0.00000000000E+00 0. -1.
         11    1    3    3    0    0 -0.44171697950E+01  0.83428828977E+01 -0.12490005159E+02  0.15656158954E+02  0.51100000000E-03 0.  1.
        -11    1    3    3    0    0  0.76322691094E+01  0.11580502669E+02 -0.11788806046E+02  0.18202624044E+02  0.51100000000E-03 0. -1.
         12    1    3    3    0    0 -0.73545248381E+01  0.82719787332E+01 -0.84550918403E+01  0.13928504794E+02  0.00000000000E+00 0. -1.
</event>
<event>
 7    1  0.3221417E-010  0.4778726E+02  0.7816164E-02  0.1312668E+00
        -11   -1    0    0    0    0  0.00000000000E+00  0.00000000000E+00  0.45593999997E+02  0.45594000000E+02  0.51100000000E-03 0.  1.
         11   -1    0    0    0    0 -0.00000000000E+00 -0.00000000000E+00 -0.45593999997E+02  0.45594000000E+02  0.51100000000E-03 0. -1.
    9900012    2    1    2    0    0  0.33141279674E+02  0.26874743086E+02 -0.79389919654E+01  0.47787264663E+02  0.19999970902E+02 0.  0.
         12    1    1    2    0    0 -0.33141279674E+02 -0.26874743086E+02  0.79389919654E+01  0.43400735337E+02  0.00000000000E+00 0. -1.
         11    1    3    3    0    0  0.71557259278E+01  0.12029328177E+02 -0.85289561609E+01  0.16390614491E+02  0.51100000000E-03 0. -1.
        -11    1    3    3    0    0  0.18327913245E+02  0.84416059000E+01 -0.37286439082E+01  0.20520134009E+02  0.51100000000E-03 0.  1.
        -12    1    3    3    0    0  0.76576405013E+01  0.64038090092E+01  0.43186081036E+01  0.10876516162E+02  0.00000000000E+00 0.  1.
</event>
<event>
 7    1  0.3221417E-010  0.4778727E+02  0.7816164E-02  0.1312668E+00
        -11   -1    0    0    0    0  0.00000000000E+00  0.00000000000E+00  0.45593999997E+02  0.45594000000E+02  0.51100000000E-03 0. -1.
         11   -1    0    0    0    0 -0.00000000000E+00 -0.00000000000E+00 -0.45593999997E+02  0.45594000000E+02  0.51100000000E-03 0.  1.
    9900012    2    1    2    0    0 -0.34764675297E+02  0.25678296662E+02  0.39579824826E+01  0.47787271973E+02  0.20000004233E+02 0.  0.
        -12    1    1    2    0    0  0.34764675297E+02 -0.25678296662E+02 -0.39579824826E+01  0.43400728027E+02  0.00000000000E+00 0.  1.
         11    1    3    3    0    0 -0.57591914719E+00  0.51054256782E+01 -0.42584499921E+01  0.66731889540E+01  0.51100000000E-03 0.  1.
        -11    1    3    3    0    0 -0.12399166188E+02  0.65577486366E+01  0.54924906300E+01  0.15063560101E+02  0.51100000000E-03 0. -1.
        -12    1    3    3    0    0 -0.21789589962E+02  0.14015122348E+02  0.27239418447E+01  0.26050522918E+02  0.00000000000E+00 0.  1.
</event>
<event>
 7    1  0.3221417E-010  0.4778727E+02  0.7816164E-02  0.1312668E+00
        -11   -1    0    0    0    0  0.00000000000E+00  0.00000000000E+00  0.45593999997E+02  0.45594000000E+02  0.51100000000E-03 0. -1.
         11   -1    0    0    0    0 -0.00000000000E+00 -0.00000000000E+00 -0.45593999997E+02  0.45594000000E+02  0.51100000000E-03 0.  1.
    9900012    2    1    2    0    0  0.21840913214E+02  0.68424492750E+01 -0.36875175336E+02  0.47787272378E+02  0.20000006079E+02 0.  0.
         12    1    1    2    0    0 -0.21840913214E+02 -0.68424492750E+01  0.36875175336E+02  0.43400727622E+02  0.00000000000E+00 0. -1.
         11    1    3    3    0    0  0.54966717935E+00 -0.26957753283E+01 -0.67749167520E+00  0.28334314638E+01  0.51100000000E-03 0. -1.
        -11    1    3    3    0    0  0.70777028844E+01  0.94760644750E+01 -0.11733386865E+02  0.16660193385E+02  0.51100000000E-03 0.  1.
        -12    1    3    3    0    0  0.14213543150E+02  0.62160128313E-01 -0.24464296796E+02  0.28293647529E+02  0.00000000000E+00 0.  1.
</event>
<event>
 7    1  0.3221417E-010  0.4778731E+02  0.7816164E-02  0.1312668E+00
        -11   -1    0    0    0    0  0.00000000000E+00  0.00000000000E+00  0.45593999997E+02  0.45594000000E+02  0.51100000000E-03 0. -1.
         11   -1    0    0    0    0 -0.00000000000E+00 -0.00000000000E+00 -0.45593999997E+02  0.45594000000E+02  0.51100000000E-03 0.  1.
    9900012    2    1    2    0    0  0.24298873389E+02  0.13631356377E+02  0.33277186643E+02  0.47787305587E+02  0.20000157493E+02 0.  0.
        -12    1    1    2    0    0 -0.24298873389E+02 -0.13631356377E+02 -0.33277186643E+02  0.43400694413E+02  0.00000000000E+00 0.  1.
         11    1    3    3    0    0  0.97181544964E+01  0.14536576180E+01  0.18009266426E+02  0.20515587360E+02  0.51100000000E-03 0. -1.
        -11    1    3    3    0    0  0.12849873977E+02  0.12821550276E+02  0.16904104814E+02  0.24804438565E+02  0.51100000000E-03 0.  1.
        -12    1    3    3    0    0  0.17308449160E+01 -0.64385151677E+00 -0.16361845964E+01  0.24672796624E+01  0.00000000000E+00 0.  1.
</event>
<event>
 7    1  0.3221417E-010  0.4778728E+02  0.7816164E-02  0.1312668E+00
        -11   -1    0    0    0    0  0.00000000000E+00  0.00000000000E+00  0.45593999997E+02  0.45594000000E+02  0.51100000000E-03 0.  1.
         11   -1    0    0    0    0 -0.00000000000E+00 -0.00000000000E+00 -0.45593999997E+02  0.45594000000E+02  0.51100000000E-03 0. -1.
    9900012    2    1    2    0    0  0.28517902838E+02  0.32561903368E+02 -0.31740199664E+01  0.47787277241E+02  0.20000028254E+02 0.  0.
         12    1    1    2    0    0 -0.28517902838E+02 -0.32561903368E+02  0.31740199664E+01  0.43400722759E+02  0.00000000000E+00 0. -1.
         11    1    3    3    0    0  0.43661967384E+01  0.45066807025E+01  0.36259002430E+01  0.72471372104E+01  0.51100000000E-03 0. -1.
        -11    1    3    3    0    0 -0.43893128119E+00 -0.13864507024E+01  0.40385588465E+00  0.15093064820E+01  0.51100000000E-03 0.  1.
        -12    1    3    3    0    0  0.24590637381E+02  0.29441673368E+02 -0.72037760941E+01  0.39030833549E+02  0.00000000000E+00 0.  1.
</event>
<event>
 7    1  0.3221417E-010  0.4778722E+02  0.7816164E-02  0.1312668E+00
        -11   -1    0    0    0    0  0.00000000000E+00  0.00000000000E+00  0.45593999997E+02  0.45594000000E+02  0.51100000000E-03 0. -1.
         11   -1    0    0    0    0 -0.00000000000E+00 -0.00000000000E+00 -0.45593999997E+02  0.45594000000E+02  0.51100000000E-03 0.  1.
    9900012    2    1    2    0    0 -0.30397824764E+02 -0.33651238098E+01 -0.30794089054E+02  0.47787219715E+02  0.19999765968E+02 0.  0.
         12    1    1    2    0    0  0.30397824764E+02  0.33651238098E+01  0.30794089054E+02  0.43400780285E+02  0.00000000000E+00 0. -1.
         11    1    3    3    0    0 -0.35378456271E+01 -0.31758998879E+01  0.21730039760E+01  0.52272974203E+01  0.51100000000E-03 0. -1.
        -11    1    3    3    0    0 -0.16033437030E+02 -0.96587317358E+00 -0.19679120601E+02  0.25402200729E+02  0.51100000000E-03 0.  1.
         12    1    3    3    0    0 -0.10826542107E+02  0.77664925172E+00 -0.13287972429E+02  0.17157721566E+02  0.00000000000E+00 0. -1.
</event>
<event>
 7    1  0.3221417E-010  0.4778728E+02  0.7816164E-02  0.1312668E+00
        -11   -1    0    0    0    0  0.00000000000E+00  0.00000000000E+00  0.45593999997E+02  0.45594000000E+02  0.51100000000E-03 0. -1.
         11   -1    0    0    0    0 -0.00000000000E+00 -0.00000000000E+00 -0.45593999997E+02  0.45594000000E+02  0.51100000000E-03 0.  1.
    9900012    2    1    2    0    0  0.22740574187E+01 -0.42272927042E+02  0.95630047786E+01  0.47787276985E+02  0.20000027084E+02 0.  0.
        -12    1    1    2    0    0 -0.22740574187E+01  0.42272927042E+02 -0.95630047786E+01  0.43400723015E+02  0.00000000000E+00 0.  1.
         11    1    3    3    0    0 -0.51482931610E+01 -0.34400797170E+02  0.28442419930E+01  0.34899992567E+02  0.51100000000E-03 0. -1.
        -11    1    3    3    0    0  0.25390156980E+01 -0.20188818815E+01  0.11292946376E+01  0.34347913191E+01  0.51100000000E-03 0.  1.
         12    1    3    3    0    0  0.48833348817E+01 -0.58532479909E+01  0.55894681480E+01  0.94524930990E+01  0.00000000000E+00 0. -1.
</event>
<event>
 7    1  0.3221417E-010  0.4778728E+02  0.7816164E-02  0.1312668E+00
        -11   -1    0    0    0    0  0.00000000000E+00  0.00000000000E+00  0.45593999997E+02  0.45594000000E+02  0.51100000000E-03 0. -1.
         11   -1    0    0    0    0 -0.00000000000E+00 -0.00000000000E+00 -0.45593999997E+02  0.45594000000E+02  0.51100000000E-03 0.  1.
    9900012    2    1    2    0    0  0.18333398020E+02 -0.25728831774E+02 -0.29757957682E+02  0.47787282116E+02  0.20000050480E+02 0.  0.
         12    1    1    2    0    0 -0.18333398020E+02  0.25728831774E+02  0.29757957682E+02  0.43400717884E+02  0.00000000000E+00 0. -1.
         11    1    3    3    0    0  0.37894631043E+01 -0.15222428276E+01  0.15141611623E+01  0.43554492456E+01  0.51100000000E-03 0. -1.
        -11    1    3    3    0    0  0.15198238816E+00 -0.82347815177E+01 -0.12028171054E+02  0.14577778447E+02  0.51100000000E-03 0.  1.
        -12    1    3    3    0    0  0.14391952528E+02 -0.15971807429E+02 -0.19243947790E+02  0.28854054424E+02  0.00000000000E+00 0.  1.
</event>
<event>
 7    1  0.3221417E-010  0.4778727E+02  0.7816164E-02  0.1312668E+00
        -11   -1    0    0    0    0  0.00000000000E+00  0.00000000000E+00  0.45593999997E+02  0.45594000000E+02  0.51100000000E-03 0. -1.
         11   -1    0    0    0    0 -0.00000000000E+00 -0.00000000000E+00 -0.45593999997E+02  0.45594000000E+02  0.51100000000E-03 0.  1.
    9900012    2    1    2    0    0  0.21408021884E+02  0.30078397248E+02 -0.22816878434E+02  0.47787270474E+02  0.19999997397E+02 0.  0.
         12    1    1    2    0    0 -0.21408021884E+02 -0.30078397248E+02  0.22816878434E+02  0.43400729526E+02  0.00000000000E+00 0. -1.
         11    1    3    3    0    0  0.10365002001E+02  0.14264241242E+02 -0.53052763759E+00  0.17640388446E+02  0.51100000000E-03 0. -1.
        -11    1    3    3    0    0  0.72030853865E+01  0.52611222516E+01 -0.80570537362E+01  0.12019981764E+02  0.51100000000E-03 0.  1.
         12    1    3    3    0    0  0.38399344960E+01  0.10553033754E+02 -0.14229297060E+02  0.18126900263E+02  0.00000000000E+00 0. -1.
</event>
<event>
 7    1  0.3395717E-010  0.4778727E+02  0.7816164E-02  0.1312668E+00
        -11   -1    0    0    0    0  0.00000000000E+00  0.00000000000E+00  0.45593999997E+02  0.45594000000E+02  0.51100000000E-03 0. -1.
         11   -1    0    0    0    0 -0.00000000000E+00 -0.00000000000E+00 -0.45593999997E+02  0.45594000000E+02  0.51100000000E-03 0.  1.
    9900012    2    1    2    0    0 -0.24786020664E+02  0.10886667703E+02 -0.33922809966E+02  0.47787269706E+02  0.19999993899E+02 0.  0.
         12    1    1    2    0    0  0.24786020664E+02 -0.10886667703E+02  0.33922809966E+02  0.43400730294E+02  0.00000000000E+00 0. -1.
         11    1    3    3    0    0 -0.77488723633E+01  0.17733202431E+00 -0.26302942210E+01  0.81850423029E+01  0.51100000000E-03 0. -1.
        -11    1    3    3    0    0 -0.11642798243E+02  0.12379026494E+02 -0.16161466523E+02  0.23451823986E+02  0.51100000000E-03 0.  1.
         12    1    3    3    0    0 -0.53943500582E+01 -0.16696908151E+01 -0.15131049222E+02  0.16150403417E+02  0.00000000000E+00 0. -1.
</event>
<event>
 7    1  0.3221417E-010  0.4778728E+02  0.7816164E-02  0.1312668E+00
        -11   -1    0    0    0    0  0.00000000000E+00  0.00000000000E+00  0.45593999997E+02  0.45594000000E+02  0.51100000000E-03 0. -1.
         11   -1    0    0    0    0 -0.00000000000E+00 -0.00000000000E+00 -0.45593999997E+02  0.45594000000E+02  0.51100000000E-03 0.  1.
    9900012    2    1    2    0    0 -0.44199620262E+01 -0.22117067256E+01 -0.43118384462E+02  0.47787276624E+02  0.20000025439E+02 0.  0.
         12    1    1    2    0    0  0.44199620262E+01  0.22117067256E+01  0.43118384462E+02  0.43400723376E+02  0.00000000000E+00 0. -1.
         11    1    3    3    0    0  0.37864311759E+01  0.37609551696E+01 -0.98357343419E+01  0.11190331324E+02  0.51100000000E-03 0. -1.
        -11    1    3    3    0    0 -0.74157145427E+01 -0.12337825212E+01 -0.84767076955E+01  0.11330031558E+02  0.51100000000E-03 0.  1.
        -12    1    3    3    0    0 -0.79067865944E+00 -0.47388793740E+01 -0.24805942425E+02  0.25266913742E+02  0.00000000000E+00 0.  1.
</event>
<event>
 7    1  0.3221417E-010  0.4778727E+02  0.7816164E-02  0.1312668E+00
        -11   -1    0    0    0    0  0.00000000000E+00  0.00000000000E+00  0.45593999997E+02  0.45594000000E+02  0.51100000000E-03 0. -1.
         11   -1    0    0    0    0 -0.00000000000E+00 -0.00000000000E+00 -0.45593999997E+02  0.45594000000E+02  0.51100000000E-03 0.  1.
    9900012    2    1    2    0    0  0.71135235069E+01 -0.36364237444E+02 -0.22597866925E+02  0.47787267620E+02  0.19999984387E+02 0.  0.
         12    1    1    2    0    0 -0.71135235069E+01  0.36364237444E+02  0.22597866925E+02  0.43400732380E+02  0.00000000000E+00 0. -1.
         11    1    3    3    0    0  0.35377701242E+01 -0.24988086886E+02 -0.45515343912E+01  0.25644429595E+02  0.51100000000E-03 0. -1.
        -11    1    3    3    0    0  0.26501580889E+01 -0.79458361921E+01 -0.83980592613E+01  0.11861157208E+02  0.51100000000E-03 0.  1.
         12    1    3    3    0    0  0.92559529378E+00 -0.34303143661E+01 -0.96482732723E+01  0.10281680818E+02  0.00000000000E+00 0. -1.
</event>
<event>
 7    1  0.3221417E-010  0.4778727E+02  0.7816164E-02  0.1312668E+00
        -11   -1    0    0    0    0  0.00000000000E+00  0.00000000000E+00  0.45593999997E+02  0.45594000000E+02  0.51100000000E-03 0.  1.
         11   -1    0    0    0    0 -0.00000000000E+00 -0.00000000000E+00 -0.45593999997E+02  0.45594000000E+02  0.51100000000E-03 0. -1.
    9900012    2    1    2    0    0 -0.22880520759E+02 -0.22396052674E+02 -0.29300552061E+02  0.47787265482E+02  0.19999974640E+02 0.  0.
         12    1    1    2    0    0  0.22880520759E+02  0.22396052674E+02  0.29300552061E+02  0.43400734518E+02  0.00000000000E+00 0. -1.
         11    1    3    3    0    0 -0.73595459216E+01 -0.29604747558E+00 -0.12563776365E+02  0.14563620329E+02  0.51100000000E-03 0. -1.
        -11    1    3    3    0    0 -0.13887369367E+02 -0.11662035377E+02 -0.10663194105E+02  0.21037248057E+02  0.51100000000E-03 0.  1.
        -12    1    3    3    0    0 -0.16336054712E+01 -0.10437969821E+02 -0.60735815913E+01  0.12186397096E+02  0.00000000000E+00 0.  1.
</event>
<event>
 7    1  0.3221417E-010  0.4778729E+02  0.7816164E-02  0.1312668E+00
        -11   -1    0    0    0    0  0.00000000000E+00  0.00000000000E+00  0.45593999997E+02  0.45594000000E+02  0.51100000000E-03 0. -1.
         11   -1    0    0    0    0 -0.00000000000E+00 -0.00000000000E+00 -0.45593999997E+02  0.45594000000E+02  0.51100000000E-03 0.  1.
    9900012    2    1    2    0    0 -0.45831439511E+01 -0.13295281054E+02 -0.41059122744E+02  0.47787294161E+02  0.20000105398E+02 0.  0.
         12    1    1    2    0    0  0.45831439511E+01  0.13295281054E+02  0.41059122744E+02  0.43400705839E+02  0.00000000000E+00 0. -1.
         11    1    3    3    0    0  0.48299112627E+01 -0.32215805153E+01 -0.28026018778E+01  0.64467977608E+01  0.51100000000E-03 0. -1.
        -11    1    3    3    0    0 -0.54049106241E+01 -0.67373725109E+00 -0.13623487440E+02  0.14671959345E+02  0.51100000000E-03 0.  1.
        -12    1    3    3    0    0 -0.40081445897E+01 -0.93999632876E+01 -0.24633033426E+02  0.26668537055E+02  0.00000000000E+00 0.  1.
</event>
<event>
 7    1  0.3221417E-010  0.4778727E+02  0.7816164E-02  0.1312668E+00
        -11   -1    0    0    0    0  0.00000000000E+00  0.00000000000E+00  0.45593999997E+02  0.45594000000E+02  0.51100000000E-03 0. -1.
         11   -1    0    0    0    0 -0.00000000000E+00 -0.00000000000E+00 -0.45593999997E+02  0.45594000000E+02  0.51100000000E-03 0.  1.
    9900012    2    1    2    0    0 -0.75692776440E+01 -0.14498398105E+02 -0.40201064924E+02  0.47787272671E+02  0.20000007415E+02 0.  0.
         12    1    1    2    0    0  0.75692776440E+01  0.14498398105E+02  0.40201064924E+02  0.43400727329E+02  0.00000000000E+00 0. -1.
         11    1    3    3    0    0  0.17843758781E+01  0.28029958921E+01 -0.29091440745E+01  0.44163223108E+01  0.51100000000E-03 0. -1.
        -11    1    3    3    0    0 -0.49910771115E+00 -0.10537198337E+02 -0.22515288006E+02  0.24864027259E+02  0.51100000000E-03 0.  1.
        -12    1    3    3    0    0 -0.88545458109E+01 -0.67641956605E+01 -0.14776632844E+02  0.18506923101E+02  0.00000000000E+00 0.  1.
</event>
<event>
 7    1  0.3221417E-010  0.4778728E+02  0.7816164E-02  0.1312668E+00
        -11   -1    0    0    0    0  0.00000000000E+00  0.00000000000E+00  0.45593999997E+02  0.45594000000E+02  0.51100000000E-03 0. -1.
         11   -1    0    0    0    0 -0.00000000000E+00 -0.00000000000E+00 -0.45593999997E+02  0.45594000000E+02  0.51100000000E-03 0.  1.
    9900012    2    1    2    0    0  0.27430918521E+02 -0.74954361157E+01  0.32786979543E+02  0.47787275570E+02  0.20000020633E+02 0.  0.
        -12    1    1    2    0    0 -0.27430918521E+02  0.74954361157E+01 -0.32786979543E+02  0.43400724430E+02  0.00000000000E+00 0.  1.
         11    1    3    3    0    0  0.39646417450E+01  0.36028762075E+01  0.32148433294E+01  0.62477451154E+01  0.51100000000E-03 0. -1.
        -11    1    3    3    0    0  0.15994085886E+02 -0.42805611734E+01  0.25976366476E+02  0.30804311432E+02  0.51100000000E-03 0.  1.
        -12    1    3    3    0    0  0.74721908903E+01 -0.68177511499E+01  0.35957697385E+01  0.10735219022E+02  0.00000000000E+00 0.  1.
</event>
<event>
 7    1  0.3221417E-010  0.4778727E+02  0.7816164E-02  0.1312668E+00
        -11   -1    0    0    0    0  0.00000000000E+00  0.00000000000E+00  0.45593999997E+02  0.45594000000E+02  0.51100000000E-03 0. -1.
         11   -1    0    0    0    0 -0.00000000000E+00 -0.00000000000E+00 -0.45593999997E+02  0.45594000000E+02  0.51100000000E-03 0.  1.
    9900012    2    1    2    0    0  0.17835682680E+02  0.12779189365E+02  0.37446010448E+02  0.47787274707E+02  0.20000016698E+02 0.  0.
        -12    1    1    2    0    0 -0.17835682680E+02 -0.12779189365E+02 -0.37446010448E+02  0.43400725293E+02  0.00000000000E+00 0.  1.
         11    1    3    3    0    0  0.66121607161E+01  0.71735183775E+01  0.79720919261E+01  0.12598979530E+02  0.51100000000E-03 0. -1.
        -11    1    3    3    0    0  0.68789799528E+01  0.60440090942E+01  0.52116302347E+01  0.10536199556E+02  0.51100000000E-03 0.  1.
        -12    1    3    3    0    0  0.43445420115E+01 -0.43833810672E+00  0.24262288287E+02  0.24652095621E+02  0.00000000000E+00 0.  1.
</event>
<event>
 7    1  0.3221417E-010  0.4778727E+02  0.7816164E-02  0.1312668E+00
        -11   -1    0    0    0    0  0.00000000000E+00  0.00000000000E+00  0.45593999997E+02  0.45594000000E+02  0.51100000000E-03 0. -1.
         11   -1    0    0    0    0 -0.00000000000E+00 -0.00000000000E+00 -0.45593999997E+02  0.45594000000E+02  0.51100000000E-03 0.  1.
    9900012    2    1    2    0    0 -0.27719869074E+02  0.18090780198E+02  0.28070553536E+02  0.47787269068E+02  0.19999990988E+02 0.  0.
        -12    1    1    2    0    0  0.27719869074E+02 -0.18090780198E+02 -0.28070553536E+02  0.43400730932E+02  0.00000000000E+00 0.  1.
         11    1    3    3    0    0 -0.55948147190E+01 -0.95786988192E+00  0.88819353014E+01  0.10540789411E+02  0.51100000000E-03 0. -1.
        -11    1    3    3    0    0 -0.71774104567E+01  0.85417255953E+01  0.58660039158E+00  0.11172304923E+02  0.51100000000E-03 0.  1.
         12    1    3    3    0    0 -0.14947643898E+02  0.10506924484E+02  0.18602017843E+02  0.26074174734E+02  0.00000000000E+00 0. -1.
</event>
<event>
 7    1  0.3221417E-010  0.4778727E+02  0.7816164E-02  0.1312668E+00
        -11   -1    0    0    0    0  0.00000000000E+00  0.00000000000E+00  0.45593999997E+02  0.45594000000E+02  0.51100000000E-03 0.  1.
         11   -1    0    0    0    0 -0.00000000000E+00 -0.00000000000E+00 -0.45593999997E+02  0.45594000000E+02  0.51100000000E-03 0. -1.
    9900012    2    1    2    0    0  0.42075768991E+02  0.10176532103E+02 -0.31130616022E+01  0.47787270808E+02  0.19999998922E+02 0.  0.
         12    1    1    2    0    0 -0.42075768991E+02 -0.10176532103E+02  0.31130616022E+01  0.43400729192E+02  0.00000000000E+00 0. -1.
         11    1    3    3    0    0  0.64974506512E-01 -0.20921183275E+00 -0.15026700592E+01  0.15185548543E+01  0.51100000000E-03 0. -1.
        -11    1    3    3    0    0  0.41320027610E+02  0.60548012618E+01 -0.58795451050E+00  0.41765428176E+02  0.51100000000E-03 0.  1.
        -12    1    3    3    0    0  0.69076687519E+00  0.43309426742E+01 -0.10224370324E+01  0.45032877776E+01  0.00000000000E+00 0.  1.
</event>
<event>
 7    1  0.3221417E-010  0.4778726E+02  0.7816164E-02  0.1312668E+00
        -11   -1    0    0    0    0  0.00000000000E+00  0.00000000000E+00  0.45593999997E+02  0.45594000000E+02  0.51100000000E-03 0.  1.
         11   -1    0    0    0    0 -0.00000000000E+00 -0.00000000000E+00 -0.45593999997E+02  0.45594000000E+02  0.51100000000E-03 0. -1.
    9900012    2    1    2    0    0 -0.31706530988E+02  0.13046863157E+02  0.26610142847E+02  0.47787257520E+02  0.19999938335E+02 0.  0.
        -12    1    1    2    0    0  0.31706530988E+02 -0.13046863157E+02 -0.26610142847E+02  0.43400742480E+02  0.00000000000E+00 0.  1.
         11    1    3    3    0    0 -0.15023062781E+02  0.30330722770E+01  0.17896545845E+02  0.23562221801E+02  0.51100000000E-03 0. -1.
        -11    1    3    3    0    0  0.47031233560E-01 -0.56534853700E+00  0.37833486015E+01  0.38256447570E+01  0.51100000000E-03 0.  1.
        -12    1    3    3    0    0 -0.16730499440E+02  0.10579139417E+02  0.49302484005E+01  0.20399390962E+02  0.00000000000E+00 0.  1.
</event>
<event>
 7    1  0.3221417E-010  0.4778728E+02  0.7816164E-02  0.1312668E+00
        -11   -1    0    0    0    0  0.00000000000E+00  0.00000000000E+00  0.45593999997E+02  0.45594000000E+02  0.51100000000E-03 0. -1.
         11   -1    0    0    0    0 -0.00000000000E+00 -0.00000000000E+00 -0.45593999997E+02  0.45594000000E+02  0.51100000000E-03 0.  1.
    9900012    2    1    2    0    0 -0.21313349090E+02 -0.22296314364E+02 -0.30532579046E+02  0.47787275734E+02  0.20000021380E+02 0.  0.
         12    1    1    2    0    0  0.21313349090E+02  0.22296314364E+02  0.30532579046E+02  0.43400724266E+02  0.00000000000E+00 0. -1.
         11    1    3    3    0    0 -0.15849038800E+02 -0.23247910309E+02 -0.27093508071E+02  0.39060408913E+02  0.51100000000E-03 0. -1.
        -11    1    3    3    0    0 -0.37362584469E+01  0.60240689919E+00 -0.50689681696E+01  0.63258959697E+01  0.51100000000E-03 0.  1.
         12    1    3    3    0    0 -0.17280518427E+01  0.34918904562E+00  0.16298971947E+01  0.24009708507E+01  0.00000000000E+00 0. -1.
</event>
<event>
 7    1  0.3221417E-010  0.4778727E+02  0.7816164E-02  0.1312668E+00
        -11   -1    0    0    0    0  0.00000000000E+00  0.00000000000E+00  0.45593999997E+02  0.45594000000E+02  0.51100000000E-03 0.  1.
         11   -1    0    0    0    0 -0.00000000000E+00 -0.00000000000E+00 -0.45593999997E+02  0.45594000000E+02  0.51100000000E-03 0. -1.
    9900012    2    1    2    0    0  0.39048626602E+02  0.18452770746E+02 -0.42805758765E+01  0.47787270542E+02  0.19999997707E+02 0.  0.
        -12    1    1    2    0    0 -0.39048626602E+02 -0.18452770746E+02  0.42805758765E+01  0.43400729458E+02  0.00000000000E+00 0.  1.
         11    1    3    3    0    0  0.28014579125E+02  0.66946687566E+01 -0.54324509469E+01  0.29311205312E+02  0.51100000000E-03 0. -1.
        -11    1    3    3    0    0  0.20333882095E+01  0.38571911478E+01 -0.35368924721E+01  0.56144634456E+01  0.51100000000E-03 0.  1.
         12    1    3    3    0    0  0.90006592672E+01  0.79009108419E+01  0.46887675425E+01  0.12861601784E+02  0.00000000000E+00 0. -1.
</event>
<event>
 7    1  0.3221417E-010  0.4778728E+02  0.7816164E-02  0.1312668E+00
        -11   -1    0    0    0    0  0.00000000000E+00  0.00000000000E+00  0.45593999997E+02  0.45594000000E+02  0.51100000000E-03 0. -1.
         11   -1    0    0    0    0 -0.00000000000E+00 -0.00000000000E+00 -0.45593999997E+02  0.45594000000E+02  0.51100000000E-03 0.  1.
    9900012    2    1    2    0    0  0.13432465883E+02  0.40865647697E+02  0.57611070885E+01  0.47787278159E+02  0.20000032440E+02 0.  0.
         12    1    1    2    0    0 -0.13432465883E+02 -0.40865647697E+02 -0.57611070885E+01  0.43400721841E+02  0.00000000000E+00 0. -1.
         11    1    3    3    0    0 -0.24893738613E+01  0.79875256970E+01  0.40824572886E+01  0.93093505013E+01  0.51100000000E-03 0.  1.
        -11    1    3    3    0    0  0.59764414050E+01  0.15907673898E+02 -0.49858495096E+01  0.17709619880E+02  0.51100000000E-03 0. -1.
         12    1    3    3    0    0  0.99453983388E+01  0.16970448102E+02  0.66644993095E+01  0.20768307778E+02  0.00000000000E+00 0. -1.
</event>
<event>
 7    1  0.3221417E-010  0.4778725E+02  0.7816164E-02  0.1312668E+00
        -11   -1    0    0    0    0  0.00000000000E+00  0.00000000000E+00  0.45593999997E+02  0.45594000000E+02  0.51100000000E-03 0. -1.
         11   -1    0    0    0    0 -0.00000000000E+00 -0.00000000000E+00 -0.45593999997E+02  0.45594000000E+02  0.51100000000E-03 0.  1.
    9900012    2    1    2    0    0 -0.11314343919E+02  0.34941145742E+02  0.23124166230E+02  0.47787249916E+02  0.19999903666E+02 0.  0.
        -12    1    1    2    0    0  0.11314343919E+02 -0.34941145742E+02 -0.23124166230E+02  0.43400750084E+02  0.00000000000E+00 0.  1.
         11    1    3    3    0    0 -0.11218963685E+02  0.31509693134E+02  0.17789826339E+02  0.37884084112E+02  0.51100000000E-03 0. -1.
        -11    1    3    3    0    0  0.15966941976E+01 -0.18282812942E+00  0.56747318168E+01  0.58979182717E+01  0.51100000000E-03 0.  1.
         12    1    3    3    0    0 -0.16920744317E+01  0.36142807372E+01 -0.34039192645E+00  0.40052475321E+01  0.00000000000E+00 0. -1.
</event>
<event>
 7    1  0.3221417E-010  0.4778728E+02  0.7816164E-02  0.1312668E+00
        -11   -1    0    0    0    0  0.00000000000E+00  0.00000000000E+00  0.45593999997E+02  0.45594000000E+02  0.51100000000E-03 0. -1.
         11   -1    0    0    0    0 -0.00000000000E+00 -0.00000000000E+00 -0.45593999997E+02  0.45594000000E+02  0.51100000000E-03 0.  1.
    9900012    2    1    2    0    0 -0.18322285916E+02 -0.87077359669E+01  0.38367851457E+02  0.47787275902E+02  0.20000022146E+02 0.  0.
        -12    1    1    2    0    0  0.18322285916E+02  0.87077359669E+01 -0.38367851457E+02  0.43400724098E+02  0.00000000000E+00 0.  1.
         11    1    3    3    0    0 -0.55480788494E+01 -0.49857509138E+01  0.41644599306E+01  0.85429279448E+01  0.51100000000E-03 0. -1.
        -11    1    3    3    0    0 -0.45500597993E+01  0.49532851705E+01  0.80604899516E+01  0.10498074903E+02  0.51100000000E-03 0.  1.
        -12    1    3    3    0    0 -0.82241472671E+01 -0.86752702236E+01  0.26142901575E+02  0.28746273053E+02  0.00000000000E+00 0.  1.
</event>
<event>
 7    1  0.3221417E-010  0.4778727E+02  0.7816164E-02  0.1312668E+00
        -11   -1    0    0    0    0  0.00000000000E+00  0.00000000000E+00  0.45593999997E+02  0.45594000000E+02  0.51100000000E-03 0.  1.
         11   -1    0    0    0    0 -0.00000000000E+00 -0.00000000000E+00 -0.45593999997E+02  0.45594000000E+02  0.51100000000E-03 0. -1.
    9900012    2    1    2    0    0 -0.10002801574E+02 -0.35661214918E+02 -0.22623994480E+02  0.47787269418E+02  0.19999992586E+02 0.  0.
         12    1    1    2    0    0  0.10002801574E+02  0.35661214918E+02  0.22623994480E+02  0.43400730582E+02  0.00000000000E+00 0. -1.
         11    1    3    3    0    0 -0.10598187642E+00 -0.92956763431E-01  0.13259449513E+01  0.13334179363E+01  0.51100000000E-03 0. -1.
        -11    1    3    3    0    0 -0.11629383157E+01 -0.26552270706E+02 -0.12140678876E+02  0.29219370099E+02  0.51100000000E-03 0.  1.
         12    1    3    3    0    0 -0.87338813817E+01 -0.90159874492E+01 -0.11809260555E+02  0.17234481383E+02  0.00000000000E+00 0. -1.
</event>
<event>
 7    1  0.3221417E-010  0.4778727E+02  0.7816164E-02  0.1312668E+00
        -11   -1    0    0    0    0  0.00000000000E+00  0.00000000000E+00  0.45593999997E+02  0.45594000000E+02  0.51100000000E-03 0. -1.
         11   -1    0    0    0    0 -0.00000000000E+00 -0.00000000000E+00 -0.45593999997E+02  0.45594000000E+02  0.51100000000E-03 0.  1.
    9900012    2    1    2    0    0 -0.29190382927E+01 -0.16414739649E+02 -0.40070672153E+02  0.47787271561E+02  0.20000002353E+02 0.  0.
         12    1    1    2    0    0  0.29190382927E+01  0.16414739649E+02  0.40070672153E+02  0.43400728439E+02  0.00000000000E+00 0. -1.
         11    1    3    3    0    0  0.21321705257E+01 -0.85000355023E+01 -0.12593222116E+02  0.15342294425E+02  0.51100000000E-03 0.  1.
        -11    1    3    3    0    0 -0.47288947922E+01 -0.49966459135E+00 -0.88587419774E+00  0.48370325629E+01  0.51100000000E-03 0. -1.
        -12    1    3    3    0    0 -0.32231402622E+00 -0.74150395558E+01 -0.26591575838E+02  0.27607944572E+02  0.00000000000E+00 0.  1.
</event>
<event>
 7    1  0.3221417E-010  0.4778724E+02  0.7816164E-02  0.1312668E+00
        -11   -1    0    0    0    0  0.00000000000E+00  0.00000000000E+00  0.45593999997E+02  0.45594000000E+02  0.51100000000E-03 0.  1.
         11   -1    0    0    0    0 -0.00000000000E+00 -0.00000000000E+00 -0.45593999997E+02  0.45594000000E+02  0.51100000000E-03 0. -1.
    9900012    2    1    2    0    0  0.25742443635E+02  0.29672780723E+02  0.18452054060E+02  0.47787244026E+02  0.19999876810E+02 0.  0.
         12    1    1    2    0    0 -0.25742443635E+02 -0.29672780723E+02 -0.18452054060E+02  0.43400755974E+02  0.00000000000E+00 0. -1.
         11    1    3    3    0    0  0.26595484564E+01  0.12186983471E+02  0.47322050337E+00  0.12482776214E+02  0.51100000000E-03 0.  1.
        -11    1    3    3    0    0  0.15106498898E+02  0.12784018122E+02  0.71143293666E+01  0.21029767258E+02  0.51100000000E-03 0. -1.
        -12    1    3    3    0    0  0.79763962808E+01  0.47017791295E+01  0.10864504190E+02  0.14274700554E+02  0.00000000000E+00 0.  1.
</event>
<event>
 7    1  0.3221417E-010  0.4778727E+02  0.7816164E-02  0.1312668E+00
        -11   -1    0    0    0    0  0.00000000000E+00  0.00000000000E+00  0.45593999997E+02  0.45594000000E+02  0.51100000000E-03 0. -1.
         11   -1    0    0    0    0 -0.00000000000E+00 -0.00000000000E+00 -0.45593999997E+02  0.45594000000E+02  0.51100000000E-03 0.  1.
    9900012    2    1    2    0    0  0.35259354510E+02  0.17498927506E+02 -0.18280842048E+02  0.47787265786E+02  0.19999976025E+02 0.  0.
         12    1    1    2    0    0 -0.35259354510E+02 -0.17498927506E+02  0.18280842048E+02  0.43400734214E+02  0.00000000000E+00 0. -1.
         11    1    3    3    0    0  0.16508205032E+02  0.50420172545E+01 -0.56781854629E+01  0.18170981311E+02  0.51100000000E-03 0. -1.
        -11    1    3    3    0    0  0.36347925125E+01  0.17287109052E+01 -0.10149252122E+02  0.10918217661E+02  0.51100000000E-03 0.  1.
        -12    1    3    3    0    0  0.15116356965E+02  0.10728199347E+02 -0.24534044630E+01  0.18698066814E+02  0.00000000000E+00 0.  1.
</event>
<event>
 7    1  0.3221417E-010  0.4778727E+02  0.7816164E-02  0.1312668E+00
        -11   -1    0    0    0    0  0.00000000000E+00  0.00000000000E+00  0.45593999997E+02  0.45594000000E+02  0.51100000000E-03 0. -1.
         11   -1    0    0    0    0 -0.00000000000E+00 -0.00000000000E+00 -0.45593999997E+02  0.45594000000E+02  0.51100000000E-03 0.  1.
    9900012    2    1    2    0    0 -0.15277982326E+02 -0.31047681072E+02 -0.26196329847E+02  0.47787274875E+02  0.20000017466E+02 0.  0.
         12    1    1    2    0    0  0.15277982326E+02  0.31047681072E+02  0.26196329847E+02  0.43400725125E+02  0.00000000000E+00 0. -1.
         11    1    3    3    0    0 -0.53722269989E+01 -0.17053757903E+01 -0.55032340630E+01  0.78774815092E+01  0.51100000000E-03 0. -1.
        -11    1    3    3    0    0 -0.86181019864E+01 -0.22937527165E+02 -0.82477120625E+01  0.25853947258E+02  0.51100000000E-03 0.  1.
         12    1    3    3    0    0 -0.12876533411E+01 -0.64047781172E+01 -0.12445383721E+02  0.14055846108E+02  0.00000000000E+00 0. -1.
</event>
<event>
 7    1  0.3221417E-010  0.4778727E+02  0.7816164E-02  0.1312668E+00
        -11   -1    0    0    0    0  0.00000000000E+00  0.00000000000E+00  0.45593999997E+02  0.45594000000E+02  0.51100000000E-03 0. -1.
         11   -1    0    0    0    0 -0.00000000000E+00 -0.00000000000E+00 -0.45593999997E+02  0.45594000000E+02  0.51100000000E-03 0.  1.
    9900012    2    1    2    0    0 -0.19570108430E+02  0.36182459248E+02 -0.13837042934E+02  0.47787271223E+02  0.20000000813E+02 0.  0.
         12    1    1    2    0    0  0.19570108430E+02 -0.36182459248E+02  0.13837042934E+02  0.43400728777E+02  0.00000000000E+00 0. -1.
         11    1    3    3    0    0 -0.87793113749E+01  0.60366785558E+01 -0.26478659414E+01  0.10978569602E+02  0.51100000000E-03 0. -1.
        -11    1    3    3    0    0 -0.60166026167E+01  0.27970578672E+02 -0.56191873415E+01  0.29156955344E+02  0.51100000000E-03 0.  1.
        -12    1    3    3    0    0 -0.47741944387E+01  0.21752020206E+01 -0.55699896513E+01  0.76517462768E+01  0.00000000000E+00 0.  1.
</event>
<event>
 7    1  0.3221417E-010  0.4778724E+02  0.7816164E-02  0.1312668E+00
        -11   -1    0    0    0    0  0.00000000000E+00  0.00000000000E+00  0.45593999997E+02  0.45594000000E+02  0.51100000000E-03 0.  1.
         11   -1    0    0    0    0 -0.00000000000E+00 -0.00000000000E+00 -0.45593999997E+02  0.45594000000E+02  0.51100000000E-03 0. -1.
    9900012    2    1    2    0    0  0.40714614066E+02 -0.33418007439E+01 -0.14655337553E+02  0.47787235611E+02  0.19999838443E+02 0.  0.
         12    1    1    2    0    0 -0.40714614066E+02  0.33418007439E+01  0.14655337553E+02  0.43400764389E+02  0.00000000000E+00 0. -1.
         11    1    3    3    0    0  0.21805489889E+02 -0.75100004970E+01 -0.88889133146E+01  0.24716235089E+02  0.51100000000E-03 0. -1.
        -11    1    3    3    0    0  0.19428895474E+02  0.20675601057E+01 -0.33438614157E+01  0.19822668679E+02  0.51100000000E-03 0.  1.
        -12    1    3    3    0    0 -0.51977129753E+00  0.21006396475E+01 -0.24225628229E+01  0.32483318428E+01  0.00000000000E+00 0.  1.
</event>
<event>
 7    1  0.3221417E-010  0.4778727E+02  0.7816164E-02  0.1312668E+00
        -11   -1    0    0    0    0  0.00000000000E+00  0.00000000000E+00  0.45593999997E+02  0.45594000000E+02  0.51100000000E-03 0. -1.
         11   -1    0    0    0    0 -0.00000000000E+00 -0.00000000000E+00 -0.45593999997E+02  0.45594000000E+02  0.51100000000E-03 0.  1.
    9900012    2    1    2    0    0 -0.19307713685E+02 -0.26542082326E+02  0.28396356504E+02  0.47787274146E+02  0.20000014141E+02 0.  0.
        -12    1    1    2    0    0  0.19307713685E+02  0.26542082326E+02 -0.28396356504E+02  0.43400725854E+02  0.00000000000E+00 0.  1.
         11    1    3    3    0    0 -0.86176414197E+01 -0.67463078816E+00  0.10257310429E+02  0.13413846869E+02  0.51100000000E-03 0.  1.
        -11    1    3    3    0    0 -0.98244244234E+01 -0.13249376266E+02  0.11312977234E+02  0.20001218484E+02  0.51100000000E-03 0. -1.
        -12    1    3    3    0    0 -0.86564784231E+00 -0.12618075272E+02  0.68260688408E+01  0.14372208793E+02  0.00000000000E+00 0.  1.
</event>
<event>
 7    1  0.3221417E-010  0.4778729E+02  0.7816164E-02  0.1312668E+00
        -11   -1    0    0    0    0  0.00000000000E+00  0.00000000000E+00  0.45593999997E+02  0.45594000000E+02  0.51100000000E-03 0. -1.
         11   -1    0    0    0    0 -0.00000000000E+00 -0.00000000000E+00 -0.45593999997E+02  0.45594000000E+02  0.51100000000E-03 0.  1.
    9900012    2    1    2    0    0 -0.88613977506E+01 -0.34320220999E+02 -0.25044355199E+02  0.47787289558E+02  0.20000084412E+02 0.  0.
         12    1    1    2    0    0  0.88613977506E+01  0.34320220999E+02  0.25044355199E+02  0.43400710442E+02  0.00000000000E+00 0. -1.
         11    1    3    3    0    0 -0.53482254692E+01 -0.23654372613E+02 -0.24327879341E+02  0.34350816189E+02  0.51100000000E-03 0.  1.
        -11    1    3    3    0    0  0.19948729302E+01 -0.86977179539E+00 -0.21599765897E+00  0.21869330656E+01  0.51100000000E-03 0. -1.
        -12    1    3    3    0    0 -0.55080452115E+01 -0.97960765904E+01 -0.50047819976E+00  0.11249540304E+02  0.00000000000E+00 0.  1.
</event>
<event>
 7    1  0.3221417E-010  0.4778732E+02  0.7816164E-02  0.1312668E+00
        -11   -1    0    0    0    0  0.00000000000E+00  0.00000000000E+00  0.45593999997E+02  0.45594000000E+02  0.51100000000E-03 0.  1.
         11   -1    0    0    0    0 -0.00000000000E+00 -0.00000000000E+00 -0.45593999997E+02  0.45594000000E+02  0.51100000000E-03 0. -1.
    9900012    2    1    2    0    0 -0.38290377789E+02  0.18053838092E+02  0.95668507706E+01  0.47787323338E+02  0.20000238424E+02 0.  0.
        -12    1    1    2    0    0  0.38290377789E+02 -0.18053838092E+02 -0.95668507706E+01  0.43400676662E+02  0.00000000000E+00 0.  1.
         11    1    3    3    0    0 -0.26662841083E+02  0.13891644249E+02  0.74180865168E+01  0.30966318516E+02  0.51100000000E-03 0. -1.
        -11    1    3    3    0    0 -0.81001782649E+00 -0.56071062414E+00  0.46517787964E+01  0.47549523147E+01  0.51100000000E-03 0.  1.
         12    1    3    3    0    0 -0.10817518879E+02  0.47229044667E+01 -0.25030145426E+01  0.12066052507E+02  0.00000000000E+00 0. -1.
</event>
<event>
 7    1  0.3221417E-010  0.4778728E+02  0.7816164E-02  0.1312668E+00
        -11   -1    0    0    0    0  0.00000000000E+00  0.00000000000E+00  0.45593999997E+02  0.45594000000E+02  0.51100000000E-03 0. -1.
         11   -1    0    0    0    0 -0.00000000000E+00 -0.00000000000E+00 -0.45593999997E+02  0.45594000000E+02  0.51100000000E-03 0.  1.
    9900012    2    1    2    0    0 -0.15604167252E+02 -0.89137088027E+01 -0.39505418542E+02  0.47787281867E+02  0.20000049346E+02 0.  0.
         12    1    1    2    0    0  0.15604167252E+02  0.89137088027E+01  0.39505418542E+02  0.43400718133E+02  0.00000000000E+00 0. -1.
         11    1    3    3    0    0 -0.58800523982E+01 -0.36982575475E+01 -0.91694342111E+01  0.11503505948E+02  0.51100000000E-03 0. -1.
        -11    1    3    3    0    0 -0.99187377904E+01 -0.80419055415E+01 -0.11340186448E+02  0.17077863831E+02  0.51100000000E-03 0.  1.
         12    1    3    3    0    0  0.19462293646E+00  0.28264542863E+01 -0.18995797883E+02  0.19205912088E+02  0.00000000000E+00 0. -1.
</event>
<event>
 7    1  0.3221417E-010  0.4778727E+02  0.7816164E-02  0.1312668E+00
        -11   -1    0    0    0    0  0.00000000000E+00  0.00000000000E+00  0.45593999997E+02  0.45594000000E+02  0.51100000000E-03 0. -1.
         11   -1    0    0    0    0 -0.00000000000E+00 -0.00000000000E+00 -0.45593999997E+02  0.45594000000E+02  0.51100000000E-03 0.  1.
    9900012    2    1    2    0    0 -0.10436024807E+02  0.37652841460E+02 -0.18893820339E+02  0.47787268085E+02  0.19999986505E+02 0.  0.
         12    1    1    2    0    0  0.10436024807E+02 -0.37652841460E+02  0.18893820339E+02  0.43400731915E+02  0.00000000000E+00 0. -1.
         11    1    3    3    0    0 -0.52326118748E+01  0.73502832148E+01  0.21861977454E+01  0.92836604427E+01  0.51100000000E-03 0. -1.
        -11    1    3    3    0    0 -0.79496393388E+01  0.19254485554E+02 -0.13960198571E+02  0.25076266149E+02  0.51100000000E-03 0.  1.
        -12    1    3    3    0    0  0.27462264068E+01  0.11048072691E+02 -0.71198195137E+01  0.13427341493E+02  0.00000000000E+00 0.  1.
</event>
<event>
 7    1  0.3221417E-010  0.4778729E+02  0.7816164E-02  0.1312668E+00
        -11   -1    0    0    0    0  0.00000000000E+00  0.00000000000E+00  0.45593999997E+02  0.45594000000E+02  0.51100000000E-03 0. -1.
         11   -1    0    0    0    0 -0.00000000000E+00 -0.00000000000E+00 -0.45593999997E+02  0.45594000000E+02  0.51100000000E-03 0.  1.
    9900012    2    1    2    0    0 -0.37984211697E+02 -0.51078259977E+01 -0.20364945291E+02  0.47787294691E+02  0.20000107812E+02 0.  0.
         12    1    1    2    0    0  0.37984211697E+02  0.51078259977E+01  0.20364945291E+02  0.43400705309E+02  0.00000000000E+00 0. -1.
         11    1    3    3    0    0 -0.63231729134E+01 -0.26895015653E+01 -0.11448286812E+02  0.13352123635E+02  0.51100000000E-03 0. -1.
        -11    1    3    3    0    0 -0.15391619066E+02  0.25705794984E+01 -0.76277243594E+01  0.17369283106E+02  0.51100000000E-03 0.  1.
        -12    1    3    3    0    0 -0.16269419717E+02 -0.49889039308E+01 -0.12889341190E+01  0.17065887950E+02  0.00000000000E+00 0.  1.
</event>
<event>
 7    1  0.3221417E-010  0.4778727E+02  0.7816164E-02  0.1312668E+00
        -11   -1    0    0    0    0  0.00000000000E+00  0.00000000000E+00  0.45593999997E+02  0.45594000000E+02  0.51100000000E-03 0. -1.
         11   -1    0    0    0    0 -0.00000000000E+00 -0.00000000000E+00 -0.45593999997E+02  0.45594000000E+02  0.51100000000E-03 0.  1.
    9900012    2    1    2    0    0 -0.10882191573E+02  0.17132197885E+02 -0.38362596168E+02  0.47787273249E+02  0.20000010050E+02 0.  0.
         12    1    1    2    0    0  0.10882191573E+02 -0.17132197885E+02  0.38362596168E+02  0.43400726751E+02  0.00000000000E+00 0. -1.
         11    1    3    3    0    0 -0.82355845569E+01  0.10275829235E+01 -0.50532265980E+01  0.97167833654E+01  0.51100000000E-03 0. -1.
        -11    1    3    3    0    0 -0.57389489831E+01  0.10293857591E+02 -0.19782048708E+02  0.23026690836E+02  0.51100000000E-03 0.  1.
         12    1    3    3    0    0  0.30923419668E+01  0.58107573704E+01 -0.13527320862E+02  0.15043799047E+02  0.00000000000E+00 0. -1.
</event>
<event>
 7    1  0.3221417E-010  0.4778727E+02  0.7816164E-02  0.1312668E+00
        -11   -1    0    0    0    0  0.00000000000E+00  0.00000000000E+00  0.45593999997E+02  0.45594000000E+02  0.51100000000E-03 0. -1.
         11   -1    0    0    0    0 -0.00000000000E+00 -0.00000000000E+00 -0.45593999997E+02  0.45594000000E+02  0.51100000000E-03 0.  1.
    9900012    2    1    2    0    0 -0.94978821457E+01 -0.37316223373E+02  0.20022817722E+02  0.47787268191E+02  0.19999986990E+02 0.  0.
        -12    1    1    2    0    0  0.94978821457E+01  0.37316223373E+02 -0.20022817722E+02  0.43400731809E+02  0.00000000000E+00 0.  1.
         11    1    3    3    0    0 -0.99377097289E+01 -0.68012222756E+01  0.26059418170E+01  0.12320942826E+02  0.51100000000E-03 0. -1.
        -11    1    3    3    0    0  0.13965351077E+01 -0.57262423203E+01  0.49793401076E+01  0.77158272133E+01  0.51100000000E-03 0.  1.
         12    1    3    3    0    0 -0.95670752445E+00 -0.24788758777E+02  0.12437535797E+02  0.27750498152E+02  0.00000000000E+00 0. -1.
</event>
<event>
 7    1  0.3221417E-010  0.4778726E+02  0.7816164E-02  0.1312668E+00
        -11   -1    0    0    0    0  0.00000000000E+00  0.00000000000E+00  0.45593999997E+02  0.45594000000E+02  0.51100000000E-03 0. -1.
         11   -1    0    0    0    0 -0.00000000000E+00 -0.00000000000E+00 -0.45593999997E+02  0.45594000000E+02  0.51100000000E-03 0.  1.
    9900012    2    1    2    0    0 -0.18868239976E+02 -0.20717580705E+01 -0.39029753136E+02  0.47787259325E+02  0.19999946566E+02 0.  0.
         12    1    1    2    0    0  0.18868239976E+02  0.20717580705E+01  0.39029753136E+02  0.43400740675E+02  0.00000000000E+00 0. -1.
         11    1    3    3    0    0 -0.78452852236E+00  0.31027271851E+01 -0.61036317539E+01  0.68917865489E+01  0.51100000000E-03 0. -1.
        -11    1    3    3    0    0 -0.16429593585E+02 -0.56848644526E+01 -0.34450635686E+02  0.38588800560E+02  0.51100000000E-03 0.  1.
        -12    1    3    3    0    0 -0.16541178692E+01  0.51037919696E+00  0.15245143042E+01  0.23066722163E+01  0.00000000000E+00 0.  1.
</event>
<event>
 7    1  0.3221417E-010  0.4778727E+02  0.7816164E-02  0.1312668E+00
        -11   -1    0    0    0    0  0.00000000000E+00  0.00000000000E+00  0.45593999997E+02  0.45594000000E+02  0.51100000000E-03 0. -1.
         11   -1    0    0    0    0 -0.00000000000E+00 -0.00000000000E+00 -0.45593999997E+02  0.45594000000E+02  0.51100000000E-03 0.  1.
    9900012    2    1    2    0    0  0.30502043646E+02 -0.25270613651E+01 -0.30771137076E+02  0.47787267487E+02  0.19999983780E+02 0.  0.
         12    1    1    2    0    0 -0.30502043646E+02  0.25270613651E+01  0.30771137076E+02  0.43400732513E+02  0.00000000000E+00 0. -1.
         11    1    3    3    0    0  0.27857287185E+01 -0.16229575137E+01  0.24078272262E+01  0.40239169719E+01  0.51100000000E-03 0. -1.
        -11    1    3    3    0    0  0.21010421409E+02 -0.32394518146E+01 -0.22650469442E+02  0.31064056754E+02  0.51100000000E-03 0.  1.
        -12    1    3    3    0    0  0.67058935182E+01  0.23353479632E+01 -0.10528494861E+02  0.12699293761E+02  0.00000000000E+00 0.  1.
</event>
<event>
 7    1  0.3221417E-010  0.4778727E+02  0.7816164E-02  0.1312668E+00
        -11   -1    0    0    0    0  0.00000000000E+00  0.00000000000E+00  0.45593999997E+02  0.45594000000E+02  0.51100000000E-03 0. -1.
         11   -1    0    0    0    0 -0.00000000000E+00 -0.00000000000E+00 -0.45593999997E+02  0.45594000000E+02  0.51100000000E-03 0.  1.
    9900012    2    1    2    0    0 -0.32044781062E+02  0.25407217447E+01  0.29159909565E+02  0.47787267447E+02  0.19999983598E+02 0.  0.
        -12    1    1    2    0    0  0.32044781062E+02 -0.25407217447E+01 -0.29159909565E+02  0.43400732553E+02  0.00000000000E+00 0.  1.
         11    1    3    3    0    0 -0.11455889008E+02 -0.44743505753E+01  0.11440523696E+02  0.16797106558E+02  0.51100000000E-03 0. -1.
        -11    1    3    3    0    0 -0.21751851487E+02  0.51437110669E+01  0.13190112463E+02  0.25953417380E+02  0.51100000000E-03 0.  1.
        -12    1    3    3    0    0  0.11629594331E+01  0.18713612532E+01  0.45292734064E+01  0.50367435088E+01  0.00000000000E+00 0.  1.
</event>
<event>
 7    1  0.3221417E-010  0.4778728E+02  0.7816164E-02  0.1312668E+00
        -11   -1    0    0    0    0  0.00000000000E+00  0.00000000000E+00  0.45593999997E+02  0.45594000000E+02  0.51100000000E-03 0.  1.
         11   -1    0    0    0    0 -0.00000000000E+00 -0.00000000000E+00 -0.45593999997E+02  0.45594000000E+02  0.51100000000E-03 0. -1.
    9900012    2    1    2    0    0 -0.24603923453E+02  0.32129329975E+02 -0.15683618017E+02  0.47787276873E+02  0.20000026572E+02 0.  0.
        -12    1    1    2    0    0  0.24603923453E+02 -0.32129329975E+02  0.15683618017E+02  0.43400723127E+02  0.00000000000E+00 0.  1.
         11    1    3    3    0    0 -0.11367076003E+02  0.46336916406E+01  0.24028059576E+00  0.12277591381E+02  0.51100000000E-03 0.  1.
        -11    1    3    3    0    0 -0.11647987706E+02  0.19809413287E+02 -0.79381581674E+01  0.24312606354E+02  0.51100000000E-03 0. -1.
        -12    1    3    3    0    0 -0.15888597432E+01  0.76862250470E+01 -0.79857404449E+01  0.11197079137E+02  0.00000000000E+00 0.  1.
</event>
<event>
 7    1  0.3221417E-010  0.4778727E+02  0.7816164E-02  0.1312668E+00
        -11   -1    0    0    0    0  0.00000000000E+00  0.00000000000E+00  0.45593999997E+02  0.45594000000E+02  0.51100000000E-03 0. -1.
         11   -1    0    0    0    0 -0.00000000000E+00 -0.00000000000E+00 -0.45593999997E+02  0.45594000000E+02  0.51100000000E-03 0.  1.
    9900012    2    1    2    0    0 -0.27525935253E+02 -0.72190191940E+01 -0.32769375322E+02  0.47787270643E+02  0.19999998172E+02 0.  0.
         12    1    1    2    0    0  0.27525935253E+02  0.72190191940E+01  0.32769375322E+02  0.43400729357E+02  0.00000000000E+00 0. -1.
         11    1    3    3    0    0 -0.68340389715E+01 -0.36460514368E+01 -0.51096352339E+01  0.92793400751E+01  0.51100000000E-03 0. -1.
        -11    1    3    3    0    0 -0.22269290345E+01 -0.72378353763E+01 -0.11092238256E+02  0.13430682174E+02  0.51100000000E-03 0.  1.
         12    1    3    3    0    0 -0.18464967247E+02  0.36648676191E+01 -0.16567501832E+02  0.25077248395E+02  0.00000000000E+00 0. -1.
</event>
<event>
 7    1  0.3221417E-010  0.4778727E+02  0.7816164E-02  0.1312668E+00
        -11   -1    0    0    0    0  0.00000000000E+00  0.00000000000E+00  0.45593999997E+02  0.45594000000E+02  0.51100000000E-03 0. -1.
         11   -1    0    0    0    0 -0.00000000000E+00 -0.00000000000E+00 -0.45593999997E+02  0.45594000000E+02  0.51100000000E-03 0.  1.
    9900012    2    1    2    0    0 -0.13017637895E+01 -0.21306569474E+01  0.43328848726E+02  0.47787269362E+02  0.19999992331E+02 0.  0.
        -12    1    1    2    0    0  0.13017637895E+01  0.21306569474E+01 -0.43328848726E+02  0.43400730638E+02  0.00000000000E+00 0.  1.
         11    1    3    3    0    0 -0.27090870024E+01 -0.47488776813E+01  0.18220291311E+02  0.19022881152E+02  0.51100000000E-03 0. -1.
        -11    1    3    3    0    0  0.47830144279E+01  0.20559734720E+01  0.24786183273E+02  0.25327043559E+02  0.51100000000E-03 0.  1.
        -12    1    3    3    0    0 -0.33756912150E+01  0.56224726179E+00  0.32237414141E+00  0.34373446510E+01  0.00000000000E+00 0.  1.
</event>
<event>
 7    1  0.3221417E-010  0.4778727E+02  0.7816164E-02  0.1312668E+00
        -11   -1    0    0    0    0  0.00000000000E+00  0.00000000000E+00  0.45593999997E+02  0.45594000000E+02  0.51100000000E-03 0. -1.
         11   -1    0    0    0    0 -0.00000000000E+00 -0.00000000000E+00 -0.45593999997E+02  0.45594000000E+02  0.51100000000E-03 0.  1.
    9900012    2    1    2    0    0  0.28624428452E+02  0.29444385881E+02  0.14046122720E+02  0.47787270425E+02  0.19999997177E+02 0.  0.
         12    1    1    2    0    0 -0.28624428452E+02 -0.29444385881E+02 -0.14046122720E+02  0.43400729575E+02  0.00000000000E+00 0. -1.
         11    1    3    3    0    0  0.26315220228E+01  0.15880166566E+01  0.65485609216E+01  0.72339723157E+01  0.51100000000E-03 0. -1.
        -11    1    3    3    0    0  0.46204019819E+01  0.69433091718E+01 -0.29980840317E+01  0.88626274238E+01  0.51100000000E-03 0.  1.
        -12    1    3    3    0    0  0.21372504448E+02  0.20913060053E+02  0.10495645830E+02  0.31690670686E+02  0.00000000000E+00 0.  1.
</event>
<event>
 7    1  0.3221417E-010  0.4778726E+02  0.7816164E-02  0.1312668E+00
        -11   -1    0    0    0    0  0.00000000000E+00  0.00000000000E+00  0.45593999997E+02  0.45594000000E+02  0.51100000000E-03 0. -1.
         11   -1    0    0    0    0 -0.00000000000E+00 -0.00000000000E+00 -0.45593999997E+02  0.45594000000E+02  0.51100000000E-03 0.  1.
    9900012    2    1    2    0    0  0.97187554510E+01 -0.18714581937E+02  0.37933285376E+02  0.47787263555E+02  0.19999965852E+02 0.  0.
        -12    1    1    2    0    0 -0.97187554510E+01  0.18714581937E+02 -0.37933285376E+02  0.43400736445E+02  0.00000000000E+00 0.  1.
         11    1    3    3    0    0 -0.13563528593E+01 -0.14405881297E+01  0.15213319810E+02  0.15341449968E+02  0.51100000000E-03 0. -1.
        -11    1    3    3    0    0  0.97861934435E+01 -0.86910296498E+01  0.18836876269E+02  0.22937556241E+02  0.51100000000E-03 0.  1.
        -12    1    3    3    0    0  0.12889148668E+01 -0.85829641574E+01  0.38830892973E+01  0.95082573457E+01  0.00000000000E+00 0.  1.
</event>
<event>
 7    1  0.3221417E-010  0.4778727E+02  0.7816164E-02  0.1312668E+00
        -11   -1    0    0    0    0  0.00000000000E+00  0.00000000000E+00  0.45593999997E+02  0.45594000000E+02  0.51100000000E-03 0. -1.
         11   -1    0    0    0    0 -0.00000000000E+00 -0.00000000000E+00 -0.45593999997E+02  0.45594000000E+02  0.51100000000E-03 0.  1.
    9900012    2    1    2    0    0 -0.12843183257E+02  0.12576422308E+02  0.39503287462E+02  0.47787268733E+02  0.19999989461E+02 0.  0.
        -12    1    1    2    0    0  0.12843183257E+02 -0.12576422308E+02 -0.39503287462E+02  0.43400731267E+02  0.00000000000E+00 0.  1.
         11    1    3    3    0    0 -0.30092872312E+01  0.79938522640E+01  0.25042963462E+02  0.26459544646E+02  0.51100000000E-03 0. -1.
        -11    1    3    3    0    0 -0.55493852157E+01 -0.24301030365E+01  0.10687523803E+02  0.12285122805E+02  0.51100000000E-03 0.  1.
         12    1    3    3    0    0 -0.42845108102E+01  0.70126730804E+01  0.37728001971E+01  0.90426012818E+01  0.00000000000E+00 0. -1.
</event>
<event>
 7    1  0.3221417E-010  0.4778727E+02  0.7816164E-02  0.1312668E+00
        -11   -1    0    0    0    0  0.00000000000E+00  0.00000000000E+00  0.45593999997E+02  0.45594000000E+02  0.51100000000E-03 0. -1.
         11   -1    0    0    0    0 -0.00000000000E+00 -0.00000000000E+00 -0.45593999997E+02  0.45594000000E+02  0.51100000000E-03 0.  1.
    9900012    2    1    2    0    0  0.12634509620E+02 -0.70216710809E+01  0.40922959452E+02  0.47787270647E+02  0.19999998188E+02 0.  0.
        -12    1    1    2    0    0 -0.12634509620E+02  0.70216710809E+01 -0.40922959452E+02  0.43400729353E+02  0.00000000000E+00 0.  1.
         11    1    3    3    0    0  0.10136144512E+02 -0.57729595369E+01  0.22053217132E+02  0.24948203813E+02  0.51100000000E-03 0. -1.
        -11    1    3    3    0    0 -0.21721832546E+01 -0.57866951339E+01  0.11065332691E+02  0.12674612755E+02  0.51100000000E-03 0.  1.
         12    1    3    3    0    0  0.46705483625E+01  0.45379835900E+01  0.78044096281E+01  0.10164454078E+02  0.00000000000E+00 0. -1.
</event>
<event>
 7    1  0.3221417E-010  0.4778727E+02  0.7816164E-02  0.1312668E+00
        -11   -1    0    0    0    0  0.00000000000E+00  0.00000000000E+00  0.45593999997E+02  0.45594000000E+02  0.51100000000E-03 0. -1.
         11   -1    0    0    0    0 -0.00000000000E+00 -0.00000000000E+00 -0.45593999997E+02  0.45594000000E+02  0.51100000000E-03 0.  1.
    9900012    2    1    2    0    0 -0.33425667049E+01 -0.90935792762E+01 -0.42305527298E+02  0.47787267562E+02  0.19999984120E+02 0.  0.
         12    1    1    2    0    0  0.33425667049E+01  0.90935792762E+01  0.42305527298E+02  0.43400732438E+02  0.00000000000E+00 0. -1.
         11    1    3    3    0    0  0.95813914581E+00 -0.21034167006E+01 -0.55266986496E+00  0.23765177635E+01  0.51100000000E-03 0. -1.
        -11    1    3    3    0    0 -0.86215664614E+01  0.80491510487E+00 -0.24620478906E+02  0.26098798409E+02  0.51100000000E-03 0.  1.
         12    1    3    3    0    0  0.43208606107E+01 -0.77950776804E+01 -0.17132378527E+02  0.19311951389E+02  0.00000000000E+00 0. -1.
</event>
<event>
 7    1  0.3221417E-010  0.4778727E+02  0.7816164E-02  0.1312668E+00
        -11   -1    0    0    0    0  0.00000000000E+00  0.00000000000E+00  0.45593999997E+02  0.45594000000E+02  0.51100000000E-03 0. -1.
         11   -1    0    0    0    0 -0.00000000000E+00 -0.00000000000E+00 -0.45593999997E+02  0.45594000000E+02  0.51100000000E-03 0.  1.
    9900012    2    1    2    0    0  0.17976272259E+02 -0.26404397683E+02 -0.29381703534E+02  0.47787273233E+02  0.20000009979E+02 0.  0.
         12    1    1    2    0    0 -0.17976272259E+02  0.26404397683E+02  0.29381703534E+02  0.43400726767E+02  0.00000000000E+00 0. -1.
         11    1    3    3    0    0  0.26439361610E+01 -0.10488683543E+02 -0.13650547076E+02  0.17416667782E+02  0.51100000000E-03 0. -1.
        -11    1    3    3    0    0 -0.12565317671E+01 -0.17979949653E+00  0.13324946840E+01  0.18403103773E+01  0.51100000000E-03 0.  1.
        -12    1    3    3    0    0  0.16588867865E+02 -0.15735914644E+02 -0.17063651142E+02  0.28530295074E+02  0.00000000000E+00 0.  1.
</event>
<event>
 7    1  0.3221417E-010  0.4778727E+02  0.7816164E-02  0.1312668E+00
        -11   -1    0    0    0    0  0.00000000000E+00  0.00000000000E+00  0.45593999997E+02  0.45594000000E+02  0.51100000000E-03 0. -1.
         11   -1    0    0    0    0 -0.00000000000E+00 -0.00000000000E+00 -0.45593999997E+02  0.45594000000E+02  0.51100000000E-03 0.  1.
    9900012    2    1    2    0    0 -0.10183833567E+02 -0.22759290477E+02 -0.35523617258E+02  0.47787272446E+02  0.20000006391E+02 0.  0.
         12    1    1    2    0    0  0.10183833567E+02  0.22759290477E+02  0.35523617258E+02  0.43400727554E+02  0.00000000000E+00 0. -1.
         11    1    3    3    0    0  0.19179973094E+01 -0.17708794292E+02 -0.22841357194E+02  0.28965629765E+02  0.51100000000E-03 0. -1.
        -11    1    3    3    0    0 -0.45962391451E+01 -0.34199305548E+01 -0.30127252439E+01  0.64728550837E+01  0.51100000000E-03 0.  1.
        -12    1    3    3    0    0 -0.75055917309E+01 -0.16305656309E+01 -0.96695348197E+01  0.12348787598E+02  0.00000000000E+00 0.  1.
</event>
<event>
 7    1  0.3221417E-010  0.4778727E+02  0.7816164E-02  0.1312668E+00
        -11   -1    0    0    0    0  0.00000000000E+00  0.00000000000E+00  0.45593999997E+02  0.45594000000E+02  0.51100000000E-03 0. -1.
         11   -1    0    0    0    0 -0.00000000000E+00 -0.00000000000E+00 -0.45593999997E+02  0.45594000000E+02  0.51100000000E-03 0.  1.
    9900012    2    1    2    0    0 -0.29592546102E+02 -0.18915628534E+02  0.25497124471E+02  0.47787272542E+02  0.20000006826E+02 0.  0.
        -12    1    1    2    0    0  0.29592546102E+02  0.18915628534E+02 -0.25497124471E+02  0.43400727458E+02  0.00000000000E+00 0.  1.
         11    1    3    3    0    0 -0.24095731881E+02 -0.59001929605E+01  0.19967419941E+02  0.31845163388E+02  0.51100000000E-03 0. -1.
        -11    1    3    3    0    0  0.74840019554E+00 -0.20700702698E+01  0.16685078569E+01  0.27621029134E+01  0.51100000000E-03 0.  1.
         12    1    3    3    0    0 -0.62452144161E+01 -0.10945365304E+02  0.38611966730E+01  0.13180006240E+02  0.00000000000E+00 0. -1.
</event>
<event>
 7    1  0.3221417E-010  0.4778727E+02  0.7816164E-02  0.1312668E+00
        -11   -1    0    0    0    0  0.00000000000E+00  0.00000000000E+00  0.45593999997E+02  0.45594000000E+02  0.51100000000E-03 0. -1.
         11   -1    0    0    0    0 -0.00000000000E+00 -0.00000000000E+00 -0.45593999997E+02  0.45594000000E+02  0.51100000000E-03 0.  1.
    9900012    2    1    2    0    0  0.21061102575E+02  0.40308979260E+01 -0.37733341873E+02  0.47787271105E+02  0.20000000274E+02 0.  0.
         12    1    1    2    0    0 -0.21061102575E+02 -0.40308979260E+01  0.37733341873E+02  0.43400728895E+02  0.00000000000E+00 0. -1.
         11    1    3    3    0    0  0.90412160619E+01  0.56912984690E+01 -0.10434366720E+02  0.14933535256E+02  0.51100000000E-03 0. -1.
        -11    1    3    3    0    0  0.13856034645E+02 -0.34955188486E+01 -0.26550675884E+02  0.30152060266E+02  0.51100000000E-03 0.  1.
         12    1    3    3    0    0 -0.18361481318E+01  0.18351183056E+01 -0.74829926845E+00  0.27016755824E+01  0.00000000000E+00 0. -1.
</event>
<event>
 7    1  0.3221417E-010  0.4778727E+02  0.7816164E-02  0.1312668E+00
        -11   -1    0    0    0    0  0.00000000000E+00  0.00000000000E+00  0.45593999997E+02  0.45594000000E+02  0.51100000000E-03 0. -1.
         11   -1    0    0    0    0 -0.00000000000E+00 -0.00000000000E+00 -0.45593999997E+02  0.45594000000E+02  0.51100000000E-03 0.  1.
    9900012    2    1    2    0    0  0.25217073332E+02 -0.11963298117E+02  0.33235558375E+02  0.47787266944E+02  0.19999981306E+02 0.  0.
        -12    1    1    2    0    0 -0.25217073332E+02  0.11963298117E+02 -0.33235558375E+02  0.43400733056E+02  0.00000000000E+00 0.  1.
         11    1    3    3    0    0  0.24539700390E+01 -0.70401035485E+01  0.39362071197E+01  0.84308216490E+01  0.51100000000E-03 0. -1.
        -11    1    3    3    0    0  0.11318822454E+02  0.13028368332E+00  0.57637929430E+01  0.12702520417E+02  0.51100000000E-03 0.  1.
        -12    1    3    3    0    0  0.11444280839E+02 -0.50534782518E+01  0.23535558313E+02  0.26653924879E+02  0.00000000000E+00 0.  1.
</event>
<event>
 7    1  0.3221417E-010  0.4778727E+02  0.7816164E-02  0.1312668E+00
        -11   -1    0    0    0    0  0.00000000000E+00  0.00000000000E+00  0.45593999997E+02  0.45594000000E+02  0.51100000000E-03 0. -1.
         11   -1    0    0    0    0 -0.00000000000E+00 -0.00000000000E+00 -0.45593999997E+02  0.45594000000E+02  0.51100000000E-03 0.  1.
    9900012    2    1    2    0    0 -0.10206475136E+02  0.20101681671E+02 -0.37086029584E+02  0.47787270386E+02  0.19999996997E+02 0.  0.
         12    1    1    2    0    0  0.10206475136E+02 -0.20101681671E+02  0.37086029584E+02  0.43400729614E+02  0.00000000000E+00 0. -1.
         11    1    3    3    0    0  0.19781684825E+01  0.53858766877E+01 -0.46936512057E+01  0.74129063223E+01  0.51100000000E-03 0. -1.
        -11    1    3    3    0    0 -0.16075476886E+01 -0.15508253332E+01  0.40234282735E+00  0.22696142396E+01  0.51100000000E-03 0.  1.
        -12    1    3    3    0    0 -0.10577095930E+02  0.16266630317E+02 -0.32794721206E+02  0.38104749824E+02  0.00000000000E+00 0.  1.
</event>
<event>
 7    1  0.3221417E-010  0.4778727E+02  0.7816164E-02  0.1312668E+00
        -11   -1    0    0    0    0  0.00000000000E+00  0.00000000000E+00  0.45593999997E+02  0.45594000000E+02  0.51100000000E-03 0. -1.
         11   -1    0    0    0    0 -0.00000000000E+00 -0.00000000000E+00 -0.45593999997E+02  0.45594000000E+02  0.51100000000E-03 0.  1.
    9900012    2    1    2    0    0  0.27088831241E+02  0.69501968193E+01  0.33189050635E+02  0.47787273095E+02  0.20000009350E+02 0.  0.
        -12    1    1    2    0    0 -0.27088831241E+02 -0.69501968193E+01 -0.33189050635E+02  0.43400726905E+02  0.00000000000E+00 0.  1.
         11    1    3    3    0    0  0.93103743336E+01 -0.54448826774E+01  0.83288278542E+01  0.13627149052E+02  0.51100000000E-03 0.  1.
        -11    1    3    3    0    0  0.14018655091E+02  0.61315872197E+01  0.20738848276E+02  0.25772444209E+02  0.51100000000E-03 0. -1.
        -12    1    3    3    0    0  0.37598018164E+01  0.62634922770E+01  0.41213745042E+01  0.83876798345E+01  0.00000000000E+00 0.  1.
</event>
<event>
 7    1  0.3221417E-010  0.4778726E+02  0.7816164E-02  0.1312668E+00
        -11   -1    0    0    0    0  0.00000000000E+00  0.00000000000E+00  0.45593999997E+02  0.45594000000E+02  0.51100000000E-03 0. -1.
         11   -1    0    0    0    0 -0.00000000000E+00 -0.00000000000E+00 -0.45593999997E+02  0.45594000000E+02  0.51100000000E-03 0.  1.
    9900012    2    1    2    0    0  0.60831770456E+01  0.11308730828E+02 -0.41457593311E+02  0.47787257160E+02  0.19999936695E+02 0.  0.
         12    1    1    2    0    0 -0.60831770456E+01 -0.11308730828E+02  0.41457593311E+02  0.43400742840E+02  0.00000000000E+00 0. -1.
         11    1    3    3    0    0  0.11825285969E+02  0.19275251183E+01 -0.15891529165E+02  0.19902096392E+02  0.51100000000E-03 0. -1.
        -11    1    3    3    0    0 -0.28586547709E+01  0.48385756772E+01 -0.15204614016E+02  0.16209997203E+02  0.51100000000E-03 0.  1.
         12    1    3    3    0    0 -0.28834541528E+01  0.45426300322E+01 -0.10361450130E+02  0.11675163564E+02  0.00000000000E+00 0. -1.
</event>
<event>
 7    1  0.3221417E-010  0.4778727E+02  0.7816164E-02  0.1312668E+00
        -11   -1    0    0    0    0  0.00000000000E+00  0.00000000000E+00  0.45593999997E+02  0.45594000000E+02  0.51100000000E-03 0. -1.
         11   -1    0    0    0    0 -0.00000000000E+00 -0.00000000000E+00 -0.45593999997E+02  0.45594000000E+02  0.51100000000E-03 0.  1.
    9900012    2    1    2    0    0  0.39332385030E+02 -0.24210931793E+01 -0.18185847099E+02  0.47787271446E+02  0.20000001832E+02 0.  0.
         12    1    1    2    0    0 -0.39332385030E+02  0.24210931793E+01  0.18185847099E+02  0.43400728554E+02  0.00000000000E+00 0. -1.
         11    1    3    3    0    0  0.10175183649E+02 -0.49965363684E+00 -0.20183092437E+01  0.10385450809E+02  0.51100000000E-03 0. -1.
        -11    1    3    3    0    0  0.15848699238E+02  0.53383816231E+01 -0.23466152991E+01  0.16887456573E+02  0.51100000000E-03 0.  1.
         12    1    3    3    0    0  0.13308502143E+02 -0.72598211656E+01 -0.13820922556E+02  0.20514364063E+02  0.00000000000E+00 0. -1.
</event>
<event>
 7    1  0.3221417E-010  0.4778727E+02  0.7816164E-02  0.1312668E+00
        -11   -1    0    0    0    0  0.00000000000E+00  0.00000000000E+00  0.45593999997E+02  0.45594000000E+02  0.51100000000E-03 0.  1.
         11   -1    0    0    0    0 -0.00000000000E+00 -0.00000000000E+00 -0.45593999997E+02  0.45594000000E+02  0.51100000000E-03 0. -1.
    9900012    2    1    2    0    0  0.31808112775E+02 -0.28817891640E+02  0.64340073943E+01  0.47787269960E+02  0.19999995055E+02 0.  0.
        -12    1    1    2    0    0 -0.31808112775E+02  0.28817891640E+02 -0.64340073943E+01  0.43400730040E+02  0.00000000000E+00 0.  1.
         11    1    3    3    0    0  0.16322087761E+02 -0.18099797103E+02 -0.49716495633E+01  0.24874294034E+02  0.51100000000E-03 0. -1.
        -11    1    3    3    0    0  0.75700112540E+01 -0.16859883823E+01  0.33292474939E+01  0.84398765600E+01  0.51100000000E-03 0.  1.
         12    1    3    3    0    0  0.79160137604E+01 -0.90321061545E+01  0.80764094637E+01  0.14473099366E+02  0.00000000000E+00 0. -1.
</event>
<event>
 7    1  0.3221417E-010  0.4778727E+02  0.7816164E-02  0.1312668E+00
        -11   -1    0    0    0    0  0.00000000000E+00  0.00000000000E+00  0.45593999997E+02  0.45594000000E+02  0.51100000000E-03 0. -1.
         11   -1    0    0    0    0 -0.00000000000E+00 -0.00000000000E+00 -0.45593999997E+02  0.45594000000E+02  0.51100000000E-03 0.  1.
    9900012    2    1    2    0    0  0.14687648795E+02 -0.34757762614E+02  0.21442809946E+02  0.47787272040E+02  0.20000004539E+02 0.  0.
        -12    1    1    2    0    0 -0.14687648795E+02  0.34757762614E+02 -0.21442809946E+02  0.43400727960E+02  0.00000000000E+00 0.  1.
         11    1    3    3    0    0  0.18122150469E+02 -0.18793709872E+02  0.11889273847E+02  0.28687465926E+02  0.51100000000E-03 0. -1.
        -11    1    3    3    0    0 -0.80752274051E+00 -0.30535564357E+01  0.31131594170E+01  0.44348688481E+01  0.51100000000E-03 0.  1.
         12    1    3    3    0    0 -0.26269789337E+01 -0.12910496307E+02  0.64403766826E+01  0.14664937266E+02  0.00000000000E+00 0. -1.
</event>
<event>
 7    1  0.3221417E-010  0.4778727E+02  0.7816164E-02  0.1312668E+00
        -11   -1    0    0    0    0  0.00000000000E+00  0.00000000000E+00  0.45593999997E+02  0.45594000000E+02  0.51100000000E-03 0. -1.
         11   -1    0    0    0    0 -0.00000000000E+00 -0.00000000000E+00 -0.45593999997E+02  0.45594000000E+02  0.51100000000E-03 0.  1.
    9900012    2    1    2    0    0  0.28275312490E+01 -0.40425098122E+02  0.15538334062E+02  0.47787270552E+02  0.19999997757E+02 0.  0.
        -12    1    1    2    0    0 -0.28275312490E+01  0.40425098122E+02 -0.15538334062E+02  0.43400729448E+02  0.00000000000E+00 0.  1.
         11    1    3    3    0    0  0.50742888178E+01 -0.19723519534E+02  0.13738064718E+02  0.24566238057E+02  0.51100000000E-03 0. -1.
        -11    1    3    3    0    0 -0.12587645174E+01 -0.20253633939E+02  0.40777787891E+01  0.20698368437E+02  0.51100000000E-03 0.  1.
        -12    1    3    3    0    0 -0.98799305135E+00 -0.44794464939E+00 -0.22775094453E+01  0.25226640585E+01  0.00000000000E+00 0.  1.
</event>
<event>
 7    1  0.3221417E-010  0.4778724E+02  0.7816164E-02  0.1312668E+00
        -11   -1    0    0    0    0  0.00000000000E+00  0.00000000000E+00  0.45593999997E+02  0.45594000000E+02  0.51100000000E-03 0. -1.
         11   -1    0    0    0    0 -0.00000000000E+00 -0.00000000000E+00 -0.45593999997E+02  0.45594000000E+02  0.51100000000E-03 0.  1.
    9900012    2    1    2    0    0  0.16649065679E+02  0.20937060439E+02  0.34177096358E+02  0.47787241904E+02  0.19999867138E+02 0.  0.
        -12    1    1    2    0    0 -0.16649065679E+02 -0.20937060439E+02 -0.34177096358E+02  0.43400758096E+02  0.00000000000E+00 0.  1.
         11    1    3    3    0    0  0.22736189726E+00  0.11901441120E+02  0.13394872291E+02  0.17919782312E+02  0.51100000000E-03 0. -1.
        -11    1    3    3    0    0  0.10372771317E+02  0.71121394386E+01  0.19782340152E+02  0.23441798019E+02  0.51100000000E-03 0.  1.
        -12    1    3    3    0    0  0.60489324645E+01  0.19234798796E+01  0.99988391499E+00  0.64256615730E+01  0.00000000000E+00 0.  1.
</event>
<event>
 7    1  0.4321427E-010  0.4778727E+02  0.7816164E-02  0.1312668E+00
        -11   -1    0    0    0    0  0.00000000000E+00  0.00000000000E+00  0.45593999997E+02  0.45594000000E+02  0.51100000000E-03 0. -1.
         11   -1    0    0    0    0 -0.00000000000E+00 -0.00000000000E+00 -0.45593999997E+02  0.45594000000E+02  0.51100000000E-03 0.  1.
    9900012    2    1    2    0    0  0.43168877404E+01  0.72196927262E+00 -0.43179467007E+02  0.47787272697E+02  0.20000007534E+02 0.  0.
         12    1    1    2    0    0 -0.43168877404E+01 -0.72196927262E+00  0.43179467007E+02  0.43400727303E+02  0.00000000000E+00 0. -1.
         11    1    3    3    0    0 -0.15932442440E+01 -0.47253627312E+01 -0.37488519439E+01  0.62386994896E+01  0.51100000000E-03 0. -1.
        -11    1    3    3    0    0 -0.17356598582E+01  0.21067422805E+01 -0.22590013223E+02  0.22754330925E+02  0.51100000000E-03 0.  1.
         12    1    3    3    0    0  0.76457918427E+01  0.33405897233E+01 -0.16840601841E+02  0.18794242282E+02  0.00000000000E+00 0. -1.
</event>
<event>
 7    1  0.3221417E-010  0.4778727E+02  0.7816164E-02  0.1312668E+00
        -11   -1    0    0    0    0  0.00000000000E+00  0.00000000000E+00  0.45593999997E+02  0.45594000000E+02  0.51100000000E-03 0.  1.
         11   -1    0    0    0    0 -0.00000000000E+00 -0.00000000000E+00 -0.45593999997E+02  0.45594000000E+02  0.51100000000E-03 0. -1.
    9900012    2    1    2    0    0 -0.38266453659E+02  0.17392598847E+02  0.10807365502E+02  0.47787272824E+02  0.20000008116E+02 0.  0.
        -12    1    1    2    0    0  0.38266453659E+02 -0.17392598847E+02 -0.10807365502E+02  0.43400727176E+02  0.00000000000E+00 0.  1.
         11    1    3    3    0    0 -0.82854798644E+00  0.82387176336E+00  0.13143658653E+01  0.17586399112E+01  0.51100000000E-03 0. -1.
        -11    1    3    3    0    0 -0.24189264770E+02  0.16104835492E+02  0.13690174933E+02  0.32123311571E+02  0.51100000000E-03 0.  1.
         12    1    3    3    0    0 -0.13248640902E+02  0.46389159129E+00 -0.41971752958E+01  0.13905321342E+02  0.00000000000E+00 0. -1.
</event>
<event>
 7    1  0.3221417E-010  0.4778727E+02  0.7816164E-02  0.1312668E+00
        -11   -1    0    0    0    0  0.00000000000E+00  0.00000000000E+00  0.45593999997E+02  0.45594000000E+02  0.51100000000E-03 0. -1.
         11   -1    0    0    0    0 -0.00000000000E+00 -0.00000000000E+00 -0.45593999997E+02  0.45594000000E+02  0.51100000000E-03 0.  1.
    9900012    2    1    2    0    0 -0.18636479832E+02  0.22357258379E+02 -0.32194066335E+02  0.47787270859E+02  0.19999999156E+02 0.  0.
         12    1    1    2    0    0  0.18636479832E+02 -0.22357258379E+02  0.32194066335E+02  0.43400729141E+02  0.00000000000E+00 0. -1.
         11    1    3    3    0    0  0.23528723545E+01  0.86037131943E+01 -0.41951453715E+01  0.98569332957E+01  0.51100000000E-03 0. -1.
        -11    1    3    3    0    0 -0.95809619329E+01  0.82917776465E+01 -0.16755865513E+02  0.21007318664E+02  0.51100000000E-03 0.  1.
         12    1    3    3    0    0 -0.11408390253E+02  0.54617675378E+01 -0.11243055451E+02  0.16923018900E+02  0.00000000000E+00 0. -1.
</event>
<event>
 7    1  0.3221417E-010  0.4778727E+02  0.7816164E-02  0.1312668E+00
        -11   -1    0    0    0    0  0.00000000000E+00  0.00000000000E+00  0.45593999997E+02  0.45594000000E+02  0.51100000000E-03 0. -1.
         11   -1    0    0    0    0 -0.00000000000E+00 -0.00000000000E+00 -0.45593999997E+02  0.45594000000E+02  0.51100000000E-03 0.  1.
    9900012    2    1    2    0    0  0.32449691037E+02  0.70173471121E+01  0.27953491397E+02  0.47787270857E+02  0.19999999145E+02 0.  0.
        -12    1    1    2    0    0 -0.32449691037E+02 -0.70173471121E+01 -0.27953491397E+02  0.43400729143E+02  0.00000000000E+00 0.  1.
         11    1    3    3    0    0  0.73903730962E+01  0.70226594665E+01  0.81550920912E+01  0.13055301136E+02  0.51100000000E-03 0. -1.
        -11    1    3    3    0    0  0.21842700720E+02  0.26150715500E+01  0.10145970639E+02  0.24225666026E+02  0.51100000000E-03 0.  1.
        -12    1    3    3    0    0  0.32166172211E+01 -0.26203839044E+01  0.96524286666E+01  0.10506303694E+02  0.00000000000E+00 0.  1.
</event>
<event>
 7    1  0.3221417E-010  0.4778727E+02  0.7816164E-02  0.1312668E+00
        -11   -1    0    0    0    0  0.00000000000E+00  0.00000000000E+00  0.45593999997E+02  0.45594000000E+02  0.51100000000E-03 0.  1.
         11   -1    0    0    0    0 -0.00000000000E+00 -0.00000000000E+00 -0.45593999997E+02  0.45594000000E+02  0.51100000000E-03 0. -1.
    9900012    2    1    2    0    0 -0.16944837362E+02  0.39730624372E+02  0.42395332390E+01  0.47787266500E+02  0.19999979281E+02 0.  0.
         12    1    1    2    0    0  0.16944837362E+02 -0.39730624372E+02 -0.42395332390E+01  0.43400733500E+02  0.00000000000E+00 0. -1.
         11    1    3    3    0    0 -0.72369242343E+01  0.44647960354E+01  0.70807617368E+01  0.11065471659E+02  0.51100000000E-03 0. -1.
        -11    1    3    3    0    0 -0.37689994828E+01  0.13003911663E+02 -0.30941564493E+00  0.13542629506E+02  0.51100000000E-03 0.  1.
         12    1    3    3    0    0 -0.59389136451E+01  0.22261916674E+02 -0.25318128528E+01  0.23179165334E+02  0.00000000000E+00 0. -1.
</event>
<event>
 7    1  0.3221417E-010  0.4778727E+02  0.7816164E-02  0.1312668E+00
        -11   -1    0    0    0    0  0.00000000000E+00  0.00000000000E+00  0.45593999997E+02  0.45594000000E+02  0.51100000000E-03 0.  1.
         11   -1    0    0    0    0 -0.00000000000E+00 -0.00000000000E+00 -0.45593999997E+02  0.45594000000E+02  0.51100000000E-03 0. -1.
    9900012    2    1    2    0    0  0.10766845110E+02  0.41795789639E+02  0.45618053607E+01  0.47787273585E+02  0.20000011583E+02 0.  0.
         12    1    1    2    0    0 -0.10766845110E+02 -0.41795789639E+02 -0.45618053607E+01  0.43400726415E+02  0.00000000000E+00 0. -1.
         11    1    3    3    0    0  0.29401559684E+01 -0.57846906691E+00 -0.63743390705E+00  0.30635707642E+01  0.51100000000E-03 0. -1.
        -11    1    3    3    0    0  0.19241854489E+01  0.24011907832E+02 -0.19171331026E+01  0.24165049285E+02  0.51100000000E-03 0.  1.
         12    1    3    3    0    0  0.59025036925E+01  0.18362350874E+02  0.71163723704E+01  0.20558653535E+02  0.00000000000E+00 0. -1.
</event>
<event>
 7    1  0.3221417E-010  0.4778727E+02  0.7816164E-02  0.1312668E+00
        -11   -1    0    0    0    0  0.00000000000E+00  0.00000000000E+00  0.45593999997E+02  0.45594000000E+02  0.51100000000E-03 0. -1.
         11   -1    0    0    0    0 -0.00000000000E+00 -0.00000000000E+00 -0.45593999997E+02  0.45594000000E+02  0.51100000000E-03 0.  1.
    9900012    2    1    2    0    0  0.32322591827E+00 -0.73150643816E+01  0.42778603840E+02  0.47787267421E+02  0.19999983478E+02 0.  0.
        -12    1    1    2    0    0 -0.32322591827E+00  0.73150643816E+01 -0.42778603840E+02  0.43400732579E+02  0.00000000000E+00 0.  1.
         11    1    3    3    0    0  0.47166016274E+01 -0.20285098427E+00  0.52105519386E+01  0.70311685515E+01  0.51100000000E-03 0. -1.
        -11    1    3    3    0    0 -0.42807295007E+00 -0.27593834027E+01  0.64507406216E-01  0.27931352778E+01  0.51100000000E-03 0.  1.
         12    1    3    3    0    0 -0.39653027591E+01 -0.43528299947E+01  0.37503544495E+02  0.37962963591E+02  0.00000000000E+00 0. -1.
</event>
<event>
 7    1  0.3221417E-010  0.4778727E+02  0.7816164E-02  0.1312668E+00
        -11   -1    0    0    0    0  0.00000000000E+00  0.00000000000E+00  0.45593999997E+02  0.45594000000E+02  0.51100000000E-03 0. -1.
         11   -1    0    0    0    0 -0.00000000000E+00 -0.00000000000E+00 -0.45593999997E+02  0.45594000000E+02  0.51100000000E-03 0.  1.
    9900012    2    1    2    0    0  0.19371587372E+02 -0.34907077113E+02 -0.17025298313E+02  0.47787271751E+02  0.20000003220E+02 0.  0.
         12    1    1    2    0    0 -0.19371587372E+02  0.34907077113E+02  0.17025298313E+02  0.43400728249E+02  0.00000000000E+00 0. -1.
         11    1    3    3    0    0  0.34482094984E+01  0.29311467949E+00 -0.19855056579E+00  0.34663363293E+01  0.51100000000E-03 0. -1.
        -11    1    3    3    0    0  0.34244531250E+01 -0.15222424541E+02 -0.13281583505E+02  0.20490230569E+02  0.51100000000E-03 0.  1.
        -12    1    3    3    0    0  0.12498924749E+02 -0.19977767251E+02 -0.35451642421E+01  0.23830704852E+02  0.00000000000E+00 0.  1.
</event>
<event>
 7    1  0.3221417E-010  0.4778728E+02  0.7816164E-02  0.1312668E+00
        -11   -1    0    0    0    0  0.00000000000E+00  0.00000000000E+00  0.45593999997E+02  0.45594000000E+02  0.51100000000E-03 0. -1.
         11   -1    0    0    0    0 -0.00000000000E+00 -0.00000000000E+00 -0.45593999997E+02  0.45594000000E+02  0.51100000000E-03 0.  1.
    9900012    2    1    2    0    0 -0.47089913975E+01 -0.12950371818E+02 -0.41155020309E+02  0.47787280803E+02  0.20000044494E+02 0.  0.
         12    1    1    2    0    0  0.47089913975E+01  0.12950371818E+02  0.41155020309E+02  0.43400719197E+02  0.00000000000E+00 0. -1.
         11    1    3    3    0    0  0.35769035566E+01  0.87237755115E+00 -0.13869213891E+02  0.14349577550E+02  0.51100000000E-03 0. -1.
        -11    1    3    3    0    0  0.16769648841E+01  0.60754040472E+00 -0.22376675636E+01  0.28615507950E+01  0.51100000000E-03 0.  1.
        -12    1    3    3    0    0 -0.99628598383E+01 -0.14430289774E+02 -0.25048138854E+02  0.30576152458E+02  0.00000000000E+00 0.  1.
</event>
<event>
 7    1  0.3221417E-010  0.4778728E+02  0.7816164E-02  0.1312668E+00
        -11   -1    0    0    0    0  0.00000000000E+00  0.00000000000E+00  0.45593999997E+02  0.45594000000E+02  0.51100000000E-03 0. -1.
         11   -1    0    0    0    0 -0.00000000000E+00 -0.00000000000E+00 -0.45593999997E+02  0.45594000000E+02  0.51100000000E-03 0.  1.
    9900012    2    1    2    0    0  0.22883210405E+02 -0.36620249343E+02  0.43518405545E+01  0.47787280000E+02  0.20000040830E+02 0.  0.
         12    1    1    2    0    0 -0.22883210405E+02  0.36620249343E+02 -0.43518405545E+01  0.43400720000E+02  0.00000000000E+00 0. -1.
         11    1    3    3    0    0  0.78399716750E+01 -0.69118956877E+01  0.44535880644E+01  0.11361069702E+02  0.51100000000E-03 0. -1.
        -11    1    3    3    0    0  0.55720235531E+01 -0.98376139732E+01 -0.70730363568E+01  0.13336189063E+02  0.51100000000E-03 0.  1.
         12    1    3    3    0    0  0.94712151768E+01 -0.19870739682E+02  0.69712888469E+01  0.23090021234E+02  0.00000000000E+00 0. -1.
</event>
<event>
 7    1  0.3221417E-010  0.4778727E+02  0.7816164E-02  0.1312668E+00
        -11   -1    0    0    0    0  0.00000000000E+00  0.00000000000E+00  0.45593999997E+02  0.45594000000E+02  0.51100000000E-03 0. -1.
         11   -1    0    0    0    0 -0.00000000000E+00 -0.00000000000E+00 -0.45593999997E+02  0.45594000000E+02  0.51100000000E-03 0.  1.
    9900012    2    1    2    0    0  0.93019551262E+01  0.11613693440E+02 -0.40770320854E+02  0.47787270662E+02  0.19999998257E+02 0.  0.
         12    1    1    2    0    0 -0.93019551262E+01 -0.11613693440E+02  0.40770320854E+02  0.43400729338E+02  0.00000000000E+00 0. -1.
         11    1    3    3    0    0 -0.56801501471E-01 -0.47169358875E+00  0.78582691201E+00  0.91828396969E+00  0.51100000000E-03 0. -1.
        -11    1    3    3    0    0  0.40411607590E+01  0.59310616265E+01 -0.36702088456E+02  0.37397216068E+02  0.51100000000E-03 0.  1.
         12    1    3    3    0    0  0.53175958687E+01  0.61543254024E+01 -0.48540593101E+01  0.94717706247E+01  0.00000000000E+00 0. -1.
</event>
<event>
 7    1  0.3221417E-010  0.4778727E+02  0.7816164E-02  0.1312668E+00
        -11   -1    0    0    0    0  0.00000000000E+00  0.00000000000E+00  0.45593999997E+02  0.45594000000E+02  0.51100000000E-03 0. -1.
         11   -1    0    0    0    0 -0.00000000000E+00 -0.00000000000E+00 -0.45593999997E+02  0.45594000000E+02  0.51100000000E-03 0.  1.
    9900012    2    1    2    0    0  0.26851958426E+02  0.44295187852E+01  0.33807912237E+02  0.47787271460E+02  0.20000001893E+02 0.  0.
        -12    1    1    2    0    0 -0.26851958426E+02 -0.44295187852E+01 -0.33807912237E+02  0.43400728540E+02  0.00000000000E+00 0.  1.
         11    1    3    3    0    0  0.25870105712E+02  0.13390946517E+01  0.23416725477E+02  0.34919887978E+02  0.51100000000E-03 0. -1.
        -11    1    3    3    0    0  0.16008484527E+00  0.20506413457E+01 -0.31379138153E+00  0.20806783458E+01  0.51100000000E-03 0.  1.
        -12    1    3    3    0    0  0.82176786868E+00  0.10397827878E+01  0.10704978142E+02  0.10786705136E+02  0.00000000000E+00 0.  1.
</event>
<event>
 7    1  0.3221417E-010  0.4778727E+02  0.7816164E-02  0.1312668E+00
        -11   -1    0    0    0    0  0.00000000000E+00  0.00000000000E+00  0.45593999997E+02  0.45594000000E+02  0.51100000000E-03 0. -1.
         11   -1    0    0    0    0 -0.00000000000E+00 -0.00000000000E+00 -0.45593999997E+02  0.45594000000E+02  0.51100000000E-03 0.  1.
    9900012    2    1    2    0    0 -0.10497714779E+02 -0.11580848983E+02 -0.40488338366E+02  0.47787267030E+02  0.19999981694E+02 0.  0.
         12    1    1    2    0    0  0.10497714779E+02  0.11580848983E+02  0.40488338366E+02  0.43400732970E+02  0.00000000000E+00 0. -1.
         11    1    3    3    0    0 -0.15414418104E+01 -0.23807336679E+01 -0.20718456770E+02  0.20911680632E+02  0.51100000000E-03 0.  1.
        -11    1    3    3    0    0  0.21713776763E+01 -0.31932255365E+01 -0.59605341696E+00  0.39072816992E+01  0.51100000000E-03 0. -1.
         12    1    3    3    0    0 -0.11127650645E+02 -0.60068897788E+01 -0.19173828179E+02  0.22968304699E+02  0.00000000000E+00 0. -1.
</event>
<event>
 7    1  0.3221417E-010  0.4778727E+02  0.7816164E-02  0.1312668E+00
        -11   -1    0    0    0    0  0.00000000000E+00  0.00000000000E+00  0.45593999997E+02  0.45594000000E+02  0.51100000000E-03 0. -1.
         11   -1    0    0    0    0 -0.00000000000E+00 -0.00000000000E+00 -0.45593999997E+02  0.45594000000E+02  0.51100000000E-03 0.  1.
    9900012    2    1    2    0    0  0.31445152466E+02  0.78576643959E+01 -0.28863174194E+02  0.47787270422E+02  0.19999997162E+02 0.  0.
         12    1    1    2    0    0 -0.31445152466E+02 -0.78576643959E+01  0.28863174194E+02  0.43400729578E+02  0.00000000000E+00 0. -1.
         11    1    3    3    0    0  0.12058969559E+02  0.99189289443E+01 -0.69306101849E+01  0.17083244891E+02  0.51100000000E-03 0. -1.
        -11    1    3    3    0    0  0.11397717787E+01 -0.29972372704E+01 -0.36186172725E+01  0.48349666171E+01  0.51100000000E-03 0.  1.
        -12    1    3    3    0    0  0.18246411128E+02  0.93597272195E+00 -0.18313946737E+02  0.25869058914E+02  0.00000000000E+00 0.  1.
</event>
<event>
 7    1  0.3221417E-010  0.4778727E+02  0.7816164E-02  0.1312668E+00
        -11   -1    0    0    0    0  0.00000000000E+00  0.00000000000E+00  0.45593999997E+02  0.45594000000E+02  0.51100000000E-03 0. -1.
         11   -1    0    0    0    0 -0.00000000000E+00 -0.00000000000E+00 -0.45593999997E+02  0.45594000000E+02  0.51100000000E-03 0.  1.
    9900012    2    1    2    0    0 -0.12730641247E+02  0.26193966471E+02 -0.32178100439E+02  0.47787271275E+02  0.20000001049E+02 0.  0.
         12    1    1    2    0    0  0.12730641247E+02 -0.26193966471E+02  0.32178100439E+02  0.43400728725E+02  0.00000000000E+00 0. -1.
         11    1    3    3    0    0  0.25478571825E+01  0.73730918269E+01 -0.49127329893E+01  0.92189481501E+01  0.51100000000E-03 0. -1.
        -11    1    3    3    0    0 -0.20231440017E+00  0.41113621073E+01 -0.22380150974E-02  0.41163375425E+01  0.51100000000E-03 0.  1.
        -12    1    3    3    0    0 -0.15076184030E+02  0.14709512536E+02 -0.27263129435E+02  0.34451985582E+02  0.00000000000E+00 0.  1.
</event>
<event>
 7    1  0.3221417E-010  0.4778727E+02  0.7816164E-02  0.1312668E+00
        -11   -1    0    0    0    0  0.00000000000E+00  0.00000000000E+00  0.45593999997E+02  0.45594000000E+02  0.51100000000E-03 0. -1.
         11   -1    0    0    0    0 -0.00000000000E+00 -0.00000000000E+00 -0.45593999997E+02  0.45594000000E+02  0.51100000000E-03 0.  1.
    9900012    2    1    2    0    0 -0.40180341881E+02 -0.16406168048E+02  0.39675765280E-01  0.47787265008E+02  0.19999972476E+02 0.  0.
         12    1    1    2    0    0  0.40180341881E+02  0.16406168048E+02 -0.39675765280E-01  0.43400734992E+02  0.00000000000E+00 0. -1.
         11    1    3    3    0    0 -0.96026193586E+01  0.12027854372E+01 -0.65444080654E+00  0.96997569240E+01  0.51100000000E-03 0. -1.
        -11    1    3    3    0    0 -0.23170813123E+02 -0.16165945787E+02 -0.49251814791E+01  0.28678943440E+02  0.51100000000E-03 0.  1.
        -12    1    3    3    0    0 -0.74069093991E+01 -0.14430076982E+01  0.56192980509E+01  0.94085646434E+01  0.00000000000E+00 0.  1.
</event>
<event>
 7    1  0.3221417E-010  0.4778727E+02  0.7816164E-02  0.1312668E+00
        -11   -1    0    0    0    0  0.00000000000E+00  0.00000000000E+00  0.45593999997E+02  0.45594000000E+02  0.51100000000E-03 0. -1.
         11   -1    0    0    0    0 -0.00000000000E+00 -0.00000000000E+00 -0.45593999997E+02  0.45594000000E+02  0.51100000000E-03 0.  1.
    9900012    2    1    2    0    0 -0.27989683890E+01 -0.31478912706E+01  0.43195836440E+02  0.47787265799E+02  0.19999976083E+02 0.  0.
        -12    1    1    2    0    0  0.27989683890E+01  0.31478912706E+01 -0.43195836440E+02  0.43400734201E+02  0.00000000000E+00 0.  1.
         11    1    3    3    0    0  0.41824733149E+01  0.24051311980E+01  0.54384483039E+01  0.72701072430E+01  0.51100000000E-03 0. -1.
        -11    1    3    3    0    0 -0.45576544898E+01  0.29987058301E+01  0.10281876481E+02  0.11639649279E+02  0.51100000000E-03 0.  1.
         12    1    3    3    0    0 -0.24237872141E+01 -0.85517282987E+01  0.27475511655E+02  0.28877509277E+02  0.00000000000E+00 0. -1.
</event>
<event>
 7    1  0.3221417E-010  0.4778727E+02  0.7816164E-02  0.1312668E+00
        -11   -1    0    0    0    0  0.00000000000E+00  0.00000000000E+00  0.45593999997E+02  0.45594000000E+02  0.51100000000E-03 0. -1.
         11   -1    0    0    0    0 -0.00000000000E+00 -0.00000000000E+00 -0.45593999997E+02  0.45594000000E+02  0.51100000000E-03 0.  1.
    9900012    2    1    2    0    0  0.34766553527E+02 -0.10018378948E+02  0.23969602471E+02  0.47787274159E+02  0.20000014200E+02 0.  0.
        -12    1    1    2    0    0 -0.34766553527E+02  0.10018378948E+02 -0.23969602471E+02  0.43400725841E+02  0.00000000000E+00 0.  1.
         11    1    3    3    0    0  0.13407023140E+02 -0.41369547245E+01  0.14707688966E+01  0.14107651302E+02  0.51100000000E-03 0. -1.
        -11    1    3    3    0    0  0.67862637373E+01  0.35746463125E+01  0.75154820606E+01  0.10738432969E+02  0.51100000000E-03 0.  1.
         12    1    3    3    0    0  0.14573266650E+02 -0.94560705364E+01  0.14983351514E+02  0.22941189887E+02  0.00000000000E+00 0. -1.
</event>
<event>
 7    1  0.3221417E-010  0.4778725E+02  0.7816164E-02  0.1312668E+00
        -11   -1    0    0    0    0  0.00000000000E+00  0.00000000000E+00  0.45593999997E+02  0.45594000000E+02  0.51100000000E-03 0. -1.
         11   -1    0    0    0    0 -0.00000000000E+00 -0.00000000000E+00 -0.45593999997E+02  0.45594000000E+02  0.51100000000E-03 0.  1.
    9900012    2    1    2    0    0 -0.15096639579E+02 -0.65550259091E+01 -0.40159033225E+02  0.47787252992E+02  0.19999917693E+02 0.  0.
         12    1    1    2    0    0  0.15096639579E+02  0.65550259091E+01  0.40159033225E+02  0.43400747008E+02  0.00000000000E+00 0. -1.
         11    1    3    3    0    0  0.27134793841E+01  0.23882466221E+00 -0.37218931056E+01  0.46122116320E+01  0.51100000000E-03 0. -1.
        -11    1    3    3    0    0 -0.37722146798E+01 -0.52963238203E+01 -0.22169463806E+02  0.23103371513E+02  0.51100000000E-03 0.  1.
         12    1    3    3    0    0 -0.14037904284E+02 -0.14975267510E+01 -0.14267676314E+02  0.20071669847E+02  0.00000000000E+00 0. -1.
</event>
<event>
 7    1  0.3221417E-010  0.4778727E+02  0.7816164E-02  0.1312668E+00
        -11   -1    0    0    0    0  0.00000000000E+00  0.00000000000E+00  0.45593999997E+02  0.45594000000E+02  0.51100000000E-03 0.  1.
         11   -1    0    0    0    0 -0.00000000000E+00 -0.00000000000E+00 -0.45593999997E+02  0.45594000000E+02  0.51100000000E-03 0. -1.
    9900012    2    1    2    0    0 -0.42238054392E+02  0.61923457846E+01  0.78246376853E+01  0.47787270282E+02  0.19999996526E+02 0.  0.
         12    1    1    2    0    0  0.42238054392E+02 -0.61923457846E+01 -0.78246376853E+01  0.43400729718E+02  0.00000000000E+00 0. -1.
         11    1    3    3    0    0 -0.22009331780E+02  0.52519569530E+01  0.44178062331E+01  0.23054516898E+02  0.51100000000E-03 0. -1.
        -11    1    3    3    0    0 -0.15313837455E+02  0.65766462821E+01  0.42707880471E+01  0.17204811092E+02  0.51100000000E-03 0.  1.
         12    1    3    3    0    0 -0.49148851569E+01 -0.56362574505E+01 -0.86395659489E+00  0.75279422921E+01  0.00000000000E+00 0. -1.
</event>
<event>
 7    1  0.3221417E-010  0.4778728E+02  0.7816164E-02  0.1312668E+00
        -11   -1    0    0    0    0  0.00000000000E+00  0.00000000000E+00  0.45593999997E+02  0.45594000000E+02  0.51100000000E-03 0. -1.
         11   -1    0    0    0    0 -0.00000000000E+00 -0.00000000000E+00 -0.45593999997E+02  0.45594000000E+02  0.51100000000E-03 0.  1.
    9900012    2    1    2    0    0  0.17570248186E+02 -0.27740789938E+02  0.28378827314E+02  0.47787275496E+02  0.20000020297E+02 0.  0.
        -12    1    1    2    0    0 -0.17570248186E+02  0.27740789938E+02 -0.28378827314E+02  0.43400724504E+02  0.00000000000E+00 0.  1.
         11    1    3    3    0    0 -0.37419702987E+00 -0.10676533999E+02  0.14141109003E+02  0.17722848691E+02  0.51100000000E-03 0. -1.
        -11    1    3    3    0    0  0.27254657839E+01 -0.42592458561E+01 -0.81397824017E+00  0.51217086835E+01  0.51100000000E-03 0.  1.
        -12    1    3    3    0    0  0.15218979432E+02 -0.12805010084E+02  0.15051696552E+02  0.24942718122E+02  0.00000000000E+00 0.  1.
</event>
<event>
 7    1  0.3221417E-010  0.4778727E+02  0.7816164E-02  0.1312668E+00
        -11   -1    0    0    0    0  0.00000000000E+00  0.00000000000E+00  0.45593999997E+02  0.45594000000E+02  0.51100000000E-03 0. -1.
         11   -1    0    0    0    0 -0.00000000000E+00 -0.00000000000E+00 -0.45593999997E+02  0.45594000000E+02  0.51100000000E-03 0.  1.
    9900012    2    1    2    0    0  0.27409937287E+02 -0.21401538800E+00 -0.33649260959E+02  0.47787271576E+02  0.20000002422E+02 0.  0.
         12    1    1    2    0    0 -0.27409937287E+02  0.21401538800E+00  0.33649260959E+02  0.43400728424E+02  0.00000000000E+00 0. -1.
         11    1    3    3    0    0  0.19061923083E+01 -0.24377561452E+01 -0.77797569491E+01  0.83726245938E+01  0.51100000000E-03 0. -1.
        -11    1    3    3    0    0  0.96944740476E+01  0.44924287911E+01 -0.22772891511E+01  0.10924778700E+02  0.51100000000E-03 0.  1.
        -12    1    3    3    0    0  0.15809270931E+02 -0.22686880339E+01 -0.23592214859E+02  0.28489868282E+02  0.00000000000E+00 0.  1.
</event>
<event>
 7    1  0.3221417E-010  0.4778727E+02  0.7816164E-02  0.1312668E+00
        -11   -1    0    0    0    0  0.00000000000E+00  0.00000000000E+00  0.45593999997E+02  0.45594000000E+02  0.51100000000E-03 0. -1.
         11   -1    0    0    0    0 -0.00000000000E+00 -0.00000000000E+00 -0.45593999997E+02  0.45594000000E+02  0.51100000000E-03 0.  1.
    9900012    2    1    2    0    0 -0.54223027961E+01 -0.36823162887E+02  0.22322119340E+02  0.47787266084E+02  0.19999977382E+02 0.  0.
        -12    1    1    2    0    0  0.54223027961E+01  0.36823162887E+02 -0.22322119340E+02  0.43400733916E+02  0.00000000000E+00 0.  1.
         11    1    3    3    0    0 -0.65920454033E+01 -0.24379502148E+02  0.85745589986E+01  0.26670925179E+02  0.51100000000E-03 0.  1.
        -11    1    3    3    0    0  0.18126389690E+01 -0.14054971800E+02  0.11346313251E+02  0.18153972485E+02  0.51100000000E-03 0. -1.
        -12    1    3    3    0    0 -0.64289636175E+00  0.16113110611E+01  0.24012470904E+01  0.29623684201E+01  0.00000000000E+00 0.  1.
</event>
<event>
 7    1  0.3221417E-010  0.4778727E+02  0.7816164E-02  0.1312668E+00
        -11   -1    0    0    0    0  0.00000000000E+00  0.00000000000E+00  0.45593999997E+02  0.45594000000E+02  0.51100000000E-03 0. -1.
         11   -1    0    0    0    0 -0.00000000000E+00 -0.00000000000E+00 -0.45593999997E+02  0.45594000000E+02  0.51100000000E-03 0.  1.
    9900012    2    1    2    0    0  0.27876315345E+02  0.67789492262E+01 -0.32566557012E+02  0.47787265611E+02  0.19999975227E+02 0.  0.
         12    1    1    2    0    0 -0.27876315345E+02 -0.67789492262E+01  0.32566557012E+02  0.43400734389E+02  0.00000000000E+00 0. -1.
         11    1    3    3    0    0  0.94024582099E+01 -0.39777994813E+01 -0.20987607462E+01  0.10422759041E+02  0.51100000000E-03 0. -1.
        -11    1    3    3    0    0  0.11606314744E+02  0.68287507389E+01 -0.16355709668E+02  0.21186024110E+02  0.51100000000E-03 0.  1.
        -12    1    3    3    0    0  0.68675423920E+01  0.39279979686E+01 -0.14112086598E+02  0.16178482460E+02  0.00000000000E+00 0.  1.
</event>
<event>
 7    1  0.3221417E-010  0.4778727E+02  0.7816164E-02  0.1312668E+00
        -11   -1    0    0    0    0  0.00000000000E+00  0.00000000000E+00  0.45593999997E+02  0.45594000000E+02  0.51100000000E-03 0. -1.
         11   -1    0    0    0    0 -0.00000000000E+00 -0.00000000000E+00 -0.45593999997E+02  0.45594000000E+02  0.51100000000E-03 0.  1.
    9900012    2    1    2    0    0  0.11533007426E+02  0.75805746197E+01 -0.41147880638E+02  0.47787268983E+02  0.19999990600E+02 0.  0.
         12    1    1    2    0    0 -0.11533007426E+02 -0.75805746197E+01  0.41147880638E+02  0.43400731017E+02  0.00000000000E+00 0. -1.
         11    1    3    3    0    0 -0.43796702833E+01  0.23544604367E+01 -0.94554399560E+01  0.10683180274E+02  0.51100000000E-03 0. -1.
        -11    1    3    3    0    0  0.76143024516E+01  0.33780096840E+01 -0.66530226614E+01  0.10660734592E+02  0.51100000000E-03 0.  1.
        -12    1    3    3    0    0  0.82983752573E+01  0.18481044990E+01 -0.25039418020E+02  0.26443354117E+02  0.00000000000E+00 0.  1.
</event>
<event>
 7    1  0.3221417E-010  0.4778731E+02  0.7816164E-02  0.1312668E+00
        -11   -1    0    0    0    0  0.00000000000E+00  0.00000000000E+00  0.45593999997E+02  0.45594000000E+02  0.51100000000E-03 0. -1.
         11   -1    0    0    0    0 -0.00000000000E+00 -0.00000000000E+00 -0.45593999997E+02  0.45594000000E+02  0.51100000000E-03 0.  1.
    9900012    2    1    2    0    0 -0.13278773232E+02 -0.22837142195E+02  0.34434845704E+02  0.47787314743E+02  0.20000199237E+02 0.  0.
        -12    1    1    2    0    0  0.13278773232E+02  0.22837142195E+02 -0.34434845704E+02  0.43400685257E+02  0.00000000000E+00 0.  1.
         11    1    3    3    0    0 -0.15568518522E+02 -0.86969117750E+01  0.15922072386E+02  0.23906639929E+02  0.51100000000E-03 0. -1.
        -11    1    3    3    0    0 -0.85290649534E+00 -0.70478900261E+01  0.10927039444E+02  0.13030748044E+02  0.51100000000E-03 0.  1.
        -12    1    3    3    0    0  0.31426517854E+01 -0.70923403936E+01  0.75857338734E+01  0.10849926769E+02  0.00000000000E+00 0.  1.
</event>
<event>
 7    1  0.3221417E-010  0.4778727E+02  0.7816164E-02  0.1312668E+00
        -11   -1    0    0    0    0  0.00000000000E+00  0.00000000000E+00  0.45593999997E+02  0.45594000000E+02  0.51100000000E-03 0. -1.
         11   -1    0    0    0    0 -0.00000000000E+00 -0.00000000000E+00 -0.45593999997E+02  0.45594000000E+02  0.51100000000E-03 0.  1.
    9900012    2    1    2    0    0  0.28695606590E+02  0.76831438629E+01 -0.31641029280E+02  0.47787271077E+02  0.20000000149E+02 0.  0.
         12    1    1    2    0    0 -0.28695606590E+02 -0.76831438629E+01  0.31641029280E+02  0.43400728923E+02  0.00000000000E+00 0. -1.
         11    1    3    3    0    0  0.57368174677E+01  0.82744695925E+01 -0.68727226205E+01  0.12190661925E+02  0.51100000000E-03 0. -1.
        -11    1    3    3    0    0  0.17164154115E+02  0.28630643670E+01 -0.22574178392E+02  0.28502611361E+02  0.51100000000E-03 0.  1.
        -12    1    3    3    0    0  0.57946350071E+01 -0.34543900966E+01 -0.21941282670E+01  0.70939977908E+01  0.00000000000E+00 0.  1.
</event>
<event>
 7    1  0.3221417E-010  0.4778728E+02  0.7816164E-02  0.1312668E+00
        -11   -1    0    0    0    0  0.00000000000E+00  0.00000000000E+00  0.45593999997E+02  0.45594000000E+02  0.51100000000E-03 0. -1.
         11   -1    0    0    0    0 -0.00000000000E+00 -0.00000000000E+00 -0.45593999997E+02  0.45594000000E+02  0.51100000000E-03 0.  1.
    9900012    2    1    2    0    0  0.22766871090E+02 -0.13933157045E+02  0.34222207052E+02  0.47787277195E+02  0.20000028042E+02 0.  0.
        -12    1    1    2    0    0 -0.22766871090E+02  0.13933157045E+02 -0.34222207052E+02  0.43400722805E+02  0.00000000000E+00 0.  1.
         11    1    3    3    0    0  0.12479875556E+02 -0.60492090804E+01  0.25520790171E+02  0.29045670170E+02  0.51100000000E-03 0. -1.
        -11    1    3    3    0    0 -0.16181482097E+01 -0.31758568065E+01  0.32620371571E+01  0.48317032979E+01  0.51100000000E-03 0.  1.
         12    1    3    3    0    0  0.11905143744E+02 -0.47080911581E+01  0.54393797239E+01  0.13909903727E+02  0.00000000000E+00 0. -1.
</event>
<event>
 7    1  0.3221417E-010  0.4778728E+02  0.7816164E-02  0.1312668E+00
        -11   -1    0    0    0    0  0.00000000000E+00  0.00000000000E+00  0.45593999997E+02  0.45594000000E+02  0.51100000000E-03 0. -1.
         11   -1    0    0    0    0 -0.00000000000E+00 -0.00000000000E+00 -0.45593999997E+02  0.45594000000E+02  0.51100000000E-03 0.  1.
    9900012    2    1    2    0    0 -0.12231655393E+02  0.17232851774E+02 -0.37908283339E+02  0.47787279734E+02  0.20000039618E+02 0.  0.
         12    1    1    2    0    0  0.12231655393E+02 -0.17232851774E+02  0.37908283339E+02  0.43400720266E+02  0.00000000000E+00 0. -1.
         11    1    3    3    0    0 -0.19339322070E+00 -0.26967969755E+01 -0.33307018646E+01  0.42899522185E+01  0.51100000000E-03 0. -1.
        -11    1    3    3    0    0 -0.50592460952E+00  0.11295013091E+02 -0.10450537521E+02  0.15396331225E+02  0.51100000000E-03 0.  1.
        -12    1    3    3    0    0 -0.11532337563E+02  0.86346356589E+01 -0.24127043953E+02  0.28100996291E+02  0.00000000000E+00 0.  1.
</event>
<event>
 7    1  0.3221417E-010  0.4778727E+02  0.7816164E-02  0.1312668E+00
        -11   -1    0    0    0    0  0.00000000000E+00  0.00000000000E+00  0.45593999997E+02  0.45594000000E+02  0.51100000000E-03 0. -1.
         11   -1    0    0    0    0 -0.00000000000E+00 -0.00000000000E+00 -0.45593999997E+02  0.45594000000E+02  0.51100000000E-03 0.  1.
    9900012    2    1    2    0    0  0.83518897972E+01 -0.26734974806E+01  0.42505545454E+02  0.47787273666E+02  0.20000011953E+02 0.  0.
        -12    1    1    2    0    0 -0.83518897972E+01  0.26734974806E+01 -0.42505545454E+02  0.43400726334E+02  0.00000000000E+00 0.  1.
         11    1    3    3    0    0 -0.83177777079E-01 -0.30759635624E+01  0.13875625839E+02  0.14212721874E+02  0.51100000000E-03 0. -1.
        -11    1    3    3    0    0  0.10982495683E+02  0.56580670699E+00  0.10298757694E+02  0.15066511174E+02  0.51100000000E-03 0.  1.
        -12    1    3    3    0    0 -0.25474281092E+01 -0.16334062525E+00  0.18331161921E+02  0.18508040617E+02  0.00000000000E+00 0.  1.
</event>
<event>
 7    1  0.3221417E-010  0.4778728E+02  0.7816164E-02  0.1312668E+00
        -11   -1    0    0    0    0  0.00000000000E+00  0.00000000000E+00  0.45593999997E+02  0.45594000000E+02  0.51100000000E-03 0. -1.
         11   -1    0    0    0    0 -0.00000000000E+00 -0.00000000000E+00 -0.45593999997E+02  0.45594000000E+02  0.51100000000E-03 0.  1.
    9900012    2    1    2    0    0 -0.11066227876E+02  0.32020180493E+02  0.27126911598E+02  0.47787277759E+02  0.20000030615E+02 0.  0.
        -12    1    1    2    0    0  0.11066227876E+02 -0.32020180493E+02 -0.27126911598E+02  0.43400722241E+02  0.00000000000E+00 0.  1.
         11    1    3    3    0    0  0.65931139829E+00  0.15437170725E+02  0.13070860357E+02  0.20238288520E+02  0.51100000000E-03 0. -1.
        -11    1    3    3    0    0 -0.18643121285E+01  0.81691331477E+01  0.11672699330E+02  0.14368796261E+02  0.51100000000E-03 0.  1.
        -12    1    3    3    0    0 -0.98612271455E+01  0.84138766202E+01  0.23833519118E+01  0.13180192978E+02  0.00000000000E+00 0.  1.
</event>
<event>
 7    1  0.3221417E-010  0.4778729E+02  0.7816164E-02  0.1312668E+00
        -11   -1    0    0    0    0  0.00000000000E+00  0.00000000000E+00  0.45593999997E+02  0.45594000000E+02  0.51100000000E-03 0. -1.
         11   -1    0    0    0    0 -0.00000000000E+00 -0.00000000000E+00 -0.45593999997E+02  0.45594000000E+02  0.51100000000E-03 0.  1.
    9900012    2    1    2    0    0  0.82462199263E+01 -0.17096625266E+02 -0.39029821709E+02  0.47787288932E+02  0.20000081558E+02 0.  0.
         12    1    1    2    0    0 -0.82462199263E+01  0.17096625266E+02  0.39029821709E+02  0.43400711068E+02  0.00000000000E+00 0. -1.
         11    1    3    3    0    0 -0.72228872008E+00 -0.73746796279E+00 -0.54314845912E+00  0.11664349536E+01  0.51100000000E-03 0. -1.
        -11    1    3    3    0    0 -0.17587172707E+01 -0.14848039425E+02 -0.17613785976E+02  0.23104173170E+02  0.51100000000E-03 0.  1.
         12    1    3    3    0    0  0.10727225917E+02 -0.15111178786E+01 -0.20872887273E+02  0.23516680808E+02  0.00000000000E+00 0. -1.
</event>
<event>
 7    1  0.3221417E-010  0.4778727E+02  0.7816164E-02  0.1312668E+00
        -11   -1    0    0    0    0  0.00000000000E+00  0.00000000000E+00  0.45593999997E+02  0.45594000000E+02  0.51100000000E-03 0. -1.
         11   -1    0    0    0    0 -0.00000000000E+00 -0.00000000000E+00 -0.45593999997E+02  0.45594000000E+02  0.51100000000E-03 0.  1.
    9900012    2    1    2    0    0 -0.55151168343E+01  0.19708185374E+02  0.38272633036E+02  0.47787268164E+02  0.19999986865E+02 0.  0.
        -12    1    1    2    0    0  0.55151168343E+01 -0.19708185374E+02 -0.38272633036E+02  0.43400731836E+02  0.00000000000E+00 0.  1.
         11    1    3    3    0    0 -0.48812233317E+01  0.11276122016E+01  0.65820768488E+01  0.82717341831E+01  0.51100000000E-03 0.  1.
        -11    1    3    3    0    0 -0.24116432306E+01  0.17796101967E+02  0.17105212462E+02  0.24801321778E+02  0.51100000000E-03 0. -1.
         12    1    3    3    0    0  0.17777497280E+01  0.78447120533E+00  0.14585343725E+02  0.14714212203E+02  0.00000000000E+00 0. -1.
</event>
<event>
 7    1  0.3221417E-010  0.4778727E+02  0.7816164E-02  0.1312668E+00
        -11   -1    0    0    0    0  0.00000000000E+00  0.00000000000E+00  0.45593999997E+02  0.45594000000E+02  0.51100000000E-03 0. -1.
         11   -1    0    0    0    0 -0.00000000000E+00 -0.00000000000E+00 -0.45593999997E+02  0.45594000000E+02  0.51100000000E-03 0.  1.
    9900012    2    1    2    0    0  0.26344169436E+00 -0.38407302789E+02 -0.20209725431E+02  0.47787270616E+02  0.19999998048E+02 0.  0.
         12    1    1    2    0    0 -0.26344169436E+00  0.38407302789E+02  0.20209725431E+02  0.43400729384E+02  0.00000000000E+00 0. -1.
         11    1    3    3    0    0  0.21656055178E+01 -0.70277638299E+01 -0.18587076006E+01  0.75851239880E+01  0.51100000000E-03 0. -1.
        -11    1    3    3    0    0  0.25146994777E+01 -0.30155797775E+02 -0.12428566870E+02  0.32713378419E+02  0.51100000000E-03 0.  1.
        -12    1    3    3    0    0 -0.44168633011E+01 -0.12237411840E+01 -0.59224509606E+01  0.74887682089E+01  0.00000000000E+00 0.  1.
</event>
<event>
 7    1  0.3221417E-010  0.4778727E+02  0.7816164E-02  0.1312668E+00
        -11   -1    0    0    0    0  0.00000000000E+00  0.00000000000E+00  0.45593999997E+02  0.45594000000E+02  0.51100000000E-03 0. -1.
         11   -1    0    0    0    0 -0.00000000000E+00 -0.00000000000E+00 -0.45593999997E+02  0.45594000000E+02  0.51100000000E-03 0.  1.
    9900012    2    1    2    0    0 -0.20120206387E+02 -0.34701592695E+02 -0.16571054660E+02  0.47787273127E+02  0.20000009493E+02 0.  0.
         12    1    1    2    0    0  0.20120206387E+02  0.34701592695E+02  0.16571054660E+02  0.43400726873E+02  0.00000000000E+00 0. -1.
         11    1    3    3    0    0 -0.13507414432E+02 -0.17301221562E+02 -0.41396604150E+01  0.22336501534E+02  0.51100000000E-03 0. -1.
        -11    1    3    3    0    0 -0.14286356258E+01 -0.16576618338E+02 -0.75067626028E+01  0.18253130151E+02  0.51100000000E-03 0.  1.
         12    1    3    3    0    0 -0.51841563295E+01 -0.82375279549E+00 -0.49246316423E+01  0.71976414421E+01  0.00000000000E+00 0. -1.
</event>
<event>
 7    1  0.3221417E-010  0.4778727E+02  0.7816164E-02  0.1312668E+00
        -11   -1    0    0    0    0  0.00000000000E+00  0.00000000000E+00  0.45593999997E+02  0.45594000000E+02  0.51100000000E-03 0. -1.
         11   -1    0    0    0    0 -0.00000000000E+00 -0.00000000000E+00 -0.45593999997E+02  0.45594000000E+02  0.51100000000E-03 0.  1.
    9900012    2    1    2    0    0 -0.23937756815E+02  0.14161109786E+02 -0.33317718773E+02  0.47787267103E+02  0.19999982031E+02 0.  0.
         12    1    1    2    0    0  0.23937756815E+02 -0.14161109786E+02  0.33317718773E+02  0.43400732897E+02  0.00000000000E+00 0. -1.
         11    1    3    3    0    0  0.95897776836E+00 -0.67546682810E+00 -0.10792814408E+01  0.15939706665E+01  0.51100000000E-03 0. -1.
        -11    1    3    3    0    0 -0.23887755453E+02  0.73608010744E+01 -0.28025274154E+02  0.37552925914E+02  0.51100000000E-03 0.  1.
        -12    1    3    3    0    0 -0.10089791307E+01  0.74757755396E+01 -0.42131631781E+01  0.86403705227E+01  0.00000000000E+00 0.  1.
</event>
<event>
 7    1  0.3221417E-010  0.4778727E+02  0.7816164E-02  0.1312668E+00
        -11   -1    0    0    0    0  0.00000000000E+00  0.00000000000E+00  0.45593999997E+02  0.45594000000E+02  0.51100000000E-03 0. -1.
         11   -1    0    0    0    0 -0.00000000000E+00 -0.00000000000E+00 -0.45593999997E+02  0.45594000000E+02  0.51100000000E-03 0.  1.
    9900012    2    1    2    0    0  0.18641557254E+02 -0.81638022315E+01  0.38333639348E+02  0.47787271557E+02  0.20000002337E+02 0.  0.
        -12    1    1    2    0    0 -0.18641557254E+02  0.81638022315E+01 -0.38333639348E+02  0.43400728443E+02  0.00000000000E+00 0.  1.
         11    1    3    3    0    0  0.12030580107E+02  0.37329202989E+01  0.17515878863E+02  0.21574882718E+02  0.51100000000E-03 0. -1.
        -11    1    3    3    0    0  0.46121338914E+00 -0.49945258727E+01  0.13564301744E+02  0.14461960052E+02  0.51100000000E-03 0.  1.
        -12    1    3    3    0    0  0.61497637574E+01 -0.69021966576E+01  0.72534587407E+01  0.11750428787E+02  0.00000000000E+00 0.  1.
</event>
<event>
 7    1  0.3221417E-010  0.4778726E+02  0.7816164E-02  0.1312668E+00
        -11   -1    0    0    0    0  0.00000000000E+00  0.00000000000E+00  0.45593999997E+02  0.45594000000E+02  0.51100000000E-03 0. -1.
         11   -1    0    0    0    0 -0.00000000000E+00 -0.00000000000E+00 -0.45593999997E+02  0.45594000000E+02  0.51100000000E-03 0.  1.
    9900012    2    1    2    0    0 -0.32844825169E+02  0.19255613559E+02 -0.20834180746E+02  0.47787259438E+02  0.19999947083E+02 0.  0.
         12    1    1    2    0    0  0.32844825169E+02 -0.19255613559E+02  0.20834180746E+02  0.43400740562E+02  0.00000000000E+00 0. -1.
         11    1    3    3    0    0  0.32063046853E+00  0.45716486299E+01 -0.35145416183E+01  0.57753595681E+01  0.51100000000E-03 0. -1.
        -11    1    3    3    0    0 -0.18081181600E+02  0.10691963534E+02 -0.15897887665E+02  0.26343690795E+02  0.51100000000E-03 0.  1.
         12    1    3    3    0    0 -0.15084274038E+02  0.39920013959E+01 -0.14217514627E+01  0.15668209075E+02  0.00000000000E+00 0. -1.
</event>
<event>
 7    1  0.3861638E-010  0.4778727E+02  0.7816164E-02  0.1312668E+00
        -11   -1    0    0    0    0  0.00000000000E+00  0.00000000000E+00  0.45593999997E+02  0.45594000000E+02  0.51100000000E-03 0. -1.
         11   -1    0    0    0    0 -0.00000000000E+00 -0.00000000000E+00 -0.45593999997E+02  0.45594000000E+02  0.51100000000E-03 0.  1.
    9900012    2    1    2    0    0 -0.27287451322E+02  0.17950142974E+02 -0.28579906239E+02  0.47787266445E+02  0.19999979031E+02 0.  0.
         12    1    1    2    0    0  0.27287451322E+02 -0.17950142974E+02  0.28579906239E+02  0.43400733555E+02  0.00000000000E+00 0. -1.
         11    1    3    3    0    0 -0.20923237330E+01 -0.22548644012E+01 -0.12178401492E+01  0.33083782979E+01  0.51100000000E-03 0. -1.
        -11    1    3    3    0    0 -0.15332203292E+02  0.13797379878E+02 -0.25123926342E+02  0.32506242852E+02  0.51100000000E-03 0.  1.
         12    1    3    3    0    0 -0.98629242969E+01  0.64076274976E+01 -0.22381397480E+01  0.11972645295E+02  0.00000000000E+00 0. -1.
</event>
<event>
 7    1  0.3221417E-010  0.4778729E+02  0.7816164E-02  0.1312668E+00
        -11   -1    0    0    0    0  0.00000000000E+00  0.00000000000E+00  0.45593999997E+02  0.45594000000E+02  0.51100000000E-03 0. -1.
         11   -1    0    0    0    0 -0.00000000000E+00 -0.00000000000E+00 -0.45593999997E+02  0.45594000000E+02  0.51100000000E-03 0.  1.
    9900012    2    1    2    0    0 -0.25576240545E+02 -0.26196289514E+02  0.23307333633E+02  0.47787291874E+02  0.20000094971E+02 0.  0.
        -12    1    1    2    0    0  0.25576240545E+02  0.26196289514E+02 -0.23307333633E+02  0.43400708126E+02  0.00000000000E+00 0.  1.
         11    1    3    3    0    0 -0.24652262169E+01  0.86476323619E+00  0.31428098698E+01  0.40868581935E+01  0.51100000000E-03 0. -1.
        -11    1    3    3    0    0 -0.20151489428E+02 -0.19920440482E+02  0.82750002924E+01  0.29519181988E+02  0.51100000000E-03 0.  1.
         12    1    3    3    0    0 -0.29595249008E+01 -0.71406122682E+01  0.11889523471E+02  0.14181251692E+02  0.00000000000E+00 0. -1.
</event>
<event>
 7    1  0.3221417E-010  0.4778727E+02  0.7816164E-02  0.1312668E+00
        -11   -1    0    0    0    0  0.00000000000E+00  0.00000000000E+00  0.45593999997E+02  0.45594000000E+02  0.51100000000E-03 0. -1.
         11   -1    0    0    0    0 -0.00000000000E+00 -0.00000000000E+00 -0.45593999997E+02  0.45594000000E+02  0.51100000000E-03 0.  1.
    9900012    2    1    2    0    0 -0.13286854840E+02  0.14513718973E+02  0.38683781907E+02  0.47787268064E+02  0.19999986411E+02 0.  0.
        -12    1    1    2    0    0  0.13286854840E+02 -0.14513718973E+02 -0.38683781907E+02  0.43400731936E+02  0.00000000000E+00 0.  1.
         11    1    3    3    0    0  0.70770073098E+00  0.49976060837E+01  0.14021529870E+01  0.52386009728E+01  0.51100000000E-03 0.  1.
        -11    1    3    3    0    0 -0.11097461833E+02  0.12032604517E+02  0.32732312237E+02  0.36597014840E+02  0.51100000000E-03 0. -1.
         12    1    3    3    0    0 -0.28970937382E+01 -0.25164916270E+01  0.45493166830E+01  0.59516522512E+01  0.00000000000E+00 0. -1.
</event>
<event>
 7    1  0.3221417E-010  0.4778727E+02  0.7816164E-02  0.1312668E+00
        -11   -1    0    0    0    0  0.00000000000E+00  0.00000000000E+00  0.45593999997E+02  0.45594000000E+02  0.51100000000E-03 0. -1.
         11   -1    0    0    0    0 -0.00000000000E+00 -0.00000000000E+00 -0.45593999997E+02  0.45594000000E+02  0.51100000000E-03 0.  1.
    9900012    2    1    2    0    0  0.88450417965E+01  0.22606165993E+02  0.35977070324E+02  0.47787273112E+02  0.20000009429E+02 0.  0.
        -12    1    1    2    0    0 -0.88450417965E+01 -0.22606165993E+02 -0.35977070324E+02  0.43400726888E+02  0.00000000000E+00 0.  1.
         11    1    3    3    0    0 -0.46150301369E+01  0.65849988409E+01  0.34181744368E+01  0.87375413957E+01  0.51100000000E-03 0.  1.
        -11    1    3    3    0    0  0.39090130427E+01  0.21500510717E+01  0.95013378026E+01  0.10496595776E+02  0.51100000000E-03 0. -1.
         12    1    3    3    0    0  0.95510588907E+01  0.13871116080E+02  0.23057558085E+02  0.28553135941E+02  0.00000000000E+00 0. -1.
</event>
<event>
 7    1  0.3221417E-010  0.4778727E+02  0.7816164E-02  0.1312668E+00
        -11   -1    0    0    0    0  0.00000000000E+00  0.00000000000E+00  0.45593999997E+02  0.45594000000E+02  0.51100000000E-03 0.  1.
         11   -1    0    0    0    0 -0.00000000000E+00 -0.00000000000E+00 -0.45593999997E+02  0.45594000000E+02  0.51100000000E-03 0. -1.
    9900012    2    1    2    0    0 -0.87566368138E+01  0.42066362520E+02  0.61127487852E+01  0.47787271415E+02  0.20000001690E+02 0.  0.
        -12    1    1    2    0    0  0.87566368138E+01 -0.42066362520E+02 -0.61127487852E+01  0.43400728585E+02  0.00000000000E+00 0.  1.
         11    1    3    3    0    0 -0.15073927798E+00  0.14174539565E+02  0.61220842984E+01  0.15440861719E+02  0.51100000000E-03 0.  1.
        -11    1    3    3    0    0  0.15912824948E+01  0.86223192724E+01 -0.48417904137E+01  0.10015962474E+02  0.51100000000E-03 0. -1.
         12    1    3    3    0    0 -0.10197180031E+02  0.19269503683E+02  0.48324549006E+01  0.22330447222E+02  0.00000000000E+00 0. -1.
</event>
<event>
 7    1  0.3221417E-010  0.4778727E+02  0.7816164E-02  0.1312668E+00
        -11   -1    0    0    0    0  0.00000000000E+00  0.00000000000E+00  0.45593999997E+02  0.45594000000E+02  0.51100000000E-03 0.  1.
         11   -1    0    0    0    0 -0.00000000000E+00 -0.00000000000E+00 -0.45593999997E+02  0.45594000000E+02  0.51100000000E-03 0. -1.
    9900012    2    1    2    0    0  0.34621558731E+02 -0.24726163477E+02  0.85783192500E+01  0.47787273619E+02  0.20000011739E+02 0.  0.
        -12    1    1    2    0    0 -0.34621558731E+02  0.24726163477E+02 -0.85783192500E+01  0.43400726381E+02  0.00000000000E+00 0.  1.
         11    1    3    3    0    0  0.17427781365E+00 -0.39187699235E+01  0.27259063157E+01  0.47767872020E+01  0.51100000000E-03 0. -1.
        -11    1    3    3    0    0  0.14617372903E+00 -0.37654397308E+01  0.25856541813E+01  0.45700668411E+01  0.51100000000E-03 0.  1.
         12    1    3    3    0    0  0.34301107188E+02 -0.17041953823E+02  0.32667587529E+01  0.38440419576E+02  0.00000000000E+00 0. -1.
</event>
<event>
 7    1  0.3221417E-010  0.4778727E+02  0.7816164E-02  0.1312668E+00
        -11   -1    0    0    0    0  0.00000000000E+00  0.00000000000E+00  0.45593999997E+02  0.45594000000E+02  0.51100000000E-03 0. -1.
         11   -1    0    0    0    0 -0.00000000000E+00 -0.00000000000E+00 -0.45593999997E+02  0.45594000000E+02  0.51100000000E-03 0.  1.
    9900012    2    1    2    0    0  0.53150500674E+01 -0.33547875108E+02  0.27016907925E+02  0.47787274254E+02  0.20000014633E+02 0.  0.
        -12    1    1    2    0    0 -0.53150500674E+01  0.33547875108E+02 -0.27016907925E+02  0.43400725746E+02  0.00000000000E+00 0.  1.
         11    1    3    3    0    0  0.67534988984E+01 -0.71703262277E+01  0.50973730749E+01  0.11090831263E+02  0.51100000000E-03 0. -1.
        -11    1    3    3    0    0  0.54639613873E+01 -0.78208041500E+01  0.57977042901E+01  0.11163925246E+02  0.51100000000E-03 0.  1.
        -12    1    3    3    0    0 -0.69024102184E+01 -0.18556744730E+02  0.16121830559E+02  0.25532517745E+02  0.00000000000E+00 0.  1.
</event>
<event>
 7    1  0.3221417E-010  0.4778727E+02  0.7816164E-02  0.1312668E+00
        -11   -1    0    0    0    0  0.00000000000E+00  0.00000000000E+00  0.45593999997E+02  0.45594000000E+02  0.51100000000E-03 0. -1.
         11   -1    0    0    0    0 -0.00000000000E+00 -0.00000000000E+00 -0.45593999997E+02  0.45594000000E+02  0.51100000000E-03 0.  1.
    9900012    2    1    2    0    0  0.96438661119E+01 -0.19098860170E+02  0.37760465728E+02  0.47787269759E+02  0.19999994141E+02 0.  0.
        -12    1    1    2    0    0 -0.96438661119E+01  0.19098860170E+02 -0.37760465728E+02  0.43400730241E+02  0.00000000000E+00 0.  1.
         11    1    3    3    0    0  0.14499727743E+01 -0.33477678977E+01 -0.78065249272E+00  0.37308698072E+01  0.51100000000E-03 0.  1.
        -11    1    3    3    0    0 -0.22433512684E+01 -0.70374310952E+01  0.17616938943E+02  0.19102738006E+02  0.51100000000E-03 0. -1.
        -12    1    3    3    0    0  0.10437244606E+02 -0.87136611776E+01  0.20924179277E+02  0.24953661946E+02  0.00000000000E+00 0.  1.
</event>
<event>
 7    1  0.3221417E-010  0.4778727E+02  0.7816164E-02  0.1312668E+00
        -11   -1    0    0    0    0  0.00000000000E+00  0.00000000000E+00  0.45593999997E+02  0.45594000000E+02  0.51100000000E-03 0.  1.
         11   -1    0    0    0    0 -0.00000000000E+00 -0.00000000000E+00 -0.45593999997E+02  0.45594000000E+02  0.51100000000E-03 0. -1.
    9900012    2    1    2    0    0 -0.34451796770E+02  0.20787884166E+02 -0.16265320559E+02  0.47787273259E+02  0.20000010097E+02 0.  0.
         12    1    1    2    0    0  0.34451796770E+02 -0.20787884166E+02  0.16265320559E+02  0.43400726741E+02  0.00000000000E+00 0. -1.
         11    1    3    3    0    0 -0.89690905038E+01  0.42472802152E+00 -0.33439295342E+01  0.95815887695E+01  0.51100000000E-03 0. -1.
        -11    1    3    3    0    0  0.26172970046E+00  0.59898110295E+01  0.44510282780E-01  0.59956917893E+01  0.51100000000E-03 0.  1.
        -12    1    3    3    0    0 -0.25744435967E+02  0.14373345115E+02 -0.12965901307E+02  0.32209992700E+02  0.00000000000E+00 0.  1.
</event>
<event>
 7    1  0.3221417E-010  0.4778731E+02  0.7816164E-02  0.1312668E+00
        -11   -1    0    0    0    0  0.00000000000E+00  0.00000000000E+00  0.45593999997E+02  0.45594000000E+02  0.51100000000E-03 0. -1.
         11   -1    0    0    0    0 -0.00000000000E+00 -0.00000000000E+00 -0.45593999997E+02  0.45594000000E+02  0.51100000000E-03 0.  1.
    9900012    2    1    2    0    0 -0.10934923322E+02 -0.33497696875E+02 -0.25336771909E+02  0.47787305826E+02  0.20000158583E+02 0.  0.
         12    1    1    2    0    0  0.10934923322E+02  0.33497696875E+02  0.25336771909E+02  0.43400694174E+02  0.00000000000E+00 0. -1.
         11    1    3    3    0    0  0.13405365491E+01  0.16226305747E+01 -0.33763681874E+01  0.39786719668E+01  0.51100000000E-03 0. -1.
        -11    1    3    3    0    0 -0.31200729139E+01 -0.12324487422E+02 -0.38323462703E+01  0.13278355448E+02  0.51100000000E-03 0.  1.
        -12    1    3    3    0    0 -0.91553869572E+01 -0.22795840028E+02 -0.18128057451E+02  0.30530278411E+02  0.00000000000E+00 0.  1.
</event>
<event>
 7    1  0.3221417E-010  0.4778726E+02  0.7816164E-02  0.1312668E+00
        -11   -1    0    0    0    0  0.00000000000E+00  0.00000000000E+00  0.45593999997E+02  0.45594000000E+02  0.51100000000E-03 0. -1.
         11   -1    0    0    0    0 -0.00000000000E+00 -0.00000000000E+00 -0.45593999997E+02  0.45594000000E+02  0.51100000000E-03 0.  1.
    9900012    2    1    2    0    0 -0.17058098374E+02  0.65002372590E+00 -0.39902664080E+02  0.47787264388E+02  0.19999969649E+02 0.  0.
         12    1    1    2    0    0  0.17058098374E+02 -0.65002372590E+00  0.39902664080E+02  0.43400735612E+02  0.00000000000E+00 0. -1.
         11    1    3    3    0    0 -0.42495651950E+01  0.20971260908E+01 -0.49177472837E+01  0.68294202386E+01  0.51100000000E-03 0. -1.
        -11    1    3    3    0    0  0.18159693723E+00 -0.61586934915E+01 -0.18211913955E+02  0.19225927628E+02  0.51100000000E-03 0.  1.
        -12    1    3    3    0    0 -0.12990130116E+02  0.47115911266E+01 -0.16773002841E+02  0.21731916521E+02  0.00000000000E+00 0.  1.
</event>
<event>
 7    1  0.3491944E-010  0.4778727E+02  0.7816164E-02  0.1312668E+00
        -11   -1    0    0    0    0  0.00000000000E+00  0.00000000000E+00  0.45593999997E+02  0.45594000000E+02  0.51100000000E-03 0. -1.
         11   -1    0    0    0    0 -0.00000000000E+00 -0.00000000000E+00 -0.45593999997E+02  0.45594000000E+02  0.51100000000E-03 0.  1.
    9900012    2    1    2    0    0  0.70312006297E+00  0.34489496911E+02 -0.26336349069E+02  0.47787273539E+02  0.20000011375E+02 0.  0.
         12    1    1    2    0    0 -0.70312006297E+00 -0.34489496911E+02  0.26336349069E+02  0.43400726461E+02  0.00000000000E+00 0. -1.
         11    1    3    3    0    0 -0.27743640041E+01  0.27363084983E+01  0.58285610014E+00  0.39400763088E+01  0.51100000000E-03 0. -1.
        -11    1    3    3    0    0 -0.92485112559E+00  0.23523828506E+02 -0.24960246197E+02  0.34310927525E+02  0.51100000000E-03 0.  1.
         12    1    3    3    0    0  0.44023351926E+01  0.82293599072E+01 -0.19589589726E+01  0.95362697050E+01  0.00000000000E+00 0. -1.
</event>
<event>
 7    1  0.3221417E-010  0.4778727E+02  0.7816164E-02  0.1312668E+00
        -11   -1    0    0    0    0  0.00000000000E+00  0.00000000000E+00  0.45593999997E+02  0.45594000000E+02  0.51100000000E-03 0. -1.
         11   -1    0    0    0    0 -0.00000000000E+00 -0.00000000000E+00 -0.45593999997E+02  0.45594000000E+02  0.51100000000E-03 0.  1.
    9900012    2    1    2    0    0 -0.43477455101E+01  0.37807725928E+02  0.20863760069E+02  0.47787268265E+02  0.19999987329E+02 0.  0.
        -12    1    1    2    0    0  0.43477455101E+01 -0.37807725928E+02 -0.20863760069E+02  0.43400731735E+02  0.00000000000E+00 0.  1.
         11    1    3    3    0    0 -0.36883094231E+01  0.26369755004E+02  0.48197519577E+01  0.27059150293E+02  0.51100000000E-03 0. -1.
        -11    1    3    3    0    0  0.16449614318E+01  0.93328253654E+00  0.48470326270E+01  0.52029453152E+01  0.51100000000E-03 0.  1.
        -12    1    3    3    0    0 -0.23043975187E+01  0.10504688388E+02  0.11196975484E+02  0.15525172658E+02  0.00000000000E+00 0.  1.
</event>
<event>
 7    1  0.3221417E-010  0.4778727E+02  0.7816164E-02  0.1312668E+00
        -11   -1    0    0    0    0  0.00000000000E+00  0.00000000000E+00  0.45593999997E+02  0.45594000000E+02  0.51100000000E-03 0. -1.
         11   -1    0    0    0    0 -0.00000000000E+00 -0.00000000000E+00 -0.45593999997E+02  0.45594000000E+02  0.51100000000E-03 0.  1.
    9900012    2    1    2    0    0  0.38308731251E+02 -0.99119202647E+01 -0.17827454593E+02  0.47787272003E+02  0.20000004371E+02 0.  0.
         12    1    1    2    0    0 -0.38308731251E+02  0.99119202647E+01  0.17827454593E+02  0.43400727997E+02  0.00000000000E+00 0. -1.
         11    1    3    3    0    0  0.29001412755E+01 -0.43134768930E+01 -0.21914798190E+01  0.56408763843E+01  0.51100000000E-03 0. -1.
        -11    1    3    3    0    0  0.33924752490E+02 -0.46427896372E+01 -0.91753044591E+01  0.35448985025E+02  0.51100000000E-03 0.  1.
        -12    1    3    3    0    0  0.14838374853E+01 -0.95565373455E+00 -0.64606703147E+01  0.66974105935E+01  0.00000000000E+00 0.  1.
</event>
<event>
 7    1  0.3221417E-010  0.4778727E+02  0.7816164E-02  0.1312668E+00
        -11   -1    0    0    0    0  0.00000000000E+00  0.00000000000E+00  0.45593999997E+02  0.45594000000E+02  0.51100000000E-03 0. -1.
         11   -1    0    0    0    0 -0.00000000000E+00 -0.00000000000E+00 -0.45593999997E+02  0.45594000000E+02  0.51100000000E-03 0.  1.
    9900012    2    1    2    0    0 -0.35365385763E+02  0.84958251612E+01  0.23679814175E+02  0.47787272417E+02  0.20000006260E+02 0.  0.
        -12    1    1    2    0    0  0.35365385763E+02 -0.84958251612E+01 -0.23679814175E+02  0.43400727583E+02  0.00000000000E+00 0.  1.
         11    1    3    3    0    0 -0.14809542650E+02  0.10377203177E+00  0.73486591527E+01  0.16532879777E+02  0.51100000000E-03 0. -1.
        -11    1    3    3    0    0 -0.10918242855E+01  0.34056087285E+00  0.88166627096E+01  0.88905344932E+01  0.51100000000E-03 0.  1.
         12    1    3    3    0    0 -0.19464018828E+02  0.80514922566E+01  0.75144923123E+01  0.22363858147E+02  0.00000000000E+00 0. -1.
</event>
<event>
 7    1  0.3221417E-010  0.4778725E+02  0.7816164E-02  0.1312668E+00
        -11   -1    0    0    0    0  0.00000000000E+00  0.00000000000E+00  0.45593999997E+02  0.45594000000E+02  0.51100000000E-03 0. -1.
         11   -1    0    0    0    0 -0.00000000000E+00 -0.00000000000E+00 -0.45593999997E+02  0.45594000000E+02  0.51100000000E-03 0.  1.
    9900012    2    1    2    0    0  0.35882495946E+02 -0.14600862730E+02  0.19567473590E+02  0.47787254264E+02  0.19999923490E+02 0.  0.
        -12    1    1    2    0    0 -0.35882495946E+02  0.14600862730E+02 -0.19567473590E+02  0.43400745736E+02  0.00000000000E+00 0.  1.
         11    1    3    3    0    0  0.25853096423E+01 -0.55642155868E+01  0.53512202973E+01  0.81412456034E+01  0.51100000000E-03 0.  1.
        -11    1    3    3    0    0  0.27425175892E+02 -0.23175196278E+01  0.13604420238E+02  0.30701651751E+02  0.51100000000E-03 0. -1.
         12    1    3    3    0    0  0.58720104111E+01 -0.67191275157E+01  0.61183305509E+00  0.89443569097E+01  0.00000000000E+00 0. -1.
</event>
<event>
 7    1  0.3221417E-010  0.4778726E+02  0.7816164E-02  0.1312668E+00
        -11   -1    0    0    0    0  0.00000000000E+00  0.00000000000E+00  0.45593999997E+02  0.45594000000E+02  0.51100000000E-03 0. -1.
         11   -1    0    0    0    0 -0.00000000000E+00 -0.00000000000E+00 -0.45593999997E+02  0.45594000000E+02  0.51100000000E-03 0.  1.
    9900012    2    1    2    0    0  0.17357778869E+02 -0.19153830113E+01  0.39732389607E+02  0.47787263103E+02  0.19999963791E+02 0.  0.
        -12    1    1    2    0    0 -0.17357778869E+02  0.19153830113E+01 -0.39732389607E+02  0.43400736897E+02  0.00000000000E+00 0.  1.
         11    1    3    3    0    0  0.16742808584E+02 -0.40071990709E+01  0.20580462157E+02  0.26831599030E+02  0.51100000000E-03 0. -1.
        -11    1    3    3    0    0 -0.36561796774E+00 -0.28440302851E+01  0.11067714778E+02  0.11433131480E+02  0.51100000000E-03 0.  1.
        -12    1    3    3    0    0  0.98058825290E+00  0.49358463446E+01  0.80842126717E+01  0.95225325928E+01  0.00000000000E+00 0.  1.
</event>
<event>
 7    1  0.3221417E-010  0.4778727E+02  0.7816164E-02  0.1312668E+00
        -11   -1    0    0    0    0  0.00000000000E+00  0.00000000000E+00  0.45593999997E+02  0.45594000000E+02  0.51100000000E-03 0. -1.
         11   -1    0    0    0    0 -0.00000000000E+00 -0.00000000000E+00 -0.45593999997E+02  0.45594000000E+02  0.51100000000E-03 0.  1.
    9900012    2    1    2    0    0  0.26210717286E+02 -0.30392328739E+02 -0.16520529692E+02  0.47787271341E+02  0.20000001350E+02 0.  0.
         12    1    1    2    0    0 -0.26210717286E+02  0.30392328739E+02  0.16520529692E+02  0.43400728659E+02  0.00000000000E+00 0. -1.
         11    1    3    3    0    0  0.62345713151E+01 -0.24070129444E+01  0.27309464763E+01  0.72195332061E+01  0.51100000000E-03 0. -1.
        -11    1    3    3    0    0  0.64795394301E+01 -0.41848754647E+01 -0.12449702888E+01  0.78132941301E+01  0.51100000000E-03 0.  1.
        -12    1    3    3    0    0  0.13496606541E+02 -0.23800440330E+02 -0.18006505880E+02  0.32754444004E+02  0.00000000000E+00 0.  1.
</event>
<event>
 7    1  0.3221417E-010  0.4778727E+02  0.7816164E-02  0.1312668E+00
        -11   -1    0    0    0    0  0.00000000000E+00  0.00000000000E+00  0.45593999997E+02  0.45594000000E+02  0.51100000000E-03 0. -1.
         11   -1    0    0    0    0 -0.00000000000E+00 -0.00000000000E+00 -0.45593999997E+02  0.45594000000E+02  0.51100000000E-03 0.  1.
    9900012    2    1    2    0    0  0.36812415486E+02  0.22983571372E+02  0.47404694658E+00  0.47787271810E+02  0.20000003490E+02 0.  0.
         12    1    1    2    0    0 -0.36812415486E+02 -0.22983571372E+02 -0.47404694658E+00  0.43400728190E+02  0.00000000000E+00 0. -1.
         11    1    3    3    0    0  0.80443239220E+01  0.63729230794E+01 -0.51871936554E+01  0.11499229288E+02  0.51100000000E-03 0. -1.
        -11    1    3    3    0    0  0.24554317955E+02  0.11341910830E+02 -0.64240408556E+00  0.27054873032E+02  0.51100000000E-03 0.  1.
         12    1    3    3    0    0  0.42137736087E+01  0.52687374624E+01  0.63036446875E+01  0.92331694894E+01  0.00000000000E+00 0. -1.
</event>
<event>
 7    1  0.3221417E-010  0.4778726E+02  0.7816164E-02  0.1312668E+00
        -11   -1    0    0    0    0  0.00000000000E+00  0.00000000000E+00  0.45593999997E+02  0.45594000000E+02  0.51100000000E-03 0. -1.
         11   -1    0    0    0    0 -0.00000000000E+00 -0.00000000000E+00 -0.45593999997E+02  0.45594000000E+02  0.51100000000E-03 0.  1.
    9900012    2    1    2    0    0 -0.37585024815E+01  0.57732803930E+01  0.42850517057E+02  0.47787263607E+02  0.19999966090E+02 0.  0.
        -12    1    1    2    0    0  0.37585024815E+01 -0.57732803930E+01 -0.42850517057E+02  0.43400736393E+02  0.00000000000E+00 0.  1.
         11    1    3    3    0    0  0.44451859904E+01  0.25759195669E+00  0.80587540143E+01  0.92070379943E+01  0.51100000000E-03 0. -1.
        -11    1    3    3    0    0 -0.40284574112E+01  0.71224702817E+01  0.32575694572E+02  0.33587705030E+02  0.51100000000E-03 0.  1.
        -12    1    3    3    0    0 -0.41752310607E+01 -0.16067818454E+01  0.22160684704E+01  0.49925205833E+01  0.00000000000E+00 0.  1.
</event>
<event>
 7    1  0.3221417E-010  0.4778727E+02  0.7816164E-02  0.1312668E+00
        -11   -1    0    0    0    0  0.00000000000E+00  0.00000000000E+00  0.45593999997E+02  0.45594000000E+02  0.51100000000E-03 0. -1.
         11   -1    0    0    0    0 -0.00000000000E+00 -0.00000000000E+00 -0.45593999997E+02  0.45594000000E+02  0.51100000000E-03 0.  1.
    9900012    2    1    2    0    0  0.37326743768E+02 -0.82591748346E+01  0.20545649630E+02  0.47787268578E+02  0.19999988754E+02 0.  0.
        -12    1    1    2    0    0 -0.37326743768E+02  0.82591748346E+01 -0.20545649630E+02  0.43400731422E+02  0.00000000000E+00 0.  1.
         11    1    3    3    0    0  0.81462917598E+01  0.11993303160E+01  0.88748127398E+01  0.12106310919E+02  0.51100000000E-03 0. -1.
        -11    1    3    3    0    0  0.83033840248E+01  0.34910416566E+01  0.16941245027E+01  0.91653486679E+01  0.51100000000E-03 0.  1.
        -12    1    3    3    0    0  0.20877067983E+02 -0.12949546807E+02  0.99767123876E+01  0.26515608991E+02  0.00000000000E+00 0.  1.
</event>
<event>
 7    1  0.3221417E-010  0.4778727E+02  0.7816164E-02  0.1312668E+00
        -11   -1    0    0    0    0  0.00000000000E+00  0.00000000000E+00  0.45593999997E+02  0.45594000000E+02  0.51100000000E-03 0. -1.
         11   -1    0    0    0    0 -0.00000000000E+00 -0.00000000000E+00 -0.45593999997E+02  0.45594000000E+02  0.51100000000E-03 0.  1.
    9900012    2    1    2    0    0  0.45553859177E+01  0.24748852643E+02 -0.35360517176E+02  0.47787269327E+02  0.19999992169E+02 0.  0.
         12    1    1    2    0    0 -0.45553859177E+01 -0.24748852643E+02  0.35360517176E+02  0.43400730673E+02  0.00000000000E+00 0. -1.
         11    1    3    3    0    0  0.35708401856E+01  0.53412876085E+01 -0.77999642679E+01  0.10105429026E+02  0.51100000000E-03 0. -1.
        -11    1    3    3    0    0  0.77661003402E+01  0.38501113764E+01 -0.10531540716E+02  0.13639978820E+02  0.51100000000E-03 0.  1.
         12    1    3    3    0    0 -0.67815546081E+01  0.15557453658E+02 -0.17029012193E+02  0.24041861481E+02  0.00000000000E+00 0. -1.
</event>
<event>
 7    1  0.3221417E-010  0.4778727E+02  0.7816164E-02  0.1312668E+00
        -11   -1    0    0    0    0  0.00000000000E+00  0.00000000000E+00  0.45593999997E+02  0.45594000000E+02  0.51100000000E-03 0. -1.
         11   -1    0    0    0    0 -0.00000000000E+00 -0.00000000000E+00 -0.45593999997E+02  0.45594000000E+02  0.51100000000E-03 0.  1.
    9900012    2    1    2    0    0 -0.11604692110E+02  0.91011759012E+01  0.40818167275E+02  0.47787273492E+02  0.20000011160E+02 0.  0.
        -12    1    1    2    0    0  0.11604692110E+02 -0.91011759012E+01 -0.40818167275E+02  0.43400726508E+02  0.00000000000E+00 0.  1.
         11    1    3    3    0    0 -0.28886173082E+01 -0.20995837496E+01  0.77203851438E+00  0.36535469894E+01  0.51100000000E-03 0.  1.
        -11    1    3    3    0    0 -0.74633906689E+01  0.92895288209E+01  0.15849234268E+02  0.19829164711E+02  0.51100000000E-03 0. -1.
         12    1    3    3    0    0 -0.12526841331E+01  0.19112308300E+01  0.24196894492E+02  0.24304561792E+02  0.00000000000E+00 0. -1.
</event>
<event>
 7    1  0.3221417E-010  0.4778727E+02  0.7816164E-02  0.1312668E+00
        -11   -1    0    0    0    0  0.00000000000E+00  0.00000000000E+00  0.45593999997E+02  0.45594000000E+02  0.51100000000E-03 0. -1.
         11   -1    0    0    0    0 -0.00000000000E+00 -0.00000000000E+00 -0.45593999997E+02  0.45594000000E+02  0.51100000000E-03 0.  1.
    9900012    2    1    2    0    0 -0.10059120484E+02  0.84949590453E+01  0.41355448150E+02  0.47787270446E+02  0.19999997273E+02 0.  0.
        -12    1    1    2    0    0  0.10059120484E+02 -0.84949590453E+01 -0.41355448150E+02  0.43400729554E+02  0.00000000000E+00 0.  1.
         11    1    3    3    0    0  0.22907416299E+01 -0.16217447822E+01  0.17087465194E+02  0.17316437867E+02  0.51100000000E-03 0. -1.
        -11    1    3    3    0    0 -0.74554270656E+00 -0.61217404668E+00  0.69853387500E+01  0.70516344704E+01  0.51100000000E-03 0.  1.
        -12    1    3    3    0    0 -0.11604319407E+02  0.10728877874E+02  0.17282644206E+02  0.23419198109E+02  0.00000000000E+00 0.  1.
</event>
<event>
 7    1  0.3221417E-010  0.4778727E+02  0.7816164E-02  0.1312668E+00
        -11   -1    0    0    0    0  0.00000000000E+00  0.00000000000E+00  0.45593999997E+02  0.45594000000E+02  0.51100000000E-03 0.  1.
         11   -1    0    0    0    0 -0.00000000000E+00 -0.00000000000E+00 -0.45593999997E+02  0.45594000000E+02  0.51100000000E-03 0. -1.
    9900012    2    1    2    0    0  0.20409473358E+02 -0.34552278475E+02  0.16529267246E+02  0.47787271593E+02  0.20000002502E+02 0.  0.
        -12    1    1    2    0    0 -0.20409473358E+02  0.34552278475E+02 -0.16529267246E+02  0.43400728407E+02  0.00000000000E+00 0.  1.
         11    1    3    3    0    0  0.94360864233E+01 -0.20191979695E+02  0.62526065409E+01  0.23148452644E+02  0.51100000000E-03 0. -1.
        -11    1    3    3    0    0 -0.18470610667E+01 -0.58081850920E+01  0.62077879528E+01  0.86996137946E+01  0.51100000000E-03 0.  1.
        -12    1    3    3    0    0  0.12820448002E+02 -0.85521136880E+01  0.40688727527E+01  0.15939205155E+02  0.00000000000E+00 0.  1.
</event>
<event>
 7    1  0.3221417E-010  0.4778727E+02  0.7816164E-02  0.1312668E+00
        -11   -1    0    0    0    0  0.00000000000E+00  0.00000000000E+00  0.45593999997E+02  0.45594000000E+02  0.51100000000E-03 0. -1.
         11   -1    0    0    0    0 -0.00000000000E+00 -0.00000000000E+00 -0.45593999997E+02  0.45594000000E+02  0.51100000000E-03 0.  1.
    9900012    2    1    2    0    0  0.18740903066E+02  0.19288933511E+01 -0.39098354296E+02  0.47787269753E+02  0.19999994114E+02 0.  0.
         12    1    1    2    0    0 -0.18740903066E+02 -0.19288933511E+01  0.39098354296E+02  0.43400730247E+02  0.00000000000E+00 0. -1.
         11    1    3    3    0    0  0.48558820598E+01 -0.21390564631E+00 -0.33318248294E+01  0.58929112635E+01  0.51100000000E-03 0. -1.
        -11    1    3    3    0    0  0.58677059524E+01  0.17070799720E+01 -0.32753163806E+02  0.33318370830E+02  0.51100000000E-03 0.  1.
        -12    1    3    3    0    0  0.80173150539E+01  0.43571902538E+00 -0.30133656602E+01  0.85759876600E+01  0.00000000000E+00 0.  1.
</event>
<event>
 7    1  0.3221418E-010  0.4778727E+02  0.7816164E-02  0.1312668E+00
        -11   -1    0    0    0    0  0.00000000000E+00  0.00000000000E+00  0.45593999997E+02  0.45594000000E+02  0.51100000000E-03 0. -1.
         11   -1    0    0    0    0 -0.00000000000E+00 -0.00000000000E+00 -0.45593999997E+02  0.45594000000E+02  0.51100000000E-03 0.  1.
    9900012    2    1    2    0    0  0.58937739896E+00  0.85623356677E+01 -0.42543656349E+02  0.47787266673E+02  0.19999980067E+02 0.  0.
         12    1    1    2    0    0 -0.58937739896E+00 -0.85623356677E+01  0.42543656349E+02  0.43400733327E+02  0.00000000000E+00 0. -1.
         11    1    3    3    0    0 -0.26969334350E+01  0.82897717713E+01 -0.22197257162E+02  0.23847683153E+02  0.51100000000E-03 0. -1.
        -11    1    3    3    0    0  0.17398770014E+01 -0.37013378721E+01 -0.19047951155E+02  0.19482081960E+02  0.51100000000E-03 0.  1.
         12    1    3    3    0    0  0.15464338326E+01  0.39739017685E+01 -0.12984480315E+01  0.44575015597E+01  0.00000000000E+00 0. -1.
</event>
<event>
 7    1  0.3221417E-010  0.4778725E+02  0.7816164E-02  0.1312668E+00
        -11   -1    0    0    0    0  0.00000000000E+00  0.00000000000E+00  0.45593999997E+02  0.45594000000E+02  0.51100000000E-03 0. -1.
         11   -1    0    0    0    0 -0.00000000000E+00 -0.00000000000E+00 -0.45593999997E+02  0.45594000000E+02  0.51100000000E-03 0.  1.
    9900012    2    1    2    0    0 -0.14532772198E+02  0.18837007178E+02 -0.36298635405E+02  0.47787248400E+02  0.19999896754E+02 0.  0.
         12    1    1    2    0    0  0.14532772198E+02 -0.18837007178E+02  0.36298635405E+02  0.43400751600E+02  0.00000000000E+00 0. -1.
         11    1    3    3    0    0  0.16712823807E+01  0.61174952531E+00  0.21064754174E+00  0.17921481316E+01  0.51100000000E-03 0. -1.
        -11    1    3    3    0    0 -0.14713780837E+02  0.18441802173E+02 -0.37419187532E+02  0.44235630545E+02  0.51100000000E-03 0.  1.
        -12    1    3    3    0    0 -0.14902737418E+01 -0.21654451951E+00  0.90990458494E+00  0.17594697235E+01  0.00000000000E+00 0.  1.
</event>
<event>
 7    1  0.3221417E-010  0.4778727E+02  0.7816164E-02  0.1312668E+00
        -11   -1    0    0    0    0  0.00000000000E+00  0.00000000000E+00  0.45593999997E+02  0.45594000000E+02  0.51100000000E-03 0.  1.
         11   -1    0    0    0    0 -0.00000000000E+00 -0.00000000000E+00 -0.45593999997E+02  0.45594000000E+02  0.51100000000E-03 0. -1.
    9900012    2    1    2    0    0  0.29276394730E+02 -0.18466402896E+02  0.26182201368E+02  0.47787274283E+02  0.20000014767E+02 0.  0.
        -12    1    1    2    0    0 -0.29276394730E+02  0.18466402896E+02 -0.26182201368E+02  0.43400725717E+02  0.00000000000E+00 0.  1.
         11    1    3    3    0    0  0.38879513672E+01 -0.14195767875E+01 -0.29077816996E+01  0.50583158030E+01  0.51100000000E-03 0. -1.
        -11    1    3    3    0    0  0.10601005978E+02 -0.11021615988E+02  0.15274409139E+02  0.21613998278E+02  0.51100000000E-03 0.  1.
        -12    1    3    3    0    0  0.14787437385E+02 -0.60252101203E+01  0.13815573928E+02  0.21114960203E+02  0.00000000000E+00 0.  1.
</event>
<event>
 7    1  0.3221417E-010  0.4778729E+02  0.7816164E-02  0.1312668E+00
        -11   -1    0    0    0    0  0.00000000000E+00  0.00000000000E+00  0.45593999997E+02  0.45594000000E+02  0.51100000000E-03 0. -1.
         11   -1    0    0    0    0 -0.00000000000E+00 -0.00000000000E+00 -0.45593999997E+02  0.45594000000E+02  0.51100000000E-03 0.  1.
    9900012    2    1    2    0    0  0.17595202009E+02  0.18800022257E+02  0.34936932957E+02  0.47787294303E+02  0.20000106043E+02 0.  0.
        -12    1    1    2    0    0 -0.17595202009E+02 -0.18800022257E+02 -0.34936932957E+02  0.43400705697E+02  0.00000000000E+00 0.  1.
         11    1    3    3    0    0  0.21503773924E+02  0.15946099137E+02  0.30015196888E+02  0.40219428329E+02  0.51100000000E-03 0. -1.
        -11    1    3    3    0    0 -0.85847210252E+00  0.21284990364E+01  0.89240954340E+00  0.24624941732E+01  0.51100000000E-03 0.  1.
         12    1    3    3    0    0 -0.30500998126E+01  0.72542408352E+00  0.40293265255E+01  0.51053718001E+01  0.00000000000E+00 0. -1.
</event>
<event>
 7    1  0.3221417E-010  0.4778727E+02  0.7816164E-02  0.1312668E+00
        -11   -1    0    0    0    0  0.00000000000E+00  0.00000000000E+00  0.45593999997E+02  0.45594000000E+02  0.51100000000E-03 0. -1.
         11   -1    0    0    0    0 -0.00000000000E+00 -0.00000000000E+00 -0.45593999997E+02  0.45594000000E+02  0.51100000000E-03 0.  1.
    9900012    2    1    2    0    0  0.24625071470E+02  0.94544720903E+00 -0.35725837993E+02  0.47787268259E+02  0.19999987300E+02 0.  0.
         12    1    1    2    0    0 -0.24625071470E+02 -0.94544720903E+00  0.35725837993E+02  0.43400731741E+02  0.00000000000E+00 0. -1.
         11    1    3    3    0    0  0.15998605880E+01 -0.10250310824E+01  0.15975141608E+01  0.24823969014E+01  0.51100000000E-03 0. -1.
        -11    1    3    3    0    0  0.10129967888E+02 -0.40365793179E+01 -0.20925358981E+02  0.23596204584E+02  0.51100000000E-03 0.  1.
        -12    1    3    3    0    0  0.12895242994E+02  0.60070576094E+01 -0.16397993173E+02  0.21708666774E+02  0.00000000000E+00 0.  1.
</event>
<event>
 7    1  0.3221417E-010  0.4778728E+02  0.7816164E-02  0.1312668E+00
        -11   -1    0    0    0    0  0.00000000000E+00  0.00000000000E+00  0.45593999997E+02  0.45594000000E+02  0.51100000000E-03 0. -1.
         11   -1    0    0    0    0 -0.00000000000E+00 -0.00000000000E+00 -0.45593999997E+02  0.45594000000E+02  0.51100000000E-03 0.  1.
    9900012    2    1    2    0    0  0.23803309454E+02 -0.20016500782E+02  0.30271519274E+02  0.47787277383E+02  0.20000028899E+02 0.  0.
        -12    1    1    2    0    0 -0.23803309454E+02  0.20016500782E+02 -0.30271519274E+02  0.43400722617E+02  0.00000000000E+00 0.  1.
         11    1    3    3    0    0  0.59032701408E+01 -0.85393322297E+01  0.48475911978E+01  0.11457221913E+02  0.51100000000E-03 0.  1.
        -11    1    3    3    0    0  0.54693832502E+01 -0.72323899488E+01  0.20295456106E+02  0.22228971103E+02  0.51100000000E-03 0. -1.
         12    1    3    3    0    0  0.12430656063E+02 -0.42447786032E+01  0.51284719708E+01  0.14101084366E+02  0.00000000000E+00 0. -1.
</event>
<event>
 7    1  0.3221417E-010  0.4778727E+02  0.7816164E-02  0.1312668E+00
        -11   -1    0    0    0    0  0.00000000000E+00  0.00000000000E+00  0.45593999997E+02  0.45594000000E+02  0.51100000000E-03 0. -1.
         11   -1    0    0    0    0 -0.00000000000E+00 -0.00000000000E+00 -0.45593999997E+02  0.45594000000E+02  0.51100000000E-03 0.  1.
    9900012    2    1    2    0    0  0.27440310636E+02 -0.12454847521E+02  0.31233474146E+02  0.47787265193E+02  0.19999973320E+02 0.  0.
        -12    1    1    2    0    0 -0.27440310636E+02  0.12454847521E+02 -0.31233474146E+02  0.43400734807E+02  0.00000000000E+00 0.  1.
         11    1    3    3    0    0  0.14001088189E+02 -0.44660923464E+01  0.86364057529E+01  0.17045936639E+02  0.51100000000E-03 0. -1.
        -11    1    3    3    0    0  0.16534731161E+01 -0.46257657909E+01 -0.13664587781E+00  0.49143010545E+01  0.51100000000E-03 0.  1.
         12    1    3    3    0    0  0.11785749331E+02 -0.33629893836E+01  0.22733714271E+02  0.25827027499E+02  0.00000000000E+00 0. -1.
</event>
<event>
 7    1  0.4508060E-010  0.4778727E+02  0.7816164E-02  0.1312668E+00
        -11   -1    0    0    0    0  0.00000000000E+00  0.00000000000E+00  0.45593999997E+02  0.45594000000E+02  0.51100000000E-03 0. -1.
         11   -1    0    0    0    0 -0.00000000000E+00 -0.00000000000E+00 -0.45593999997E+02  0.45594000000E+02  0.51100000000E-03 0.  1.
    9900012    2    1    2    0    0  0.88602993453E+01 -0.18624268595E+02 -0.38187101275E+02  0.47787274327E+02  0.20000014966E+02 0.  0.
         12    1    1    2    0    0 -0.88602993453E+01  0.18624268595E+02  0.38187101275E+02  0.43400725673E+02  0.00000000000E+00 0. -1.
         11    1    3    3    0    0 -0.28354602488E+01  0.87602663433E+00 -0.82560996192E+01  0.87732798126E+01  0.51100000000E-03 0. -1.
        -11    1    3    3    0    0  0.37980888160E+01 -0.12951824823E+02 -0.22882591552E+02  0.26566675391E+02  0.51100000000E-03 0.  1.
         12    1    3    3    0    0  0.78976707781E+01 -0.65484704061E+01 -0.70484101033E+01  0.12447319124E+02  0.00000000000E+00 0. -1.
</event>
<event>
 7    1  0.3221417E-010  0.4778727E+02  0.7816164E-02  0.1312668E+00
        -11   -1    0    0    0    0  0.00000000000E+00  0.00000000000E+00  0.45593999997E+02  0.45594000000E+02  0.51100000000E-03 0. -1.
         11   -1    0    0    0    0 -0.00000000000E+00 -0.00000000000E+00 -0.45593999997E+02  0.45594000000E+02  0.51100000000E-03 0.  1.
    9900012    2    1    2    0    0  0.40273108482E+01  0.85929127971E+00  0.43204930066E+02  0.47787267331E+02  0.19999983069E+02 0.  0.
        -12    1    1    2    0    0 -0.40273108482E+01 -0.85929127971E+00 -0.43204930066E+02  0.43400732669E+02  0.00000000000E+00 0.  1.
         11    1    3    3    0    0  0.88484051513E+01 -0.36122756258E+01  0.35130087452E+02  0.36406947875E+02  0.51100000000E-03 0. -1.
        -11    1    3    3    0    0 -0.31831295381E+01  0.35097268450E-01  0.41775113936E+01  0.52521564313E+01  0.51100000000E-03 0.  1.
         12    1    3    3    0    0 -0.16379647650E+01  0.44364696370E+01  0.38973312205E+01  0.61281630244E+01  0.00000000000E+00 0. -1.
</event>
<event>
 7    1  0.3273505E-010  0.4778727E+02  0.7816164E-02  0.1312668E+00
        -11   -1    0    0    0    0  0.00000000000E+00  0.00000000000E+00  0.45593999997E+02  0.45594000000E+02  0.51100000000E-03 0. -1.
         11   -1    0    0    0    0 -0.00000000000E+00 -0.00000000000E+00 -0.45593999997E+02  0.45594000000E+02  0.51100000000E-03 0.  1.
    9900012    2    1    2    0    0 -0.21149649380E+01  0.34032311273E+02 -0.26850547253E+02  0.47787272183E+02  0.20000005193E+02 0.  0.
         12    1    1    2    0    0  0.21149649380E+01 -0.34032311273E+02  0.26850547253E+02  0.43400727817E+02  0.00000000000E+00 0. -1.
         11    1    3    3    0    0  0.16538769361E+01  0.12160332643E+02 -0.15792871091E+01  0.12373485643E+02  0.51100000000E-03 0. -1.
        -11    1    3    3    0    0 -0.70141414998E+01  0.10261991578E+02 -0.99714177154E+01  0.15935363932E+02  0.51100000000E-03 0.  1.
         12    1    3    3    0    0  0.32452996258E+01  0.11609987051E+02 -0.15299842428E+02  0.19478422608E+02  0.00000000000E+00 0. -1.
</event>
<event>
 7    1  0.3221417E-010  0.4778728E+02  0.7816164E-02  0.1312668E+00
        -11   -1    0    0    0    0  0.00000000000E+00  0.00000000000E+00  0.45593999997E+02  0.45594000000E+02  0.51100000000E-03 0. -1.
         11   -1    0    0    0    0 -0.00000000000E+00 -0.00000000000E+00 -0.45593999997E+02  0.45594000000E+02  0.51100000000E-03 0.  1.
    9900012    2    1    2    0    0  0.34850924660E+02  0.18619387856E+02 -0.17954213985E+02  0.47787281646E+02  0.20000048339E+02 0.  0.
         12    1    1    2    0    0 -0.34850924660E+02 -0.18619387856E+02  0.17954213985E+02  0.43400718354E+02  0.00000000000E+00 0. -1.
         11    1    3    3    0    0  0.22663712758E+01  0.52694119635E+01 -0.25538185807E+01  0.62789434466E+01  0.51100000000E-03 0. -1.
        -11    1    3    3    0    0  0.31835357934E+02  0.76600983743E+01 -0.13930720976E+02  0.35584155309E+02  0.51100000000E-03 0.  1.
        -12    1    3    3    0    0  0.74919544999E+00  0.56898775185E+01 -0.14696744286E+01  0.59241828908E+01  0.00000000000E+00 0.  1.
</event>
<event>
 7    1  0.3221417E-010  0.4778727E+02  0.7816164E-02  0.1312668E+00
        -11   -1    0    0    0    0  0.00000000000E+00  0.00000000000E+00  0.45593999997E+02  0.45594000000E+02  0.51100000000E-03 0. -1.
         11   -1    0    0    0    0 -0.00000000000E+00 -0.00000000000E+00 -0.45593999997E+02  0.45594000000E+02  0.51100000000E-03 0.  1.
    9900012    2    1    2    0    0  0.11525725306E+01  0.23822814570E+02 -0.36259735521E+02  0.47787270311E+02  0.19999996657E+02 0.  0.
         12    1    1    2    0    0 -0.11525725306E+01 -0.23822814570E+02  0.36259735521E+02  0.43400729689E+02  0.00000000000E+00 0. -1.
         11    1    3    3    0    0  0.42028911034E+01  0.11245513234E+02 -0.21526321060E+02  0.24647684682E+02  0.51100000000E-03 0.  1.
        -11    1    3    3    0    0 -0.65486935148E+01  0.47449509781E+01 -0.11309433833E+02  0.13903353567E+02  0.51100000000E-03 0. -1.
         12    1    3    3    0    0  0.34983749420E+01  0.78323503583E+01 -0.34239806278E+01  0.92362320623E+01  0.00000000000E+00 0. -1.
</event>
<event>
 7    1  0.3221417E-010  0.4778727E+02  0.7816164E-02  0.1312668E+00
        -11   -1    0    0    0    0  0.00000000000E+00  0.00000000000E+00  0.45593999997E+02  0.45594000000E+02  0.51100000000E-03 0. -1.
         11   -1    0    0    0    0 -0.00000000000E+00 -0.00000000000E+00 -0.45593999997E+02  0.45594000000E+02  0.51100000000E-03 0.  1.
    9900012    2    1    2    0    0  0.26000871279E+02  0.32020956435E+02 -0.13499502680E+02  0.47787268083E+02  0.19999986499E+02 0.  0.
         12    1    1    2    0    0 -0.26000871279E+02 -0.32020956435E+02  0.13499502680E+02  0.43400731917E+02  0.00000000000E+00 0. -1.
         11    1    3    3    0    0  0.27245749753E+00  0.62752880755E+01  0.13971721092E+01  0.64347155091E+01  0.51100000000E-03 0. -1.
        -11    1    3    3    0    0  0.15452457586E+02  0.65104784466E+01 -0.65488283857E+01  0.18001442401E+02  0.51100000000E-03 0.  1.
         12    1    3    3    0    0  0.10275956196E+02  0.19235189913E+02 -0.83478464038E+01  0.23351110173E+02  0.00000000000E+00 0. -1.
</event>
<event>
 7    1  0.3221417E-010  0.4778727E+02  0.7816164E-02  0.1312668E+00
        -11   -1    0    0    0    0  0.00000000000E+00  0.00000000000E+00  0.45593999997E+02  0.45594000000E+02  0.51100000000E-03 0. -1.
         11   -1    0    0    0    0 -0.00000000000E+00 -0.00000000000E+00 -0.45593999997E+02  0.45594000000E+02  0.51100000000E-03 0.  1.
    9900012    2    1    2    0    0 -0.41688755440E+02 -0.71128952891E+01  0.97507912062E+01  0.47787267993E+02  0.19999986089E+02 0.  0.
        -12    1    1    2    0    0  0.41688755440E+02  0.71128952891E+01 -0.97507912062E+01  0.43400732007E+02  0.00000000000E+00 0.  1.
         11    1    3    3    0    0 -0.63130809087E+01 -0.19874043266E+01  0.10645072039E+01  0.67035768338E+01  0.51100000000E-03 0. -1.
        -11    1    3    3    0    0 -0.37331708549E+02 -0.35551682378E+01  0.89724076072E+01  0.38559042817E+02  0.51100000000E-03 0.  1.
        -12    1    3    3    0    0  0.19560340178E+01 -0.15703227246E+01 -0.28612360494E+00  0.25246483429E+01  0.00000000000E+00 0.  1.
</event>
<event>
 7    1  0.5167903E-010  0.4778727E+02  0.7816164E-02  0.1312668E+00
        -11   -1    0    0    0    0  0.00000000000E+00  0.00000000000E+00  0.45593999997E+02  0.45594000000E+02  0.51100000000E-03 0. -1.
         11   -1    0    0    0    0 -0.00000000000E+00 -0.00000000000E+00 -0.45593999997E+02  0.45594000000E+02  0.51100000000E-03 0.  1.
    9900012    2    1    2    0    0 -0.19969651920E+02 -0.18705206885E+02 -0.33689039429E+02  0.47787272586E+02  0.20000007030E+02 0.  0.
         12    1    1    2    0    0  0.19969651920E+02  0.18705206885E+02  0.33689039429E+02  0.43400727414E+02  0.00000000000E+00 0. -1.
         11    1    3    3    0    0 -0.13252400096E+02 -0.18090735970E+01 -0.15599252544E+02  0.20548370635E+02  0.51100000000E-03 0.  1.
        -11    1    3    3    0    0 -0.84733062036E+01 -0.12012877059E+02 -0.15755715787E+02  0.21548752017E+02  0.51100000000E-03 0. -1.
         12    1    3    3    0    0  0.17560543796E+01 -0.48832562291E+01 -0.23340710977E+01  0.56901499341E+01  0.00000000000E+00 0. -1.
</event>
<event>
 7    1  0.3221417E-010  0.4778730E+02  0.7816164E-02  0.1312668E+00
        -11   -1    0    0    0    0  0.00000000000E+00  0.00000000000E+00  0.45593999997E+02  0.45594000000E+02  0.51100000000E-03 0. -1.
         11   -1    0    0    0    0 -0.00000000000E+00 -0.00000000000E+00 -0.45593999997E+02  0.45594000000E+02  0.51100000000E-03 0.  1.
    9900012    2    1    2    0    0  0.31066003815E+02 -0.24147113894E+02 -0.18315048157E+02  0.47787300795E+02  0.20000135646E+02 0.  0.
         12    1    1    2    0    0 -0.31066003815E+02  0.24147113894E+02  0.18315048157E+02  0.43400699205E+02  0.00000000000E+00 0. -1.
         11    1    3    3    0    0  0.81149115516E+01 -0.51654150710E+01  0.29961858108E+01  0.10075238559E+02  0.51100000000E-03 0. -1.
        -11    1    3    3    0    0  0.18205668555E+02 -0.16677974333E+02 -0.13093918019E+02  0.27947305501E+02  0.51100000000E-03 0.  1.
        -12    1    3    3    0    0  0.47454237078E+01 -0.23037244902E+01 -0.82173159495E+01  0.97647567357E+01  0.00000000000E+00 0.  1.
</event>
<event>
 7    1  0.3221417E-010  0.4778727E+02  0.7816164E-02  0.1312668E+00
        -11   -1    0    0    0    0  0.00000000000E+00  0.00000000000E+00  0.45593999997E+02  0.45594000000E+02  0.51100000000E-03 0. -1.
         11   -1    0    0    0    0 -0.00000000000E+00 -0.00000000000E+00 -0.45593999997E+02  0.45594000000E+02  0.51100000000E-03 0.  1.
    9900012    2    1    2    0    0  0.71594932805E+01  0.54764125963E+00  0.42802629651E+02  0.47787270052E+02  0.19999995475E+02 0.  0.
        -12    1    1    2    0    0 -0.71594932805E+01 -0.54764125963E+00 -0.42802629651E+02  0.43400729948E+02  0.00000000000E+00 0.  1.
         11    1    3    3    0    0 -0.22210581494E+01  0.43833262354E+01  0.20609101894E+02  0.21186829148E+02  0.51100000000E-03 0. -1.
        -11    1    3    3    0    0  0.40585631155E+01 -0.53234922786E+01  0.19161682275E+02  0.20297329195E+02  0.51100000000E-03 0.  1.
        -12    1    3    3    0    0  0.53219883144E+01  0.14878073029E+01  0.30318454820E+01  0.63031117090E+01  0.00000000000E+00 0.  1.
</event>
<event>
 7    1  0.3221417E-010  0.4778727E+02  0.7816164E-02  0.1312668E+00
        -11   -1    0    0    0    0  0.00000000000E+00  0.00000000000E+00  0.45593999997E+02  0.45594000000E+02  0.51100000000E-03 0.  1.
         11   -1    0    0    0    0 -0.00000000000E+00 -0.00000000000E+00 -0.45593999997E+02  0.45594000000E+02  0.51100000000E-03 0. -1.
    9900012    2    1    2    0    0 -0.10614933682E+02  0.42001609146E+02  0.26098288090E+01  0.47787271960E+02  0.20000004177E+02 0.  0.
         12    1    1    2    0    0  0.10614933682E+02 -0.42001609146E+02 -0.26098288090E+01  0.43400728040E+02  0.00000000000E+00 0. -1.
         11    1    3    3    0    0 -0.30581722981E+01  0.28093938513E+02 -0.70022294429E+01  0.29114481215E+02  0.51100000000E-03 0. -1.
        -11    1    3    3    0    0 -0.25371356423E+01  0.66525761538E+01  0.34516128113E+01  0.79124874729E+01  0.51100000000E-03 0.  1.
         12    1    3    3    0    0 -0.50196257414E+01  0.72550944793E+01  0.61604454407E+01  0.10760303272E+02  0.00000000000E+00 0. -1.
</event>
<event>
 7    1  0.3221417E-010  0.4778727E+02  0.7816164E-02  0.1312668E+00
        -11   -1    0    0    0    0  0.00000000000E+00  0.00000000000E+00  0.45593999997E+02  0.45594000000E+02  0.51100000000E-03 0. -1.
         11   -1    0    0    0    0 -0.00000000000E+00 -0.00000000000E+00 -0.45593999997E+02  0.45594000000E+02  0.51100000000E-03 0.  1.
    9900012    2    1    2    0    0 -0.33568924654E+02 -0.14815310464E+02 -0.23178807321E+02  0.47787271488E+02  0.20000002020E+02 0.  0.
         12    1    1    2    0    0  0.33568924654E+02  0.14815310464E+02  0.23178807321E+02  0.43400728512E+02  0.00000000000E+00 0. -1.
         11    1    3    3    0    0 -0.67017917524E+01 -0.68198207562E+01 -0.61510672705E+01  0.11369239054E+02  0.51100000000E-03 0. -1.
        -11    1    3    3    0    0 -0.26209620515E+02 -0.25517445947E+01 -0.11851852954E+02  0.28877708128E+02  0.51100000000E-03 0.  1.
        -12    1    3    3    0    0 -0.65751238658E+00 -0.54437451135E+01 -0.51758870959E+01  0.75403243053E+01  0.00000000000E+00 0.  1.
</event>
<event>
 7    1  0.3503457E-010  0.4778725E+02  0.7816164E-02  0.1312668E+00
        -11   -1    0    0    0    0  0.00000000000E+00  0.00000000000E+00  0.45593999997E+02  0.45594000000E+02  0.51100000000E-03 0. -1.
         11   -1    0    0    0    0 -0.00000000000E+00 -0.00000000000E+00 -0.45593999997E+02  0.45594000000E+02  0.51100000000E-03 0.  1.
    9900012    2    1    2    0    0  0.52791592002E+01 -0.57861869304E+01 -0.42688119121E+02  0.47787251214E+02  0.19999909587E+02 0.  0.
         12    1    1    2    0    0 -0.52791592002E+01  0.57861869304E+01  0.42688119121E+02  0.43400748786E+02  0.00000000000E+00 0. -1.
         11    1    3    3    0    0  0.41628672945E+01 -0.51463184520E+01 -0.64170980289E+01  0.92191759444E+01  0.51100000000E-03 0. -1.
        -11    1    3    3    0    0 -0.56227997994E+01 -0.21981155167E+01 -0.19905132728E+02  0.20800526401E+02  0.51100000000E-03 0.  1.
         12    1    3    3    0    0  0.67390917051E+01  0.15582470382E+01 -0.16365888364E+02  0.17767548869E+02  0.00000000000E+00 0. -1.
</event>
<event>
 7    1  0.3221417E-010  0.4778728E+02  0.7816164E-02  0.1312668E+00
        -11   -1    0    0    0    0  0.00000000000E+00  0.00000000000E+00  0.45593999997E+02  0.45594000000E+02  0.51100000000E-03 0. -1.
         11   -1    0    0    0    0 -0.00000000000E+00 -0.00000000000E+00 -0.45593999997E+02  0.45594000000E+02  0.51100000000E-03 0.  1.
    9900012    2    1    2    0    0 -0.17118339059E+02 -0.19099927950E+02  0.35011114170E+02  0.47787275406E+02  0.20000019887E+02 0.  0.
        -12    1    1    2    0    0  0.17118339059E+02  0.19099927950E+02 -0.35011114170E+02  0.43400724594E+02  0.00000000000E+00 0.  1.
         11    1    3    3    0    0 -0.58989186809E+01 -0.10621823985E+01  0.15313379965E+02  0.16444606389E+02  0.51100000000E-03 0. -1.
        -11    1    3    3    0    0  0.13039695106E+01 -0.27086196170E+01 -0.51712094078E+00  0.30503067129E+01  0.51100000000E-03 0.  1.
        -12    1    3    3    0    0 -0.12523389889E+02 -0.15329125934E+02  0.20214855146E+02  0.28292362305E+02  0.00000000000E+00 0.  1.
</event>
<event>
 7    1  0.3221417E-010  0.4778727E+02  0.7816164E-02  0.1312668E+00
        -11   -1    0    0    0    0  0.00000000000E+00  0.00000000000E+00  0.45593999997E+02  0.45594000000E+02  0.51100000000E-03 0. -1.
         11   -1    0    0    0    0 -0.00000000000E+00 -0.00000000000E+00 -0.45593999997E+02  0.45594000000E+02  0.51100000000E-03 0.  1.
    9900012    2    1    2    0    0 -0.12749149549E+02  0.26556524585E+02 -0.31872143303E+02  0.47787270386E+02  0.19999996999E+02 0.  0.
         12    1    1    2    0    0  0.12749149549E+02 -0.26556524585E+02  0.31872143303E+02  0.43400729614E+02  0.00000000000E+00 0. -1.
         11    1    3    3    0    0 -0.21173092542E+01  0.11289972937E+01 -0.19165856005E+01  0.30709825777E+01  0.51100000000E-03 0. -1.
        -11    1    3    3    0    0 -0.72420001201E+00  0.49744749061E+01 -0.18683680018E+02  0.19348120465E+02  0.51100000000E-03 0.  1.
        -12    1    3    3    0    0 -0.99076402827E+01  0.20453052385E+02 -0.11271877685E+02  0.25368167344E+02  0.00000000000E+00 0.  1.
</event>
<event>
 7    1  0.3221417E-010  0.4778727E+02  0.7816164E-02  0.1312668E+00
        -11   -1    0    0    0    0  0.00000000000E+00  0.00000000000E+00  0.45593999997E+02  0.45594000000E+02  0.51100000000E-03 0. -1.
         11   -1    0    0    0    0 -0.00000000000E+00 -0.00000000000E+00 -0.45593999997E+02  0.45594000000E+02  0.51100000000E-03 0.  1.
    9900012    2    1    2    0    0 -0.11820063664E+02 -0.20323432205E+01 -0.41710658500E+02  0.47787270093E+02  0.19999995661E+02 0.  0.
         12    1    1    2    0    0  0.11820063664E+02  0.20323432205E+01  0.41710658500E+02  0.43400729907E+02  0.00000000000E+00 0. -1.
         11    1    3    3    0    0 -0.77044062793E+01  0.16623287947E+01 -0.38228884756E+01  0.87598909637E+01  0.51100000000E-03 0. -1.
        -11    1    3    3    0    0  0.12700778166E+01  0.97647470644E-01 -0.11901715465E+01  0.17433132995E+01  0.51100000000E-03 0.  1.
        -12    1    3    3    0    0 -0.53857352011E+01 -0.37923194858E+01 -0.36697598478E+02  0.37284065830E+02  0.00000000000E+00 0.  1.
</event>
<event>
 7    1  0.3221417E-010  0.4778726E+02  0.7816164E-02  0.1312668E+00
        -11   -1    0    0    0    0  0.00000000000E+00  0.00000000000E+00  0.45593999997E+02  0.45594000000E+02  0.51100000000E-03 0. -1.
         11   -1    0    0    0    0 -0.00000000000E+00 -0.00000000000E+00 -0.45593999997E+02  0.45594000000E+02  0.51100000000E-03 0.  1.
    9900012    2    1    2    0    0  0.42282221867E+02  0.67672900098E+01 -0.70740101518E+01  0.47787261300E+02  0.19999955572E+02 0.  0.
         12    1    1    2    0    0 -0.42282221867E+02 -0.67672900098E+01  0.70740101518E+01  0.43400738700E+02  0.00000000000E+00 0. -1.
         11    1    3    3    0    0  0.37714289088E+00  0.36293939239E+01  0.15163165839E+01  0.39514495136E+01  0.51100000000E-03 0. -1.
        -11    1    3    3    0    0  0.13310568624E+02  0.20939249171E+01 -0.69852473639E+01  0.15177267200E+02  0.51100000000E-03 0.  1.
        -12    1    3    3    0    0  0.28594510352E+02  0.10439711688E+01 -0.16050793718E+01  0.28658544587E+02  0.00000000000E+00 0.  1.
</event>
<event>
 7    1  0.3221417E-010  0.4778729E+02  0.7816164E-02  0.1312668E+00
        -11   -1    0    0    0    0  0.00000000000E+00  0.00000000000E+00  0.45593999997E+02  0.45594000000E+02  0.51100000000E-03 0.  1.
         11   -1    0    0    0    0 -0.00000000000E+00 -0.00000000000E+00 -0.45593999997E+02  0.45594000000E+02  0.51100000000E-03 0. -1.
    9900012    2    1    2    0    0 -0.17309223263E+02  0.34006356097E+02 -0.20678005118E+02  0.47787293086E+02  0.20000100496E+02 0.  0.
         12    1    1    2    0    0  0.17309223263E+02 -0.34006356097E+02  0.20678005118E+02  0.43400706914E+02  0.00000000000E+00 0. -1.
         11    1    3    3    0    0 -0.92203203221E+01  0.11108409719E+02 -0.12611192874E+02  0.19169070382E+02  0.51100000000E-03 0. -1.
        -11    1    3    3    0    0 -0.35921757672E+01  0.62218826978E+01  0.33368319943E+01  0.79214897000E+01  0.51100000000E-03 0.  1.
         12    1    3    3    0    0 -0.44967271735E+01  0.16676063680E+02 -0.11403644238E+02  0.20696733004E+02  0.00000000000E+00 0. -1.
</event>
<event>
 7    1  0.3221417E-010  0.4778724E+02  0.7816164E-02  0.1312668E+00
        -11   -1    0    0    0    0  0.00000000000E+00  0.00000000000E+00  0.45593999997E+02  0.45594000000E+02  0.51100000000E-03 0. -1.
         11   -1    0    0    0    0 -0.00000000000E+00 -0.00000000000E+00 -0.45593999997E+02  0.45594000000E+02  0.51100000000E-03 0.  1.
    9900012    2    1    2    0    0 -0.19649450811E+02 -0.33125299792E+02  0.20005981953E+02  0.47787242894E+02  0.19999871651E+02 0.  0.
        -12    1    1    2    0    0  0.19649450811E+02  0.33125299792E+02 -0.20005981953E+02  0.43400757106E+02  0.00000000000E+00 0.  1.
         11    1    3    3    0    0 -0.28897224920E+01 -0.53990425361E+01  0.51432707864E+01  0.79970864089E+01  0.51100000000E-03 0. -1.
        -11    1    3    3    0    0  0.25231723495E+00 -0.10754931238E+02  0.11117205077E+02  0.15470115026E+02  0.51100000000E-03 0.  1.
         12    1    3    3    0    0 -0.17012045554E+02 -0.16971326018E+02  0.37455060891E+01  0.24320041460E+02  0.00000000000E+00 0. -1.
</event>
<event>
 7    1  0.3221417E-010  0.4778726E+02  0.7816164E-02  0.1312668E+00
        -11   -1    0    0    0    0  0.00000000000E+00  0.00000000000E+00  0.45593999997E+02  0.45594000000E+02  0.51100000000E-03 0. -1.
         11   -1    0    0    0    0 -0.00000000000E+00 -0.00000000000E+00 -0.45593999997E+02  0.45594000000E+02  0.51100000000E-03 0.  1.
    9900012    2    1    2    0    0  0.15972019741E+02 -0.25650724066E+02  0.31153791847E+02  0.47787264913E+02  0.19999972043E+02 0.  0.
        -12    1    1    2    0    0 -0.15972019741E+02  0.25650724066E+02 -0.31153791847E+02  0.43400735087E+02  0.00000000000E+00 0.  1.
         11    1    3    3    0    0  0.73804324900E+01 -0.30619917382E+01  0.58711796106E+01  0.99155094385E+01  0.51100000000E-03 0.  1.
        -11    1    3    3    0    0  0.44886977190E+01 -0.17744789647E+02  0.25652314883E+02  0.31512969171E+02  0.51100000000E-03 0. -1.
         12    1    3    3    0    0  0.41028895318E+01 -0.48439426809E+01 -0.36970264746E+00  0.63587863035E+01  0.00000000000E+00 0. -1.
</event>
<event>
 7    1  0.3221417E-010  0.4778727E+02  0.7816164E-02  0.1312668E+00
        -11   -1    0    0    0    0  0.00000000000E+00  0.00000000000E+00  0.45593999997E+02  0.45594000000E+02  0.51100000000E-03 0.  1.
         11   -1    0    0    0    0 -0.00000000000E+00 -0.00000000000E+00 -0.45593999997E+02  0.45594000000E+02  0.51100000000E-03 0. -1.
    9900012    2    1    2    0    0 -0.32988532051E+02 -0.29583343739E+01 -0.28046889270E+02  0.47787274350E+02  0.20000015073E+02 0.  0.
         12    1    1    2    0    0  0.32988532051E+02  0.29583343739E+01  0.28046889270E+02  0.43400725650E+02  0.00000000000E+00 0. -1.
         11    1    3    3    0    0 -0.31121476239E+01 -0.70722614429E+01 -0.95287268247E+01  0.12267802571E+02  0.51100000000E-03 0. -1.
        -11    1    3    3    0    0 -0.79311159321E-01  0.23113945792E+00 -0.26732941886E+00  0.36218916095E+00  0.51100000000E-03 0.  1.
        -12    1    3    3    0    0 -0.29797073268E+02  0.38827876111E+01 -0.18250833027E+02  0.35157282619E+02  0.00000000000E+00 0.  1.
</event>
<event>
 7    1  0.3221417E-010  0.4778727E+02  0.7816164E-02  0.1312668E+00
        -11   -1    0    0    0    0  0.00000000000E+00  0.00000000000E+00  0.45593999997E+02  0.45594000000E+02  0.51100000000E-03 0. -1.
         11   -1    0    0    0    0 -0.00000000000E+00 -0.00000000000E+00 -0.45593999997E+02  0.45594000000E+02  0.51100000000E-03 0.  1.
    9900012    2    1    2    0    0 -0.23336910075E+02  0.12664066670E+02  0.34331225958E+02  0.47787273828E+02  0.20000012689E+02 0.  0.
        -12    1    1    2    0    0  0.23336910075E+02 -0.12664066670E+02 -0.34331225958E+02  0.43400726172E+02  0.00000000000E+00 0.  1.
         11    1    3    3    0    0 -0.19027659591E+02  0.14413759956E+02  0.20533219177E+02  0.31486844802E+02  0.51100000000E-03 0. -1.
        -11    1    3    3    0    0 -0.57778015425E+01  0.23613796606E+00  0.11734756045E+02  0.13082173042E+02  0.51100000000E-03 0.  1.
        -12    1    3    3    0    0  0.14685510581E+01 -0.19858312519E+01  0.20632507359E+01  0.32182559828E+01  0.00000000000E+00 0.  1.
</event>
<event>
 7    1  0.3221417E-010  0.4778727E+02  0.7816164E-02  0.1312668E+00
        -11   -1    0    0    0    0  0.00000000000E+00  0.00000000000E+00  0.45593999997E+02  0.45594000000E+02  0.51100000000E-03 0. -1.
         11   -1    0    0    0    0 -0.00000000000E+00 -0.00000000000E+00 -0.45593999997E+02  0.45594000000E+02  0.51100000000E-03 0.  1.
    9900012    2    1    2    0    0  0.86029677838E+01 -0.21532645895E+02  0.36687291150E+02  0.47787271598E+02  0.20000002523E+02 0.  0.
        -12    1    1    2    0    0 -0.86029677838E+01  0.21532645895E+02 -0.36687291150E+02  0.43400728402E+02  0.00000000000E+00 0.  1.
         11    1    3    3    0    0  0.28462579704E+01 -0.91946841743E+01  0.13963523456E+02  0.16959463113E+02  0.51100000000E-03 0. -1.
        -11    1    3    3    0    0 -0.88365915371E+00  0.22777227465E+01  0.10139976424E+02  0.10430148443E+02  0.51100000000E-03 0.  1.
         12    1    3    3    0    0  0.66403689671E+01 -0.14615684467E+02  0.12583791270E+02  0.20397660042E+02  0.00000000000E+00 0. -1.
</event>
<event>
 7    1  0.3221417E-010  0.4778727E+02  0.7816164E-02  0.1312668E+00
        -11   -1    0    0    0    0  0.00000000000E+00  0.00000000000E+00  0.45593999997E+02  0.45594000000E+02  0.51100000000E-03 0. -1.
         11   -1    0    0    0    0 -0.00000000000E+00 -0.00000000000E+00 -0.45593999997E+02  0.45594000000E+02  0.51100000000E-03 0.  1.
    9900012    2    1    2    0    0 -0.98208511088E+01  0.39841950613E+02 -0.14134835517E+02  0.47787265902E+02  0.19999976553E+02 0.  0.
         12    1    1    2    0    0  0.98208511088E+01 -0.39841950613E+02  0.14134835517E+02  0.43400734098E+02  0.00000000000E+00 0. -1.
         11    1    3    3    0    0 -0.72489839520E+01  0.11018705916E+02 -0.40872793213E+01  0.13808167906E+02  0.51100000000E-03 0. -1.
        -11    1    3    3    0    0  0.31349747008E+01  0.22639749126E+01  0.18926854409E+01  0.43053347395E+01  0.51100000000E-03 0.  1.
        -12    1    3    3    0    0 -0.57068418576E+01  0.26559269784E+02 -0.11940241637E+02  0.29673763256E+02  0.00000000000E+00 0.  1.
</event>
<event>
 7    1  0.3221417E-010  0.4778727E+02  0.7816164E-02  0.1312668E+00
        -11   -1    0    0    0    0  0.00000000000E+00  0.00000000000E+00  0.45593999997E+02  0.45594000000E+02  0.51100000000E-03 0. -1.
         11   -1    0    0    0    0 -0.00000000000E+00 -0.00000000000E+00 -0.45593999997E+02  0.45594000000E+02  0.51100000000E-03 0.  1.
    9900012    2    1    2    0    0 -0.16749649006E+02  0.27074580860E+02 -0.29496433012E+02  0.47787271539E+02  0.20000002253E+02 0.  0.
         12    1    1    2    0    0  0.16749649006E+02 -0.27074580860E+02  0.29496433012E+02  0.43400728461E+02  0.00000000000E+00 0. -1.
         11    1    3    3    0    0  0.11687052235E+01  0.11431469910E+02 -0.38107910717E+01  0.12106465424E+02  0.51100000000E-03 0.  1.
        -11    1    3    3    0    0 -0.85746614846E+01  0.11967064758E+02 -0.15564929075E+02  0.21424343068E+02  0.51100000000E-03 0. -1.
         12    1    3    3    0    0 -0.93436927449E+01  0.36760461908E+01 -0.10120712865E+02  0.14256463047E+02  0.00000000000E+00 0. -1.
</event>
<event>
 7    1  0.3221417E-010  0.4778727E+02  0.7816164E-02  0.1312668E+00
        -11   -1    0    0    0    0  0.00000000000E+00  0.00000000000E+00  0.45593999997E+02  0.45594000000E+02  0.51100000000E-03 0.  1.
         11   -1    0    0    0    0 -0.00000000000E+00 -0.00000000000E+00 -0.45593999997E+02  0.45594000000E+02  0.51100000000E-03 0. -1.
    9900012    2    1    2    0    0  0.36872275929E+02  0.19027806550E+02  0.12727955006E+02  0.47787274281E+02  0.20000014757E+02 0.  0.
        -12    1    1    2    0    0 -0.36872275929E+02 -0.19027806550E+02 -0.12727955006E+02  0.43400725719E+02  0.00000000000E+00 0.  1.
         11    1    3    3    0    0  0.73550546278E+01  0.42454412641E+01  0.60918047514E+01  0.10451348501E+02  0.51100000000E-03 0. -1.
        -11    1    3    3    0    0  0.62924759683E+00  0.22741363105E+00  0.48961423102E+01  0.49416474258E+01  0.51100000000E-03 0.  1.
        -12    1    3    3    0    0  0.28887973704E+02  0.14554951655E+02  0.17400079448E+01  0.32394278354E+02  0.00000000000E+00 0.  1.
</event>
<event>
 7    1  0.3221417E-010  0.4778727E+02  0.7816164E-02  0.1312668E+00
        -11   -1    0    0    0    0  0.00000000000E+00  0.00000000000E+00  0.45593999997E+02  0.45594000000E+02  0.51100000000E-03 0. -1.
         11   -1    0    0    0    0 -0.00000000000E+00 -0.00000000000E+00 -0.45593999997E+02  0.45594000000E+02  0.51100000000E-03 0.  1.
    9900012    2    1    2    0    0  0.82322296476E+00  0.45005700232E+01  0.43158897027E+02  0.47787271675E+02  0.20000002873E+02 0.  0.
        -12    1    1    2    0    0 -0.82322296476E+00 -0.45005700232E+01 -0.43158897027E+02  0.43400728325E+02  0.00000000000E+00 0.  1.
         11    1    3    3    0    0 -0.16372066559E+01 -0.52934198896E+01  0.26026269458E+02  0.26609536672E+02  0.51100000000E-03 0. -1.
        -11    1    3    3    0    0 -0.92951972763E+00  0.27125496190E+01  0.67856586019E+00  0.29465885779E+01  0.51100000000E-03 0.  1.
        -12    1    3    3    0    0  0.33899493483E+01  0.70814402939E+01  0.16454061709E+02  0.18231146425E+02  0.00000000000E+00 0.  1.
</event>
<event>
 7    1  0.3221417E-010  0.4778727E+02  0.7816164E-02  0.1312668E+00
        -11   -1    0    0    0    0  0.00000000000E+00  0.00000000000E+00  0.45593999997E+02  0.45594000000E+02  0.51100000000E-03 0. -1.
         11   -1    0    0    0    0 -0.00000000000E+00 -0.00000000000E+00 -0.45593999997E+02  0.45594000000E+02  0.51100000000E-03 0.  1.
    9900012    2    1    2    0    0 -0.13158961568E+02 -0.34647390031E+02 -0.22583704611E+02  0.47787267064E+02  0.19999981850E+02 0.  0.
         12    1    1    2    0    0  0.13158961568E+02  0.34647390031E+02  0.22583704611E+02  0.43400732936E+02  0.00000000000E+00 0. -1.
         11    1    3    3    0    0  0.14347615442E+01 -0.48232968357E+01  0.52081354078E-01  0.50324393471E+01  0.51100000000E-03 0. -1.
        -11    1    3    3    0    0 -0.14473491408E+02 -0.16358484396E+02 -0.91016066863E+01  0.23662654327E+02  0.51100000000E-03 0.  1.
        -12    1    3    3    0    0 -0.12023170399E+00 -0.13465608799E+02 -0.13534179278E+02  0.19092173389E+02  0.00000000000E+00 0.  1.
</event>
<event>
 7    1  0.3221417E-010  0.4778727E+02  0.7816164E-02  0.1312668E+00
        -11   -1    0    0    0    0  0.00000000000E+00  0.00000000000E+00  0.45593999997E+02  0.45594000000E+02  0.51100000000E-03 0.  1.
         11   -1    0    0    0    0 -0.00000000000E+00 -0.00000000000E+00 -0.45593999997E+02  0.45594000000E+02  0.51100000000E-03 0. -1.
    9900012    2    1    2    0    0  0.30981096377E+02  0.21408377553E+02  0.21574894063E+02  0.47787274015E+02  0.20000013545E+02 0.  0.
        -12    1    1    2    0    0 -0.30981096377E+02 -0.21408377553E+02 -0.21574894063E+02  0.43400725985E+02  0.00000000000E+00 0.  1.
         11    1    3    3    0    0  0.63392492684E+01  0.39557210443E+01  0.41760811644E+00  0.74838631112E+01  0.51100000000E-03 0. -1.
        -11    1    3    3    0    0  0.11607859847E+02  0.10938501016E+02  0.20148475328E+02  0.25697359261E+02  0.51100000000E-03 0.  1.
        -12    1    3    3    0    0  0.13033987262E+02  0.65141554928E+01  0.10088106184E+01  0.14606051643E+02  0.00000000000E+00 0.  1.
</event>
<event>
 7    1  0.3221417E-010  0.4778727E+02  0.7816164E-02  0.1312668E+00
        -11   -1    0    0    0    0  0.00000000000E+00  0.00000000000E+00  0.45593999997E+02  0.45594000000E+02  0.51100000000E-03 0. -1.
         11   -1    0    0    0    0 -0.00000000000E+00 -0.00000000000E+00 -0.45593999997E+02  0.45594000000E+02  0.51100000000E-03 0.  1.
    9900012    2    1    2    0    0 -0.15044677505E+02  0.27342474956E+02  0.30160734328E+02  0.47787272435E+02  0.20000006339E+02 0.  0.
        -12    1    1    2    0    0  0.15044677505E+02 -0.27342474956E+02 -0.30160734328E+02  0.43400727565E+02  0.00000000000E+00 0.  1.
         11    1    3    3    0    0 -0.11589577851E+02  0.84862930507E+01  0.13380077543E+02  0.19630638294E+02  0.51100000000E-03 0. -1.
        -11    1    3    3    0    0 -0.23368900480E+01  0.11153319082E+02  0.21675208272E+01  0.11599815880E+02  0.51100000000E-03 0.  1.
         12    1    3    3    0    0 -0.11182096059E+01  0.77028628232E+01  0.14613135958E+02  0.16556818261E+02  0.00000000000E+00 0. -1.
</event>
<event>
 7    1  0.3221417E-010  0.4778727E+02  0.7816164E-02  0.1312668E+00
        -11   -1    0    0    0    0  0.00000000000E+00  0.00000000000E+00  0.45593999997E+02  0.45594000000E+02  0.51100000000E-03 0. -1.
         11   -1    0    0    0    0 -0.00000000000E+00 -0.00000000000E+00 -0.45593999997E+02  0.45594000000E+02  0.51100000000E-03 0.  1.
    9900012    2    1    2    0    0  0.34581751384E+02  0.24673646884E+02 -0.88846527327E+01  0.47787269205E+02  0.19999991614E+02 0.  0.
         12    1    1    2    0    0 -0.34581751384E+02 -0.24673646884E+02  0.88846527327E+01  0.43400730795E+02  0.00000000000E+00 0. -1.
         11    1    3    3    0    0  0.86059397346E+01 -0.44246143603E+00 -0.31081417918E+00  0.86229099818E+01  0.51100000000E-03 0. -1.
        -11    1    3    3    0    0  0.27119012153E+02  0.22678914762E+02 -0.69759190680E+01  0.36033837459E+02  0.51100000000E-03 0.  1.
         12    1    3    3    0    0 -0.11432005039E+01  0.24371935585E+01 -0.15979194855E+01  0.31305217641E+01  0.00000000000E+00 0. -1.
</event>
<event>
 7    1  0.3221417E-010  0.4778727E+02  0.7816164E-02  0.1312668E+00
        -11   -1    0    0    0    0  0.00000000000E+00  0.00000000000E+00  0.45593999997E+02  0.45594000000E+02  0.51100000000E-03 0. -1.
         11   -1    0    0    0    0 -0.00000000000E+00 -0.00000000000E+00 -0.45593999997E+02  0.45594000000E+02  0.51100000000E-03 0.  1.
    9900012    2    1    2    0    0  0.14004928135E+02 -0.14004630411E+02  0.38618073712E+02  0.47787270718E+02  0.19999998511E+02 0.  0.
        -12    1    1    2    0    0 -0.14004928135E+02  0.14004630411E+02 -0.38618073712E+02  0.43400729282E+02  0.00000000000E+00 0.  1.
         11    1    3    3    0    0  0.25597581517E+01 -0.28094744410E+00 -0.42081157336E+00  0.26092864739E+01  0.51100000000E-03 0. -1.
        -11    1    3    3    0    0  0.66433742542E+01  0.45784131532E-01  0.55678698910E+01  0.86682001045E+01  0.51100000000E-03 0.  1.
         12    1    3    3    0    0  0.48017957289E+01 -0.13769467098E+02  0.33471015394E+02  0.36509784139E+02  0.00000000000E+00 0. -1.
</event>
<event>
 7    1  0.3221417E-010  0.4778727E+02  0.7816164E-02  0.1312668E+00
        -11   -1    0    0    0    0  0.00000000000E+00  0.00000000000E+00  0.45593999997E+02  0.45594000000E+02  0.51100000000E-03 0. -1.
         11   -1    0    0    0    0 -0.00000000000E+00 -0.00000000000E+00 -0.45593999997E+02  0.45594000000E+02  0.51100000000E-03 0.  1.
    9900012    2    1    2    0    0 -0.44139004383E+01  0.27189945745E+02  0.33538747198E+02  0.47787271546E+02  0.20000002287E+02 0.  0.
        -12    1    1    2    0    0  0.44139004383E+01 -0.27189945745E+02 -0.33538747198E+02  0.43400728454E+02  0.00000000000E+00 0.  1.
         11    1    3    3    0    0 -0.98808698324E+01  0.80701434860E+01  0.13629404111E+02  0.18668675936E+02  0.51100000000E-03 0. -1.
        -11    1    3    3    0    0  0.12167214289E+01  0.14556260843E+02  0.11199456022E+02  0.18406329243E+02  0.51100000000E-03 0.  1.
        -12    1    3    3    0    0  0.42502479652E+01  0.45635414165E+01  0.87098870658E+01  0.10712266367E+02  0.00000000000E+00 0.  1.
</event>
<event>
 7    1  0.3221417E-010  0.4778727E+02  0.7816164E-02  0.1312668E+00
        -11   -1    0    0    0    0  0.00000000000E+00  0.00000000000E+00  0.45593999997E+02  0.45594000000E+02  0.51100000000E-03 0. -1.
         11   -1    0    0    0    0 -0.00000000000E+00 -0.00000000000E+00 -0.45593999997E+02  0.45594000000E+02  0.51100000000E-03 0.  1.
    9900012    2    1    2    0    0  0.11974660127E+02  0.36045144730E+02  0.20999484954E+02  0.47787270604E+02  0.19999997991E+02 0.  0.
        -12    1    1    2    0    0 -0.11974660127E+02 -0.36045144730E+02 -0.20999484954E+02  0.43400729396E+02  0.00000000000E+00 0.  1.
         11    1    3    3    0    0  0.32798056096E+01  0.82731462562E+01  0.12199129387E+02  0.15100358667E+02  0.51100000000E-03 0. -1.
        -11    1    3    3    0    0 -0.21385873845E+01  0.65578630438E+01 -0.92171836638E+00  0.69590724030E+01  0.51100000000E-03 0.  1.
         12    1    3    3    0    0  0.10833441902E+02  0.21214135430E+02  0.97220739334E+01  0.25727839533E+02  0.00000000000E+00 0. -1.
</event>
<event>
 7    1  0.3221417E-010  0.4778727E+02  0.7816164E-02  0.1312668E+00
        -11   -1    0    0    0    0  0.00000000000E+00  0.00000000000E+00  0.45593999997E+02  0.45594000000E+02  0.51100000000E-03 0. -1.
         11   -1    0    0    0    0 -0.00000000000E+00 -0.00000000000E+00 -0.45593999997E+02  0.45594000000E+02  0.51100000000E-03 0.  1.
    9900012    2    1    2    0    0  0.76327451315E+01 -0.24959794687E+02  0.34675252210E+02  0.47787271147E+02  0.20000000470E+02 0.  0.
        -12    1    1    2    0    0 -0.76327451315E+01  0.24959794687E+02 -0.34675252210E+02  0.43400728853E+02  0.00000000000E+00 0.  1.
         11    1    3    3    0    0 -0.29565336316E+01 -0.22092521269E+01  0.65603052473E+01  0.75272499144E+01  0.51100000000E-03 0. -1.
        -11    1    3    3    0    0  0.48757488721E+01 -0.13298815804E+02  0.56932789135E+01  0.15265806690E+02  0.51100000000E-03 0.  1.
        -12    1    3    3    0    0  0.57135298910E+01 -0.94517267565E+01  0.22421668050E+02  0.24994214543E+02  0.00000000000E+00 0.  1.
</event>
<event>
 7    1  0.3221417E-010  0.4778727E+02  0.7816164E-02  0.1312668E+00
        -11   -1    0    0    0    0  0.00000000000E+00  0.00000000000E+00  0.45593999997E+02  0.45594000000E+02  0.51100000000E-03 0. -1.
         11   -1    0    0    0    0 -0.00000000000E+00 -0.00000000000E+00 -0.45593999997E+02  0.45594000000E+02  0.51100000000E-03 0.  1.
    9900012    2    1    2    0    0  0.92834374860E+01  0.14311502213E+00  0.42396001349E+02  0.47787267012E+02  0.19999981615E+02 0.  0.
        -12    1    1    2    0    0 -0.92834374860E+01 -0.14311502213E+00 -0.42396001349E+02  0.43400732988E+02  0.00000000000E+00 0.  1.
         11    1    3    3    0    0  0.36576247697E+01 -0.12916848590E+01 -0.91100297042E-01  0.38800732282E+01  0.51100000000E-03 0. -1.
        -11    1    3    3    0    0 -0.17786672889E+01 -0.19259965152E+01  0.15552338410E+02  0.15771757992E+02  0.51100000000E-03 0.  1.
         12    1    3    3    0    0  0.74044800051E+01  0.33607963963E+01  0.26934763237E+02  0.28135435792E+02  0.00000000000E+00 0. -1.
</event>
<event>
 7    1  0.3221417E-010  0.4778727E+02  0.7816164E-02  0.1312668E+00
        -11   -1    0    0    0    0  0.00000000000E+00  0.00000000000E+00  0.45593999997E+02  0.45594000000E+02  0.51100000000E-03 0. -1.
         11   -1    0    0    0    0 -0.00000000000E+00 -0.00000000000E+00 -0.45593999997E+02  0.45594000000E+02  0.51100000000E-03 0.  1.
    9900012    2    1    2    0    0  0.16219527503E+02  0.21211542322E+02 -0.34214335503E+02  0.47787270121E+02  0.19999995792E+02 0.  0.
         12    1    1    2    0    0 -0.16219527503E+02 -0.21211542322E+02  0.34214335503E+02  0.43400729879E+02  0.00000000000E+00 0. -1.
         11    1    3    3    0    0 -0.23543952101E+01  0.68310748749E+01 -0.13790081182E+02  0.15568336457E+02  0.51100000000E-03 0. -1.
        -11    1    3    3    0    0  0.99758156332E+01  0.12224646564E+02 -0.10719890194E+02  0.19075505949E+02  0.51100000000E-03 0.  1.
        -12    1    3    3    0    0  0.85981070794E+01  0.21558208830E+01 -0.97043641265E+01  0.13143427716E+02  0.00000000000E+00 0.  1.
</event>
<event>
 7    1  0.3221417E-010  0.4778726E+02  0.7816164E-02  0.1312668E+00
        -11   -1    0    0    0    0  0.00000000000E+00  0.00000000000E+00  0.45593999997E+02  0.45594000000E+02  0.51100000000E-03 0. -1.
         11   -1    0    0    0    0 -0.00000000000E+00 -0.00000000000E+00 -0.45593999997E+02  0.45594000000E+02  0.51100000000E-03 0.  1.
    9900012    2    1    2    0    0  0.16263232167E+02 -0.76425060223E+01 -0.39505992485E+02  0.47787261976E+02  0.19999958652E+02 0.  0.
         12    1    1    2    0    0 -0.16263232167E+02  0.76425060223E+01  0.39505992485E+02  0.43400738024E+02  0.00000000000E+00 0. -1.
         11    1    3    3    0    0  0.15167391996E+02  0.37767948487E+00 -0.26638552369E+02  0.30656237446E+02  0.51100000000E-03 0. -1.
        -11    1    3    3    0    0  0.10336376588E+01  0.14769098285E+01 -0.23151674964E+01  0.29342239602E+01  0.51100000000E-03 0.  1.
        -12    1    3    3    0    0  0.62202511981E-01 -0.94970953357E+01 -0.10552272620E+02  0.14196800569E+02  0.00000000000E+00 0.  1.
</event>
<event>
 7    1  0.3221417E-010  0.4778727E+02  0.7816164E-02  0.1312668E+00
        -11   -1    0    0    0    0  0.00000000000E+00  0.00000000000E+00  0.45593999997E+02  0.45594000000E+02  0.51100000000E-03 0. -1.
         11   -1    0    0    0    0 -0.00000000000E+00 -0.00000000000E+00 -0.45593999997E+02  0.45594000000E+02  0.51100000000E-03 0.  1.
    9900012    2    1    2    0    0  0.10436980914E+02  0.38949146525E+02 -0.16051686492E+02  0.47787271610E+02  0.20000002577E+02 0.  0.
         12    1    1    2    0    0 -0.10436980914E+02 -0.38949146525E+02  0.16051686492E+02  0.43400728390E+02  0.00000000000E+00 0. -1.
         11    1    3    3    0    0  0.76358138395E+01  0.74621196445E+01 -0.10607687296E+02  0.15050312708E+02  0.51100000000E-03 0. -1.
        -11    1    3    3    0    0  0.14515354077E+01  0.15900694287E+02 -0.60651884766E+01  0.17079974981E+02  0.51100000000E-03 0.  1.
        -12    1    3    3    0    0  0.13496316665E+01  0.15586332593E+02  0.62118928135E+00  0.15656983920E+02  0.00000000000E+00 0.  1.
</event>
<event>
 7    1  0.3221417E-010  0.4778727E+02  0.7816164E-02  0.1312668E+00
        -11   -1    0    0    0    0  0.00000000000E+00  0.00000000000E+00  0.45593999997E+02  0.45594000000E+02  0.51100000000E-03 0. -1.
         11   -1    0    0    0    0 -0.00000000000E+00 -0.00000000000E+00 -0.45593999997E+02  0.45594000000E+02  0.51100000000E-03 0.  1.
    9900012    2    1    2    0    0 -0.22447202116E+00 -0.14164307731E+02  0.41023716221E+02  0.47787270815E+02  0.19999998956E+02 0.  0.
        -12    1    1    2    0    0  0.22447202116E+00  0.14164307731E+02 -0.41023716221E+02  0.43400729185E+02  0.00000000000E+00 0.  1.
         11    1    3    3    0    0  0.24352560812E+01 -0.93858845547E+01  0.20060910632E+02  0.22281504363E+02  0.51100000000E-03 0. -1.
        -11    1    3    3    0    0 -0.66049401145E+01 -0.72211183522E+01  0.12749480917E+02  0.16072306869E+02  0.51100000000E-03 0.  1.
        -12    1    3    3    0    0  0.39452120121E+01  0.24426951756E+01  0.82133246718E+01  0.94334595831E+01  0.00000000000E+00 0.  1.
</event>
<event>
 7    1  0.3221417E-010  0.4778727E+02  0.7816164E-02  0.1312668E+00
        -11   -1    0    0    0    0  0.00000000000E+00  0.00000000000E+00  0.45593999997E+02  0.45594000000E+02  0.51100000000E-03 0. -1.
         11   -1    0    0    0    0 -0.00000000000E+00 -0.00000000000E+00 -0.45593999997E+02  0.45594000000E+02  0.51100000000E-03 0.  1.
    9900012    2    1    2    0    0  0.77329262832E+01  0.30475517993E+02  0.29917691948E+02  0.47787266857E+02  0.19999980908E+02 0.  0.
        -12    1    1    2    0    0 -0.77329262832E+01 -0.30475517993E+02 -0.29917691948E+02  0.43400733143E+02  0.00000000000E+00 0.  1.
         11    1    3    3    0    0  0.10206204715E+02  0.80489350582E+01  0.14581839450E+02  0.19534124303E+02  0.51100000000E-03 0. -1.
        -11    1    3    3    0    0  0.34834383442E+00  0.18151565182E+02  0.14091373582E+02  0.22981894432E+02  0.51100000000E-03 0.  1.
        -12    1    3    3    0    0 -0.28216222657E+01  0.42750177532E+01  0.12444789152E+01  0.52712481227E+01  0.00000000000E+00 0.  1.
</event>
<event>
 7    1  0.3221417E-010  0.4778728E+02  0.7816164E-02  0.1312668E+00
        -11   -1    0    0    0    0  0.00000000000E+00  0.00000000000E+00  0.45593999997E+02  0.45594000000E+02  0.51100000000E-03 0. -1.
         11   -1    0    0    0    0 -0.00000000000E+00 -0.00000000000E+00 -0.45593999997E+02  0.45594000000E+02  0.51100000000E-03 0.  1.
    9900012    2    1    2    0    0 -0.39211226473E+01 -0.13563680762E+02 -0.41039902493E+02  0.47787283010E+02  0.20000054554E+02 0.  0.
         12    1    1    2    0    0  0.39211226473E+01  0.13563680762E+02  0.41039902493E+02  0.43400716990E+02  0.00000000000E+00 0. -1.
         11    1    3    3    0    0  0.21521601820E-01 -0.22198229873E+01 -0.25585840265E+02  0.25681964481E+02  0.51100000000E-03 0. -1.
        -11    1    3    3    0    0 -0.25507261683E+00 -0.10410301313E+02 -0.15019956382E+02  0.18276720862E+02  0.51100000000E-03 0.  1.
         12    1    3    3    0    0 -0.36875716323E+01 -0.93355646178E+00 -0.43410584599E+00  0.38285976670E+01  0.00000000000E+00 0. -1.
</event>
<event>
 7    1  0.3221417E-010  0.4778729E+02  0.7816164E-02  0.1312668E+00
        -11   -1    0    0    0    0  0.00000000000E+00  0.00000000000E+00  0.45593999997E+02  0.45594000000E+02  0.51100000000E-03 0. -1.
         11   -1    0    0    0    0 -0.00000000000E+00 -0.00000000000E+00 -0.45593999997E+02  0.45594000000E+02  0.51100000000E-03 0.  1.
    9900012    2    1    2    0    0 -0.17606278806E+02  0.77474427267E+01  0.38905237245E+02  0.47787292549E+02  0.20000098045E+02 0.  0.
        -12    1    1    2    0    0  0.17606278806E+02 -0.77474427267E+01 -0.38905237245E+02  0.43400707451E+02  0.00000000000E+00 0.  1.
         11    1    3    3    0    0 -0.12576200024E+02  0.50454071099E+01  0.11470638515E+02  0.17753661261E+02  0.51100000000E-03 0. -1.
        -11    1    3    3    0    0 -0.24967012109E+01  0.58807525672E+01  0.83110001220E+01  0.10482818847E+02  0.51100000000E-03 0.  1.
        -12    1    3    3    0    0 -0.25333775706E+01 -0.31787169504E+01  0.19123598608E+02  0.19550812441E+02  0.00000000000E+00 0.  1.
</event>
<event>
 7    1  0.3221417E-010  0.4778727E+02  0.7816164E-02  0.1312668E+00
        -11   -1    0    0    0    0  0.00000000000E+00  0.00000000000E+00  0.45593999997E+02  0.45594000000E+02  0.51100000000E-03 0. -1.
         11   -1    0    0    0    0 -0.00000000000E+00 -0.00000000000E+00 -0.45593999997E+02  0.45594000000E+02  0.51100000000E-03 0.  1.
    9900012    2    1    2    0    0 -0.34434462332E+02 -0.84683603259E+01  0.25023549234E+02  0.47787270294E+02  0.19999996581E+02 0.  0.
        -12    1    1    2    0    0  0.34434462332E+02  0.84683603259E+01 -0.25023549234E+02  0.43400729706E+02  0.00000000000E+00 0.  1.
         11    1    3    3    0    0 -0.14925480532E+02 -0.96839928003E+00  0.21851903312E+02  0.26480435134E+02  0.51100000000E-03 0. -1.
        -11    1    3    3    0    0 -0.79264239941E+01 -0.30643265496E+01  0.26155393375E+01  0.88915319728E+01  0.51100000000E-03 0.  1.
         12    1    3    3    0    0 -0.11582557806E+02 -0.44356344963E+01  0.55610658482E+00  0.12415303188E+02  0.00000000000E+00 0. -1.
</event>
<event>
 7    1  0.3221417E-010  0.4778727E+02  0.7816164E-02  0.1312668E+00
        -11   -1    0    0    0    0  0.00000000000E+00  0.00000000000E+00  0.45593999997E+02  0.45594000000E+02  0.51100000000E-03 0. -1.
         11   -1    0    0    0    0 -0.00000000000E+00 -0.00000000000E+00 -0.45593999997E+02  0.45594000000E+02  0.51100000000E-03 0.  1.
    9900012    2    1    2    0    0  0.14603296706E+02 -0.30519096213E+02 -0.27183663101E+02  0.47787273648E+02  0.20000011869E+02 0.  0.
         12    1    1    2    0    0 -0.14603296706E+02  0.30519096213E+02  0.27183663101E+02  0.43400726352E+02  0.00000000000E+00 0. -1.
         11    1    3    3    0    0  0.19577338625E+01  0.25216381760E+00  0.27627244627E+00  0.19931470575E+01  0.51100000000E-03 0. -1.
        -11    1    3    3    0    0  0.11971133631E+02 -0.12081900889E+02 -0.18253399268E+02  0.24949287657E+02  0.51100000000E-03 0.  1.
         12    1    3    3    0    0  0.67442921253E+00 -0.18689359141E+02 -0.92065362791E+01  0.20844838933E+02  0.00000000000E+00 0. -1.
</event>
<event>
 7    1  0.3221417E-010  0.4778727E+02  0.7816164E-02  0.1312668E+00
        -11   -1    0    0    0    0  0.00000000000E+00  0.00000000000E+00  0.45593999997E+02  0.45594000000E+02  0.51100000000E-03 0. -1.
         11   -1    0    0    0    0 -0.00000000000E+00 -0.00000000000E+00 -0.45593999997E+02  0.45594000000E+02  0.51100000000E-03 0.  1.
    9900012    2    1    2    0    0 -0.19696088354E+02 -0.23644023805E+02 -0.30604692785E+02  0.47787274446E+02  0.20000015509E+02 0.  0.
         12    1    1    2    0    0  0.19696088354E+02  0.23644023805E+02  0.30604692785E+02  0.43400725554E+02  0.00000000000E+00 0. -1.
         11    1    3    3    0    0 -0.11389118151E+01 -0.77997343205E+00  0.84111824869E+00  0.16164649228E+01  0.51100000000E-03 0. -1.
        -11    1    3    3    0    0 -0.11633503542E+02 -0.18549711680E+02 -0.31062340159E+02  0.38003936434E+02  0.51100000000E-03 0.  1.
        -12    1    3    3    0    0 -0.69236729977E+01 -0.43143386938E+01 -0.38347087420E+00  0.81668730892E+01  0.00000000000E+00 0.  1.
</event>
<event>
 7    1  0.3221417E-010  0.4778726E+02  0.7816164E-02  0.1312668E+00
        -11   -1    0    0    0    0  0.00000000000E+00  0.00000000000E+00  0.45593999997E+02  0.45594000000E+02  0.51100000000E-03 0.  1.
         11   -1    0    0    0    0 -0.00000000000E+00 -0.00000000000E+00 -0.45593999997E+02  0.45594000000E+02  0.51100000000E-03 0. -1.
    9900012    2    1    2    0    0 -0.11128776799E+02  0.41833510453E+02 -0.31196785714E+01  0.47787255026E+02  0.19999926966E+02 0.  0.
         12    1    1    2    0    0  0.11128776799E+02 -0.41833510453E+02  0.31196785714E+01  0.43400744974E+02  0.00000000000E+00 0. -1.
         11    1    3    3    0    0 -0.78849210473E+00  0.48580749452E+01 -0.56140660373E+01  0.74659460020E+01  0.51100000000E-03 0. -1.
        -11    1    3    3    0    0 -0.87166442832E+01  0.10940720926E+02  0.26406775165E+01  0.14235604657E+02  0.51100000000E-03 0.  1.
         12    1    3    3    0    0 -0.16236404110E+01  0.26034714582E+02 -0.14629005070E+00  0.26085704367E+02  0.00000000000E+00 0. -1.
</event>
<event>
 7    1  0.3221417E-010  0.4778728E+02  0.7816164E-02  0.1312668E+00
        -11   -1    0    0    0    0  0.00000000000E+00  0.00000000000E+00  0.45593999997E+02  0.45594000000E+02  0.51100000000E-03 0. -1.
         11   -1    0    0    0    0 -0.00000000000E+00 -0.00000000000E+00 -0.45593999997E+02  0.45594000000E+02  0.51100000000E-03 0.  1.
    9900012    2    1    2    0    0  0.32071569778E+02 -0.47674651332E+01 -0.28849758760E+02  0.47787275440E+02  0.20000020040E+02 0.  0.
         12    1    1    2    0    0 -0.32071569778E+02  0.47674651332E+01  0.28849758760E+02  0.43400724560E+02  0.00000000000E+00 0. -1.
         11    1    3    3    0    0  0.14051073500E+02 -0.76082078269E+00 -0.99205118085E+00  0.14106582881E+02  0.51100000000E-03 0. -1.
        -11    1    3    3    0    0  0.77520058435E+01  0.38482142247E+00 -0.11482748508E+02  0.13859841113E+02  0.51100000000E-03 0.  1.
        -12    1    3    3    0    0  0.10268490435E+02 -0.43914657729E+01 -0.16374959072E+02  0.19820851446E+02  0.00000000000E+00 0.  1.
</event>
<event>
 7    1  0.3221417E-010  0.4778727E+02  0.7816164E-02  0.1312668E+00
        -11   -1    0    0    0    0  0.00000000000E+00  0.00000000000E+00  0.45593999997E+02  0.45594000000E+02  0.51100000000E-03 0. -1.
         11   -1    0    0    0    0 -0.00000000000E+00 -0.00000000000E+00 -0.45593999997E+02  0.45594000000E+02  0.51100000000E-03 0.  1.
    9900012    2    1    2    0    0  0.27632092969E+01 -0.30517664184E+01 -0.43205030806E+02  0.47787270849E+02  0.19999999107E+02 0.  0.
         12    1    1    2    0    0 -0.27632092969E+01  0.30517664184E+01  0.43205030806E+02  0.43400729151E+02  0.00000000000E+00 0. -1.
         11    1    3    3    0    0  0.45021042556E+01 -0.81361282520E+00 -0.10708722515E+02  0.11645069632E+02  0.51100000000E-03 0. -1.
        -11    1    3    3    0    0 -0.52104713755E+01 -0.33644823419E+01 -0.31834364350E+02  0.32432938615E+02  0.51100000000E-03 0.  1.
         12    1    3    3    0    0  0.34715764168E+01  0.11263287487E+01 -0.66194394119E+00  0.37092626018E+01  0.00000000000E+00 0. -1.
</event>
<event>
 7    1  0.3221417E-010  0.4778727E+02  0.7816164E-02  0.1312668E+00
        -11   -1    0    0    0    0  0.00000000000E+00  0.00000000000E+00  0.45593999997E+02  0.45594000000E+02  0.51100000000E-03 0. -1.
         11   -1    0    0    0    0 -0.00000000000E+00 -0.00000000000E+00 -0.45593999997E+02  0.45594000000E+02  0.51100000000E-03 0.  1.
    9900012    2    1    2    0    0  0.42639435946E+01  0.15814721562E+02  0.40191249121E+02  0.47787272599E+02  0.20000007088E+02 0.  0.
        -12    1    1    2    0    0 -0.42639435946E+01 -0.15814721562E+02 -0.40191249121E+02  0.43400727401E+02  0.00000000000E+00 0.  1.
         11    1    3    3    0    0 -0.60660527306E+00  0.59701572311E+01  0.17647948914E+02  0.18640301727E+02  0.51100000000E-03 0. -1.
        -11    1    3    3    0    0 -0.21126152912E+01  0.31773739388E+01 -0.78869654523E+00  0.38962662918E+01  0.51100000000E-03 0.  1.
         12    1    3    3    0    0  0.69831641588E+01  0.66671903917E+01  0.23331996752E+02  0.25250704581E+02  0.00000000000E+00 0. -1.
</event>
<event>
 7    1  0.3221417E-010  0.4778727E+02  0.7816164E-02  0.1312668E+00
        -11   -1    0    0    0    0  0.00000000000E+00  0.00000000000E+00  0.45593999997E+02  0.45594000000E+02  0.51100000000E-03 0. -1.
         11   -1    0    0    0    0 -0.00000000000E+00 -0.00000000000E+00 -0.45593999997E+02  0.45594000000E+02  0.51100000000E-03 0.  1.
    9900012    2    1    2    0    0 -0.15519463018E+02  0.31798756998E+02  0.25131823166E+02  0.47787271727E+02  0.20000003111E+02 0.  0.
        -12    1    1    2    0    0  0.15519463018E+02 -0.31798756998E+02 -0.25131823166E+02  0.43400728273E+02  0.00000000000E+00 0.  1.
         11    1    3    3    0    0 -0.47256729513E+01  0.14030631677E+02  0.16816818747E+02  0.22405267307E+02  0.51100000000E-03 0. -1.
        -11    1    3    3    0    0 -0.49267000702E+01 -0.20180873645E+00  0.28906010460E+01  0.57156517577E+01  0.51100000000E-03 0.  1.
        -12    1    3    3    0    0 -0.58670899969E+01  0.17969934057E+02  0.54244033738E+01  0.19666352662E+02  0.00000000000E+00 0.  1.
</event>
<event>
 7    1  0.3221417E-010  0.4778727E+02  0.7816164E-02  0.1312668E+00
        -11   -1    0    0    0    0  0.00000000000E+00  0.00000000000E+00  0.45593999997E+02  0.45594000000E+02  0.51100000000E-03 0. -1.
         11   -1    0    0    0    0 -0.00000000000E+00 -0.00000000000E+00 -0.45593999997E+02  0.45594000000E+02  0.51100000000E-03 0.  1.
    9900012    2    1    2    0    0 -0.52842923764E+01 -0.21802869694E+02  0.37152852139E+02  0.47787270803E+02  0.19999998897E+02 0.  0.
        -12    1    1    2    0    0  0.52842923764E+01  0.21802869694E+02 -0.37152852139E+02  0.43400729197E+02  0.00000000000E+00 0.  1.
         11    1    3    3    0    0 -0.76860549075E+01 -0.92428518501E+01  0.15703891197E+02  0.19776702186E+02  0.51100000000E-03 0. -1.
        -11    1    3    3    0    0  0.17209015638E+00 -0.28679046610E+01 -0.13219291812E+01  0.31625921627E+01  0.51100000000E-03 0.  1.
        -12    1    3    3    0    0  0.22296723747E+01 -0.96921131830E+01  0.22770890123E+02  0.24847976454E+02  0.00000000000E+00 0.  1.
</event>
<event>
 7    1  0.3221417E-010  0.4778727E+02  0.7816164E-02  0.1312668E+00
        -11   -1    0    0    0    0  0.00000000000E+00  0.00000000000E+00  0.45593999997E+02  0.45594000000E+02  0.51100000000E-03 0. -1.
         11   -1    0    0    0    0 -0.00000000000E+00 -0.00000000000E+00 -0.45593999997E+02  0.45594000000E+02  0.51100000000E-03 0.  1.
    9900012    2    1    2    0    0 -0.16180787755E+02 -0.65410022481E+01 -0.39736892401E+02  0.47787271659E+02  0.20000002804E+02 0.  0.
         12    1    1    2    0    0  0.16180787755E+02  0.65410022481E+01  0.39736892401E+02  0.43400728341E+02  0.00000000000E+00 0. -1.
         11    1    3    3    0    0  0.20673475619E+01  0.74993860638E+00 -0.30047098534E+01  0.37235219107E+01  0.51100000000E-03 0. -1.
        -11    1    3    3    0    0 -0.49524176207E+01  0.39085489067E+01 -0.14718553954E+02  0.16013713673E+02  0.51100000000E-03 0.  1.
        -12    1    3    3    0    0 -0.13295717696E+02 -0.11199489761E+02 -0.22013628594E+02  0.28050036075E+02  0.00000000000E+00 0.  1.
</event>
<event>
 7    1  0.3221417E-010  0.4778728E+02  0.7816164E-02  0.1312668E+00
        -11   -1    0    0    0    0  0.00000000000E+00  0.00000000000E+00  0.45593999997E+02  0.45594000000E+02  0.51100000000E-03 0. -1.
         11   -1    0    0    0    0 -0.00000000000E+00 -0.00000000000E+00 -0.45593999997E+02  0.45594000000E+02  0.51100000000E-03 0.  1.
    9900012    2    1    2    0    0 -0.58101122493E+01  0.57864424139E+01  0.42619038264E+02  0.47787277164E+02  0.20000027900E+02 0.  0.
        -12    1    1    2    0    0  0.58101122493E+01 -0.57864424139E+01 -0.42619038264E+02  0.43400722836E+02  0.00000000000E+00 0.  1.
         11    1    3    3    0    0  0.46614761117E+00 -0.19688039275E+01  0.72116778118E+01  0.74901121235E+01  0.51100000000E-03 0. -1.
        -11    1    3    3    0    0 -0.16700527337E+01  0.12502391160E+02  0.23897841245E+02  0.27022318133E+02  0.51100000000E-03 0.  1.
        -12    1    3    3    0    0 -0.46062071268E+01 -0.47471448187E+01  0.11509519208E+02  0.13274846907E+02  0.00000000000E+00 0.  1.
</event>
<event>
 7    1  0.3221417E-010  0.4778728E+02  0.7816164E-02  0.1312668E+00
        -11   -1    0    0    0    0  0.00000000000E+00  0.00000000000E+00  0.45593999997E+02  0.45594000000E+02  0.51100000000E-03 0.  1.
         11   -1    0    0    0    0 -0.00000000000E+00 -0.00000000000E+00 -0.45593999997E+02  0.45594000000E+02  0.51100000000E-03 0. -1.
    9900012    2    1    2    0    0 -0.94022733720E+01 -0.36078761543E+02  0.22215830981E+02  0.47787275061E+02  0.20000018313E+02 0.  0.
        -12    1    1    2    0    0  0.94022733720E+01  0.36078761543E+02 -0.22215830981E+02  0.43400724939E+02  0.00000000000E+00 0.  1.
         11    1    3    3    0    0 -0.78598680009E+01 -0.23123815044E+02  0.72794205579E+01  0.25484864353E+02  0.51100000000E-03 0. -1.
        -11    1    3    3    0    0 -0.13399688150E+01 -0.14712499458E+02  0.13659985553E+02  0.20120843976E+02  0.51100000000E-03 0.  1.
        -12    1    3    3    0    0 -0.20243655606E+00  0.17575529580E+01  0.12764248695E+01  0.21815667322E+01  0.00000000000E+00 0.  1.
</event>
<event>
 7    1  0.3221417E-010  0.4778729E+02  0.7816164E-02  0.1312668E+00
        -11   -1    0    0    0    0  0.00000000000E+00  0.00000000000E+00  0.45593999997E+02  0.45594000000E+02  0.51100000000E-03 0. -1.
         11   -1    0    0    0    0 -0.00000000000E+00 -0.00000000000E+00 -0.45593999997E+02  0.45594000000E+02  0.51100000000E-03 0.  1.
    9900012    2    1    2    0    0 -0.84231883909E+01  0.42849508993E+01 -0.42359306246E+02  0.47787288802E+02  0.20000080963E+02 0.  0.
         12    1    1    2    0    0  0.84231883909E+01 -0.42849508993E+01  0.42359306246E+02  0.43400711198E+02  0.00000000000E+00 0. -1.
         11    1    3    3    0    0 -0.80843853118E+01 -0.20546404771E+01 -0.61298268557E+01  0.10351502833E+02  0.51100000000E-03 0. -1.
        -11    1    3    3    0    0 -0.13992890547E+01  0.70794198512E+00 -0.22549962235E+02  0.22604424097E+02  0.51100000000E-03 0.  1.
        -12    1    3    3    0    0  0.10604859756E+01  0.56316493913E+01 -0.13679517155E+02  0.14831361872E+02  0.00000000000E+00 0.  1.
</event>
<event>
 7    1  0.3221417E-010  0.4778727E+02  0.7816164E-02  0.1312668E+00
        -11   -1    0    0    0    0  0.00000000000E+00  0.00000000000E+00  0.45593999997E+02  0.45594000000E+02  0.51100000000E-03 0. -1.
         11   -1    0    0    0    0 -0.00000000000E+00 -0.00000000000E+00 -0.45593999997E+02  0.45594000000E+02  0.51100000000E-03 0.  1.
    9900012    2    1    2    0    0  0.87312502788E+01  0.28108152452E+02  0.31895465796E+02  0.47787266089E+02  0.19999977404E+02 0.  0.
        -12    1    1    2    0    0 -0.87312502788E+01 -0.28108152452E+02 -0.31895465796E+02  0.43400733911E+02  0.00000000000E+00 0.  1.
         11    1    3    3    0    0  0.94498565644E+01  0.16025065085E+02  0.18006355557E+02  0.25890757825E+02  0.51100000000E-03 0. -1.
        -11    1    3    3    0    0  0.14203899115E+01  0.48494128535E+01 -0.10498903882E+01  0.51610640969E+01  0.51100000000E-03 0.  1.
        -12    1    3    3    0    0 -0.21389961971E+01  0.72336745138E+01  0.14939000627E+02  0.16735444166E+02  0.00000000000E+00 0.  1.
</event>
<event>
 7    1  0.3221417E-010  0.4778727E+02  0.7816164E-02  0.1312668E+00
        -11   -1    0    0    0    0  0.00000000000E+00  0.00000000000E+00  0.45593999997E+02  0.45594000000E+02  0.51100000000E-03 0. -1.
         11   -1    0    0    0    0 -0.00000000000E+00 -0.00000000000E+00 -0.45593999997E+02  0.45594000000E+02  0.51100000000E-03 0.  1.
    9900012    2    1    2    0    0  0.41235707119E+02  0.87985838021E+01  0.10287125140E+02  0.47787267723E+02  0.19999984857E+02 0.  0.
        -12    1    1    2    0    0 -0.41235707119E+02 -0.87985838021E+01 -0.10287125140E+02  0.43400732277E+02  0.00000000000E+00 0.  1.
         11    1    3    3    0    0  0.32424188495E+02  0.21718974536E+01  0.64707077505E+01  0.33134803412E+02  0.51100000000E-03 0. -1.
        -11    1    3    3    0    0  0.87313486681E+01  0.71174535528E+01  0.47554168986E+00  0.11274783138E+02  0.51100000000E-03 0.  1.
        -12    1    3    3    0    0  0.80169956022E-01 -0.49076720433E+00  0.33408756995E+01  0.33776811736E+01  0.00000000000E+00 0.  1.
</event>
<event>
 7    1  0.3221417E-010  0.4778727E+02  0.7816164E-02  0.1312668E+00
        -11   -1    0    0    0    0  0.00000000000E+00  0.00000000000E+00  0.45593999997E+02  0.45594000000E+02  0.51100000000E-03 0.  1.
         11   -1    0    0    0    0 -0.00000000000E+00 -0.00000000000E+00 -0.45593999997E+02  0.45594000000E+02  0.51100000000E-03 0. -1.
    9900012    2    1    2    0    0 -0.42908136495E+02  0.28615373682E+01  0.58589005267E+01  0.47787270871E+02  0.19999999209E+02 0.  0.
        -12    1    1    2    0    0  0.42908136495E+02 -0.28615373682E+01 -0.58589005267E+01  0.43400729129E+02  0.00000000000E+00 0.  1.
         11    1    3    3    0    0 -0.23469155621E+02  0.60228158488E+01 -0.49698906341E+01  0.24734093666E+02  0.51100000000E-03 0. -1.
        -11    1    3    3    0    0 -0.47007502867E+01  0.86898585454E+00  0.43274558601E+01  0.64481830120E+01  0.51100000000E-03 0.  1.
        -12    1    3    3    0    0 -0.14738230587E+02 -0.40302643352E+01  0.65013353006E+01  0.16604994193E+02  0.00000000000E+00 0.  1.
</event>
<event>
 7    1  0.3221417E-010  0.4778728E+02  0.7816164E-02  0.1312668E+00
        -11   -1    0    0    0    0  0.00000000000E+00  0.00000000000E+00  0.45593999997E+02  0.45594000000E+02  0.51100000000E-03 0.  1.
         11   -1    0    0    0    0 -0.00000000000E+00 -0.00000000000E+00 -0.45593999997E+02  0.45594000000E+02  0.51100000000E-03 0. -1.
    9900012    2    1    2    0    0  0.37204612774E+02 -0.13532100046E+02  0.17785421211E+02  0.47787283980E+02  0.20000058980E+02 0.  0.
        -12    1    1    2    0    0 -0.37204612774E+02  0.13532100046E+02 -0.17785421211E+02  0.43400716020E+02  0.00000000000E+00 0.  1.
         11    1    3    3    0    0  0.34149724141E+01  0.21559932671E+01  0.33181916183E+01  0.52269244718E+01  0.51100000000E-03 0. -1.
        -11    1    3    3    0    0  0.62457458501E+01  0.15847858269E+01  0.63582780111E+01  0.90525458778E+01  0.51100000000E-03 0.  1.
         12    1    3    3    0    0  0.27543894510E+02 -0.17272879140E+02  0.81089515820E+01  0.33507813631E+02  0.00000000000E+00 0. -1.
</event>
<event>
 7    1  0.3221417E-010  0.4778727E+02  0.7816164E-02  0.1312668E+00
        -11   -1    0    0    0    0  0.00000000000E+00  0.00000000000E+00  0.45593999997E+02  0.45594000000E+02  0.51100000000E-03 0.  1.
         11   -1    0    0    0    0 -0.00000000000E+00 -0.00000000000E+00 -0.45593999997E+02  0.45594000000E+02  0.51100000000E-03 0. -1.
    9900012    2    1    2    0    0 -0.25558172110E+02  0.31332582892E+02  0.15769344032E+02  0.47787272777E+02  0.20000007900E+02 0.  0.
        -12    1    1    2    0    0  0.25558172110E+02 -0.31332582892E+02 -0.15769344032E+02  0.43400727223E+02  0.00000000000E+00 0.  1.
         11    1    3    3    0    0 -0.14063867912E+02  0.18375185919E+02  0.11344664112E+02  0.25770937940E+02  0.51100000000E-03 0. -1.
        -11    1    3    3    0    0 -0.94090728238E+00  0.10388128987E+02  0.41725481593E+00  0.10438995748E+02  0.51100000000E-03 0.  1.
         12    1    3    3    0    0 -0.10553396915E+02  0.25692679850E+01  0.40074251045E+01  0.11577339090E+02  0.00000000000E+00 0. -1.
</event>
<event>
 7    1  0.3733888E-010  0.4778728E+02  0.7816164E-02  0.1312668E+00
        -11   -1    0    0    0    0  0.00000000000E+00  0.00000000000E+00  0.45593999997E+02  0.45594000000E+02  0.51100000000E-03 0. -1.
         11   -1    0    0    0    0 -0.00000000000E+00 -0.00000000000E+00 -0.45593999997E+02  0.45594000000E+02  0.51100000000E-03 0.  1.
    9900012    2    1    2    0    0 -0.84326408075E+01 -0.21078010470E+02 -0.36989602074E+02  0.47787278600E+02  0.20000034451E+02 0.  0.
         12    1    1    2    0    0  0.84326408075E+01  0.21078010470E+02  0.36989602074E+02  0.43400721400E+02  0.00000000000E+00 0. -1.
         11    1    3    3    0    0 -0.26582169834E+01  0.54799315318E+00 -0.46983815458E-01  0.27145205408E+01  0.51100000000E-03 0. -1.
        -11    1    3    3    0    0 -0.98092798901E+01 -0.17024282732E+02 -0.26885094457E+02  0.33299496674E+02  0.51100000000E-03 0.  1.
         12    1    3    3    0    0  0.40348560660E+01 -0.46017208921E+01 -0.10057523802E+02  0.11773261386E+02  0.00000000000E+00 0. -1.
</event>
<event>
 7    1  0.3548613E-010  0.4778728E+02  0.7816164E-02  0.1312668E+00
        -11   -1    0    0    0    0  0.00000000000E+00  0.00000000000E+00  0.45593999997E+02  0.45594000000E+02  0.51100000000E-03 0. -1.
         11   -1    0    0    0    0 -0.00000000000E+00 -0.00000000000E+00 -0.45593999997E+02  0.45594000000E+02  0.51100000000E-03 0.  1.
    9900012    2    1    2    0    0  0.10901637326E+02  0.58610860422E+01 -0.41598370264E+02  0.47787280714E+02  0.20000044086E+02 0.  0.
         12    1    1    2    0    0 -0.10901637326E+02 -0.58610860422E+01  0.41598370264E+02  0.43400719286E+02  0.00000000000E+00 0. -1.
         11    1    3    3    0    0  0.10801967376E+02 -0.38078753090E+01 -0.15993922797E+02  0.19672010071E+02  0.51100000000E-03 0. -1.
        -11    1    3    3    0    0  0.32563965991E+01  0.53509772556E+01 -0.13998608879E+02  0.15336170552E+02  0.51100000000E-03 0.  1.
         12    1    3    3    0    0 -0.31567266488E+01  0.43179840956E+01 -0.11605838588E+02  0.12779100090E+02  0.00000000000E+00 0. -1.
</event>
<event>
 7    1  0.3221417E-010  0.4778727E+02  0.7816164E-02  0.1312668E+00
        -11   -1    0    0    0    0  0.00000000000E+00  0.00000000000E+00  0.45593999997E+02  0.45594000000E+02  0.51100000000E-03 0. -1.
         11   -1    0    0    0    0 -0.00000000000E+00 -0.00000000000E+00 -0.45593999997E+02  0.45594000000E+02  0.51100000000E-03 0.  1.
    9900012    2    1    2    0    0 -0.23491515663E+02 -0.69894844983E+01  0.35817860691E+02  0.47787270211E+02  0.19999996202E+02 0.  0.
        -12    1    1    2    0    0  0.23491515663E+02  0.69894844983E+01 -0.35817860691E+02  0.43400729789E+02  0.00000000000E+00 0.  1.
         11    1    3    3    0    0 -0.12719871715E+02  0.53498704356E+01  0.14915679289E+02  0.20319786884E+02  0.51100000000E-03 0. -1.
        -11    1    3    3    0    0 -0.71733080625E+01 -0.57568993426E+01  0.66113239206E+01  0.11327305189E+02  0.51100000000E-03 0.  1.
        -12    1    3    3    0    0 -0.35983358853E+01 -0.65824555912E+01  0.14290857482E+02  0.16140178138E+02  0.00000000000E+00 0.  1.
</event>
<event>
 7    1  0.3221417E-010  0.4778728E+02  0.7816164E-02  0.1312668E+00
        -11   -1    0    0    0    0  0.00000000000E+00  0.00000000000E+00  0.45593999997E+02  0.45594000000E+02  0.51100000000E-03 0. -1.
         11   -1    0    0    0    0 -0.00000000000E+00 -0.00000000000E+00 -0.45593999997E+02  0.45594000000E+02  0.51100000000E-03 0.  1.
    9900012    2    1    2    0    0 -0.36730182981E+02  0.15578124487E+02  0.17083284225E+02  0.47787275302E+02  0.20000019414E+02 0.  0.
        -12    1    1    2    0    0  0.36730182981E+02 -0.15578124487E+02 -0.17083284225E+02  0.43400724698E+02  0.00000000000E+00 0.  1.
         11    1    3    3    0    0 -0.31920173277E+02  0.13882716661E+02  0.10305384205E+02  0.36301903914E+02  0.51100000000E-03 0.  1.
        -11    1    3    3    0    0 -0.68846683660E+00  0.36263085047E+01  0.49057038944E+00  0.37235412613E+01  0.51100000000E-03 0. -1.
         12    1    3    3    0    0 -0.41215428674E+01 -0.19309006785E+01  0.62873296304E+01  0.77618301270E+01  0.00000000000E+00 0. -1.
</event>
<event>
 7    1  0.3221417E-010  0.4778721E+02  0.7816164E-02  0.1312668E+00
        -11   -1    0    0    0    0  0.00000000000E+00  0.00000000000E+00  0.45593999997E+02  0.45594000000E+02  0.51100000000E-03 0. -1.
         11   -1    0    0    0    0 -0.00000000000E+00 -0.00000000000E+00 -0.45593999997E+02  0.45594000000E+02  0.51100000000E-03 0.  1.
    9900012    2    1    2    0    0 -0.34829761664E+02 -0.64165036495E+01 -0.25086749824E+02  0.47787206996E+02  0.19999707975E+02 0.  0.
         12    1    1    2    0    0  0.34829761664E+02  0.64165036495E+01  0.25086749824E+02  0.43400793004E+02  0.00000000000E+00 0. -1.
         11    1    3    3    0    0 -0.52195140639E+01 -0.53110477544E+01  0.18796458988E+01  0.76800797053E+01  0.51100000000E-03 0. -1.
        -11    1    3    3    0    0 -0.98405265575E+01 -0.76735601652E+00 -0.79490520182E+01  0.12673287909E+02  0.51100000000E-03 0.  1.
         12    1    3    3    0    0 -0.19769721043E+02 -0.33809987856E+00 -0.19017343704E+02  0.27433839381E+02  0.00000000000E+00 0. -1.
</event>
<event>
 7    1  0.3221417E-010  0.4778727E+02  0.7816164E-02  0.1312668E+00
        -11   -1    0    0    0    0  0.00000000000E+00  0.00000000000E+00  0.45593999997E+02  0.45594000000E+02  0.51100000000E-03 0. -1.
         11   -1    0    0    0    0 -0.00000000000E+00 -0.00000000000E+00 -0.45593999997E+02  0.45594000000E+02  0.51100000000E-03 0.  1.
    9900012    2    1    2    0    0 -0.23920464337E+02  0.34604281946E+02  0.10676069730E+02  0.47787269499E+02  0.19999992955E+02 0.  0.
        -12    1    1    2    0    0  0.23920464337E+02 -0.34604281946E+02 -0.10676069730E+02  0.43400730501E+02  0.00000000000E+00 0.  1.
         11    1    3    3    0    0 -0.17316780253E+02  0.30909788776E+02  0.15039485257E+02  0.38489895266E+02  0.51100000000E-03 0. -1.
        -11    1    3    3    0    0 -0.37252734559E+01  0.34270023006E+01 -0.16271242757E+01  0.53169108286E+01  0.51100000000E-03 0.  1.
        -12    1    3    3    0    0 -0.28784106283E+01  0.26749086893E+00 -0.27362912505E+01  0.39804634049E+01  0.00000000000E+00 0.  1.
</event>
<event>
 7    1  0.3221417E-010  0.4778725E+02  0.7816164E-02  0.1312668E+00
        -11   -1    0    0    0    0  0.00000000000E+00  0.00000000000E+00  0.45593999997E+02  0.45594000000E+02  0.51100000000E-03 0. -1.
         11   -1    0    0    0    0 -0.00000000000E+00 -0.00000000000E+00 -0.45593999997E+02  0.45594000000E+02  0.51100000000E-03 0.  1.
    9900012    2    1    2    0    0  0.29320358328E+02  0.11104384252E+02 -0.30010569871E+02  0.47787250398E+02  0.19999905862E+02 0.  0.
         12    1    1    2    0    0 -0.29320358328E+02 -0.11104384252E+02  0.30010569871E+02  0.43400749602E+02  0.00000000000E+00 0. -1.
         11    1    3    3    0    0  0.10357881684E+02  0.70172029521E+01 -0.96762011642E+01  0.15816311816E+02  0.51100000000E-03 0. -1.
        -11    1    3    3    0    0  0.21003972408E+02  0.27374552973E+01 -0.14570850555E+02  0.25709340804E+02  0.51100000000E-03 0.  1.
         12    1    3    3    0    0 -0.20414957639E+01  0.13497260026E+01 -0.57635181517E+01  0.62615977770E+01  0.00000000000E+00 0. -1.
</event>
<event>
 7    1  0.3221417E-010  0.4778727E+02  0.7816164E-02  0.1312668E+00
        -11   -1    0    0    0    0  0.00000000000E+00  0.00000000000E+00  0.45593999997E+02  0.45594000000E+02  0.51100000000E-03 0. -1.
         11   -1    0    0    0    0 -0.00000000000E+00 -0.00000000000E+00 -0.45593999997E+02  0.45594000000E+02  0.51100000000E-03 0.  1.
    9900012    2    1    2    0    0  0.40727018623E+02  0.70414777139E+01  0.13242008984E+02  0.47787271248E+02  0.20000000926E+02 0.  0.
        -12    1    1    2    0    0 -0.40727018623E+02 -0.70414777139E+01 -0.13242008984E+02  0.43400728752E+02  0.00000000000E+00 0.  1.
         11    1    3    3    0    0  0.85365919635E+01  0.14619908236E+01  0.72829760051E+01  0.11316031074E+02  0.51100000000E-03 0. -1.
        -11    1    3    3    0    0  0.91282224125E+01 -0.32567193024E+01  0.66679582678E+01  0.11764027063E+02  0.51100000000E-03 0.  1.
        -12    1    3    3    0    0  0.23062204247E+02  0.88362061926E+01 -0.70892528846E+00  0.24707213110E+02  0.00000000000E+00 0.  1.
</event>
<event>
 7    1  0.3221417E-010  0.4778728E+02  0.7816164E-02  0.1312668E+00
        -11   -1    0    0    0    0  0.00000000000E+00  0.00000000000E+00  0.45593999997E+02  0.45594000000E+02  0.51100000000E-03 0. -1.
         11   -1    0    0    0    0 -0.00000000000E+00 -0.00000000000E+00 -0.45593999997E+02  0.45594000000E+02  0.51100000000E-03 0.  1.
    9900012    2    1    2    0    0  0.12685906676E+02  0.41487320763E+02 -0.12217721004E+01  0.47787277202E+02  0.20000028077E+02 0.  0.
        -12    1    1    2    0    0 -0.12685906676E+02 -0.41487320763E+02  0.12217721004E+01  0.43400722798E+02  0.00000000000E+00 0.  1.
         11    1    3    3    0    0  0.29197413258E+00  0.20882009553E+01 -0.33164197247E+01  0.39299455690E+01  0.51100000000E-03 0. -1.
        -11    1    3    3    0    0 -0.22320290519E+01  0.14959834531E+02  0.27244596244E+01  0.15368841315E+02  0.51100000000E-03 0.  1.
         12    1    3    3    0    0  0.14625961595E+02  0.24439285277E+02 -0.62981200015E+00  0.28488490318E+02  0.00000000000E+00 0. -1.
</event>
<event>
 7    1  0.3221417E-010  0.4778730E+02  0.7816164E-02  0.1312668E+00
        -11   -1    0    0    0    0  0.00000000000E+00  0.00000000000E+00  0.45593999997E+02  0.45594000000E+02  0.51100000000E-03 0. -1.
         11   -1    0    0    0    0 -0.00000000000E+00 -0.00000000000E+00 -0.45593999997E+02  0.45594000000E+02  0.51100000000E-03 0.  1.
    9900012    2    1    2    0    0  0.22238880737E+00  0.40054135510E+02  0.16710398594E+02  0.47787301280E+02  0.20000137854E+02 0.  0.
        -12    1    1    2    0    0 -0.22238880737E+00 -0.40054135510E+02 -0.16710398594E+02  0.43400698720E+02  0.00000000000E+00 0.  1.
         11    1    3    3    0    0  0.56238641775E+01  0.15656085316E+02  0.96201666529E+01  0.19216879622E+02  0.51100000000E-03 0. -1.
        -11    1    3    3    0    0 -0.25263762101E+01  0.46429259630E+01 -0.31301326046E+01  0.61430504341E+01  0.51100000000E-03 0.  1.
         12    1    3    3    0    0 -0.28750991600E+01  0.19755124231E+02  0.10220364546E+02  0.22427371224E+02  0.00000000000E+00 0. -1.
</event>
<event>
 7    1  0.3221417E-010  0.4778727E+02  0.7816164E-02  0.1312668E+00
        -11   -1    0    0    0    0  0.00000000000E+00  0.00000000000E+00  0.45593999997E+02  0.45594000000E+02  0.51100000000E-03 0. -1.
         11   -1    0    0    0    0 -0.00000000000E+00 -0.00000000000E+00 -0.45593999997E+02  0.45594000000E+02  0.51100000000E-03 0.  1.
    9900012    2    1    2    0    0  0.29106956466E+02 -0.16192377839E+02 -0.27824720753E+02  0.47787273051E+02  0.20000009146E+02 0.  0.
         12    1    1    2    0    0 -0.29106956466E+02  0.16192377839E+02  0.27824720753E+02  0.43400726949E+02  0.00000000000E+00 0. -1.
         11    1    3    3    0    0  0.88335960901E+01  0.89298645523E+00 -0.91922895418E+01  0.12779985601E+02  0.51100000000E-03 0. -1.
        -11    1    3    3    0    0  0.21073992615E+01 -0.83110873260E+01 -0.96941469136E+01  0.12941861877E+02  0.51100000000E-03 0.  1.
        -12    1    3    3    0    0  0.18165961114E+02 -0.87742769684E+01 -0.89382842971E+01  0.22065425572E+02  0.00000000000E+00 0.  1.
</event>
<event>
 7    1  0.3221417E-010  0.4778726E+02  0.7816164E-02  0.1312668E+00
        -11   -1    0    0    0    0  0.00000000000E+00  0.00000000000E+00  0.45593999997E+02  0.45594000000E+02  0.51100000000E-03 0. -1.
         11   -1    0    0    0    0 -0.00000000000E+00 -0.00000000000E+00 -0.45593999997E+02  0.45594000000E+02  0.51100000000E-03 0.  1.
    9900012    2    1    2    0    0  0.11921576833E+02  0.11367781968E+02  0.40153124130E+02  0.47787264540E+02  0.19999970345E+02 0.  0.
        -12    1    1    2    0    0 -0.11921576833E+02 -0.11367781968E+02 -0.40153124130E+02  0.43400735460E+02  0.00000000000E+00 0.  1.
         11    1    3    3    0    0  0.37939918041E+01 -0.29489889031E+01  0.91974751827E+01  0.10377112284E+02  0.51100000000E-03 0. -1.
        -11    1    3    3    0    0  0.15343740125E+01  0.11499517989E+02  0.26602654712E+02  0.29022309618E+02  0.51100000000E-03 0.  1.
         12    1    3    3    0    0  0.65932110162E+01  0.28172528820E+01  0.43529942351E+01  0.83878426378E+01  0.00000000000E+00 0. -1.
</event>
<event>
 7    1  0.3221417E-010  0.4778727E+02  0.7816164E-02  0.1312668E+00
        -11   -1    0    0    0    0  0.00000000000E+00  0.00000000000E+00  0.45593999997E+02  0.45594000000E+02  0.51100000000E-03 0. -1.
         11   -1    0    0    0    0 -0.00000000000E+00 -0.00000000000E+00 -0.45593999997E+02  0.45594000000E+02  0.51100000000E-03 0.  1.
    9900012    2    1    2    0    0  0.18511672471E+01  0.33775262944E+02  0.27192421345E+02  0.47787274364E+02  0.20000015136E+02 0.  0.
        -12    1    1    2    0    0 -0.18511672471E+01 -0.33775262944E+02 -0.27192421345E+02  0.43400725636E+02  0.00000000000E+00 0.  1.
         11    1    3    3    0    0  0.25570703831E+01  0.52343187163E+01  0.58279799122E+01  0.82402701100E+01  0.51100000000E-03 0. -1.
        -11    1    3    3    0    0  0.23856613929E+01  0.19609352706E+02  0.45700091434E+01  0.20275676997E+02  0.51100000000E-03 0.  1.
        -12    1    3    3    0    0 -0.30915645289E+01  0.89315915214E+01  0.16794432290E+02  0.19271327258E+02  0.00000000000E+00 0.  1.
</event>
<event>
 7    1  0.3221417E-010  0.4778727E+02  0.7816164E-02  0.1312668E+00
        -11   -1    0    0    0    0  0.00000000000E+00  0.00000000000E+00  0.45593999997E+02  0.45594000000E+02  0.51100000000E-03 0. -1.
         11   -1    0    0    0    0 -0.00000000000E+00 -0.00000000000E+00 -0.45593999997E+02  0.45594000000E+02  0.51100000000E-03 0.  1.
    9900012    2    1    2    0    0  0.23415306802E+01  0.14501825143E+02 -0.40839165189E+02  0.47787272912E+02  0.20000008515E+02 0.  0.
         12    1    1    2    0    0 -0.23415306802E+01 -0.14501825143E+02  0.40839165189E+02  0.43400727088E+02  0.00000000000E+00 0. -1.
         11    1    3    3    0    0 -0.57177945710E+01  0.53973949549E+01 -0.79108890182E+01  0.11153798114E+02  0.51100000000E-03 0. -1.
        -11    1    3    3    0    0  0.91532434789E+00 -0.26647666074E+00 -0.15883639988E+02  0.15912223226E+02  0.51100000000E-03 0.  1.
        -12    1    3    3    0    0  0.71440009034E+01  0.93709068490E+01 -0.17044636183E+02  0.20721251572E+02  0.00000000000E+00 0.  1.
</event>
<event>
 7    1  0.3221417E-010  0.4778728E+02  0.7816164E-02  0.1312668E+00
        -11   -1    0    0    0    0  0.00000000000E+00  0.00000000000E+00  0.45593999997E+02  0.45594000000E+02  0.51100000000E-03 0. -1.
         11   -1    0    0    0    0 -0.00000000000E+00 -0.00000000000E+00 -0.45593999997E+02  0.45594000000E+02  0.51100000000E-03 0.  1.
    9900012    2    1    2    0    0 -0.56592334038E+00  0.17973881957E+02  0.39499894672E+02  0.47787281332E+02  0.20000046903E+02 0.  0.
        -12    1    1    2    0    0  0.56592334038E+00 -0.17973881957E+02 -0.39499894672E+02  0.43400718668E+02  0.00000000000E+00 0.  1.
         11    1    3    3    0    0 -0.66203742689E+01  0.58620061283E+01  0.28770148516E+02  0.30098403898E+02  0.51100000000E-03 0. -1.
        -11    1    3    3    0    0  0.15285922329E+01  0.69521209872E+01  0.45112394610E+01  0.84273282938E+01  0.51100000000E-03 0.  1.
        -12    1    3    3    0    0  0.45258586957E+01  0.51597548414E+01  0.62185066954E+01  0.92615491403E+01  0.00000000000E+00 0.  1.
</event>
<event>
 7    1  0.3221417E-010  0.4778728E+02  0.7816164E-02  0.1312668E+00
        -11   -1    0    0    0    0  0.00000000000E+00  0.00000000000E+00  0.45593999997E+02  0.45594000000E+02  0.51100000000E-03 0. -1.
         11   -1    0    0    0    0 -0.00000000000E+00 -0.00000000000E+00 -0.45593999997E+02  0.45594000000E+02  0.51100000000E-03 0.  1.
    9900012    2    1    2    0    0 -0.13684694765E+02  0.66804645546E+01 -0.40641400017E+02  0.47787275665E+02  0.20000021067E+02 0.  0.
         12    1    1    2    0    0  0.13684694765E+02 -0.66804645546E+01  0.40641400017E+02  0.43400724335E+02  0.00000000000E+00 0. -1.
         11    1    3    3    0    0  0.53776979073E-01  0.86569829054E+01 -0.10860445998E+02  0.13888683613E+02  0.51100000000E-03 0. -1.
        -11    1    3    3    0    0 -0.86061653177E+01  0.11424048126E+01 -0.10083596213E+02  0.13306016800E+02  0.51100000000E-03 0.  1.
         12    1    3    3    0    0 -0.51323064261E+01 -0.31189231634E+01 -0.19697357806E+02  0.20592575252E+02  0.00000000000E+00 0. -1.
</event>
<event>
 7    1  0.3221417E-010  0.4778727E+02  0.7816164E-02  0.1312668E+00
        -11   -1    0    0    0    0  0.00000000000E+00  0.00000000000E+00  0.45593999997E+02  0.45594000000E+02  0.51100000000E-03 0. -1.
         11   -1    0    0    0    0 -0.00000000000E+00 -0.00000000000E+00 -0.45593999997E+02  0.45594000000E+02  0.51100000000E-03 0.  1.
    9900012    2    1    2    0    0 -0.22037299690E+02  0.32130118077E+02  0.19121615728E+02  0.47787271281E+02  0.20000001078E+02 0.  0.
        -12    1    1    2    0    0  0.22037299690E+02 -0.32130118077E+02 -0.19121615728E+02  0.43400728719E+02  0.00000000000E+00 0.  1.
         11    1    3    3    0    0 -0.21706684389E+02  0.26466645684E+02  0.21715235615E+02  0.40536587658E+02  0.51100000000E-03 0.  1.
        -11    1    3    3    0    0 -0.17728499049E+01  0.46694524814E+01 -0.16443463102E+01  0.52583893267E+01  0.51100000000E-03 0. -1.
        -12    1    3    3    0    0  0.14422346041E+01  0.99401991222E+00 -0.94927357620E+00  0.19922942960E+01  0.00000000000E+00 0.  1.
</event>
<event>
 7    1  0.3221417E-010  0.4778727E+02  0.7816164E-02  0.1312668E+00
        -11   -1    0    0    0    0  0.00000000000E+00  0.00000000000E+00  0.45593999997E+02  0.45594000000E+02  0.51100000000E-03 0.  1.
         11   -1    0    0    0    0 -0.00000000000E+00 -0.00000000000E+00 -0.45593999997E+02  0.45594000000E+02  0.51100000000E-03 0. -1.
    9900012    2    1    2    0    0 -0.22956005063E+02  0.33642026120E+02 -0.14995296368E+02  0.47787274164E+02  0.20000014223E+02 0.  0.
        -12    1    1    2    0    0  0.22956005063E+02 -0.33642026120E+02  0.14995296368E+02  0.43400725836E+02  0.00000000000E+00 0.  1.
         11    1    3    3    0    0  0.14506707270E+01  0.84220787212E+00 -0.54906614662E+00  0.17650024228E+01  0.51100000000E-03 0. -1.
        -11    1    3    3    0    0 -0.22250387007E+02  0.18255020062E+02 -0.73966859423E+01  0.29715929106E+02  0.51100000000E-03 0.  1.
         12    1    3    3    0    0 -0.21562887826E+01  0.14544798186E+02 -0.70495442795E+01  0.16306342635E+02  0.00000000000E+00 0. -1.
</event>
<event>
 7    1  0.3221417E-010  0.4778727E+02  0.7816164E-02  0.1312668E+00
        -11   -1    0    0    0    0  0.00000000000E+00  0.00000000000E+00  0.45593999997E+02  0.45594000000E+02  0.51100000000E-03 0. -1.
         11   -1    0    0    0    0 -0.00000000000E+00 -0.00000000000E+00 -0.45593999997E+02  0.45594000000E+02  0.51100000000E-03 0.  1.
    9900012    2    1    2    0    0 -0.27078867423E+01  0.20659701418E+02 -0.38071873365E+02  0.47787268960E+02  0.19999990496E+02 0.  0.
         12    1    1    2    0    0  0.27078867423E+01 -0.20659701418E+02  0.38071873365E+02  0.43400731040E+02  0.00000000000E+00 0. -1.
         11    1    3    3    0    0 -0.41327791372E+01 -0.91260079231E-01 -0.73748389869E+01  0.84543741426E+01  0.51100000000E-03 0. -1.
        -11    1    3    3    0    0 -0.16681350477E+01  0.21297247870E+02 -0.27800578767E+02  0.35060342574E+02  0.51100000000E-03 0.  1.
        -12    1    3    3    0    0  0.30930274427E+01 -0.54628637280E+00 -0.28964556111E+01  0.42725522430E+01  0.00000000000E+00 0.  1.
</event>
<event>
 7    1  0.3221417E-010  0.4778728E+02  0.7816164E-02  0.1312668E+00
        -11   -1    0    0    0    0  0.00000000000E+00  0.00000000000E+00  0.45593999997E+02  0.45594000000E+02  0.51100000000E-03 0.  1.
         11   -1    0    0    0    0 -0.00000000000E+00 -0.00000000000E+00 -0.45593999997E+02  0.45594000000E+02  0.51100000000E-03 0. -1.
    9900012    2    1    2    0    0  0.32441473831E+02 -0.22089638079E+02  0.18526237078E+02  0.47787276560E+02  0.20000025150E+02 0.  0.
        -12    1    1    2    0    0 -0.32441473831E+02  0.22089638079E+02 -0.18526237078E+02  0.43400723440E+02  0.00000000000E+00 0.  1.
         11    1    3    3    0    0  0.16925585338E+02 -0.11939906641E+02  0.37773832303E+01  0.21054819732E+02  0.51100000000E-03 0. -1.
        -11    1    3    3    0    0 -0.16615201414E+01 -0.26550837484E+01  0.46059357272E+00  0.31657962018E+01  0.51100000000E-03 0.  1.
         12    1    3    3    0    0  0.17177408635E+02 -0.74946476897E+01  0.14288260275E+02  0.23566660626E+02  0.00000000000E+00 0. -1.
</event>
<event>
 7    1  0.3221417E-010  0.4778727E+02  0.7816164E-02  0.1312668E+00
        -11   -1    0    0    0    0  0.00000000000E+00  0.00000000000E+00  0.45593999997E+02  0.45594000000E+02  0.51100000000E-03 0. -1.
         11   -1    0    0    0    0 -0.00000000000E+00 -0.00000000000E+00 -0.45593999997E+02  0.45594000000E+02  0.51100000000E-03 0.  1.
    9900012    2    1    2    0    0 -0.12516045661E+02  0.38434599922E+01  0.41378734107E+02  0.47787271665E+02  0.20000002831E+02 0.  0.
        -12    1    1    2    0    0  0.12516045661E+02 -0.38434599922E+01 -0.41378734107E+02  0.43400728335E+02  0.00000000000E+00 0.  1.
         11    1    3    3    0    0 -0.18723545589E+01  0.35974905089E+01  0.57249018670E+01  0.70158499986E+01  0.51100000000E-03 0. -1.
        -11    1    3    3    0    0 -0.60211061024E+01  0.37421632530E+01  0.31546324312E+01  0.77594594235E+01  0.51100000000E-03 0.  1.
         12    1    3    3    0    0 -0.46225849992E+01 -0.34961937696E+01  0.32499199809E+02  0.33011962243E+02  0.00000000000E+00 0. -1.
</event>
<event>
 7    1  0.3221417E-010  0.4778727E+02  0.7816164E-02  0.1312668E+00
        -11   -1    0    0    0    0  0.00000000000E+00  0.00000000000E+00  0.45593999997E+02  0.45594000000E+02  0.51100000000E-03 0. -1.
         11   -1    0    0    0    0 -0.00000000000E+00 -0.00000000000E+00 -0.45593999997E+02  0.45594000000E+02  0.51100000000E-03 0.  1.
    9900012    2    1    2    0    0  0.12092524993E+02  0.14713058803E+02 -0.38998977160E+02  0.47787268675E+02  0.19999989195E+02 0.  0.
         12    1    1    2    0    0 -0.12092524993E+02 -0.14713058803E+02  0.38998977160E+02  0.43400731325E+02  0.00000000000E+00 0. -1.
         11    1    3    3    0    0  0.42317692246E+00  0.10516393636E+02 -0.21635250509E+02  0.24059461313E+02  0.51100000000E-03 0. -1.
        -11    1    3    3    0    0  0.11941711970E+01  0.47107282386E+01 -0.93187788901E+01  0.10509835662E+02  0.51100000000E-03 0.  1.
         12    1    3    3    0    0  0.10475176874E+02 -0.51406307076E+00 -0.80449477605E+01  0.13217971699E+02  0.00000000000E+00 0. -1.
</event>
<event>
 7    1  0.3221417E-010  0.4778727E+02  0.7816164E-02  0.1312668E+00
        -11   -1    0    0    0    0  0.00000000000E+00  0.00000000000E+00  0.45593999997E+02  0.45594000000E+02  0.51100000000E-03 0.  1.
         11   -1    0    0    0    0 -0.00000000000E+00 -0.00000000000E+00 -0.45593999997E+02  0.45594000000E+02  0.51100000000E-03 0. -1.
    9900012    2    1    2    0    0 -0.10436157293E+02 -0.25362176968E+02  0.33637325318E+02  0.47787273575E+02  0.20000011540E+02 0.  0.
        -12    1    1    2    0    0  0.10436157293E+02  0.25362176968E+02 -0.33637325318E+02  0.43400726425E+02  0.00000000000E+00 0.  1.
         11    1    3    3    0    0 -0.28704696711E+01 -0.20434298792E+02  0.15531143435E+02  0.25826664127E+02  0.51100000000E-03 0. -1.
        -11    1    3    3    0    0 -0.38493570375E+01 -0.35438922879E+01  0.23908481346E+01  0.57526408904E+01  0.51100000000E-03 0.  1.
        -12    1    3    3    0    0 -0.37163305842E+01 -0.13839858881E+01  0.15715333749E+02  0.16207968558E+02  0.00000000000E+00 0.  1.
</event>
<event>
 7    1  0.4660463E-010  0.4778728E+02  0.7816164E-02  0.1312668E+00
        -11   -1    0    0    0    0  0.00000000000E+00  0.00000000000E+00  0.45593999997E+02  0.45594000000E+02  0.51100000000E-03 0. -1.
         11   -1    0    0    0    0 -0.00000000000E+00 -0.00000000000E+00 -0.45593999997E+02  0.45594000000E+02  0.51100000000E-03 0.  1.
    9900012    2    1    2    0    0 -0.24704685649E+02 -0.91717446923E+01 -0.34484494651E+02  0.47787276906E+02  0.20000026724E+02 0.  0.
         12    1    1    2    0    0  0.24704685649E+02  0.91717446923E+01  0.34484494651E+02  0.43400723094E+02  0.00000000000E+00 0. -1.
         11    1    3    3    0    0 -0.71590862560E+01  0.60337654456E+01 -0.10364746605E+02  0.13967348134E+02  0.51100000000E-03 0. -1.
        -11    1    3    3    0    0 -0.92472095549E+01 -0.52896832578E+01 -0.91901207472E+01  0.14069468829E+02  0.51100000000E-03 0.  1.
         12    1    3    3    0    0 -0.82983898384E+01 -0.99158268801E+01 -0.14929627300E+02  0.19750459942E+02  0.00000000000E+00 0. -1.
</event>
<event>
 7    1  0.3221417E-010  0.4778727E+02  0.7816164E-02  0.1312668E+00
        -11   -1    0    0    0    0  0.00000000000E+00  0.00000000000E+00  0.45593999997E+02  0.45594000000E+02  0.51100000000E-03 0.  1.
         11   -1    0    0    0    0 -0.00000000000E+00 -0.00000000000E+00 -0.45593999997E+02  0.45594000000E+02  0.51100000000E-03 0. -1.
    9900012    2    1    2    0    0 -0.22924542931E+02 -0.32524706635E+02  0.17327202060E+02  0.47787272570E+02  0.20000006954E+02 0.  0.
        -12    1    1    2    0    0  0.22924542931E+02  0.32524706635E+02 -0.17327202060E+02  0.43400727430E+02  0.00000000000E+00 0.  1.
         11    1    3    3    0    0 -0.16046511356E+02 -0.26157850495E+02  0.15344439073E+02  0.34309990964E+02  0.51100000000E-03 0. -1.
        -11    1    3    3    0    0  0.15625011714E+01 -0.43910921551E+01  0.77721713568E+00  0.47251631678E+01  0.51100000000E-03 0.  1.
         12    1    3    3    0    0 -0.84405327456E+01 -0.19757639851E+01  0.12055458514E+01  0.87521184381E+01  0.00000000000E+00 0. -1.
</event>
<event>
 7    1  0.3221417E-010  0.4778728E+02  0.7816164E-02  0.1312668E+00
        -11   -1    0    0    0    0  0.00000000000E+00  0.00000000000E+00  0.45593999997E+02  0.45594000000E+02  0.51100000000E-03 0.  1.
         11   -1    0    0    0    0 -0.00000000000E+00 -0.00000000000E+00 -0.45593999997E+02  0.45594000000E+02  0.51100000000E-03 0. -1.
    9900012    2    1    2    0    0 -0.81608551721E+01 -0.36406165020E+02 -0.22172380037E+02  0.47787275984E+02  0.20000022523E+02 0.  0.
         12    1    1    2    0    0  0.81608551721E+01  0.36406165020E+02  0.22172380037E+02  0.43400724016E+02  0.00000000000E+00 0. -1.
         11    1    3    3    0    0 -0.48917949700E+01 -0.27342332667E+02 -0.13808204234E+02  0.31019337809E+02  0.51100000000E-03 0. -1.
        -11    1    3    3    0    0  0.36815371980E+01 -0.49374397161E+01 -0.52934760659E+01  0.81211400807E+01  0.51100000000E-03 0.  1.
        -12    1    3    3    0    0 -0.69505974000E+01 -0.41263926366E+01 -0.30706997376E+01  0.86467980945E+01  0.00000000000E+00 0.  1.
</event>
<event>
 7    1  0.3221417E-010  0.4778727E+02  0.7816164E-02  0.1312668E+00
        -11   -1    0    0    0    0  0.00000000000E+00  0.00000000000E+00  0.45593999997E+02  0.45594000000E+02  0.51100000000E-03 0. -1.
         11   -1    0    0    0    0 -0.00000000000E+00 -0.00000000000E+00 -0.45593999997E+02  0.45594000000E+02  0.51100000000E-03 0.  1.
    9900012    2    1    2    0    0  0.41562298739E+02 -0.31930044687E+01  0.12083184296E+02  0.47787270781E+02  0.19999998799E+02 0.  0.
        -12    1    1    2    0    0 -0.41562298739E+02  0.31930044687E+01 -0.12083184296E+02  0.43400729219E+02  0.00000000000E+00 0.  1.
         11    1    3    3    0    0 -0.41258306050E+00 -0.84296329165E+00  0.75719545235E+00  0.12058843672E+01  0.51100000000E-03 0. -1.
        -11    1    3    3    0    0  0.34495339276E+02  0.34820453578E+01  0.46459486815E+01  0.34980536174E+02  0.51100000000E-03 0.  1.
         12    1    3    3    0    0  0.74795425242E+01 -0.58320865348E+01  0.66800401618E+01  0.11600850240E+02  0.00000000000E+00 0. -1.
</event>
<event>
 7    1  0.3221417E-010  0.4778727E+02  0.7816164E-02  0.1312668E+00
        -11   -1    0    0    0    0  0.00000000000E+00  0.00000000000E+00  0.45593999997E+02  0.45594000000E+02  0.51100000000E-03 0.  1.
         11   -1    0    0    0    0 -0.00000000000E+00 -0.00000000000E+00 -0.45593999997E+02  0.45594000000E+02  0.51100000000E-03 0. -1.
    9900012    2    1    2    0    0 -0.28800505624E+02  0.26867424450E+02 -0.18228973247E+02  0.47787273204E+02  0.20000009846E+02 0.  0.
         12    1    1    2    0    0  0.28800505624E+02 -0.26867424450E+02  0.18228973247E+02  0.43400726796E+02  0.00000000000E+00 0. -1.
         11    1    3    3    0    0 -0.39099664094E+01  0.28015299727E+00 -0.51420519314E+01  0.64658349307E+01  0.51100000000E-03 0. -1.
        -11    1    3    3    0    0 -0.69099233561E+01  0.16905755171E+02 -0.95033217987E+01  0.20587975232E+02  0.51100000000E-03 0.  1.
        -12    1    3    3    0    0 -0.17980615859E+02  0.96815162823E+01 -0.35835995165E+01  0.20733463041E+02  0.00000000000E+00 0.  1.
</event>
<event>
 7    1  0.3221417E-010  0.4778727E+02  0.7816164E-02  0.1312668E+00
        -11   -1    0    0    0    0  0.00000000000E+00  0.00000000000E+00  0.45593999997E+02  0.45594000000E+02  0.51100000000E-03 0. -1.
         11   -1    0    0    0    0 -0.00000000000E+00 -0.00000000000E+00 -0.45593999997E+02  0.45594000000E+02  0.51100000000E-03 0.  1.
    9900012    2    1    2    0    0  0.53467300238E+01 -0.10104361595E+02  0.41868101247E+02  0.47787267896E+02  0.19999985644E+02 0.  0.
        -12    1    1    2    0    0 -0.53467300238E+01  0.10104361595E+02 -0.41868101247E+02  0.43400732104E+02  0.00000000000E+00 0.  1.
         11    1    3    3    0    0  0.49668132220E+01 -0.71834235245E+01  0.13015397656E+02  0.15673907729E+02  0.51100000000E-03 0. -1.
        -11    1    3    3    0    0  0.19514286933E+01  0.40014035996E+01  0.31633723540E+01  0.54613395447E+01  0.51100000000E-03 0.  1.
         12    1    3    3    0    0 -0.15715118915E+01 -0.69223416698E+01  0.25689331237E+02  0.26652020622E+02  0.00000000000E+00 0. -1.
</event>
<event>
 7    1  0.3221417E-010  0.4778725E+02  0.7816164E-02  0.1312668E+00
        -11   -1    0    0    0    0  0.00000000000E+00  0.00000000000E+00  0.45593999997E+02  0.45594000000E+02  0.51100000000E-03 0. -1.
         11   -1    0    0    0    0 -0.00000000000E+00 -0.00000000000E+00 -0.45593999997E+02  0.45594000000E+02  0.51100000000E-03 0.  1.
    9900012    2    1    2    0    0 -0.21000874092E+02 -0.37797456143E+02 -0.37336873630E+01  0.47787253177E+02  0.19999918534E+02 0.  0.
         12    1    1    2    0    0  0.21000874092E+02  0.37797456143E+02  0.37336873630E+01  0.43400746823E+02  0.00000000000E+00 0. -1.
         11    1    3    3    0    0 -0.17969973587E+02 -0.16080698833E+02 -0.32440258675E+01  0.24331718594E+02  0.51100000000E-03 0.  1.
        -11    1    3    3    0    0 -0.17659948405E+01 -0.76800065116E+01  0.37650794285E+01  0.87336739784E+01  0.51100000000E-03 0. -1.
        -12    1    3    3    0    0 -0.12649056647E+01 -0.14036750798E+02 -0.42547409241E+01  0.14721860604E+02  0.00000000000E+00 0.  1.
</event>
<event>
 7    1  0.3221417E-010  0.4778727E+02  0.7816164E-02  0.1312668E+00
        -11   -1    0    0    0    0  0.00000000000E+00  0.00000000000E+00  0.45593999997E+02  0.45594000000E+02  0.51100000000E-03 0. -1.
         11   -1    0    0    0    0 -0.00000000000E+00 -0.00000000000E+00 -0.45593999997E+02  0.45594000000E+02  0.51100000000E-03 0.  1.
    9900012    2    1    2    0    0 -0.11879607474E+02  0.17625379633E+02 -0.37839712631E+02  0.47787274972E+02  0.20000017908E+02 0.  0.
         12    1    1    2    0    0  0.11879607474E+02 -0.17625379633E+02  0.37839712631E+02  0.43400725028E+02  0.00000000000E+00 0. -1.
         11    1    3    3    0    0  0.40351142132E-01  0.44242027614E+01 -0.46149898752E+00  0.44483907051E+01  0.51100000000E-03 0. -1.
        -11    1    3    3    0    0 -0.10246836230E+02  0.15135474521E+02 -0.26688121463E+02  0.32347118406E+02  0.51100000000E-03 0.  1.
         12    1    3    3    0    0 -0.16731223862E+01 -0.19342976494E+01 -0.10690092180E+02  0.10991765861E+02  0.00000000000E+00 0. -1.
</event>
<event>
 7    1  0.3221417E-010  0.4778728E+02  0.7816164E-02  0.1312668E+00
        -11   -1    0    0    0    0  0.00000000000E+00  0.00000000000E+00  0.45593999997E+02  0.45594000000E+02  0.51100000000E-03 0. -1.
         11   -1    0    0    0    0 -0.00000000000E+00 -0.00000000000E+00 -0.45593999997E+02  0.45594000000E+02  0.51100000000E-03 0.  1.
    9900012    2    1    2    0    0 -0.30834939466E+02 -0.21054375948E+02 -0.22125598408E+02  0.47787281764E+02  0.20000048875E+02 0.  0.
         12    1    1    2    0    0  0.30834939466E+02  0.21054375948E+02  0.22125598408E+02  0.43400718236E+02  0.00000000000E+00 0. -1.
         11    1    3    3    0    0 -0.73354699988E+01  0.33169442313E+00 -0.17453851397E+01  0.75475499893E+01  0.51100000000E-03 0.  1.
        -11    1    3    3    0    0 -0.17650124045E+02 -0.22645735239E+02 -0.16702790427E+02  0.33216553277E+02  0.51100000000E-03 0. -1.
         12    1    3    3    0    0 -0.58493454229E+01  0.12596648674E+01 -0.36774228418E+01  0.70231784978E+01  0.00000000000E+00 0. -1.
</event>
<event>
 7    1  0.3221417E-010  0.4778728E+02  0.7816164E-02  0.1312668E+00
        -11   -1    0    0    0    0  0.00000000000E+00  0.00000000000E+00  0.45593999997E+02  0.45594000000E+02  0.51100000000E-03 0. -1.
         11   -1    0    0    0    0 -0.00000000000E+00 -0.00000000000E+00 -0.45593999997E+02  0.45594000000E+02  0.51100000000E-03 0.  1.
    9900012    2    1    2    0    0  0.35929657084E+02 -0.84826149645E+01  0.22819456914E+02  0.47787278478E+02  0.20000033891E+02 0.  0.
        -12    1    1    2    0    0 -0.35929657084E+02  0.84826149645E+01 -0.22819456914E+02  0.43400721522E+02  0.00000000000E+00 0.  1.
         11    1    3    3    0    0  0.28889093103E+02 -0.28328902397E+01  0.13260645921E+02  0.31913158695E+02  0.51100000000E-03 0. -1.
        -11    1    3    3    0    0  0.17409695087E+01 -0.30464090641E+01 -0.11102029365E+01  0.36802355682E+01  0.51100000000E-03 0.  1.
        -12    1    3    3    0    0  0.52995944722E+01 -0.26033156607E+01  0.10669013930E+02  0.12193884214E+02  0.00000000000E+00 0.  1.
</event>
<event>
 7    1  0.3221417E-010  0.4778727E+02  0.7816164E-02  0.1312668E+00
        -11   -1    0    0    0    0  0.00000000000E+00  0.00000000000E+00  0.45593999997E+02  0.45594000000E+02  0.51100000000E-03 0. -1.
         11   -1    0    0    0    0 -0.00000000000E+00 -0.00000000000E+00 -0.45593999997E+02  0.45594000000E+02  0.51100000000E-03 0.  1.
    9900012    2    1    2    0    0 -0.23309661729E+02 -0.10267032375E+02  0.35140727342E+02  0.47787274179E+02  0.20000014290E+02 0.  0.
        -12    1    1    2    0    0  0.23309661729E+02  0.10267032375E+02 -0.35140727342E+02  0.43400725821E+02  0.00000000000E+00 0.  1.
         11    1    3    3    0    0 -0.48756882722E+01  0.28913634948E+01  0.18163893658E+02  0.19027857265E+02  0.51100000000E-03 0. -1.
        -11    1    3    3    0    0 -0.31077639446E+01 -0.20241461068E+01  0.68052114928E+00  0.37707391176E+01  0.51100000000E-03 0.  1.
         12    1    3    3    0    0 -0.15326209512E+02 -0.11134249763E+02  0.16296312534E+02  0.24988677796E+02  0.00000000000E+00 0. -1.
</event>
<event>
 7    1  0.3221417E-010  0.4778726E+02  0.7816164E-02  0.1312668E+00
        -11   -1    0    0    0    0  0.00000000000E+00  0.00000000000E+00  0.45593999997E+02  0.45594000000E+02  0.51100000000E-03 0. -1.
         11   -1    0    0    0    0 -0.00000000000E+00 -0.00000000000E+00 -0.45593999997E+02  0.45594000000E+02  0.51100000000E-03 0.  1.
    9900012    2    1    2    0    0 -0.64197630602E+01 -0.16713148977E+02 -0.39535821817E+02  0.47787263679E+02  0.19999966417E+02 0.  0.
         12    1    1    2    0    0  0.64197630602E+01  0.16713148977E+02  0.39535821817E+02  0.43400736321E+02  0.00000000000E+00 0. -1.
         11    1    3    3    0    0  0.27968502364E+01 -0.64929816214E+01 -0.57826029032E+01  0.91334373693E+01  0.51100000000E-03 0. -1.
        -11    1    3    3    0    0 -0.93398271276E+01 -0.99830237839E+01 -0.34896997608E+02  0.37479241948E+02  0.51100000000E-03 0.  1.
         12    1    3    3    0    0  0.12321383107E+00 -0.23714357171E+00  0.11437786943E+01  0.11745843619E+01  0.00000000000E+00 0. -1.
</event>
<event>
 7    1  0.3221417E-010  0.4778727E+02  0.7816164E-02  0.1312668E+00
        -11   -1    0    0    0    0  0.00000000000E+00  0.00000000000E+00  0.45593999997E+02  0.45594000000E+02  0.51100000000E-03 0. -1.
         11   -1    0    0    0    0 -0.00000000000E+00 -0.00000000000E+00 -0.45593999997E+02  0.45594000000E+02  0.51100000000E-03 0.  1.
    9900012    2    1    2    0    0  0.86227279377E+01 -0.22924884424E+02  0.35829057257E+02  0.47787272968E+02  0.20000008771E+02 0.  0.
        -12    1    1    2    0    0 -0.86227279377E+01  0.22924884424E+02 -0.35829057257E+02  0.43400727032E+02  0.00000000000E+00 0.  1.
         11    1    3    3    0    0 -0.14701727627E+01 -0.82364777523E+01  0.10408257519E+02  0.13354130393E+02  0.51100000000E-03 0.  1.
        -11    1    3    3    0    0  0.10324219584E+02 -0.85609243411E+01  0.24896116366E+02  0.28278888698E+02  0.51100000000E-03 0. -1.
         12    1    3    3    0    0 -0.23131888410E+00 -0.61274823308E+01  0.52468337194E+00  0.61542538769E+01  0.00000000000E+00 0. -1.
</event>
<event>
 7    1  0.3221417E-010  0.4778727E+02  0.7816164E-02  0.1312668E+00
        -11   -1    0    0    0    0  0.00000000000E+00  0.00000000000E+00  0.45593999997E+02  0.45594000000E+02  0.51100000000E-03 0. -1.
         11   -1    0    0    0    0 -0.00000000000E+00 -0.00000000000E+00 -0.45593999997E+02  0.45594000000E+02  0.51100000000E-03 0.  1.
    9900012    2    1    2    0    0 -0.22389560423E+02  0.16838808651E+02 -0.33147929428E+02  0.47787272840E+02  0.20000008185E+02 0.  0.
         12    1    1    2    0    0  0.22389560423E+02 -0.16838808651E+02  0.33147929428E+02  0.43400727160E+02  0.00000000000E+00 0. -1.
         11    1    3    3    0    0 -0.25417791994E+01  0.27870668870E+01 -0.15021649093E+02  0.15488005845E+02  0.51100000000E-03 0. -1.
        -11    1    3    3    0    0 -0.47748795370E+01  0.99060380222E+01 -0.60953661744E+01  0.12573088441E+02  0.51100000000E-03 0.  1.
        -12    1    3    3    0    0 -0.15072901687E+02  0.41457037417E+01 -0.12030914160E+02  0.19726178553E+02  0.00000000000E+00 0.  1.
</event>
<event>
 7    1  0.3221417E-010  0.4778725E+02  0.7816164E-02  0.1312668E+00
        -11   -1    0    0    0    0  0.00000000000E+00  0.00000000000E+00  0.45593999997E+02  0.45594000000E+02  0.51100000000E-03 0. -1.
         11   -1    0    0    0    0 -0.00000000000E+00 -0.00000000000E+00 -0.45593999997E+02  0.45594000000E+02  0.51100000000E-03 0.  1.
    9900012    2    1    2    0    0  0.34154134216E+02  0.20444159927E+01  0.26700955008E+02  0.47787245178E+02  0.19999882065E+02 0.  0.
        -12    1    1    2    0    0 -0.34154134216E+02 -0.20444159927E+01 -0.26700955008E+02  0.43400754822E+02  0.00000000000E+00 0.  1.
         11    1    3    3    0    0  0.10624949931E+01 -0.10086827427E+01  0.34988366001E+01  0.37931773358E+01  0.51100000000E-03 0.  1.
        -11    1    3    3    0    0  0.70690738965E+01  0.76461267065E+01  0.10070836646E+02  0.14486435393E+02  0.51100000000E-03 0. -1.
         12    1    3    3    0    0  0.26022565326E+02 -0.45930279710E+01  0.13131281762E+02  0.29507632450E+02  0.00000000000E+00 0. -1.
</event>
<event>
 7    1  0.3221417E-010  0.4778727E+02  0.7816164E-02  0.1312668E+00
        -11   -1    0    0    0    0  0.00000000000E+00  0.00000000000E+00  0.45593999997E+02  0.45594000000E+02  0.51100000000E-03 0. -1.
         11   -1    0    0    0    0 -0.00000000000E+00 -0.00000000000E+00 -0.45593999997E+02  0.45594000000E+02  0.51100000000E-03 0.  1.
    9900012    2    1    2    0    0  0.24118672600E+02  0.27691243589E+00  0.36080966992E+02  0.47787271578E+02  0.20000002431E+02 0.  0.
        -12    1    1    2    0    0 -0.24118672600E+02 -0.27691243589E+00 -0.36080966992E+02  0.43400728422E+02  0.00000000000E+00 0.  1.
         11    1    3    3    0    0  0.10400275310E+02 -0.47634974783E+01  0.14396331416E+02  0.18387794681E+02  0.51100000000E-03 0. -1.
        -11    1    3    3    0    0  0.14417471023E+02  0.49066930768E+01  0.11234010088E+02  0.18924642416E+02  0.51100000000E-03 0.  1.
        -12    1    3    3    0    0 -0.69907373297E+00  0.13371683736E+00  0.10450625489E+02  0.10474834481E+02  0.00000000000E+00 0.  1.
</event>
<event>
 7    1  0.3221417E-010  0.4778725E+02  0.7816164E-02  0.1312668E+00
        -11   -1    0    0    0    0  0.00000000000E+00  0.00000000000E+00  0.45593999997E+02  0.45594000000E+02  0.51100000000E-03 0. -1.
         11   -1    0    0    0    0 -0.00000000000E+00 -0.00000000000E+00 -0.45593999997E+02  0.45594000000E+02  0.51100000000E-03 0.  1.
    9900012    2    1    2    0    0  0.11378847525E+02 -0.36969780687E+01  0.41719054090E+02  0.47787247795E+02  0.19999893994E+02 0.  0.
        -12    1    1    2    0    0 -0.11378847525E+02  0.36969780687E+01 -0.41719054090E+02  0.43400752205E+02  0.00000000000E+00 0.  1.
         11    1    3    3    0    0 -0.23594532006E+01 -0.82363264617E+00  0.64187189617E+01  0.68880580363E+01  0.51100000000E-03 0. -1.
        -11    1    3    3    0    0  0.11104247609E+02  0.17686202858E+01  0.10018002948E+02  0.15059638641E+02  0.51100000000E-03 0.  1.
         12    1    3    3    0    0  0.26340531166E+01 -0.46419657083E+01  0.25282332180E+02  0.25839551117E+02  0.00000000000E+00 0. -1.
</event>
<event>
 7    1  0.3221417E-010  0.4778727E+02  0.7816164E-02  0.1312668E+00
        -11   -1    0    0    0    0  0.00000000000E+00  0.00000000000E+00  0.45593999997E+02  0.45594000000E+02  0.51100000000E-03 0. -1.
         11   -1    0    0    0    0 -0.00000000000E+00 -0.00000000000E+00 -0.45593999997E+02  0.45594000000E+02  0.51100000000E-03 0.  1.
    9900012    2    1    2    0    0  0.37183597621E+01  0.96840184970E+01 -0.42142811969E+02  0.47787274036E+02  0.20000013638E+02 0.  0.
         12    1    1    2    0    0 -0.37183597621E+01 -0.96840184970E+01  0.42142811969E+02  0.43400725964E+02  0.00000000000E+00 0. -1.
         11    1    3    3    0    0  0.20855857289E+01 -0.32774231442E+01 -0.10172997529E+02  0.10889492609E+02  0.51100000000E-03 0. -1.
        -11    1    3    3    0    0  0.25774202534E+01  0.42928379057E+01 -0.25635692170E+02  0.26120112284E+02  0.51100000000E-03 0.  1.
         12    1    3    3    0    0 -0.94464622026E+00  0.86686037355E+01 -0.63341222699E+01  0.10777669142E+02  0.00000000000E+00 0. -1.
</event>
<event>
 7    1  0.3221417E-010  0.4778727E+02  0.7816164E-02  0.1312668E+00
        -11   -1    0    0    0    0  0.00000000000E+00  0.00000000000E+00  0.45593999997E+02  0.45594000000E+02  0.51100000000E-03 0.  1.
         11   -1    0    0    0    0 -0.00000000000E+00 -0.00000000000E+00 -0.45593999997E+02  0.45594000000E+02  0.51100000000E-03 0. -1.
    9900012    2    1    2    0    0  0.40600036237E+02 -0.80252928407E+01 -0.13071149725E+02  0.47787271633E+02  0.20000002684E+02 0.  0.
         12    1    1    2    0    0 -0.40600036237E+02  0.80252928407E+01  0.13071149725E+02  0.43400728367E+02  0.00000000000E+00 0. -1.
         11    1    3    3    0    0  0.25443215151E+01  0.11939588970E+01  0.12393731210E+00  0.28132668801E+01  0.51100000000E-03 0. -1.
        -11    1    3    3    0    0  0.13837510163E+02 -0.69803190836E+01  0.29565913628E+01  0.15777926821E+02  0.51100000000E-03 0.  1.
         12    1    3    3    0    0  0.24218204559E+02 -0.22389326541E+01 -0.16151678400E+02  0.29196077932E+02  0.00000000000E+00 0. -1.
</event>
<event>
 7    1  0.3221417E-010  0.4778727E+02  0.7816164E-02  0.1312668E+00
        -11   -1    0    0    0    0  0.00000000000E+00  0.00000000000E+00  0.45593999997E+02  0.45594000000E+02  0.51100000000E-03 0. -1.
         11   -1    0    0    0    0 -0.00000000000E+00 -0.00000000000E+00 -0.45593999997E+02  0.45594000000E+02  0.51100000000E-03 0.  1.
    9900012    2    1    2    0    0 -0.19155106872E+02 -0.25255679050E+02 -0.29645504591E+02  0.47787269752E+02  0.19999994110E+02 0.  0.
         12    1    1    2    0    0  0.19155106872E+02  0.25255679050E+02  0.29645504591E+02  0.43400730248E+02  0.00000000000E+00 0. -1.
         11    1    3    3    0    0 -0.12165815199E+01 -0.35472723680E+01 -0.82376399814E+01  0.90510731171E+01  0.51100000000E-03 0.  1.
        -11    1    3    3    0    0 -0.15282680561E+02 -0.20885452933E+02 -0.23730981667E+02  0.35112988487E+02  0.51100000000E-03 0. -1.
         12    1    3    3    0    0 -0.26558447910E+01 -0.82295374899E+00  0.23231170570E+01  0.36232081485E+01  0.00000000000E+00 0. -1.
</event>
<event>
 7    1  0.3221417E-010  0.4778727E+02  0.7816164E-02  0.1312668E+00
        -11   -1    0    0    0    0  0.00000000000E+00  0.00000000000E+00  0.45593999997E+02  0.45594000000E+02  0.51100000000E-03 0. -1.
         11   -1    0    0    0    0 -0.00000000000E+00 -0.00000000000E+00 -0.45593999997E+02  0.45594000000E+02  0.51100000000E-03 0.  1.
    9900012    2    1    2    0    0 -0.63193642239E+01  0.26403974529E+02 -0.33860288126E+02  0.47787270200E+02  0.19999996152E+02 0.  0.
         12    1    1    2    0    0  0.63193642239E+01 -0.26403974529E+02  0.33860288126E+02  0.43400729800E+02  0.00000000000E+00 0. -1.
         11    1    3    3    0    0 -0.40460592219E+00  0.10762347473E+02 -0.52996724173E+01  0.12003264434E+02  0.51100000000E-03 0. -1.
        -11    1    3    3    0    0  0.34343676387E+01  0.59793319939E+01 -0.15836930341E+02  0.17272974702E+02  0.51100000000E-03 0.  1.
         12    1    3    3    0    0 -0.93491259404E+01  0.96622950625E+01 -0.12723685368E+02  0.18511031065E+02  0.00000000000E+00 0. -1.
</event>
<event>
 7    1  0.3221417E-010  0.4778727E+02  0.7816164E-02  0.1312668E+00
        -11   -1    0    0    0    0  0.00000000000E+00  0.00000000000E+00  0.45593999997E+02  0.45594000000E+02  0.51100000000E-03 0. -1.
         11   -1    0    0    0    0 -0.00000000000E+00 -0.00000000000E+00 -0.45593999997E+02  0.45594000000E+02  0.51100000000E-03 0.  1.
    9900012    2    1    2    0    0 -0.37482462988E+02  0.57911110963E+01  0.21098611768E+02  0.47787269385E+02  0.19999992432E+02 0.  0.
        -12    1    1    2    0    0  0.37482462988E+02 -0.57911110963E+01 -0.21098611768E+02  0.43400730615E+02  0.00000000000E+00 0.  1.
         11    1    3    3    0    0 -0.88216858257E+01 -0.36451363037E+01  0.27805189491E+01  0.99418532159E+01  0.51100000000E-03 0. -1.
        -11    1    3    3    0    0 -0.26844088827E+02  0.78129835333E+01  0.10849177288E+02  0.29989205804E+02  0.51100000000E-03 0.  1.
         12    1    3    3    0    0 -0.18166883354E+01  0.16232638666E+01  0.74689155307E+01  0.78562103647E+01  0.00000000000E+00 0. -1.
</event>
<event>
 7    1  0.3221417E-010  0.4778727E+02  0.7816164E-02  0.1312668E+00
        -11   -1    0    0    0    0  0.00000000000E+00  0.00000000000E+00  0.45593999997E+02  0.45594000000E+02  0.51100000000E-03 0. -1.
         11   -1    0    0    0    0 -0.00000000000E+00 -0.00000000000E+00 -0.45593999997E+02  0.45594000000E+02  0.51100000000E-03 0.  1.
    9900012    2    1    2    0    0 -0.17056463670E+02 -0.21944224627E+02 -0.33333939048E+02  0.47787269132E+02  0.19999991279E+02 0.  0.
         12    1    1    2    0    0  0.17056463670E+02  0.21944224627E+02  0.33333939048E+02  0.43400730868E+02  0.00000000000E+00 0. -1.
         11    1    3    3    0    0  0.20067716618E+01 -0.48249237107E+00 -0.10704110943E+01  0.23250186156E+01  0.51100000000E-03 0. -1.
        -11    1    3    3    0    0 -0.95834833127E+01 -0.17761630153E+02 -0.27791843292E+02  0.34346837000E+02  0.51100000000E-03 0.  1.
         12    1    3    3    0    0 -0.94797520189E+01 -0.37001021031E+01 -0.44716846626E+01  0.11115413516E+02  0.00000000000E+00 0. -1.
</event>
<event>
 7    1  0.3221417E-010  0.4778727E+02  0.7816164E-02  0.1312668E+00
        -11   -1    0    0    0    0  0.00000000000E+00  0.00000000000E+00  0.45593999997E+02  0.45594000000E+02  0.51100000000E-03 0. -1.
         11   -1    0    0    0    0 -0.00000000000E+00 -0.00000000000E+00 -0.45593999997E+02  0.45594000000E+02  0.51100000000E-03 0.  1.
    9900012    2    1    2    0    0  0.17571220524E+02 -0.12171963380E+01  0.39666028177E+02  0.47787272484E+02  0.20000006562E+02 0.  0.
        -12    1    1    2    0    0 -0.17571220524E+02  0.12171963380E+01 -0.39666028177E+02  0.43400727516E+02  0.00000000000E+00 0.  1.
         11    1    3    3    0    0 -0.38422378561E+00 -0.60618140686E+01  0.15738211834E+02  0.16869633360E+02  0.51100000000E-03 0. -1.
        -11    1    3    3    0    0  0.11422969526E+02 -0.32504579008E-01  0.13642864896E+02  0.17793623919E+02  0.51100000000E-03 0.  1.
        -12    1    3    3    0    0  0.65324747840E+01  0.48771223095E+01  0.10284951447E+02  0.13124015204E+02  0.00000000000E+00 0.  1.
</event>
<event>
 7    1  0.3221417E-010  0.4778727E+02  0.7816164E-02  0.1312668E+00
        -11   -1    0    0    0    0  0.00000000000E+00  0.00000000000E+00  0.45593999997E+02  0.45594000000E+02  0.51100000000E-03 0. -1.
         11   -1    0    0    0    0 -0.00000000000E+00 -0.00000000000E+00 -0.45593999997E+02  0.45594000000E+02  0.51100000000E-03 0.  1.
    9900012    2    1    2    0    0 -0.14601109202E+02 -0.11131512935E+02 -0.39325822936E+02  0.47787270516E+02  0.19999997589E+02 0.  0.
         12    1    1    2    0    0  0.14601109202E+02  0.11131512935E+02  0.39325822936E+02  0.43400729484E+02  0.00000000000E+00 0. -1.
         11    1    3    3    0    0 -0.43893758819E+01 -0.12101690238E+02 -0.18538725856E+02  0.22569933182E+02  0.51100000000E-03 0. -1.
        -11    1    3    3    0    0 -0.10246692674E+02 -0.22409702832E+01 -0.12427901146E+02  0.16262514741E+02  0.51100000000E-03 0.  1.
        -12    1    3    3    0    0  0.34959353378E-01  0.32111475863E+01 -0.83591959350E+01  0.89548225922E+01  0.00000000000E+00 0.  1.
</event>
<event>
 7    1  0.3221417E-010  0.4778727E+02  0.7816164E-02  0.1312668E+00
        -11   -1    0    0    0    0  0.00000000000E+00  0.00000000000E+00  0.45593999997E+02  0.45594000000E+02  0.51100000000E-03 0. -1.
         11   -1    0    0    0    0 -0.00000000000E+00 -0.00000000000E+00 -0.45593999997E+02  0.45594000000E+02  0.51100000000E-03 0.  1.
    9900012    2    1    2    0    0  0.54601793586E+01  0.69375619218E+01  0.42493290610E+02  0.47787273383E+02  0.20000010662E+02 0.  0.
        -12    1    1    2    0    0 -0.54601793586E+01 -0.69375619218E+01 -0.42493290610E+02  0.43400726617E+02  0.00000000000E+00 0.  1.
         11    1    3    3    0    0 -0.36209258217E+00  0.28783989975E+01  0.28120608091E+02  0.28269858357E+02  0.51100000000E-03 0. -1.
        -11    1    3    3    0    0 -0.27282239240E+01 -0.76737361987E+00  0.11751721911E+01  0.30680772467E+01  0.51100000000E-03 0.  1.
        -12    1    3    3    0    0  0.85504958648E+01  0.48265365441E+01  0.13197510328E+02  0.16449337780E+02  0.00000000000E+00 0.  1.
</event>
<event>
 7    1  0.3221417E-010  0.4778728E+02  0.7816164E-02  0.1312668E+00
        -11   -1    0    0    0    0  0.00000000000E+00  0.00000000000E+00  0.45593999997E+02  0.45594000000E+02  0.51100000000E-03 0. -1.
         11   -1    0    0    0    0 -0.00000000000E+00 -0.00000000000E+00 -0.45593999997E+02  0.45594000000E+02  0.51100000000E-03 0.  1.
    9900012    2    1    2    0    0  0.18558654416E+02 -0.52999095765E+01  0.38872991656E+02  0.47787283698E+02  0.20000057693E+02 0.  0.
        -12    1    1    2    0    0 -0.18558654416E+02  0.52999095765E+01 -0.38872991656E+02  0.43400716302E+02  0.00000000000E+00 0.  1.
         11    1    3    3    0    0 -0.23701961599E+00  0.86699550966E+00  0.16365593106E+02  0.16390256175E+02  0.51100000000E-03 0. -1.
        -11    1    3    3    0    0  0.18443634441E+01  0.22851642514E+01  0.26726338938E+01  0.39707208868E+01  0.51100000000E-03 0.  1.
        -12    1    3    3    0    0  0.16951310588E+02 -0.84520693375E+01  0.19834764656E+02  0.27426306636E+02  0.00000000000E+00 0.  1.
</event>
<event>
 7    1  0.3221417E-010  0.4778727E+02  0.7816164E-02  0.1312668E+00
        -11   -1    0    0    0    0  0.00000000000E+00  0.00000000000E+00  0.45593999997E+02  0.45594000000E+02  0.51100000000E-03 0.  1.
         11   -1    0    0    0    0 -0.00000000000E+00 -0.00000000000E+00 -0.45593999997E+02  0.45594000000E+02  0.51100000000E-03 0. -1.
    9900012    2    1    2    0    0 -0.17537434275E+02 -0.21148050504E+02  0.33597940552E+02  0.47787271315E+02  0.20000001234E+02 0.  0.
        -12    1    1    2    0    0  0.17537434275E+02  0.21148050504E+02 -0.33597940552E+02  0.43400728685E+02  0.00000000000E+00 0.  1.
         11    1    3    3    0    0 -0.25884167131E+01 -0.25318306353E+01  0.85098262733E+00  0.37194407025E+01  0.51100000000E-03 0. -1.
        -11    1    3    3    0    0 -0.14372803753E+02 -0.14547102418E+02  0.13776709013E+02  0.24657521935E+02  0.51100000000E-03 0.  1.
         12    1    3    3    0    0 -0.57621380861E+00 -0.40691174500E+01  0.18970248912E+02  0.19410308677E+02  0.00000000000E+00 0. -1.
</event>
<event>
 7    1  0.3221417E-010  0.4778727E+02  0.7816164E-02  0.1312668E+00
        -11   -1    0    0    0    0  0.00000000000E+00  0.00000000000E+00  0.45593999997E+02  0.45594000000E+02  0.51100000000E-03 0.  1.
         11   -1    0    0    0    0 -0.00000000000E+00 -0.00000000000E+00 -0.45593999997E+02  0.45594000000E+02  0.51100000000E-03 0. -1.
    9900012    2    1    2    0    0 -0.39138360765E+02  0.14277389982E+02 -0.12164211117E+02  0.47787272124E+02  0.20000004922E+02 0.  0.
         12    1    1    2    0    0  0.39138360765E+02 -0.14277389982E+02  0.12164211117E+02  0.43400727876E+02  0.00000000000E+00 0. -1.
         11    1    3    3    0    0 -0.22688207682E+01  0.45462864669E+01  0.37553175303E+00  0.50948299948E+01  0.51100000000E-03 0. -1.
        -11    1    3    3    0    0 -0.36026979214E+01 -0.15094847454E+01  0.23421041736E+01  0.45544954419E+01  0.51100000000E-03 0.  1.
         12    1    3    3    0    0 -0.33266842075E+02  0.11240588261E+02 -0.14881847043E+02  0.38137946687E+02  0.00000000000E+00 0. -1.
</event>
<event>
 7    1  0.3221417E-010  0.4778726E+02  0.7816164E-02  0.1312668E+00
        -11   -1    0    0    0    0  0.00000000000E+00  0.00000000000E+00  0.45593999997E+02  0.45594000000E+02  0.51100000000E-03 0. -1.
         11   -1    0    0    0    0 -0.00000000000E+00 -0.00000000000E+00 -0.45593999997E+02  0.45594000000E+02  0.51100000000E-03 0.  1.
    9900012    2    1    2    0    0 -0.43826963338E+00  0.41033595299E+02 -0.14130670180E+02  0.47787264255E+02  0.19999969046E+02 0.  0.
         12    1    1    2    0    0  0.43826963338E+00 -0.41033595299E+02  0.14130670180E+02  0.43400735745E+02  0.00000000000E+00 0. -1.
         11    1    3    3    0    0  0.49866764237E+01  0.10962341073E+02 -0.48673289476E+01  0.12989640291E+02  0.51100000000E-03 0. -1.
        -11    1    3    3    0    0  0.27467772122E+01  0.19808712802E+02 -0.82723965281E+01  0.21641682756E+02  0.51100000000E-03 0.  1.
        -12    1    3    3    0    0 -0.81717232692E+01  0.10262541424E+02 -0.99094470444E+00  0.13155941208E+02  0.00000000000E+00 0.  1.
</event>
<event>
 7    1  0.3221417E-010  0.4778727E+02  0.7816164E-02  0.1312668E+00
        -11   -1    0    0    0    0  0.00000000000E+00  0.00000000000E+00  0.45593999997E+02  0.45594000000E+02  0.51100000000E-03 0. -1.
         11   -1    0    0    0    0 -0.00000000000E+00 -0.00000000000E+00 -0.45593999997E+02  0.45594000000E+02  0.51100000000E-03 0.  1.
    9900012    2    1    2    0    0 -0.74096455968E+01  0.88485301981E+01  0.41838067174E+02  0.47787271902E+02  0.20000003911E+02 0.  0.
        -12    1    1    2    0    0  0.74096455968E+01 -0.88485301981E+01 -0.41838067174E+02  0.43400728098E+02  0.00000000000E+00 0.  1.
         11    1    3    3    0    0 -0.49436677275E+01  0.82471081071E+01  0.19823301350E+02  0.22032201873E+02  0.51100000000E-03 0. -1.
        -11    1    3    3    0    0  0.14178279309E+01 -0.35556354649E+01  0.18870750076E+02  0.19255076949E+02  0.51100000000E-03 0.  1.
         12    1    3    3    0    0 -0.38838058003E+01  0.41570575559E+01  0.31440157485E+01  0.64999930803E+01  0.00000000000E+00 0. -1.
</event>
<event>
 7    1  0.3221417E-010  0.4778727E+02  0.7816164E-02  0.1312668E+00
        -11   -1    0    0    0    0  0.00000000000E+00  0.00000000000E+00  0.45593999997E+02  0.45594000000E+02  0.51100000000E-03 0. -1.
         11   -1    0    0    0    0 -0.00000000000E+00 -0.00000000000E+00 -0.45593999997E+02  0.45594000000E+02  0.51100000000E-03 0.  1.
    9900012    2    1    2    0    0  0.32919528775E+02 -0.26630389809E+02 -0.95263017691E+01  0.47787268882E+02  0.19999990142E+02 0.  0.
         12    1    1    2    0    0 -0.32919528775E+02  0.26630389809E+02  0.95263017691E+01  0.43400731118E+02  0.00000000000E+00 0. -1.
         11    1    3    3    0    0  0.53522310821E+01 -0.14947952018E+01  0.19469338130E+01  0.58882375788E+01  0.51100000000E-03 0. -1.
        -11    1    3    3    0    0  0.23994056580E+02 -0.15219823153E+02 -0.13004199284E+02  0.31248471438E+02  0.51100000000E-03 0.  1.
        -12    1    3    3    0    0  0.35732411136E+01 -0.99157714539E+01  0.15309637017E+01  0.10650559865E+02  0.00000000000E+00 0.  1.
</event>
<event>
 7    1  0.3221417E-010  0.4778727E+02  0.7816164E-02  0.1312668E+00
        -11   -1    0    0    0    0  0.00000000000E+00  0.00000000000E+00  0.45593999997E+02  0.45594000000E+02  0.51100000000E-03 0. -1.
         11   -1    0    0    0    0 -0.00000000000E+00 -0.00000000000E+00 -0.45593999997E+02  0.45594000000E+02  0.51100000000E-03 0.  1.
    9900012    2    1    2    0    0 -0.21968779295E+02 -0.84537033981E+01  0.36462733916E+02  0.47787270404E+02  0.19999997081E+02 0.  0.
        -12    1    1    2    0    0  0.21968779295E+02  0.84537033981E+01 -0.36462733916E+02  0.43400729596E+02  0.00000000000E+00 0.  1.
         11    1    3    3    0    0 -0.92913074535E+01 -0.60290749329E+01  0.13896425939E+02  0.17770447178E+02  0.51100000000E-03 0. -1.
        -11    1    3    3    0    0 -0.11318662295E+01 -0.10483610343E+01 -0.21825083662E+01  0.26727373701E+01  0.51100000000E-03 0.  1.
        -12    1    3    3    0    0 -0.11545605612E+02 -0.13762674309E+01  0.24748816342E+02  0.27344085857E+02  0.00000000000E+00 0.  1.
</event>
<event>
 7    1  0.3221417E-010  0.4778727E+02  0.7816164E-02  0.1312668E+00
        -11   -1    0    0    0    0  0.00000000000E+00  0.00000000000E+00  0.45593999997E+02  0.45594000000E+02  0.51100000000E-03 0. -1.
         11   -1    0    0    0    0 -0.00000000000E+00 -0.00000000000E+00 -0.45593999997E+02  0.45594000000E+02  0.51100000000E-03 0.  1.
    9900012    2    1    2    0    0 -0.40062576270E+01 -0.55192664318E+01  0.42861534227E+02  0.47787268227E+02  0.19999987153E+02 0.  0.
        -12    1    1    2    0    0  0.40062576270E+01  0.55192664318E+01 -0.42861534227E+02  0.43400731773E+02  0.00000000000E+00 0.  1.
         11    1    3    3    0    0 -0.70880123991E+01 -0.28618745856E+01  0.16686612229E+02  0.18354107820E+02  0.51100000000E-03 0. -1.
        -11    1    3    3    0    0  0.84590346671E+00 -0.14789012830E+01 -0.11087080334E+01  0.20327162724E+01  0.51100000000E-03 0.  1.
        -12    1    3    3    0    0  0.22358513054E+01 -0.11784905633E+01  0.27283630032E+02  0.27400444134E+02  0.00000000000E+00 0.  1.
</event>
<event>
 7    1  0.3221417E-010  0.4778727E+02  0.7816164E-02  0.1312668E+00
        -11   -1    0    0    0    0  0.00000000000E+00  0.00000000000E+00  0.45593999997E+02  0.45594000000E+02  0.51100000000E-03 0. -1.
         11   -1    0    0    0    0 -0.00000000000E+00 -0.00000000000E+00 -0.45593999997E+02  0.45594000000E+02  0.51100000000E-03 0.  1.
    9900012    2    1    2    0    0  0.45071237610E+01 -0.27569940158E+02 -0.33214570117E+02  0.47787269211E+02  0.19999991642E+02 0.  0.
         12    1    1    2    0    0 -0.45071237610E+01  0.27569940158E+02  0.33214570117E+02  0.43400730789E+02  0.00000000000E+00 0. -1.
         11    1    3    3    0    0  0.52309940091E+01 -0.22097635086E+01 -0.49855473376E+01  0.75565888867E+01  0.51100000000E-03 0. -1.
        -11    1    3    3    0    0  0.29328018108E+01 -0.24790388466E+02 -0.24601205040E+02  0.35048309181E+02  0.51100000000E-03 0.  1.
        -12    1    3    3    0    0 -0.36566720588E+01 -0.56978818367E+00 -0.36278177390E+01  0.51823711434E+01  0.00000000000E+00 0.  1.
</event>
<event>
 7    1  0.3221417E-010  0.4778727E+02  0.7816164E-02  0.1312668E+00
        -11   -1    0    0    0    0  0.00000000000E+00  0.00000000000E+00  0.45593999997E+02  0.45594000000E+02  0.51100000000E-03 0. -1.
         11   -1    0    0    0    0 -0.00000000000E+00 -0.00000000000E+00 -0.45593999997E+02  0.45594000000E+02  0.51100000000E-03 0.  1.
    9900012    2    1    2    0    0 -0.28611021834E+02 -0.50842782232E+01  0.32236363322E+02  0.47787267567E+02  0.19999984146E+02 0.  0.
        -12    1    1    2    0    0  0.28611021834E+02  0.50842782232E+01 -0.32236363322E+02  0.43400732433E+02  0.00000000000E+00 0.  1.
         11    1    3    3    0    0 -0.26407834416E+02 -0.39632320718E+01  0.16600769677E+02  0.31443067298E+02  0.51100000000E-03 0. -1.
        -11    1    3    3    0    0  0.27180019614E+00 -0.17619959291E+01  0.33443771973E+01  0.37899029143E+01  0.51100000000E-03 0.  1.
         12    1    3    3    0    0 -0.24749876150E+01  0.64094977778E+00  0.12291216448E+02  0.12554297355E+02  0.00000000000E+00 0. -1.
</event>
<event>
 7    1  0.3819291E-010  0.4778724E+02  0.7816164E-02  0.1312668E+00
        -11   -1    0    0    0    0  0.00000000000E+00  0.00000000000E+00  0.45593999997E+02  0.45594000000E+02  0.51100000000E-03 0. -1.
         11   -1    0    0    0    0 -0.00000000000E+00 -0.00000000000E+00 -0.45593999997E+02  0.45594000000E+02  0.51100000000E-03 0.  1.
    9900012    2    1    2    0    0  0.20583607654E+02  0.15090923688E+02 -0.35102777020E+02  0.47787241524E+02  0.19999865403E+02 0.  0.
         12    1    1    2    0    0 -0.20583607654E+02 -0.15090923688E+02  0.35102777020E+02  0.43400758476E+02  0.00000000000E+00 0. -1.
         11    1    3    3    0    0 -0.22236137440E+01  0.16491602520E+01 -0.76314641255E+00  0.28716859729E+01  0.51100000000E-03 0. -1.
        -11    1    3    3    0    0  0.14041307502E+02  0.12911455600E+02 -0.28760370792E+02  0.34511200073E+02  0.51100000000E-03 0.  1.
         12    1    3    3    0    0  0.87659138964E+01  0.53030783609E+00 -0.55792598147E+01  0.10404355478E+02  0.00000000000E+00 0. -1.
</event>
<event>
 7    1  0.3221417E-010  0.4778727E+02  0.7816164E-02  0.1312668E+00
        -11   -1    0    0    0    0  0.00000000000E+00  0.00000000000E+00  0.45593999997E+02  0.45594000000E+02  0.51100000000E-03 0. -1.
         11   -1    0    0    0    0 -0.00000000000E+00 -0.00000000000E+00 -0.45593999997E+02  0.45594000000E+02  0.51100000000E-03 0.  1.
    9900012    2    1    2    0    0  0.27286982008E+02  0.47098158371E+01  0.33419478025E+02  0.47787271161E+02  0.20000000531E+02 0.  0.
        -12    1    1    2    0    0 -0.27286982008E+02 -0.47098158371E+01 -0.33419478025E+02  0.43400728839E+02  0.00000000000E+00 0.  1.
         11    1    3    3    0    0  0.19677859355E+02 -0.26457360502E+01  0.22390240566E+02  0.29925590068E+02  0.51100000000E-03 0. -1.
        -11    1    3    3    0    0 -0.20049023972E+01  0.58228958944E+00  0.28659462949E+01  0.35457500215E+01  0.51100000000E-03 0.  1.
        -12    1    3    3    0    0  0.96140250503E+01  0.67732622978E+01  0.81632911636E+01  0.14315931072E+02  0.00000000000E+00 0.  1.
</event>
<event>
 7    1  0.3221417E-010  0.4778727E+02  0.7816164E-02  0.1312668E+00
        -11   -1    0    0    0    0  0.00000000000E+00  0.00000000000E+00  0.45593999997E+02  0.45594000000E+02  0.51100000000E-03 0. -1.
         11   -1    0    0    0    0 -0.00000000000E+00 -0.00000000000E+00 -0.45593999997E+02  0.45594000000E+02  0.51100000000E-03 0.  1.
    9900012    2    1    2    0    0  0.19085802998E+02 -0.40149149613E+01  0.38771588663E+02  0.47787268374E+02  0.19999987825E+02 0.  0.
        -12    1    1    2    0    0 -0.19085802998E+02  0.40149149613E+01 -0.38771588663E+02  0.43400731626E+02  0.00000000000E+00 0.  1.
         11    1    3    3    0    0  0.17395485847E+02 -0.17327287737E+01  0.28370301899E+02  0.33323854924E+02  0.51100000000E-03 0. -1.
        -11    1    3    3    0    0  0.40796033279E+01 -0.47704619310E+00  0.10692971332E+02  0.11454709623E+02  0.51100000000E-03 0.  1.
        -12    1    3    3    0    0 -0.23892861767E+01 -0.18051399946E+01 -0.29168456824E+00  0.30087038275E+01  0.00000000000E+00 0.  1.
</event>
<event>
 7    1  0.3221417E-010  0.4778728E+02  0.7816164E-02  0.1312668E+00
        -11   -1    0    0    0    0  0.00000000000E+00  0.00000000000E+00  0.45593999997E+02  0.45594000000E+02  0.51100000000E-03 0. -1.
         11   -1    0    0    0    0 -0.00000000000E+00 -0.00000000000E+00 -0.45593999997E+02  0.45594000000E+02  0.51100000000E-03 0.  1.
    9900012    2    1    2    0    0  0.20580746263E+02 -0.53407849413E+01 -0.37835579194E+02  0.47787283952E+02  0.20000058850E+02 0.  0.
         12    1    1    2    0    0 -0.20580746263E+02  0.53407849413E+01  0.37835579194E+02  0.43400716048E+02  0.00000000000E+00 0. -1.
         11    1    3    3    0    0  0.82582880340E+01 -0.86561245926E+01 -0.12514107615E+02  0.17312732421E+02  0.51100000000E-03 0. -1.
        -11    1    3    3    0    0  0.65540224612E+01 -0.37117900587E+01 -0.14510771728E+02  0.16349161822E+02  0.51100000000E-03 0.  1.
         12    1    3    3    0    0  0.57684357681E+01  0.70271297100E+01 -0.10810699851E+02  0.14125389709E+02  0.00000000000E+00 0. -1.
</event>
<event>
 7    1  0.3221417E-010  0.4778727E+02  0.7816164E-02  0.1312668E+00
        -11   -1    0    0    0    0  0.00000000000E+00  0.00000000000E+00  0.45593999997E+02  0.45594000000E+02  0.51100000000E-03 0. -1.
         11   -1    0    0    0    0 -0.00000000000E+00 -0.00000000000E+00 -0.45593999997E+02  0.45594000000E+02  0.51100000000E-03 0.  1.
    9900012    2    1    2    0    0  0.41170740441E+02 -0.13531742244E+02  0.23420875296E+01  0.47787270851E+02  0.19999999119E+02 0.  0.
        -12    1    1    2    0    0 -0.41170740441E+02  0.13531742244E+02 -0.23420875296E+01  0.43400729149E+02  0.00000000000E+00 0.  1.
         11    1    3    3    0    0  0.20903837427E+01 -0.53390059155E+01  0.39586402985E+01  0.69674616347E+01  0.51100000000E-03 0. -1.
        -11    1    3    3    0    0 -0.62023050494E-01 -0.93809736921E+00  0.23051043586E+00  0.96799217718E+00  0.51100000000E-03 0.  1.
        -12    1    3    3    0    0  0.39142379749E+02 -0.72546389597E+01 -0.18470632048E+01  0.39851817039E+02  0.00000000000E+00 0.  1.
</event>
<event>
 7    1  0.3221417E-010  0.4778727E+02  0.7816164E-02  0.1312668E+00
        -11   -1    0    0    0    0  0.00000000000E+00  0.00000000000E+00  0.45593999997E+02  0.45594000000E+02  0.51100000000E-03 0. -1.
         11   -1    0    0    0    0 -0.00000000000E+00 -0.00000000000E+00 -0.45593999997E+02  0.45594000000E+02  0.51100000000E-03 0.  1.
    9900012    2    1    2    0    0  0.16084783485E+02 -0.27090669322E+02 -0.29849604140E+02  0.47787268539E+02  0.19999988575E+02 0.  0.
         12    1    1    2    0    0 -0.16084783485E+02  0.27090669322E+02  0.29849604140E+02  0.43400731461E+02  0.00000000000E+00 0. -1.
         11    1    3    3    0    0  0.28642442784E+01 -0.49110959583E+01  0.31438357139E+00  0.56939964954E+01  0.51100000000E-03 0. -1.
        -11    1    3    3    0    0  0.64375028048E+01 -0.23247627400E+01 -0.14082726314E+02  0.15657878045E+02  0.51100000000E-03 0.  1.
        -12    1    3    3    0    0  0.67830364013E+01 -0.19854810624E+02 -0.16081261397E+02  0.26435393998E+02  0.00000000000E+00 0.  1.
</event>
<event>
 7    1  0.3221417E-010  0.4778727E+02  0.7816164E-02  0.1312668E+00
        -11   -1    0    0    0    0  0.00000000000E+00  0.00000000000E+00  0.45593999997E+02  0.45594000000E+02  0.51100000000E-03 0. -1.
         11   -1    0    0    0    0 -0.00000000000E+00 -0.00000000000E+00 -0.45593999997E+02  0.45594000000E+02  0.51100000000E-03 0.  1.
    9900012    2    1    2    0    0  0.34073427999E+02 -0.12145452576E+02  0.23981510046E+02  0.47787270306E+02  0.19999996632E+02 0.  0.
        -12    1    1    2    0    0 -0.34073427999E+02  0.12145452576E+02 -0.23981510046E+02  0.43400729694E+02  0.00000000000E+00 0.  1.
         11    1    3    3    0    0  0.22355412955E+02 -0.16704631840E+02  0.13439246665E+02  0.30974547042E+02  0.51100000000E-03 0. -1.
        -11    1    3    3    0    0  0.46723033157E+01  0.35933420141E+01  0.37996275316E+01  0.70128235928E+01  0.51100000000E-03 0.  1.
         12    1    3    3    0    0  0.70457117284E+01  0.96583724937E+00  0.67426358495E+01  0.97998996705E+01  0.00000000000E+00 0. -1.
</event>
<event>
 7    1  0.3221417E-010  0.4778727E+02  0.7816164E-02  0.1312668E+00
        -11   -1    0    0    0    0  0.00000000000E+00  0.00000000000E+00  0.45593999997E+02  0.45594000000E+02  0.51100000000E-03 0. -1.
         11   -1    0    0    0    0 -0.00000000000E+00 -0.00000000000E+00 -0.45593999997E+02  0.45594000000E+02  0.51100000000E-03 0.  1.
    9900012    2    1    2    0    0 -0.22399627081E+02 -0.11754169678E+02 -0.35266406862E+02  0.47787271307E+02  0.20000001196E+02 0.  0.
         12    1    1    2    0    0  0.22399627081E+02  0.11754169678E+02  0.35266406862E+02  0.43400728693E+02  0.00000000000E+00 0. -1.
         11    1    3    3    0    0  0.47499606040E+00 -0.14333200436E+01  0.15261959583E-01  0.15100532419E+01  0.51100000000E-03 0. -1.
        -11    1    3    3    0    0 -0.23180827362E+02 -0.38978005220E+01 -0.27211013124E+02  0.35958070604E+02  0.51100000000E-03 0.  1.
        -12    1    3    3    0    0  0.30620422105E+00 -0.64230491124E+01 -0.80706556977E+01  0.10319147461E+02  0.00000000000E+00 0.  1.
</event>
<event>
 7    1  0.3221417E-010  0.4778726E+02  0.7816164E-02  0.1312668E+00
        -11   -1    0    0    0    0  0.00000000000E+00  0.00000000000E+00  0.45593999997E+02  0.45594000000E+02  0.51100000000E-03 0. -1.
         11   -1    0    0    0    0 -0.00000000000E+00 -0.00000000000E+00 -0.45593999997E+02  0.45594000000E+02  0.51100000000E-03 0.  1.
    9900012    2    1    2    0    0  0.22306748135E+02 -0.11179137413E+02  0.35511405845E+02  0.47787261864E+02  0.19999958144E+02 0.  0.
        -12    1    1    2    0    0 -0.22306748135E+02  0.11179137413E+02 -0.35511405845E+02  0.43400738136E+02  0.00000000000E+00 0.  1.
         11    1    3    3    0    0  0.14264905879E+02 -0.79030357762E+01  0.10669414689E+02  0.19487994363E+02  0.51100000000E-03 0. -1.
        -11    1    3    3    0    0 -0.19450316325E+01 -0.22318315534E+01  0.27865373809E+01  0.40655886376E+01  0.51100000000E-03 0.  1.
         12    1    3    3    0    0  0.99868738883E+01 -0.10442700835E+01  0.22055453775E+02  0.24233678864E+02  0.00000000000E+00 0. -1.
</event>
<event>
 7    1  0.3221417E-010  0.4778727E+02  0.7816164E-02  0.1312668E+00
        -11   -1    0    0    0    0  0.00000000000E+00  0.00000000000E+00  0.45593999997E+02  0.45594000000E+02  0.51100000000E-03 0. -1.
         11   -1    0    0    0    0 -0.00000000000E+00 -0.00000000000E+00 -0.45593999997E+02  0.45594000000E+02  0.51100000000E-03 0.  1.
    9900012    2    1    2    0    0  0.19188436017E+02 -0.11965653803E+02  0.37043899352E+02  0.47787269282E+02  0.19999991962E+02 0.  0.
        -12    1    1    2    0    0 -0.19188436017E+02  0.11965653803E+02 -0.37043899352E+02  0.43400730718E+02  0.00000000000E+00 0.  1.
         11    1    3    3    0    0  0.12210111368E+02 -0.11666734142E+02  0.23422443178E+02  0.28875774446E+02  0.51100000000E-03 0. -1.
        -11    1    3    3    0    0 -0.24720758279E+01 -0.23736441680E+01  0.39826297508E+01  0.52542064604E+01  0.51100000000E-03 0.  1.
         12    1    3    3    0    0  0.94504004774E+01  0.20747245068E+01  0.96388264227E+01  0.13657288375E+02  0.00000000000E+00 0. -1.
</event>
<event>
 7    1  0.3221417E-010  0.4778727E+02  0.7816164E-02  0.1312668E+00
        -11   -1    0    0    0    0  0.00000000000E+00  0.00000000000E+00  0.45593999997E+02  0.45594000000E+02  0.51100000000E-03 0. -1.
         11   -1    0    0    0    0 -0.00000000000E+00 -0.00000000000E+00 -0.45593999997E+02  0.45594000000E+02  0.51100000000E-03 0.  1.
    9900012    2    1    2    0    0  0.26184500869E+02  0.54908968032E+01 -0.34173751900E+02  0.47787270140E+02  0.19999995875E+02 0.  0.
         12    1    1    2    0    0 -0.26184500869E+02 -0.54908968032E+01  0.34173751900E+02  0.43400729860E+02  0.00000000000E+00 0. -1.
         11    1    3    3    0    0 -0.90464339886E+00 -0.77831083624E+00 -0.11002413467E+01  0.16231693439E+01  0.51100000000E-03 0. -1.
        -11    1    3    3    0    0  0.27304888927E+02  0.14509478576E+01 -0.27262101544E+02  0.38611972105E+02  0.51100000000E-03 0.  1.
         12    1    3    3    0    0 -0.21574465905E+00  0.48182597819E+01 -0.58114090094E+01  0.75521286905E+01  0.00000000000E+00 0. -1.
</event>
<event>
 7    1  0.3221417E-010  0.4778727E+02  0.7816164E-02  0.1312668E+00
        -11   -1    0    0    0    0  0.00000000000E+00  0.00000000000E+00  0.45593999997E+02  0.45594000000E+02  0.51100000000E-03 0. -1.
         11   -1    0    0    0    0 -0.00000000000E+00 -0.00000000000E+00 -0.45593999997E+02  0.45594000000E+02  0.51100000000E-03 0.  1.
    9900012    2    1    2    0    0  0.14875637148E+01  0.38513718796E+02  0.19952539717E+02  0.47787271637E+02  0.20000002701E+02 0.  0.
        -12    1    1    2    0    0 -0.14875637148E+01 -0.38513718796E+02 -0.19952539717E+02  0.43400728363E+02  0.00000000000E+00 0.  1.
         11    1    3    3    0    0  0.96058982162E+01  0.20797755887E+02  0.14454435357E+02  0.27087831811E+02  0.51100000000E-03 0. -1.
        -11    1    3    3    0    0 -0.37838316086E+01  0.80570569825E+01  0.47418460252E+01  0.10085566561E+02  0.51100000000E-03 0.  1.
         12    1    3    3    0    0 -0.43345028928E+01  0.96589059262E+01  0.75625833478E+00  0.10613873265E+02  0.00000000000E+00 0. -1.
</event>
<event>
 7    1  0.3221417E-010  0.4778727E+02  0.7816164E-02  0.1312668E+00
        -11   -1    0    0    0    0  0.00000000000E+00  0.00000000000E+00  0.45593999997E+02  0.45594000000E+02  0.51100000000E-03 0. -1.
         11   -1    0    0    0    0 -0.00000000000E+00 -0.00000000000E+00 -0.45593999997E+02  0.45594000000E+02  0.51100000000E-03 0.  1.
    9900012    2    1    2    0    0 -0.11849686678E+02  0.19358168546E+02 -0.36992829763E+02  0.47787271692E+02  0.20000002951E+02 0.  0.
         12    1    1    2    0    0  0.11849686678E+02 -0.19358168546E+02  0.36992829763E+02  0.43400728308E+02  0.00000000000E+00 0. -1.
         11    1    3    3    0    0 -0.10265295663E+02  0.75254563335E+01 -0.22099315217E+02  0.25502715961E+02  0.51100000000E-03 0. -1.
        -11    1    3    3    0    0 -0.50443716374E+01  0.40863794152E+01 -0.11380794855E+02  0.13102162941E+02  0.51100000000E-03 0.  1.
         12    1    3    3    0    0  0.34599806228E+01  0.77463327972E+01 -0.35127196914E+01  0.91823927898E+01  0.00000000000E+00 0. -1.
</event>
<event>
 7    1  0.3221417E-010  0.4778726E+02  0.7816164E-02  0.1312668E+00
        -11   -1    0    0    0    0  0.00000000000E+00  0.00000000000E+00  0.45593999997E+02  0.45594000000E+02  0.51100000000E-03 0. -1.
         11   -1    0    0    0    0 -0.00000000000E+00 -0.00000000000E+00 -0.45593999997E+02  0.45594000000E+02  0.51100000000E-03 0.  1.
    9900012    2    1    2    0    0 -0.25342098936E+02  0.20765424558E+02 -0.28463996896E+02  0.47787263199E+02  0.19999964229E+02 0.  0.
         12    1    1    2    0    0  0.25342098936E+02 -0.20765424558E+02  0.28463996896E+02  0.43400736801E+02  0.00000000000E+00 0. -1.
         11    1    3    3    0    0 -0.12245370054E+02  0.84253114788E+01 -0.12737621821E+02  0.19575034385E+02  0.51100000000E-03 0. -1.
        -11    1    3    3    0    0 -0.31023073453E+01  0.13017404514E+02 -0.83713572205E+01  0.15784699969E+02  0.51100000000E-03 0.  1.
         12    1    3    3    0    0 -0.99944215367E+01 -0.67729143411E+00 -0.73550178549E+01  0.12427528845E+02  0.00000000000E+00 0. -1.
</event>
<event>
 7    1  0.3221417E-010  0.4778728E+02  0.7816164E-02  0.1312668E+00
        -11   -1    0    0    0    0  0.00000000000E+00  0.00000000000E+00  0.45593999997E+02  0.45594000000E+02  0.51100000000E-03 0. -1.
         11   -1    0    0    0    0 -0.00000000000E+00 -0.00000000000E+00 -0.45593999997E+02  0.45594000000E+02  0.51100000000E-03 0.  1.
    9900012    2    1    2    0    0  0.41230788226E+01  0.21029944758E+02  0.37740753769E+02  0.47787275921E+02  0.20000022235E+02 0.  0.
        -12    1    1    2    0    0 -0.41230788226E+01 -0.21029944758E+02 -0.37740753769E+02  0.43400724079E+02  0.00000000000E+00 0.  1.
         11    1    3    3    0    0 -0.25647493372E+01  0.73591319479E+00 -0.31644148540E+00  0.26869393122E+01  0.51100000000E-03 0. -1.
        -11    1    3    3    0    0  0.69824966743E+01  0.87657182946E+01  0.11069679522E+02  0.15752170708E+02  0.51100000000E-03 0.  1.
         12    1    3    3    0    0 -0.29466851461E+00  0.11528313269E+02  0.26987515732E+02  0.29348165901E+02  0.00000000000E+00 0. -1.
</event>
<event>
 7    1  0.3221417E-010  0.4778727E+02  0.7816164E-02  0.1312668E+00
        -11   -1    0    0    0    0  0.00000000000E+00  0.00000000000E+00  0.45593999997E+02  0.45594000000E+02  0.51100000000E-03 0. -1.
         11   -1    0    0    0    0 -0.00000000000E+00 -0.00000000000E+00 -0.45593999997E+02  0.45594000000E+02  0.51100000000E-03 0.  1.
    9900012    2    1    2    0    0 -0.23280165118E+02  0.75722477019E+01  0.35837384749E+02  0.47787272255E+02  0.20000005519E+02 0.  0.
        -12    1    1    2    0    0  0.23280165118E+02 -0.75722477019E+01 -0.35837384749E+02  0.43400727745E+02  0.00000000000E+00 0.  1.
         11    1    3    3    0    0 -0.46356268007E+01 -0.46902764116E+01  0.17920011240E+02  0.19094882345E+02  0.51100000000E-03 0. -1.
        -11    1    3    3    0    0 -0.47959981307E+01  0.34723935785E+01  0.36716098380E+01  0.69670534875E+01  0.51100000000E-03 0.  1.
        -12    1    3    3    0    0 -0.13848540186E+02  0.87901305351E+01  0.14245763671E+02  0.21725336423E+02  0.00000000000E+00 0.  1.
</event>
<event>
 7    1  0.3221417E-010  0.4778727E+02  0.7816164E-02  0.1312668E+00
        -11   -1    0    0    0    0  0.00000000000E+00  0.00000000000E+00  0.45593999997E+02  0.45594000000E+02  0.51100000000E-03 0. -1.
         11   -1    0    0    0    0 -0.00000000000E+00 -0.00000000000E+00 -0.45593999997E+02  0.45594000000E+02  0.51100000000E-03 0.  1.
    9900012    2    1    2    0    0 -0.24970826768E+02  0.24217448782E+01 -0.35414916914E+02  0.47787269848E+02  0.19999994543E+02 0.  0.
         12    1    1    2    0    0  0.24970826768E+02 -0.24217448782E+01  0.35414916914E+02  0.43400730152E+02  0.00000000000E+00 0. -1.
         11    1    3    3    0    0 -0.11481672980E+02  0.14237524127E+01 -0.25174526584E+02  0.27705823835E+02  0.51100000000E-03 0. -1.
        -11    1    3    3    0    0 -0.98112837735E+01 -0.32621332837E+01 -0.10096716941E+02  0.14451522276E+02  0.51100000000E-03 0.  1.
         12    1    3    3    0    0 -0.36778700149E+01  0.42601257492E+01 -0.14367338914E+00  0.56299237373E+01  0.00000000000E+00 0. -1.
</event>
<event>
 7    1  0.3221417E-010  0.4778728E+02  0.7816164E-02  0.1312668E+00
        -11   -1    0    0    0    0  0.00000000000E+00  0.00000000000E+00  0.45593999997E+02  0.45594000000E+02  0.51100000000E-03 0. -1.
         11   -1    0    0    0    0 -0.00000000000E+00 -0.00000000000E+00 -0.45593999997E+02  0.45594000000E+02  0.51100000000E-03 0.  1.
    9900012    2    1    2    0    0  0.26614288899E+01 -0.64675155414E+01  0.42833525862E+02  0.47787275366E+02  0.20000019703E+02 0.  0.
        -12    1    1    2    0    0 -0.26614288899E+01  0.64675155414E+01 -0.42833525862E+02  0.43400724634E+02  0.00000000000E+00 0.  1.
         11    1    3    3    0    0  0.37937509406E+01  0.37496996920E+01  0.21603842454E+02  0.22252613398E+02  0.51100000000E-03 0. -1.
        -11    1    3    3    0    0 -0.41052732179E+00 -0.20792793358E+01 -0.61940459403E+00  0.22080755309E+01  0.51100000000E-03 0.  1.
        -12    1    3    3    0    0 -0.72179472890E+00 -0.81379358976E+01  0.21849088002E+02  0.23326586437E+02  0.00000000000E+00 0.  1.
</event>
<event>
 7    1  0.3221417E-010  0.4778728E+02  0.7816164E-02  0.1312668E+00
        -11   -1    0    0    0    0  0.00000000000E+00  0.00000000000E+00  0.45593999997E+02  0.45594000000E+02  0.51100000000E-03 0. -1.
         11   -1    0    0    0    0 -0.00000000000E+00 -0.00000000000E+00 -0.45593999997E+02  0.45594000000E+02  0.51100000000E-03 0.  1.
    9900012    2    1    2    0    0  0.14393458628E+02 -0.17728456046E+02  0.36907358659E+02  0.47787275027E+02  0.20000018157E+02 0.  0.
        -12    1    1    2    0    0 -0.14393458628E+02  0.17728456046E+02 -0.36907358659E+02  0.43400724973E+02  0.00000000000E+00 0.  1.
         11    1    3    3    0    0  0.70798270886E+01 -0.90195308558E+01  0.94046566247E+01  0.14829816417E+02  0.51100000000E-03 0. -1.
        -11    1    3    3    0    0  0.28720555857E+01 -0.11011519543E+02  0.24764845595E+02  0.27254354579E+02  0.51100000000E-03 0.  1.
         12    1    3    3    0    0  0.44415759532E+01  0.23025943532E+01  0.27378564392E+01  0.57031040307E+01  0.00000000000E+00 0. -1.
</event>
<event>
 7    1  0.3221417E-010  0.4778726E+02  0.7816164E-02  0.1312668E+00
        -11   -1    0    0    0    0  0.00000000000E+00  0.00000000000E+00  0.45593999997E+02  0.45594000000E+02  0.51100000000E-03 0. -1.
         11   -1    0    0    0    0 -0.00000000000E+00 -0.00000000000E+00 -0.45593999997E+02  0.45594000000E+02  0.51100000000E-03 0.  1.
    9900012    2    1    2    0    0 -0.24456745287E+02  0.16294194334E+02 -0.31937301761E+02  0.47787258038E+02  0.19999940700E+02 0.  0.
         12    1    1    2    0    0  0.24456745287E+02 -0.16294194334E+02  0.31937301761E+02  0.43400741962E+02  0.00000000000E+00 0. -1.
         11    1    3    3    0    0 -0.24299826603E+02  0.15348325879E+02 -0.26961437469E+02  0.39407763079E+02  0.51100000000E-03 0. -1.
        -11    1    3    3    0    0 -0.52314428362E-01  0.34969616014E+01 -0.46307429491E+01  0.58030386663E+01  0.51100000000E-03 0.  1.
         12    1    3    3    0    0 -0.10460425546E+00 -0.25510931461E+01 -0.34512134327E+00  0.25764562934E+01  0.00000000000E+00 0. -1.
</event>
<event>
 7    1  0.3221417E-010  0.4778728E+02  0.7816164E-02  0.1312668E+00
        -11   -1    0    0    0    0  0.00000000000E+00  0.00000000000E+00  0.45593999997E+02  0.45594000000E+02  0.51100000000E-03 0.  1.
         11   -1    0    0    0    0 -0.00000000000E+00 -0.00000000000E+00 -0.45593999997E+02  0.45594000000E+02  0.51100000000E-03 0. -1.
    9900012    2    1    2    0    0  0.35248733752E+02 -0.12316159083E+02  0.22123776416E+02  0.47787280091E+02  0.20000041247E+02 0.  0.
        -12    1    1    2    0    0 -0.35248733752E+02  0.12316159083E+02 -0.22123776416E+02  0.43400719909E+02  0.00000000000E+00 0.  1.
         11    1    3    3    0    0  0.13654243643E+02 -0.67819359547E+01  0.18880963369E+01  0.15362224214E+02  0.51100000000E-03 0. -1.
        -11    1    3    3    0    0  0.92275916413E+00 -0.26044267862E+01  0.74427304625E+01  0.79390654587E+01  0.51100000000E-03 0.  1.
         12    1    3    3    0    0  0.20671730945E+02 -0.29297963417E+01  0.12792949617E+02  0.24485990419E+02  0.00000000000E+00 0. -1.
</event>
<event>
 7    1  0.3221417E-010  0.4778726E+02  0.7816164E-02  0.1312668E+00
        -11   -1    0    0    0    0  0.00000000000E+00  0.00000000000E+00  0.45593999997E+02  0.45594000000E+02  0.51100000000E-03 0. -1.
         11   -1    0    0    0    0 -0.00000000000E+00 -0.00000000000E+00 -0.45593999997E+02  0.45594000000E+02  0.51100000000E-03 0.  1.
    9900012    2    1    2    0    0  0.15293531092E+02 -0.11716159083E+02  0.38890403351E+02  0.47787263258E+02  0.19999964498E+02 0.  0.
        -12    1    1    2    0    0 -0.15293531092E+02  0.11716159083E+02 -0.38890403351E+02  0.43400736742E+02  0.00000000000E+00 0.  1.
         11    1    3    3    0    0 -0.18181800230E+00 -0.17895294369E+01  0.10736522356E+02  0.10886155702E+02  0.51100000000E-03 0. -1.
        -11    1    3    3    0    0  0.78377246725E+01  0.22911703803E+01  0.48349610532E+01  0.94897965416E+01  0.51100000000E-03 0.  1.
        -12    1    3    3    0    0  0.76376244219E+01 -0.12217800027E+02  0.23318919942E+02  0.27411311015E+02  0.00000000000E+00 0.  1.
</event>
<event>
 7    1  0.3221417E-010  0.4778727E+02  0.7816164E-02  0.1312668E+00
        -11   -1    0    0    0    0  0.00000000000E+00  0.00000000000E+00  0.45593999997E+02  0.45594000000E+02  0.51100000000E-03 0. -1.
         11   -1    0    0    0    0 -0.00000000000E+00 -0.00000000000E+00 -0.45593999997E+02  0.45594000000E+02  0.51100000000E-03 0.  1.
    9900012    2    1    2    0    0 -0.36185767561E-01 -0.37222123992E+02 -0.22318954097E+02  0.47787268026E+02  0.19999986238E+02 0.  0.
         12    1    1    2    0    0  0.36185767561E-01  0.37222123992E+02  0.22318954097E+02  0.43400731974E+02  0.00000000000E+00 0. -1.
         11    1    3    3    0    0 -0.97142470829E+00 -0.17815129196E+01  0.13602310833E+01  0.24428841781E+01  0.51100000000E-03 0. -1.
        -11    1    3    3    0    0  0.50965230885E+01 -0.21407269057E+02 -0.21089570366E+02  0.30479758768E+02  0.51100000000E-03 0.  1.
        -12    1    3    3    0    0 -0.41612841478E+01 -0.14033342015E+02 -0.25896148140E+01  0.14864625080E+02  0.00000000000E+00 0.  1.
</event>
<event>
 7    1  0.3221417E-010  0.4778727E+02  0.7816164E-02  0.1312668E+00
        -11   -1    0    0    0    0  0.00000000000E+00  0.00000000000E+00  0.45593999997E+02  0.45594000000E+02  0.51100000000E-03 0. -1.
         11   -1    0    0    0    0 -0.00000000000E+00 -0.00000000000E+00 -0.45593999997E+02  0.45594000000E+02  0.51100000000E-03 0.  1.
    9900012    2    1    2    0    0 -0.27685717039E+02 -0.13649593760E+02 -0.30509233664E+02  0.47787266406E+02  0.19999978852E+02 0.  0.
         12    1    1    2    0    0  0.27685717039E+02  0.13649593760E+02  0.30509233664E+02  0.43400733594E+02  0.00000000000E+00 0. -1.
         11    1    3    3    0    0 -0.13626311203E+02 -0.27196589930E+01 -0.24902506345E+02  0.28516797235E+02  0.51100000000E-03 0.  1.
        -11    1    3    3    0    0 -0.54761020557E+01 -0.21221829467E+01 -0.31326851201E+00  0.58812831597E+01  0.51100000000E-03 0. -1.
        -12    1    3    3    0    0 -0.85833037802E+01 -0.88077518201E+01 -0.52934588069E+01  0.13389186011E+02  0.00000000000E+00 0.  1.
</event>
<event>
 7    1  0.3221417E-010  0.4778727E+02  0.7816164E-02  0.1312668E+00
        -11   -1    0    0    0    0  0.00000000000E+00  0.00000000000E+00  0.45593999997E+02  0.45594000000E+02  0.51100000000E-03 0. -1.
         11   -1    0    0    0    0 -0.00000000000E+00 -0.00000000000E+00 -0.45593999997E+02  0.45594000000E+02  0.51100000000E-03 0.  1.
    9900012    2    1    2    0    0 -0.36627917174E+02  0.12550454706E+02  0.19608807147E+02  0.47787267892E+02  0.19999985627E+02 0.  0.
        -12    1    1    2    0    0  0.36627917174E+02 -0.12550454706E+02 -0.19608807147E+02  0.43400732108E+02  0.00000000000E+00 0.  1.
         11    1    3    3    0    0  0.99133315737E+00  0.22046778105E+01 -0.15694716588E-01  0.24173523248E+01  0.51100000000E-03 0.  1.
        -11    1    3    3    0    0 -0.24414693159E+02  0.11576278437E+02  0.93443450387E+01  0.28590282422E+02  0.51100000000E-03 0. -1.
         12    1    3    3    0    0 -0.13204557172E+02 -0.12305015417E+01  0.10280156824E+02  0.16779633145E+02  0.00000000000E+00 0. -1.
</event>
<event>
 7    1  0.3221417E-010  0.4778726E+02  0.7816164E-02  0.1312668E+00
        -11   -1    0    0    0    0  0.00000000000E+00  0.00000000000E+00  0.45593999997E+02  0.45594000000E+02  0.51100000000E-03 0.  1.
         11   -1    0    0    0    0 -0.00000000000E+00 -0.00000000000E+00 -0.45593999997E+02  0.45594000000E+02  0.51100000000E-03 0. -1.
    9900012    2    1    2    0    0 -0.38567922888E+02  0.43716964189E+01  0.19417211560E+02  0.47787256801E+02  0.19999935059E+02 0.  0.
        -12    1    1    2    0    0  0.38567922888E+02 -0.43716964189E+01 -0.19417211560E+02  0.43400743199E+02  0.00000000000E+00 0.  1.
         11    1    3    3    0    0 -0.15295184532E+02  0.96960998768E+01  0.11238902273E+02  0.21313609438E+02  0.51100000000E-03 0. -1.
        -11    1    3    3    0    0 -0.20412815521E+02 -0.17697011296E+01  0.56342988634E+01  0.21249945965E+02  0.51100000000E-03 0.  1.
        -12    1    3    3    0    0 -0.28599228341E+01 -0.35547023283E+01  0.25440104232E+01  0.52237013978E+01  0.00000000000E+00 0.  1.
</event>
<event>
 7    1  0.3221417E-010  0.4778727E+02  0.7816164E-02  0.1312668E+00
        -11   -1    0    0    0    0  0.00000000000E+00  0.00000000000E+00  0.45593999997E+02  0.45594000000E+02  0.51100000000E-03 0. -1.
         11   -1    0    0    0    0 -0.00000000000E+00 -0.00000000000E+00 -0.45593999997E+02  0.45594000000E+02  0.51100000000E-03 0.  1.
    9900012    2    1    2    0    0 -0.14383165002E+02  0.40343534924E+02  0.70104744448E+01  0.47787274227E+02  0.20000014512E+02 0.  0.
        -12    1    1    2    0    0  0.14383165002E+02 -0.40343534924E+02 -0.70104744448E+01  0.43400725773E+02  0.00000000000E+00 0.  1.
         11    1    3    3    0    0 -0.12876040734E+02  0.33046268354E+02  0.17280384423E+01  0.35508229950E+02  0.51100000000E-03 0. -1.
        -11    1    3    3    0    0  0.15207326742E+01  0.77280789738E+01  0.28668970259E+01  0.83818214793E+01  0.51100000000E-03 0.  1.
         12    1    3    3    0    0 -0.30278569417E+01 -0.43081240326E+00  0.24155389766E+01  0.38972227976E+01  0.00000000000E+00 0. -1.
</event>
<event>
 7    1  0.3221417E-010  0.4778727E+02  0.7816164E-02  0.1312668E+00
        -11   -1    0    0    0    0  0.00000000000E+00  0.00000000000E+00  0.45593999997E+02  0.45594000000E+02  0.51100000000E-03 0. -1.
         11   -1    0    0    0    0 -0.00000000000E+00 -0.00000000000E+00 -0.45593999997E+02  0.45594000000E+02  0.51100000000E-03 0.  1.
    9900012    2    1    2    0    0 -0.12404660533E+01 -0.23546221250E+02 -0.36437069560E+02  0.47787270405E+02  0.19999997086E+02 0.  0.
         12    1    1    2    0    0  0.12404660533E+01  0.23546221250E+02  0.36437069560E+02  0.43400729595E+02  0.00000000000E+00 0. -1.
         11    1    3    3    0    0  0.46172206286E+01 -0.48961477800E+01 -0.28662085085E+01  0.73147891898E+01  0.51100000000E-03 0. -1.
        -11    1    3    3    0    0 -0.17538770974E+01 -0.16732815168E+02 -0.19837058955E+02  0.26010999530E+02  0.51100000000E-03 0.  1.
        -12    1    3    3    0    0 -0.41038095845E+01 -0.19172583028E+01 -0.13733802096E+02  0.14461481685E+02  0.00000000000E+00 0.  1.
</event>
<event>
 7    1  0.3221417E-010  0.4778727E+02  0.7816164E-02  0.1312668E+00
        -11   -1    0    0    0    0  0.00000000000E+00  0.00000000000E+00  0.45593999997E+02  0.45594000000E+02  0.51100000000E-03 0. -1.
         11   -1    0    0    0    0 -0.00000000000E+00 -0.00000000000E+00 -0.45593999997E+02  0.45594000000E+02  0.51100000000E-03 0.  1.
    9900012    2    1    2    0    0  0.11892699245E+02  0.18074787489E+02 -0.37622983004E+02  0.47787273184E+02  0.20000009753E+02 0.  0.
         12    1    1    2    0    0 -0.11892699245E+02 -0.18074787489E+02  0.37622983004E+02  0.43400726816E+02  0.00000000000E+00 0. -1.
         11    1    3    3    0    0 -0.52574181847E+00  0.75865557280E+01 -0.21861696857E+02  0.23146620099E+02  0.51100000000E-03 0. -1.
        -11    1    3    3    0    0  0.81510166432E+01  0.31436153676E+01 -0.13087436725E+02  0.15735386560E+02  0.51100000000E-03 0.  1.
         12    1    3    3    0    0  0.42674244198E+01  0.73446163933E+01 -0.26738494213E+01  0.89052665245E+01  0.00000000000E+00 0. -1.
</event>
<event>
 7    1  0.3221417E-010  0.4778727E+02  0.7816164E-02  0.1312668E+00
        -11   -1    0    0    0    0  0.00000000000E+00  0.00000000000E+00  0.45593999997E+02  0.45594000000E+02  0.51100000000E-03 0. -1.
         11   -1    0    0    0    0 -0.00000000000E+00 -0.00000000000E+00 -0.45593999997E+02  0.45594000000E+02  0.51100000000E-03 0.  1.
    9900012    2    1    2    0    0 -0.59969126303E+01  0.27330203383E+02 -0.33177103385E+02  0.47787272275E+02  0.20000005610E+02 0.  0.
         12    1    1    2    0    0  0.59969126303E+01 -0.27330203383E+02  0.33177103385E+02  0.43400727725E+02  0.00000000000E+00 0. -1.
         11    1    3    3    0    0 -0.75201494995E+01  0.33456925611E+01 -0.80918362158E+01  0.11542275374E+02  0.51100000000E-03 0. -1.
        -11    1    3    3    0    0 -0.34434995802E+00  0.42052300420E+01 -0.11304200930E+02  0.12065964343E+02  0.51100000000E-03 0.  1.
        -12    1    3    3    0    0  0.18675868272E+01  0.19779280780E+02 -0.13781066239E+02  0.24179032558E+02  0.00000000000E+00 0.  1.
</event>
<event>
 7    1  0.3221417E-010  0.4778727E+02  0.7816164E-02  0.1312668E+00
        -11   -1    0    0    0    0  0.00000000000E+00  0.00000000000E+00  0.45593999997E+02  0.45594000000E+02  0.51100000000E-03 0. -1.
         11   -1    0    0    0    0 -0.00000000000E+00 -0.00000000000E+00 -0.45593999997E+02  0.45594000000E+02  0.51100000000E-03 0.  1.
    9900012    2    1    2    0    0 -0.20302160272E+02  0.72258418762E+01  0.37672710591E+02  0.47787266990E+02  0.19999981514E+02 0.  0.
        -12    1    1    2    0    0  0.20302160272E+02 -0.72258418762E+01 -0.37672710591E+02  0.43400733010E+02  0.00000000000E+00 0.  1.
         11    1    3    3    0    0  0.86657072592E+00  0.36660892112E+01  0.45741104571E+01  0.59256764730E+01  0.51100000000E-03 0. -1.
        -11    1    3    3    0    0 -0.84749053367E+01  0.84968111300E+01  0.14961948700E+02  0.19180191058E+02  0.51100000000E-03 0.  1.
         12    1    3    3    0    0 -0.12693825662E+02 -0.49370584650E+01  0.18136651434E+02  0.22681399459E+02  0.00000000000E+00 0. -1.
</event>
<event>
 7    1  0.3221417E-010  0.4778727E+02  0.7816164E-02  0.1312668E+00
        -11   -1    0    0    0    0  0.00000000000E+00  0.00000000000E+00  0.45593999997E+02  0.45594000000E+02  0.51100000000E-03 0. -1.
         11   -1    0    0    0    0 -0.00000000000E+00 -0.00000000000E+00 -0.45593999997E+02  0.45594000000E+02  0.51100000000E-03 0.  1.
    9900012    2    1    2    0    0 -0.25450117425E+01 -0.35779904496E+02 -0.24432451817E+02  0.47787270141E+02  0.19999995880E+02 0.  0.
         12    1    1    2    0    0  0.25450117425E+01  0.35779904496E+02  0.24432451817E+02  0.43400729859E+02  0.00000000000E+00 0. -1.
         11    1    3    3    0    0  0.50481711564E+01 -0.31532953382E+01 -0.35548236721E+01  0.69328259112E+01  0.51100000000E-03 0. -1.
        -11    1    3    3    0    0 -0.27975717034E+01 -0.17733018655E+02 -0.17022957929E+02  0.24739997069E+02  0.51100000000E-03 0.  1.
        -12    1    3    3    0    0 -0.47956111955E+01 -0.14893590503E+02 -0.38546702151E+01  0.16114447161E+02  0.00000000000E+00 0.  1.
</event>
<event>
 7    1  0.3221417E-010  0.4778727E+02  0.7816164E-02  0.1312668E+00
        -11   -1    0    0    0    0  0.00000000000E+00  0.00000000000E+00  0.45593999997E+02  0.45594000000E+02  0.51100000000E-03 0. -1.
         11   -1    0    0    0    0 -0.00000000000E+00 -0.00000000000E+00 -0.45593999997E+02  0.45594000000E+02  0.51100000000E-03 0.  1.
    9900012    2    1    2    0    0  0.34259612764E+01  0.95882063600E+01  0.42189482408E+02  0.47787270309E+02  0.19999996646E+02 0.  0.
        -12    1    1    2    0    0 -0.34259612764E+01 -0.95882063600E+01 -0.42189482408E+02  0.43400729691E+02  0.00000000000E+00 0.  1.
         11    1    3    3    0    0 -0.26861598764E+00  0.55329447861E+01  0.17037146328E+02  0.17915077109E+02  0.51100000000E-03 0. -1.
        -11    1    3    3    0    0 -0.85928408977E+00 -0.99624348799E+00 -0.17126789483E+01  0.21596619354E+01  0.51100000000E-03 0.  1.
        -12    1    3    3    0    0  0.45538613538E+01  0.50515050620E+01  0.26865015029E+02  0.27712531265E+02  0.00000000000E+00 0.  1.
</event>
<event>
 7    1  0.3221417E-010  0.4778727E+02  0.7816164E-02  0.1312668E+00
        -11   -1    0    0    0    0  0.00000000000E+00  0.00000000000E+00  0.45593999997E+02  0.45594000000E+02  0.51100000000E-03 0. -1.
         11   -1    0    0    0    0 -0.00000000000E+00 -0.00000000000E+00 -0.45593999997E+02  0.45594000000E+02  0.51100000000E-03 0.  1.
    9900012    2    1    2    0    0 -0.34743873752E+02 -0.26006994302E+02 -0.35007033826E+00  0.47787273449E+02  0.20000010962E+02 0.  0.
         12    1    1    2    0    0  0.34743873752E+02  0.26006994302E+02  0.35007033826E+00  0.43400726551E+02  0.00000000000E+00 0. -1.
         11    1    3    3    0    0 -0.38854000434E+01 -0.71622195307E+01 -0.31805210071E+01  0.87469672596E+01  0.51100000000E-03 0. -1.
        -11    1    3    3    0    0 -0.16736229535E+02 -0.15787128891E+02 -0.34872683430E+01  0.23270063568E+02  0.51100000000E-03 0.  1.
         12    1    3    3    0    0 -0.14122244174E+02 -0.30576458798E+01  0.63177190118E+01  0.15770242621E+02  0.00000000000E+00 0. -1.
</event>
<event>
 7    1  0.3221417E-010  0.4778727E+02  0.7816164E-02  0.1312668E+00
        -11   -1    0    0    0    0  0.00000000000E+00  0.00000000000E+00  0.45593999997E+02  0.45594000000E+02  0.51100000000E-03 0. -1.
         11   -1    0    0    0    0 -0.00000000000E+00 -0.00000000000E+00 -0.45593999997E+02  0.45594000000E+02  0.51100000000E-03 0.  1.
    9900012    2    1    2    0    0 -0.28190307573E+02 -0.29833035252E+01 -0.32863800798E+02  0.47787274846E+02  0.20000017331E+02 0.  0.
         12    1    1    2    0    0  0.28190307573E+02  0.29833035252E+01  0.32863800798E+02  0.43400725154E+02  0.00000000000E+00 0. -1.
         11    1    3    3    0    0 -0.57540077835E+01  0.43700195445E+01 -0.29865248010E+01  0.78182483358E+01  0.51100000000E-03 0. -1.
        -11    1    3    3    0    0 -0.18832665989E+02 -0.72009275079E+00 -0.23204156063E+02  0.29893489269E+02  0.51100000000E-03 0.  1.
        -12    1    3    3    0    0 -0.36036338010E+01 -0.66332303189E+01 -0.66731199343E+01  0.10075537241E+02  0.00000000000E+00 0.  1.
</event>
<event>
 7    1  0.3221417E-010  0.4778727E+02  0.7816164E-02  0.1312668E+00
        -11   -1    0    0    0    0  0.00000000000E+00  0.00000000000E+00  0.45593999997E+02  0.45594000000E+02  0.51100000000E-03 0. -1.
         11   -1    0    0    0    0 -0.00000000000E+00 -0.00000000000E+00 -0.45593999997E+02  0.45594000000E+02  0.51100000000E-03 0.  1.
    9900012    2    1    2    0    0 -0.27752213654E+02  0.36226266573E+01  0.33170986466E+02  0.47787272705E+02  0.20000007571E+02 0.  0.
        -12    1    1    2    0    0  0.27752213654E+02 -0.36226266573E+01 -0.33170986466E+02  0.43400727295E+02  0.00000000000E+00 0.  1.
         11    1    3    3    0    0 -0.97205987186E+01  0.15883454896E+01  0.17886105293E+02  0.20418757152E+02  0.51100000000E-03 0. -1.
        -11    1    3    3    0    0 -0.17116876936E+02 -0.23774889523E+01  0.85892010216E+01  0.19298038870E+02  0.51100000000E-03 0.  1.
         12    1    3    3    0    0 -0.91473799967E+00  0.44117701200E+01  0.66956801518E+01  0.80704766833E+01  0.00000000000E+00 0. -1.
</event>
<event>
 7    1  0.3221417E-010  0.4778726E+02  0.7816164E-02  0.1312668E+00
        -11   -1    0    0    0    0  0.00000000000E+00  0.00000000000E+00  0.45593999997E+02  0.45594000000E+02  0.51100000000E-03 0. -1.
         11   -1    0    0    0    0 -0.00000000000E+00 -0.00000000000E+00 -0.45593999997E+02  0.45594000000E+02  0.51100000000E-03 0.  1.
    9900012    2    1    2    0    0 -0.40363152339E+02 -0.98565182718E+01 -0.12541499244E+02  0.47787260116E+02  0.19999950174E+02 0.  0.
         12    1    1    2    0    0  0.40363152339E+02  0.98565182718E+01  0.12541499244E+02  0.43400739884E+02  0.00000000000E+00 0. -1.
         11    1    3    3    0    0 -0.13444998047E+02  0.73589873386E+00 -0.86716729913E+01  0.16015849405E+02  0.51100000000E-03 0. -1.
        -11    1    3    3    0    0 -0.57556467416E+01  0.11678132104E+00  0.37371529514E+01  0.68634845184E+01  0.51100000000E-03 0.  1.
        -12    1    3    3    0    0 -0.21162507550E+02 -0.10709198327E+02 -0.76069792041E+01  0.24907926193E+02  0.00000000000E+00 0.  1.
</event>
<event>
 7    1  0.3221417E-010  0.4778724E+02  0.7816164E-02  0.1312668E+00
        -11   -1    0    0    0    0  0.00000000000E+00  0.00000000000E+00  0.45593999997E+02  0.45594000000E+02  0.51100000000E-03 0. -1.
         11   -1    0    0    0    0 -0.00000000000E+00 -0.00000000000E+00 -0.45593999997E+02  0.45594000000E+02  0.51100000000E-03 0.  1.
    9900012    2    1    2    0    0  0.20708325691E+01  0.28403057383E+01 -0.43258178003E+02  0.47787243689E+02  0.19999875276E+02 0.  0.
         12    1    1    2    0    0 -0.20708325691E+01 -0.28403057383E+01  0.43258178003E+02  0.43400756311E+02  0.00000000000E+00 0. -1.
         11    1    3    3    0    0  0.71432321914E+01  0.12542367719E+01 -0.15991018114E+02  0.17558802254E+02  0.51100000000E-03 0. -1.
        -11    1    3    3    0    0 -0.52704934527E+01  0.61810526715E+01 -0.13990124669E+02  0.16177363873E+02  0.51100000000E-03 0.  1.
         12    1    3    3    0    0  0.19809383044E+00 -0.45949837051E+01 -0.13277035220E+02  0.14051077562E+02  0.00000000000E+00 0. -1.
</event>
<event>
 7    1  0.3221417E-010  0.4778726E+02  0.7816164E-02  0.1312668E+00
        -11   -1    0    0    0    0  0.00000000000E+00  0.00000000000E+00  0.45593999997E+02  0.45594000000E+02  0.51100000000E-03 0. -1.
         11   -1    0    0    0    0 -0.00000000000E+00 -0.00000000000E+00 -0.45593999997E+02  0.45594000000E+02  0.51100000000E-03 0.  1.
    9900012    2    1    2    0    0  0.34283944404E+02 -0.20216109059E+02 -0.17307351937E+02  0.47787258756E+02  0.19999943974E+02 0.  0.
         12    1    1    2    0    0 -0.34283944404E+02  0.20216109059E+02  0.17307351937E+02  0.43400741244E+02  0.00000000000E+00 0. -1.
         11    1    3    3    0    0  0.11196305939E+02  0.46923032488E+00 -0.90336416011E+01  0.14393891920E+02  0.51100000000E-03 0. -1.
        -11    1    3    3    0    0  0.14148078906E+01 -0.42404273963E+01  0.11256702556E+01  0.46097765300E+01  0.51100000000E-03 0.  1.
        -12    1    3    3    0    0  0.21672830575E+02 -0.16444911988E+02 -0.93993805920E+01  0.28783590306E+02  0.00000000000E+00 0.  1.
</event>
<event>
 7    1  0.3221417E-010  0.4778727E+02  0.7816164E-02  0.1312668E+00
        -11   -1    0    0    0    0  0.00000000000E+00  0.00000000000E+00  0.45593999997E+02  0.45594000000E+02  0.51100000000E-03 0. -1.
         11   -1    0    0    0    0 -0.00000000000E+00 -0.00000000000E+00 -0.45593999997E+02  0.45594000000E+02  0.51100000000E-03 0.  1.
    9900012    2    1    2    0    0 -0.22308323001E+02  0.29394431164E+00  0.37227349276E+02  0.47787271752E+02  0.20000003226E+02 0.  0.
        -12    1    1    2    0    0  0.22308323001E+02 -0.29394431164E+00 -0.37227349276E+02  0.43400728248E+02  0.00000000000E+00 0.  1.
         11    1    3    3    0    0 -0.15756056493E+02 -0.16754095049E+01  0.10388367185E+02  0.18946727587E+02  0.51100000000E-03 0. -1.
        -11    1    3    3    0    0 -0.79148606933E+01  0.30652835589E-01  0.17518048418E+02  0.19223110571E+02  0.51100000000E-03 0.  1.
        -12    1    3    3    0    0  0.13625941856E+01  0.19387009809E+01  0.93209336728E+01  0.96174335943E+01  0.00000000000E+00 0.  1.
</event>
<event>
 7    1  0.3221417E-010  0.4778727E+02  0.7816164E-02  0.1312668E+00
        -11   -1    0    0    0    0  0.00000000000E+00  0.00000000000E+00  0.45593999997E+02  0.45594000000E+02  0.51100000000E-03 0. -1.
         11   -1    0    0    0    0 -0.00000000000E+00 -0.00000000000E+00 -0.45593999997E+02  0.45594000000E+02  0.51100000000E-03 0.  1.
    9900012    2    1    2    0    0 -0.20850088631E+02 -0.13308707709E+02  0.35661960891E+02  0.47787270151E+02  0.19999995928E+02 0.  0.
        -12    1    1    2    0    0  0.20850088631E+02  0.13308707709E+02 -0.35661960891E+02  0.43400729849E+02  0.00000000000E+00 0.  1.
         11    1    3    3    0    0 -0.28290577456E+00  0.16531726467E+01 -0.13389086347E+01  0.21460876194E+01  0.51100000000E-03 0.  1.
        -11    1    3    3    0    0 -0.12036713761E+02 -0.36989335702E+01  0.17267700319E+02  0.21371430984E+02  0.51100000000E-03 0. -1.
         12    1    3    3    0    0 -0.85304690957E+01 -0.11262946785E+02  0.19733169207E+02  0.24269751548E+02  0.00000000000E+00 0. -1.
</event>
<event>
 7    1  0.3221417E-010  0.4778725E+02  0.7816164E-02  0.1312668E+00
        -11   -1    0    0    0    0  0.00000000000E+00  0.00000000000E+00  0.45593999997E+02  0.45594000000E+02  0.51100000000E-03 0.  1.
         11   -1    0    0    0    0 -0.00000000000E+00 -0.00000000000E+00 -0.45593999997E+02  0.45594000000E+02  0.51100000000E-03 0. -1.
    9900012    2    1    2    0    0  0.39433352016E+02  0.14214876843E+02 -0.11250457565E+02  0.47787253805E+02  0.19999921397E+02 0.  0.
         12    1    1    2    0    0 -0.39433352016E+02 -0.14214876843E+02  0.11250457565E+02  0.43400746195E+02  0.00000000000E+00 0. -1.
         11    1    3    3    0    0  0.42944254562E+00 -0.31996413650E+01 -0.38273057928E+00  0.32509396675E+01  0.51100000000E-03 0. -1.
        -11    1    3    3    0    0  0.22877791623E+02  0.68564488887E+01 -0.68638643222E+01  0.24849886812E+02  0.51100000000E-03 0.  1.
        -12    1    3    3    0    0  0.16126117848E+02  0.10558069319E+02 -0.40038626638E+01  0.19686427325E+02  0.00000000000E+00 0.  1.
</event>
<event>
 7    1  0.3221417E-010  0.4778727E+02  0.7816164E-02  0.1312668E+00
        -11   -1    0    0    0    0  0.00000000000E+00  0.00000000000E+00  0.45593999997E+02  0.45594000000E+02  0.51100000000E-03 0. -1.
         11   -1    0    0    0    0 -0.00000000000E+00 -0.00000000000E+00 -0.45593999997E+02  0.45594000000E+02  0.51100000000E-03 0.  1.
    9900012    2    1    2    0    0  0.18513401278E+02 -0.23765008284E+02 -0.31242623347E+02  0.47787272366E+02  0.20000006024E+02 0.  0.
         12    1    1    2    0    0 -0.18513401278E+02  0.23765008284E+02  0.31242623347E+02  0.43400727634E+02  0.00000000000E+00 0. -1.
         11    1    3    3    0    0  0.20460547254E+02 -0.12468895743E+02 -0.19026110278E+02  0.30595755057E+02  0.51100000000E-03 0. -1.
        -11    1    3    3    0    0  0.36949673593E+00 -0.60908912922E+01 -0.81968373427E+01  0.10218787954E+02  0.51100000000E-03 0.  1.
         12    1    3    3    0    0 -0.23166427118E+01 -0.52052212486E+01 -0.40196757261E+01  0.69727293540E+01  0.00000000000E+00 0. -1.
</event>
<event>
 7    1  0.3221417E-010  0.4778727E+02  0.7816164E-02  0.1312668E+00
        -11   -1    0    0    0    0  0.00000000000E+00  0.00000000000E+00  0.45593999997E+02  0.45594000000E+02  0.51100000000E-03 0. -1.
         11   -1    0    0    0    0 -0.00000000000E+00 -0.00000000000E+00 -0.45593999997E+02  0.45594000000E+02  0.51100000000E-03 0.  1.
    9900012    2    1    2    0    0 -0.20158395608E+01 -0.20900822880E+02 -0.37983092301E+02  0.47787270663E+02  0.19999998262E+02 0.  0.
         12    1    1    2    0    0  0.20158395608E+01  0.20900822880E+02  0.37983092301E+02  0.43400729337E+02  0.00000000000E+00 0. -1.
         11    1    3    3    0    0 -0.34408631655E+01 -0.64585599819E+00 -0.29058707453E+01  0.45498081656E+01  0.51100000000E-03 0. -1.
        -11    1    3    3    0    0  0.16488180063E+01 -0.22717075861E+02 -0.32242693808E+02  0.39476264270E+02  0.51100000000E-03 0.  1.
        -12    1    3    3    0    0 -0.22379440156E+00  0.24621089783E+01 -0.28345277479E+01  0.37611982278E+01  0.00000000000E+00 0.  1.
</event>
<event>
 7    1  0.3221417E-010  0.4778728E+02  0.7816164E-02  0.1312668E+00
        -11   -1    0    0    0    0  0.00000000000E+00  0.00000000000E+00  0.45593999997E+02  0.45594000000E+02  0.51100000000E-03 0. -1.
         11   -1    0    0    0    0 -0.00000000000E+00 -0.00000000000E+00 -0.45593999997E+02  0.45594000000E+02  0.51100000000E-03 0.  1.
    9900012    2    1    2    0    0 -0.31902611189E+02  0.17558169203E+02  0.23612645224E+02  0.47787275110E+02  0.20000018538E+02 0.  0.
        -12    1    1    2    0    0  0.31902611189E+02 -0.17558169203E+02 -0.23612645224E+02  0.43400724890E+02  0.00000000000E+00 0.  1.
         11    1    3    3    0    0 -0.11821531292E+02  0.94108018659E+01  0.26370198281E+01  0.15338372393E+02  0.51100000000E-03 0. -1.
        -11    1    3    3    0    0 -0.20458429966E+02  0.47839766066E+01  0.15900691546E+02  0.26348923712E+02  0.51100000000E-03 0.  1.
         12    1    3    3    0    0  0.37735006885E+00  0.33633907307E+01  0.50749338501E+01  0.60999790053E+01  0.00000000000E+00 0. -1.
</event>
<event>
 7    1  0.3221417E-010  0.4778728E+02  0.7816164E-02  0.1312668E+00
        -11   -1    0    0    0    0  0.00000000000E+00  0.00000000000E+00  0.45593999997E+02  0.45594000000E+02  0.51100000000E-03 0. -1.
         11   -1    0    0    0    0 -0.00000000000E+00 -0.00000000000E+00 -0.45593999997E+02  0.45594000000E+02  0.51100000000E-03 0.  1.
    9900012    2    1    2    0    0  0.77644994582E+01 -0.10946032810E+02 -0.41273718044E+02  0.47787275498E+02  0.20000020307E+02 0.  0.
         12    1    1    2    0    0 -0.77644994582E+01  0.10946032810E+02  0.41273718044E+02  0.43400724502E+02  0.00000000000E+00 0. -1.
         11    1    3    3    0    0  0.13893357450E+01  0.22111658986E+01  0.53784907243E+00  0.26662314845E+01  0.51100000000E-03 0. -1.
        -11    1    3    3    0    0  0.41857232121E+01 -0.26721255592E+01 -0.22464273303E+02  0.23006610118E+02  0.51100000000E-03 0.  1.
        -12    1    3    3    0    0  0.21894405012E+01 -0.10485073150E+02 -0.19347293813E+02  0.22114433896E+02  0.00000000000E+00 0.  1.
</event>
<event>
 7    1  0.3221417E-010  0.4778729E+02  0.7816164E-02  0.1312668E+00
        -11   -1    0    0    0    0  0.00000000000E+00  0.00000000000E+00  0.45593999997E+02  0.45594000000E+02  0.51100000000E-03 0. -1.
         11   -1    0    0    0    0 -0.00000000000E+00 -0.00000000000E+00 -0.45593999997E+02  0.45594000000E+02  0.51100000000E-03 0.  1.
    9900012    2    1    2    0    0 -0.20716843680E+02  0.16462443005E+02  0.34400906802E+02  0.47787285368E+02  0.20000065306E+02 0.  0.
        -12    1    1    2    0    0  0.20716843680E+02 -0.16462443005E+02 -0.34400906802E+02  0.43400714632E+02  0.00000000000E+00 0.  1.
         11    1    3    3    0    0  0.22760550078E+01  0.40855757286E+01  0.92317886155E+00  0.47670341833E+01  0.51100000000E-03 0.  1.
        -11    1    3    3    0    0 -0.10667422750E+02  0.18869900659E+01  0.13351371345E+02  0.17193421901E+02  0.51100000000E-03 0. -1.
        -12    1    3    3    0    0 -0.12325475938E+02  0.10489877211E+02  0.20126356596E+02  0.25826829283E+02  0.00000000000E+00 0.  1.
</event>
<event>
 7    1  0.3221417E-010  0.4778728E+02  0.7816164E-02  0.1312668E+00
        -11   -1    0    0    0    0  0.00000000000E+00  0.00000000000E+00  0.45593999997E+02  0.45594000000E+02  0.51100000000E-03 0.  1.
         11   -1    0    0    0    0 -0.00000000000E+00 -0.00000000000E+00 -0.45593999997E+02  0.45594000000E+02  0.51100000000E-03 0. -1.
    9900012    2    1    2    0    0  0.63632917005E+01  0.40399580186E+02  0.14526022597E+02  0.47787275433E+02  0.20000020008E+02 0.  0.
         12    1    1    2    0    0 -0.63632917005E+01 -0.40399580186E+02 -0.14526022597E+02  0.43400724567E+02  0.00000000000E+00 0. -1.
         11    1    3    3    0    0  0.80046851174E+00 -0.13622382911E+01  0.58259256213E+00  0.16840004022E+01  0.51100000000E-03 0. -1.
        -11    1    3    3    0    0 -0.10449051764E+01  0.11301378402E+02  0.91275528743E+01  0.14564518610E+02  0.51100000000E-03 0.  1.
         12    1    3    3    0    0  0.66077283651E+01  0.30460440075E+02  0.48158771602E+01  0.31538756421E+02  0.00000000000E+00 0. -1.
</event>
<event>
 7    1  0.3221417E-010  0.4778727E+02  0.7816164E-02  0.1312668E+00
        -11   -1    0    0    0    0  0.00000000000E+00  0.00000000000E+00  0.45593999997E+02  0.45594000000E+02  0.51100000000E-03 0. -1.
         11   -1    0    0    0    0 -0.00000000000E+00 -0.00000000000E+00 -0.45593999997E+02  0.45594000000E+02  0.51100000000E-03 0.  1.
    9900012    2    1    2    0    0  0.11089317074E+02  0.49900674468E+00 -0.41957141676E+02  0.47787266152E+02  0.19999977694E+02 0.  0.
         12    1    1    2    0    0 -0.11089317074E+02 -0.49900674468E+00  0.41957141676E+02  0.43400733848E+02  0.00000000000E+00 0. -1.
         11    1    3    3    0    0  0.50970011959E+01  0.15906387665E+01 -0.97829461837E+01  0.11145204761E+02  0.51100000000E-03 0. -1.
        -11    1    3    3    0    0  0.67292440209E+01  0.67869126126E+01 -0.19149794202E+02  0.21402325251E+02  0.51100000000E-03 0.  1.
         12    1    3    3    0    0 -0.73692814266E+00 -0.78785446345E+01 -0.13024401290E+02  0.15239736140E+02  0.00000000000E+00 0. -1.
</event>
<event>
 7    1  0.3221417E-010  0.4778727E+02  0.7816164E-02  0.1312668E+00
        -11   -1    0    0    0    0  0.00000000000E+00  0.00000000000E+00  0.45593999997E+02  0.45594000000E+02  0.51100000000E-03 0. -1.
         11   -1    0    0    0    0 -0.00000000000E+00 -0.00000000000E+00 -0.45593999997E+02  0.45594000000E+02  0.51100000000E-03 0.  1.
    9900012    2    1    2    0    0  0.34806540494E+01 -0.50470074400E+01  0.42965519268E+02  0.47787273247E+02  0.20000010044E+02 0.  0.
        -12    1    1    2    0    0 -0.34806540494E+01  0.50470074400E+01 -0.42965519268E+02  0.43400726753E+02  0.00000000000E+00 0.  1.
         11    1    3    3    0    0  0.40472255499E+01  0.11226856694E+01  0.74899436392E+01  0.85871831088E+01  0.51100000000E-03 0. -1.
        -11    1    3    3    0    0 -0.71904253181E+01 -0.16619399747E+01  0.24656440703E+02  0.25737216810E+02  0.51100000000E-03 0.  1.
         12    1    3    3    0    0  0.66238538176E+01 -0.45077531348E+01  0.10819134925E+02  0.13462873328E+02  0.00000000000E+00 0. -1.
</event>
<event>
 7    1  0.3221417E-010  0.4778727E+02  0.7816164E-02  0.1312668E+00
        -11   -1    0    0    0    0  0.00000000000E+00  0.00000000000E+00  0.45593999997E+02  0.45594000000E+02  0.51100000000E-03 0. -1.
         11   -1    0    0    0    0 -0.00000000000E+00 -0.00000000000E+00 -0.45593999997E+02  0.45594000000E+02  0.51100000000E-03 0.  1.
    9900012    2    1    2    0    0 -0.11569634901E+02 -0.19945443135E+00 -0.41829741788E+02  0.47787268072E+02  0.19999986448E+02 0.  0.
         12    1    1    2    0    0  0.11569634901E+02  0.19945443135E+00  0.41829741788E+02  0.43400731928E+02  0.00000000000E+00 0. -1.
         11    1    3    3    0    0 -0.87189077042E+01 -0.55823000352E+01 -0.32030404375E+02  0.33661970083E+02  0.51100000000E-03 0. -1.
        -11    1    3    3    0    0 -0.38459688902E+01  0.42617555168E+01 -0.10863435520E+02  0.12286914517E+02  0.51100000000E-03 0.  1.
         12    1    3    3    0    0  0.99524169363E+00  0.11210900870E+01  0.10640981059E+01  0.18383834722E+01  0.00000000000E+00 0. -1.
</event>
<event>
 7    1  0.3221417E-010  0.4778727E+02  0.7816164E-02  0.1312668E+00
        -11   -1    0    0    0    0  0.00000000000E+00  0.00000000000E+00  0.45593999997E+02  0.45594000000E+02  0.51100000000E-03 0. -1.
         11   -1    0    0    0    0 -0.00000000000E+00 -0.00000000000E+00 -0.45593999997E+02  0.45594000000E+02  0.51100000000E-03 0.  1.
    9900012    2    1    2    0    0 -0.13796055904E+01  0.17352559955E+02 -0.39756868131E+02  0.47787271755E+02  0.20000003241E+02 0.  0.
         12    1    1    2    0    0  0.13796055904E+01 -0.17352559955E+02  0.39756868131E+02  0.43400728245E+02  0.00000000000E+00 0. -1.
         11    1    3    3    0    0 -0.42486354127E+01  0.15562793869E+02 -0.31777631056E+02  0.35638031534E+02  0.51100000000E-03 0. -1.
        -11    1    3    3    0    0 -0.21184803554E+01  0.13288304099E+00  0.49316355562E+00  0.21791804589E+01  0.51100000000E-03 0.  1.
        -12    1    3    3    0    0  0.49875101777E+01  0.16568830448E+01 -0.84724006314E+01  0.99700597619E+01  0.00000000000E+00 0.  1.
</event>
<event>
 7    1  0.3221417E-010  0.4778727E+02  0.7816164E-02  0.1312668E+00
        -11   -1    0    0    0    0  0.00000000000E+00  0.00000000000E+00  0.45593999997E+02  0.45594000000E+02  0.51100000000E-03 0. -1.
         11   -1    0    0    0    0 -0.00000000000E+00 -0.00000000000E+00 -0.45593999997E+02  0.45594000000E+02  0.51100000000E-03 0.  1.
    9900012    2    1    2    0    0 -0.57693313547E+01 -0.24834748686E+02 -0.35122262855E+02  0.47787271036E+02  0.19999999961E+02 0.  0.
         12    1    1    2    0    0  0.57693313547E+01  0.24834748686E+02  0.35122262855E+02  0.43400728964E+02  0.00000000000E+00 0. -1.
         11    1    3    3    0    0 -0.12282124121E+01 -0.95769608098E+01 -0.27291111706E+02  0.28948773074E+02  0.51100000000E-03 0. -1.
        -11    1    3    3    0    0 -0.48782382307E+01 -0.55813713030E+01 -0.40245287132E+01  0.84347937427E+01  0.51100000000E-03 0.  1.
        -12    1    3    3    0    0  0.33711928810E+00 -0.96764165730E+01 -0.38066224358E+01  0.10403704219E+02  0.00000000000E+00 0.  1.
</event>
<event>
 7    1  0.3221417E-010  0.4778726E+02  0.7816164E-02  0.1312668E+00
        -11   -1    0    0    0    0  0.00000000000E+00  0.00000000000E+00  0.45593999997E+02  0.45594000000E+02  0.51100000000E-03 0. -1.
         11   -1    0    0    0    0 -0.00000000000E+00 -0.00000000000E+00 -0.45593999997E+02  0.45594000000E+02  0.51100000000E-03 0.  1.
    9900012    2    1    2    0    0  0.19504854457E+02  0.41148666467E+01  0.38551943319E+02  0.47787264884E+02  0.19999971913E+02 0.  0.
        -12    1    1    2    0    0 -0.19504854457E+02 -0.41148666467E+01 -0.38551943319E+02  0.43400735116E+02  0.00000000000E+00 0.  1.
         11    1    3    3    0    0  0.14237652335E+02  0.27767193401E+01  0.17231983486E+02  0.22524701317E+02  0.51100000000E-03 0. -1.
        -11    1    3    3    0    0  0.83559241347E+00  0.62179218584E+01  0.64546307921E+01  0.90012791225E+01  0.51100000000E-03 0.  1.
         12    1    3    3    0    0  0.44316097085E+01 -0.48797745518E+01  0.14865329041E+02  0.16261284445E+02  0.00000000000E+00 0. -1.
</event>
<event>
 7    1  0.3221417E-010  0.4778728E+02  0.7816164E-02  0.1312668E+00
        -11   -1    0    0    0    0  0.00000000000E+00  0.00000000000E+00  0.45593999997E+02  0.45594000000E+02  0.51100000000E-03 0. -1.
         11   -1    0    0    0    0 -0.00000000000E+00 -0.00000000000E+00 -0.45593999997E+02  0.45594000000E+02  0.51100000000E-03 0.  1.
    9900012    2    1    2    0    0 -0.93418098782E+01 -0.11308019061E+02  0.40847054313E+02  0.47787279351E+02  0.20000037871E+02 0.  0.
        -12    1    1    2    0    0  0.93418098782E+01  0.11308019061E+02 -0.40847054313E+02  0.43400720649E+02  0.00000000000E+00 0.  1.
         11    1    3    3    0    0 -0.51965548338E+01 -0.28151228722E+01  0.14518290474E+02  0.15675135006E+02  0.51100000000E-03 0. -1.
        -11    1    3    3    0    0 -0.19008935517E+01 -0.71393255583E+01  0.28030112196E+02  0.28987420646E+02  0.51100000000E-03 0.  1.
        -12    1    3    3    0    0 -0.22443614927E+01 -0.13535706301E+01 -0.17013483569E+01  0.31247236985E+01  0.00000000000E+00 0.  1.
</event>
<event>
 7    1  0.3221417E-010  0.4778727E+02  0.7816164E-02  0.1312668E+00
        -11   -1    0    0    0    0  0.00000000000E+00  0.00000000000E+00  0.45593999997E+02  0.45594000000E+02  0.51100000000E-03 0. -1.
         11   -1    0    0    0    0 -0.00000000000E+00 -0.00000000000E+00 -0.45593999997E+02  0.45594000000E+02  0.51100000000E-03 0.  1.
    9900012    2    1    2    0    0 -0.11468104015E+02  0.19667475890E+02  0.36949912901E+02  0.47787273267E+02  0.20000010134E+02 0.  0.
        -12    1    1    2    0    0  0.11468104015E+02 -0.19667475890E+02 -0.36949912901E+02  0.43400726733E+02  0.00000000000E+00 0.  1.
         11    1    3    3    0    0 -0.27313216279E+01  0.66513438173E+01  0.11539176639E+02  0.13596068924E+02  0.51100000000E-03 0. -1.
        -11    1    3    3    0    0 -0.84206542013E+01 -0.76737631690E+00  0.13712462744E+02  0.16109870216E+02  0.51100000000E-03 0.  1.
        -12    1    3    3    0    0 -0.31612818609E+00  0.13783508389E+02  0.11698273517E+02  0.18081334128E+02  0.00000000000E+00 0.  1.
</event>
<event>
 7    1  0.3221417E-010  0.4778727E+02  0.7816164E-02  0.1312668E+00
        -11   -1    0    0    0    0  0.00000000000E+00  0.00000000000E+00  0.45593999997E+02  0.45594000000E+02  0.51100000000E-03 0. -1.
         11   -1    0    0    0    0 -0.00000000000E+00 -0.00000000000E+00 -0.45593999997E+02  0.45594000000E+02  0.51100000000E-03 0.  1.
    9900012    2    1    2    0    0  0.14805729978E+02  0.18088567175E+02 -0.36567984236E+02  0.47787269894E+02  0.19999994756E+02 0.  0.
         12    1    1    2    0    0 -0.14805729978E+02 -0.18088567175E+02  0.36567984236E+02  0.43400730106E+02  0.00000000000E+00 0. -1.
         11    1    3    3    0    0 -0.13466892195E+01  0.35871143203E+01 -0.15079018435E+01  0.41176120788E+01  0.51100000000E-03 0. -1.
        -11    1    3    3    0    0  0.13777012874E+02  0.63017921576E+01 -0.30346568997E+02  0.33918032347E+02  0.51100000000E-03 0.  1.
        -12    1    3    3    0    0  0.23754063226E+01  0.81996606970E+01 -0.47135133958E+01  0.97516254684E+01  0.00000000000E+00 0.  1.
</event>
<event>
 7    1  0.3221417E-010  0.4778727E+02  0.7816164E-02  0.1312668E+00
        -11   -1    0    0    0    0  0.00000000000E+00  0.00000000000E+00  0.45593999997E+02  0.45594000000E+02  0.51100000000E-03 0. -1.
         11   -1    0    0    0    0 -0.00000000000E+00 -0.00000000000E+00 -0.45593999997E+02  0.45594000000E+02  0.51100000000E-03 0.  1.
    9900012    2    1    2    0    0 -0.31395816966E+02 -0.19422407154E+02  0.22818763740E+02  0.47787271881E+02  0.20000003815E+02 0.  0.
        -12    1    1    2    0    0  0.31395816966E+02  0.19422407154E+02 -0.22818763740E+02  0.43400728119E+02  0.00000000000E+00 0.  1.
         11    1    3    3    0    0 -0.92698810689E+00  0.18057027082E+01  0.46401799008E+01  0.50646953505E+01  0.51100000000E-03 0. -1.
        -11    1    3    3    0    0 -0.17652773586E+02 -0.58924927461E+01  0.75193631700E+01  0.20071938342E+02  0.51100000000E-03 0.  1.
         12    1    3    3    0    0 -0.12816055273E+02 -0.15335617116E+02  0.10659220669E+02  0.22650638189E+02  0.00000000000E+00 0. -1.
</event>
<event>
 7    1  0.3221417E-010  0.4778727E+02  0.7816164E-02  0.1312668E+00
        -11   -1    0    0    0    0  0.00000000000E+00  0.00000000000E+00  0.45593999997E+02  0.45594000000E+02  0.51100000000E-03 0. -1.
         11   -1    0    0    0    0 -0.00000000000E+00 -0.00000000000E+00 -0.45593999997E+02  0.45594000000E+02  0.51100000000E-03 0.  1.
    9900012    2    1    2    0    0  0.64013539235E+01  0.80791615155E+01  0.42158902813E+02  0.47787271098E+02  0.20000000245E+02 0.  0.
        -12    1    1    2    0    0 -0.64013539235E+01 -0.80791615155E+01 -0.42158902813E+02  0.43400728902E+02  0.00000000000E+00 0.  1.
         11    1    3    3    0    0  0.88682348023E+01  0.27662934603E+01  0.18178204771E+02  0.20414335575E+02  0.51100000000E-03 0. -1.
        -11    1    3    3    0    0 -0.19310823796E+01  0.11259022820E+01 -0.69337263986E+00  0.23404061579E+01  0.51100000000E-03 0.  1.
         12    1    3    3    0    0 -0.53579849919E+00  0.41869657732E+01  0.24674070682E+02  0.25032529365E+02  0.00000000000E+00 0. -1.
</event>
<event>
 7    1  0.3221417E-010  0.4778727E+02  0.7816164E-02  0.1312668E+00
        -11   -1    0    0    0    0  0.00000000000E+00  0.00000000000E+00  0.45593999997E+02  0.45594000000E+02  0.51100000000E-03 0. -1.
         11   -1    0    0    0    0 -0.00000000000E+00 -0.00000000000E+00 -0.45593999997E+02  0.45594000000E+02  0.51100000000E-03 0.  1.
    9900012    2    1    2    0    0  0.19288732325E+02 -0.35530846399E+02  0.15783760675E+02  0.47787270264E+02  0.19999996441E+02 0.  0.
        -12    1    1    2    0    0 -0.19288732325E+02  0.35530846399E+02 -0.15783760675E+02  0.43400729736E+02  0.00000000000E+00 0.  1.
         11    1    3    3    0    0  0.16969440005E+02 -0.21311938940E+02  0.17582242018E+02  0.32423693036E+02  0.51100000000E-03 0.  1.
        -11    1    3    3    0    0  0.33750310794E+01 -0.66318887227E+01  0.21095889594E+00  0.74442787921E+01  0.51100000000E-03 0. -1.
        -12    1    3    3    0    0 -0.10557387589E+01 -0.75870187370E+01 -0.20094402390E+01  0.79192984359E+01  0.00000000000E+00 0.  1.
</event>
<event>
 7    1  0.3221417E-010  0.4778727E+02  0.7816164E-02  0.1312668E+00
        -11   -1    0    0    0    0  0.00000000000E+00  0.00000000000E+00  0.45593999997E+02  0.45594000000E+02  0.51100000000E-03 0. -1.
         11   -1    0    0    0    0 -0.00000000000E+00 -0.00000000000E+00 -0.45593999997E+02  0.45594000000E+02  0.51100000000E-03 0.  1.
    9900012    2    1    2    0    0 -0.41481705824E+02 -0.12716602978E+02  0.10860494877E+01  0.47787269443E+02  0.19999992701E+02 0.  0.
         12    1    1    2    0    0  0.41481705824E+02  0.12716602978E+02 -0.10860494877E+01  0.43400730557E+02  0.00000000000E+00 0. -1.
         11    1    3    3    0    0 -0.12748345777E+02 -0.27654963762E+01  0.70557698499E+01  0.14830784830E+02  0.51100000000E-03 0. -1.
        -11    1    3    3    0    0 -0.17503714286E+00  0.43478808191E+00  0.15770049220E+01  0.16451818935E+01  0.51100000000E-03 0.  1.
        -12    1    3    3    0    0 -0.28558322904E+02 -0.10385894683E+02 -0.75467252842E+01  0.31311302720E+02  0.00000000000E+00 0.  1.
</event>
<event>
 7    1  0.3221417E-010  0.4778727E+02  0.7816164E-02  0.1312668E+00
        -11   -1    0    0    0    0  0.00000000000E+00  0.00000000000E+00  0.45593999997E+02  0.45594000000E+02  0.51100000000E-03 0. -1.
         11   -1    0    0    0    0 -0.00000000000E+00 -0.00000000000E+00 -0.45593999997E+02  0.45594000000E+02  0.51100000000E-03 0.  1.
    9900012    2    1    2    0    0 -0.37751916005E+01 -0.31843337800E+02 -0.29246762651E+02  0.47787270059E+02  0.19999995507E+02 0.  0.
         12    1    1    2    0    0  0.37751916005E+01  0.31843337800E+02  0.29246762651E+02  0.43400729941E+02  0.00000000000E+00 0. -1.
         11    1    3    3    0    0  0.28133834965E+01 -0.16887217083E+02 -0.17107971061E+02  0.24202807721E+02  0.51100000000E-03 0. -1.
        -11    1    3    3    0    0  0.14758931991E+01 -0.11247431993E+02 -0.67301551936E+01  0.13190071129E+02  0.51100000000E-03 0.  1.
        -12    1    3    3    0    0 -0.80644682961E+01 -0.37086887230E+01 -0.54086363965E+01  0.10394391209E+02  0.00000000000E+00 0.  1.
</event>
<event>
 7    1  0.3221417E-010  0.4778727E+02  0.7816164E-02  0.1312668E+00
        -11   -1    0    0    0    0  0.00000000000E+00  0.00000000000E+00  0.45593999997E+02  0.45594000000E+02  0.51100000000E-03 0. -1.
         11   -1    0    0    0    0 -0.00000000000E+00 -0.00000000000E+00 -0.45593999997E+02  0.45594000000E+02  0.51100000000E-03 0.  1.
    9900012    2    1    2    0    0  0.43042880577E+02 -0.29648946823E+01 -0.47056517716E+01  0.47787270427E+02  0.19999997186E+02 0.  0.
         12    1    1    2    0    0 -0.43042880577E+02  0.29648946823E+01  0.47056517716E+01  0.43400729573E+02  0.00000000000E+00 0. -1.
         11    1    3    3    0    0  0.43440240935E+01  0.31999627091E+01 -0.21377908257E+01  0.58034865848E+01  0.51100000000E-03 0. -1.
        -11    1    3    3    0    0  0.37363663850E+02 -0.41798820342E+01 -0.57171324739E+01  0.38028941533E+02  0.51100000000E-03 0.  1.
         12    1    3    3    0    0  0.13351926333E+01 -0.19849753573E+01  0.31492715279E+01  0.39548423096E+01  0.00000000000E+00 0. -1.
</event>
<event>
 7    1  0.3221417E-010  0.4778728E+02  0.7816164E-02  0.1312668E+00
        -11   -1    0    0    0    0  0.00000000000E+00  0.00000000000E+00  0.45593999997E+02  0.45594000000E+02  0.51100000000E-03 0. -1.
         11   -1    0    0    0    0 -0.00000000000E+00 -0.00000000000E+00 -0.45593999997E+02  0.45594000000E+02  0.51100000000E-03 0.  1.
    9900012    2    1    2    0    0  0.81608408141E+00 -0.43348287023E+02  0.19704687904E+01  0.47787277329E+02  0.20000028655E+02 0.  0.
        -12    1    1    2    0    0 -0.81608408141E+00  0.43348287023E+02 -0.19704687904E+01  0.43400722671E+02  0.00000000000E+00 0.  1.
         11    1    3    3    0    0  0.31586898773E+01 -0.27370972993E+02 -0.75510257113E+00  0.27562976335E+02  0.51100000000E-03 0.  1.
        -11    1    3    3    0    0 -0.28524001732E+01 -0.17595336047E+02  0.10750577034E+01  0.17857429453E+02  0.51100000000E-03 0. -1.
        -12    1    3    3    0    0  0.50979437732E+00  0.16180220165E+01  0.16505136581E+01  0.23668715404E+01  0.00000000000E+00 0.  1.
</event>
<event>
 7    1  0.3221417E-010  0.4778725E+02  0.7816164E-02  0.1312668E+00
        -11   -1    0    0    0    0  0.00000000000E+00  0.00000000000E+00  0.45593999997E+02  0.45594000000E+02  0.51100000000E-03 0. -1.
         11   -1    0    0    0    0 -0.00000000000E+00 -0.00000000000E+00 -0.45593999997E+02  0.45594000000E+02  0.51100000000E-03 0.  1.
    9900012    2    1    2    0    0  0.12765192174E+02 -0.22479413181E+01 -0.41420061640E+02  0.47787252567E+02  0.19999915756E+02 0.  0.
         12    1    1    2    0    0 -0.12765192174E+02  0.22479413181E+01  0.41420061640E+02  0.43400747433E+02  0.00000000000E+00 0. -1.
         11    1    3    3    0    0 -0.10433118259E+01  0.21923172553E+01  0.80738899002E-01  0.24292537012E+01  0.51100000000E-03 0. -1.
        -11    1    3    3    0    0  0.28422308162E+01 -0.77737266214E+00 -0.25208536785E+02  0.25380167678E+02  0.51100000000E-03 0.  1.
        -12    1    3    3    0    0  0.10966273184E+02 -0.36628859113E+01 -0.16292263754E+02  0.19977831188E+02  0.00000000000E+00 0.  1.
</event>
<event>
 7    1  0.3221417E-010  0.4778726E+02  0.7816164E-02  0.1312668E+00
        -11   -1    0    0    0    0  0.00000000000E+00  0.00000000000E+00  0.45593999997E+02  0.45594000000E+02  0.51100000000E-03 0. -1.
         11   -1    0    0    0    0 -0.00000000000E+00 -0.00000000000E+00 -0.45593999997E+02  0.45594000000E+02  0.51100000000E-03 0.  1.
    9900012    2    1    2    0    0  0.26140379213E+02 -0.34198103697E+02 -0.55492825775E+01  0.47787259695E+02  0.19999948255E+02 0.  0.
         12    1    1    2    0    0 -0.26140379213E+02  0.34198103697E+02  0.55492825775E+01  0.43400740305E+02  0.00000000000E+00 0. -1.
         11    1    3    3    0    0  0.10350639809E+02 -0.13557552918E+02  0.18451812369E+01  0.17156563748E+02  0.51100000000E-03 0. -1.
        -11    1    3    3    0    0 -0.14379824004E+01 -0.63314331210E+01 -0.48236570150E+01  0.80884180164E+01  0.51100000000E-03 0.  1.
        -12    1    3    3    0    0  0.17227721804E+02 -0.14309117657E+02 -0.25708067995E+01  0.22542277931E+02  0.00000000000E+00 0.  1.
</event>
<event>
 7    1  0.3221417E-010  0.4778727E+02  0.7816164E-02  0.1312668E+00
        -11   -1    0    0    0    0  0.00000000000E+00  0.00000000000E+00  0.45593999997E+02  0.45594000000E+02  0.51100000000E-03 0. -1.
         11   -1    0    0    0    0 -0.00000000000E+00 -0.00000000000E+00 -0.45593999997E+02  0.45594000000E+02  0.51100000000E-03 0.  1.
    9900012    2    1    2    0    0 -0.18322059171E+02 -0.30754843884E+02  0.24537016896E+02  0.47787268753E+02  0.19999989554E+02 0.  0.
        -12    1    1    2    0    0  0.18322059171E+02  0.30754843884E+02 -0.24537016896E+02  0.43400731247E+02  0.00000000000E+00 0.  1.
         11    1    3    3    0    0 -0.84140487659E+01 -0.12011249645E+02  0.10700277536E+02  0.18153850123E+02  0.51100000000E-03 0. -1.
        -11    1    3    3    0    0 -0.54239997924E+01 -0.46407706949E+00 -0.11622400044E+01  0.55665018965E+01  0.51100000000E-03 0.  1.
         12    1    3    3    0    0 -0.44840106123E+01 -0.18279517169E+02  0.14998979365E+02  0.24066916734E+02  0.00000000000E+00 0. -1.
</event>
<event>
 7    1  0.3221417E-010  0.4778727E+02  0.7816164E-02  0.1312668E+00
        -11   -1    0    0    0    0  0.00000000000E+00  0.00000000000E+00  0.45593999997E+02  0.45594000000E+02  0.51100000000E-03 0. -1.
         11   -1    0    0    0    0 -0.00000000000E+00 -0.00000000000E+00 -0.45593999997E+02  0.45594000000E+02  0.51100000000E-03 0.  1.
    9900012    2    1    2    0    0 -0.36258612515E+02 -0.10086347759E+02 -0.21614855064E+02  0.47787270144E+02  0.19999995895E+02 0.  0.
         12    1    1    2    0    0  0.36258612515E+02  0.10086347759E+02  0.21614855064E+02  0.43400729856E+02  0.00000000000E+00 0. -1.
         11    1    3    3    0    0 -0.32156254817E+01  0.22463808803E+01 -0.13244563767E+01  0.41401279271E+01  0.51100000000E-03 0. -1.
        -11    1    3    3    0    0 -0.27687567280E+02 -0.15348479881E+02 -0.20097764540E+02  0.37497964695E+02  0.51100000000E-03 0.  1.
        -12    1    3    3    0    0 -0.53554197527E+01  0.30157512416E+01 -0.19263414749E+00  0.61491775217E+01  0.00000000000E+00 0.  1.
</event>
<event>
 7    1  0.3221417E-010  0.4778727E+02  0.7816164E-02  0.1312668E+00
        -11   -1    0    0    0    0  0.00000000000E+00  0.00000000000E+00  0.45593999997E+02  0.45594000000E+02  0.51100000000E-03 0. -1.
         11   -1    0    0    0    0 -0.00000000000E+00 -0.00000000000E+00 -0.45593999997E+02  0.45594000000E+02  0.51100000000E-03 0.  1.
    9900012    2    1    2    0    0 -0.10014567065E+02  0.19553832740E+02  0.37429655659E+02  0.47787273611E+02  0.20000011704E+02 0.  0.
        -12    1    1    2    0    0  0.10014567065E+02 -0.19553832740E+02 -0.37429655659E+02  0.43400726389E+02  0.00000000000E+00 0.  1.
         11    1    3    3    0    0 -0.68388554370E+00 -0.12758972566E+01  0.56412935204E+01  0.58240712642E+01  0.51100000000E-03 0. -1.
        -11    1    3    3    0    0 -0.30407862297E+01 -0.68022359744E+00  0.57821855617E-01  0.31164769637E+01  0.51100000000E-03 0.  1.
         12    1    3    3    0    0 -0.62898952919E+01  0.21509953594E+02  0.31730540283E+02  0.38846725384E+02  0.00000000000E+00 0. -1.
</event>
<event>
 7    1  0.3221417E-010  0.4778727E+02  0.7816164E-02  0.1312668E+00
        -11   -1    0    0    0    0  0.00000000000E+00  0.00000000000E+00  0.45593999997E+02  0.45594000000E+02  0.51100000000E-03 0.  1.
         11   -1    0    0    0    0 -0.00000000000E+00 -0.00000000000E+00 -0.45593999997E+02  0.45594000000E+02  0.51100000000E-03 0. -1.
    9900012    2    1    2    0    0  0.36174565427E+02 -0.23444553744E+02  0.50375864646E+01  0.47787267731E+02  0.19999984894E+02 0.  0.
         12    1    1    2    0    0 -0.36174565427E+02  0.23444553744E+02 -0.50375864646E+01  0.43400732269E+02  0.00000000000E+00 0. -1.
         11    1    3    3    0    0 -0.12534363719E+01  0.78784163792E+00 -0.80026999994E+00  0.16829229093E+01  0.51100000000E-03 0. -1.
        -11    1    3    3    0    0  0.16493542820E+02 -0.49141792480E+01  0.31021332423E+01  0.17487405278E+02  0.51100000000E-03 0.  1.
        -12    1    3    3    0    0  0.20934458979E+02 -0.19318216134E+02  0.27357232223E+01  0.28616939544E+02  0.00000000000E+00 0.  1.
</event>
<event>
 7    1  0.3221417E-010  0.4778727E+02  0.7816164E-02  0.1312668E+00
        -11   -1    0    0    0    0  0.00000000000E+00  0.00000000000E+00  0.45593999997E+02  0.45594000000E+02  0.51100000000E-03 0. -1.
         11   -1    0    0    0    0 -0.00000000000E+00 -0.00000000000E+00 -0.45593999997E+02  0.45594000000E+02  0.51100000000E-03 0.  1.
    9900012    2    1    2    0    0 -0.27783869815E+02 -0.38485111072E+00 -0.33339643052E+02  0.47787270385E+02  0.19999996994E+02 0.  0.
         12    1    1    2    0    0  0.27783869815E+02  0.38485111072E+00  0.33339643052E+02  0.43400729615E+02  0.00000000000E+00 0. -1.
         11    1    3    3    0    0 -0.38257735821E+01 -0.51961728358E+01 -0.49198748279E+01  0.81143036808E+01  0.51100000000E-03 0. -1.
        -11    1    3    3    0    0 -0.22329195872E+02 -0.21490909675E+00 -0.24030781477E+02  0.32804231935E+02  0.51100000000E-03 0.  1.
        -12    1    3    3    0    0 -0.16289003604E+01  0.50262308218E+01 -0.43889867473E+01  0.68687347690E+01  0.00000000000E+00 0.  1.
</event>
<event>
 7    1  0.3221417E-010  0.4778727E+02  0.7816164E-02  0.1312668E+00
        -11   -1    0    0    0    0  0.00000000000E+00  0.00000000000E+00  0.45593999997E+02  0.45594000000E+02  0.51100000000E-03 0. -1.
         11   -1    0    0    0    0 -0.00000000000E+00 -0.00000000000E+00 -0.45593999997E+02  0.45594000000E+02  0.51100000000E-03 0.  1.
    9900012    2    1    2    0    0  0.18064242454E+02 -0.24703548653E+01 -0.39385326515E+02  0.47787268978E+02  0.19999990577E+02 0.  0.
         12    1    1    2    0    0 -0.18064242454E+02  0.24703548653E+01  0.39385326515E+02  0.43400731022E+02  0.00000000000E+00 0. -1.
         11    1    3    3    0    0 -0.13792257359E+01 -0.28218390354E+01 -0.18869491068E+02  0.19129106947E+02  0.51100000000E-03 0. -1.
        -11    1    3    3    0    0  0.64056690125E+01 -0.21047867190E+01 -0.69211603733E+01  0.96625661086E+01  0.51100000000E-03 0.  1.
         12    1    3    3    0    0  0.13037799177E+02  0.24562708891E+01 -0.13594675073E+02  0.18995595922E+02  0.00000000000E+00 0. -1.
</event>
<event>
 7    1  0.3221417E-010  0.4778727E+02  0.7816164E-02  0.1312668E+00
        -11   -1    0    0    0    0  0.00000000000E+00  0.00000000000E+00  0.45593999997E+02  0.45594000000E+02  0.51100000000E-03 0. -1.
         11   -1    0    0    0    0 -0.00000000000E+00 -0.00000000000E+00 -0.45593999997E+02  0.45594000000E+02  0.51100000000E-03 0.  1.
    9900012    2    1    2    0    0  0.39363517865E+02 -0.11876525595E+02 -0.13895494765E+02  0.47787272198E+02  0.20000005262E+02 0.  0.
         12    1    1    2    0    0 -0.39363517865E+02  0.11876525595E+02  0.13895494765E+02  0.43400727802E+02  0.00000000000E+00 0. -1.
         11    1    3    3    0    0  0.12861855384E+02 -0.13790239414E+02 -0.37156984269E+01  0.19219897036E+02  0.51100000000E-03 0. -1.
        -11    1    3    3    0    0  0.99249451096E+01  0.80530877579E+00 -0.25120006833E+01  0.10269528000E+02  0.51100000000E-03 0.  1.
         12    1    3    3    0    0  0.16576717372E+02  0.11084050434E+01 -0.76677956547E+01  0.18297847162E+02  0.00000000000E+00 0. -1.
</event>
<event>
 7    1  0.3221417E-010  0.4778727E+02  0.7816164E-02  0.1312668E+00
        -11   -1    0    0    0    0  0.00000000000E+00  0.00000000000E+00  0.45593999997E+02  0.45594000000E+02  0.51100000000E-03 0. -1.
         11   -1    0    0    0    0 -0.00000000000E+00 -0.00000000000E+00 -0.45593999997E+02  0.45594000000E+02  0.51100000000E-03 0.  1.
    9900012    2    1    2    0    0 -0.23378191904E+02 -0.14240104058E+02 -0.33679411597E+02  0.47787272059E+02  0.20000004625E+02 0.  0.
         12    1    1    2    0    0  0.23378191904E+02  0.14240104058E+02  0.33679411597E+02  0.43400727941E+02  0.00000000000E+00 0. -1.
         11    1    3    3    0    0 -0.93309097342E+00  0.30567540545E+01 -0.44594198782E+01  0.54864223339E+01  0.51100000000E-03 0. -1.
        -11    1    3    3    0    0 -0.49372831738E+01 -0.78744000303E+01 -0.38299650109E+01  0.10052441157E+02  0.51100000000E-03 0.  1.
         12    1    3    3    0    0 -0.17507817757E+02 -0.94224580821E+01 -0.25390026708E+02  0.32248408568E+02  0.00000000000E+00 0. -1.
</event>
<event>
 7    1  0.3221417E-010  0.4778726E+02  0.7816164E-02  0.1312668E+00
        -11   -1    0    0    0    0  0.00000000000E+00  0.00000000000E+00  0.45593999997E+02  0.45594000000E+02  0.51100000000E-03 0. -1.
         11   -1    0    0    0    0 -0.00000000000E+00 -0.00000000000E+00 -0.45593999997E+02  0.45594000000E+02  0.51100000000E-03 0.  1.
    9900012    2    1    2    0    0  0.35028231149E+02 -0.17113340908E+02 -0.19073028503E+02  0.47787264629E+02  0.19999970749E+02 0.  0.
         12    1    1    2    0    0 -0.35028231149E+02  0.17113340908E+02  0.19073028503E+02  0.43400735371E+02  0.00000000000E+00 0. -1.
         11    1    3    3    0    0  0.18067442258E+00 -0.26527729451E+01 -0.23044740214E+01  0.35185861253E+01  0.51100000000E-03 0. -1.
        -11    1    3    3    0    0  0.30777536908E+02 -0.12083727813E+02 -0.75508920251E+01  0.33915914062E+02  0.51100000000E-03 0.  1.
        -12    1    3    3    0    0  0.40700198184E+01 -0.23768401492E+01 -0.92176624568E+01  0.10352764442E+02  0.00000000000E+00 0.  1.
</event>
<event>
 7    1  0.3221417E-010  0.4778727E+02  0.7816164E-02  0.1312668E+00
        -11   -1    0    0    0    0  0.00000000000E+00  0.00000000000E+00  0.45593999997E+02  0.45594000000E+02  0.51100000000E-03 0. -1.
         11   -1    0    0    0    0 -0.00000000000E+00 -0.00000000000E+00 -0.45593999997E+02  0.45594000000E+02  0.51100000000E-03 0.  1.
    9900012    2    1    2    0    0 -0.44507793535E+01  0.21103394122E+02  0.37662452617E+02  0.47787273998E+02  0.20000013469E+02 0.  0.
        -12    1    1    2    0    0  0.44507793535E+01 -0.21103394122E+02 -0.37662452617E+02  0.43400726002E+02  0.00000000000E+00 0.  1.
         11    1    3    3    0    0  0.36950761575E+01  0.15433911438E+02  0.25515115218E+02  0.30047966901E+02  0.51100000000E-03 0.  1.
        -11    1    3    3    0    0 -0.57939943167E+01  0.75638292853E+01  0.10885522223E+02  0.14466391323E+02  0.51100000000E-03 0. -1.
        -12    1    3    3    0    0 -0.23518611943E+01 -0.18943466009E+01  0.12618151768E+01  0.32729157737E+01  0.00000000000E+00 0.  1.
</event>
<event>
 7    1  0.4019714E-010  0.4778727E+02  0.7816164E-02  0.1312668E+00
        -11   -1    0    0    0    0  0.00000000000E+00  0.00000000000E+00  0.45593999997E+02  0.45594000000E+02  0.51100000000E-03 0. -1.
         11   -1    0    0    0    0 -0.00000000000E+00 -0.00000000000E+00 -0.45593999997E+02  0.45594000000E+02  0.51100000000E-03 0.  1.
    9900012    2    1    2    0    0  0.16739239705E+02 -0.58397403056E+00 -0.40038489190E+02  0.47787265119E+02  0.19999972984E+02 0.  0.
         12    1    1    2    0    0 -0.16739239705E+02  0.58397403056E+00  0.40038489190E+02  0.43400734881E+02  0.00000000000E+00 0. -1.
         11    1    3    3    0    0  0.76104620765E+01  0.61501768497E+01 -0.88068788542E+01  0.13164532795E+02  0.51100000000E-03 0. -1.
        -11    1    3    3    0    0  0.96791240603E+01 -0.17182994499E+01 -0.22149666962E+02  0.24233153785E+02  0.51100000000E-03 0.  1.
         12    1    3    3    0    0 -0.55034643224E+00 -0.50158514304E+01 -0.90819433744E+01  0.10389578539E+02  0.00000000000E+00 0. -1.
</event>
<event>
 7    1  0.3221417E-010  0.4778727E+02  0.7816164E-02  0.1312668E+00
        -11   -1    0    0    0    0  0.00000000000E+00  0.00000000000E+00  0.45593999997E+02  0.45594000000E+02  0.51100000000E-03 0. -1.
         11   -1    0    0    0    0 -0.00000000000E+00 -0.00000000000E+00 -0.45593999997E+02  0.45594000000E+02  0.51100000000E-03 0.  1.
    9900012    2    1    2    0    0  0.59595763595E+01  0.17903944859E+01 -0.42952314475E+02  0.47787269804E+02  0.19999994344E+02 0.  0.
         12    1    1    2    0    0 -0.59595763595E+01 -0.17903944859E+01  0.42952314475E+02  0.43400730196E+02  0.00000000000E+00 0. -1.
         11    1    3    3    0    0  0.37966167817E+01 -0.51362965857E+01 -0.50121990884E+01  0.81189889498E+01  0.51100000000E-03 0. -1.
        -11    1    3    3    0    0 -0.32332480702E+01  0.84670879931E+00 -0.13680233212E+02  0.14082598833E+02  0.51100000000E-03 0.  1.
         12    1    3    3    0    0  0.53962076480E+01  0.60799822723E+01 -0.24259882174E+02  0.25585682022E+02  0.00000000000E+00 0. -1.
</event>
<event>
 7    1  0.3221417E-010  0.4778727E+02  0.7816164E-02  0.1312668E+00
        -11   -1    0    0    0    0  0.00000000000E+00  0.00000000000E+00  0.45593999997E+02  0.45594000000E+02  0.51100000000E-03 0.  1.
         11   -1    0    0    0    0 -0.00000000000E+00 -0.00000000000E+00 -0.45593999997E+02  0.45594000000E+02  0.51100000000E-03 0. -1.
    9900012    2    1    2    0    0 -0.24897673387E+02 -0.31765646205E+02  0.15958471184E+02  0.47787271649E+02  0.20000002755E+02 0.  0.
         12    1    1    2    0    0  0.24897673387E+02  0.31765646205E+02 -0.15958471184E+02  0.43400728351E+02  0.00000000000E+00 0. -1.
         11    1    3    3    0    0 -0.35545572917E+00 -0.10222556929E-01  0.35678995720E-01  0.35738848320E+00  0.51100000000E-03 0. -1.
        -11    1    3    3    0    0 -0.27003040677E+02 -0.28877333742E+02  0.17615040497E+02  0.43282262670E+02  0.51100000000E-03 0.  1.
         12    1    3    3    0    0  0.24608230191E+01 -0.28780899060E+01 -0.16922483088E+01  0.41476204958E+01  0.00000000000E+00 0. -1.
</event>
<event>
 7    1  0.3221417E-010  0.4778731E+02  0.7816164E-02  0.1312668E+00
        -11   -1    0    0    0    0  0.00000000000E+00  0.00000000000E+00  0.45593999997E+02  0.45594000000E+02  0.51100000000E-03 0. -1.
         11   -1    0    0    0    0 -0.00000000000E+00 -0.00000000000E+00 -0.45593999997E+02  0.45594000000E+02  0.51100000000E-03 0.  1.
    9900012    2    1    2    0    0  0.17891918672E+02  0.80129678029E+01  0.38720690172E+02  0.47787305833E+02  0.20000158614E+02 0.  0.
        -12    1    1    2    0    0 -0.17891918672E+02 -0.80129678029E+01 -0.38720690172E+02  0.43400694167E+02  0.00000000000E+00 0.  1.
         11    1    3    3    0    0  0.16573845209E+02  0.92302481194E+01  0.27611791951E+02  0.33500759400E+02  0.51100000000E-03 0. -1.
        -11    1    3    3    0    0  0.44210033870E+01  0.16514694671E+01  0.65132002920E+01  0.80432829524E+01  0.51100000000E-03 0.  1.
        -12    1    3    3    0    0 -0.31029299240E+01 -0.28687497836E+01  0.45956979287E+01  0.62432634804E+01  0.00000000000E+00 0.  1.
</event>
<event>
 7    1  0.3221417E-010  0.4778727E+02  0.7816164E-02  0.1312668E+00
        -11   -1    0    0    0    0  0.00000000000E+00  0.00000000000E+00  0.45593999997E+02  0.45594000000E+02  0.51100000000E-03 0. -1.
         11   -1    0    0    0    0 -0.00000000000E+00 -0.00000000000E+00 -0.45593999997E+02  0.45594000000E+02  0.51100000000E-03 0.  1.
    9900012    2    1    2    0    0  0.25058043052E+02  0.30931702596E+02  0.17290105893E+02  0.47787268337E+02  0.19999987656E+02 0.  0.
        -12    1    1    2    0    0 -0.25058043052E+02 -0.30931702596E+02 -0.17290105893E+02  0.43400731663E+02  0.00000000000E+00 0.  1.
         11    1    3    3    0    0  0.65747530001E+01  0.70330233096E+01  0.52697852185E+01  0.10975492262E+02  0.51100000000E-03 0. -1.
        -11    1    3    3    0    0  0.52047270693E+01  0.24022538577E+01  0.99207280123E+01  0.11457785651E+02  0.51100000000E-03 0.  1.
         12    1    3    3    0    0  0.13278562983E+02  0.21496425428E+02  0.20995926624E+01  0.25353990424E+02  0.00000000000E+00 0. -1.
</event>
<event>
 7    1  0.3221417E-010  0.4778725E+02  0.7816164E-02  0.1312668E+00
        -11   -1    0    0    0    0  0.00000000000E+00  0.00000000000E+00  0.45593999997E+02  0.45594000000E+02  0.51100000000E-03 0. -1.
         11   -1    0    0    0    0 -0.00000000000E+00 -0.00000000000E+00 -0.45593999997E+02  0.45594000000E+02  0.51100000000E-03 0.  1.
    9900012    2    1    2    0    0 -0.66615697548E+01 -0.52984057642E+01  0.42557908704E+02  0.47787248757E+02  0.19999898381E+02 0.  0.
        -12    1    1    2    0    0  0.66615697548E+01  0.52984057642E+01 -0.42557908704E+02  0.43400751243E+02  0.00000000000E+00 0.  1.
         11    1    3    3    0    0  0.28623777514E+01 -0.11850896529E+00  0.88626763893E+00  0.29987866472E+01  0.51100000000E-03 0.  1.
        -11    1    3    3    0    0 -0.40222584554E+01 -0.86085108896E+01  0.19553906250E+02  0.21740291459E+02  0.51100000000E-03 0. -1.
        -12    1    3    3    0    0 -0.55016890507E+01  0.34286140907E+01  0.22117734815E+02  0.23048170650E+02  0.00000000000E+00 0.  1.
</event>
<event>
 7    1  0.3221417E-010  0.4778726E+02  0.7816164E-02  0.1312668E+00
        -11   -1    0    0    0    0  0.00000000000E+00  0.00000000000E+00  0.45593999997E+02  0.45594000000E+02  0.51100000000E-03 0. -1.
         11   -1    0    0    0    0 -0.00000000000E+00 -0.00000000000E+00 -0.45593999997E+02  0.45594000000E+02  0.51100000000E-03 0.  1.
    9900012    2    1    2    0    0 -0.38643238604E+02 -0.41381326826E-01 -0.19756578404E+02  0.47787262766E+02  0.19999962256E+02 0.  0.
         12    1    1    2    0    0  0.38643238604E+02  0.41381326826E-01  0.19756578404E+02  0.43400737234E+02  0.00000000000E+00 0. -1.
         11    1    3    3    0    0 -0.69010936121E+01 -0.62395692191E+01 -0.46590024751E+01  0.10404980606E+02  0.51100000000E-03 0.  1.
        -11    1    3    3    0    0 -0.91100919970E+01  0.47988285988E+01 -0.29092772658E+00  0.10300833525E+02  0.51100000000E-03 0. -1.
         12    1    3    3    0    0 -0.22632052995E+02  0.13993592935E+01 -0.14806648203E+02  0.27081448635E+02  0.00000000000E+00 0. -1.
</event>
<event>
 7    1  0.3221417E-010  0.4778727E+02  0.7816164E-02  0.1312668E+00
        -11   -1    0    0    0    0  0.00000000000E+00  0.00000000000E+00  0.45593999997E+02  0.45594000000E+02  0.51100000000E-03 0. -1.
         11   -1    0    0    0    0 -0.00000000000E+00 -0.00000000000E+00 -0.45593999997E+02  0.45594000000E+02  0.51100000000E-03 0.  1.
    9900012    2    1    2    0    0 -0.32387850516E+02  0.20226928238E+02  0.20628180025E+02  0.47787270765E+02  0.19999998726E+02 0.  0.
        -12    1    1    2    0    0  0.32387850516E+02 -0.20226928238E+02 -0.20628180025E+02  0.43400729235E+02  0.00000000000E+00 0.  1.
         11    1    3    3    0    0 -0.25068176043E+02  0.85787423263E+01  0.74355359733E+01  0.27519001898E+02  0.51100000000E-03 0. -1.
        -11    1    3    3    0    0  0.42759001776E+00  0.39522533255E+01  0.14467541494E+01  0.42303944735E+01  0.51100000000E-03 0.  1.
         12    1    3    3    0    0 -0.77472644911E+01  0.76959325863E+01  0.11745889902E+02  0.16037874393E+02  0.00000000000E+00 0. -1.
</event>
<event>
 7    1  0.3221417E-010  0.4778727E+02  0.7816164E-02  0.1312668E+00
        -11   -1    0    0    0    0  0.00000000000E+00  0.00000000000E+00  0.45593999997E+02  0.45594000000E+02  0.51100000000E-03 0. -1.
         11   -1    0    0    0    0 -0.00000000000E+00 -0.00000000000E+00 -0.45593999997E+02  0.45594000000E+02  0.51100000000E-03 0.  1.
    9900012    2    1    2    0    0  0.13002031927E+02 -0.11539007774E+02  0.39767093355E+02  0.47787271337E+02  0.20000001332E+02 0.  0.
        -12    1    1    2    0    0 -0.13002031927E+02  0.11539007774E+02 -0.39767093355E+02  0.43400728663E+02  0.00000000000E+00 0.  1.
         11    1    3    3    0    0  0.17162048942E+01  0.35823374430E+01  0.39277791036E+01  0.55862285795E+01  0.51100000000E-03 0. -1.
        -11    1    3    3    0    0 -0.56982740125E+00  0.34346962376E-01  0.98360763187E+01  0.98526281057E+01  0.51100000000E-03 0.  1.
        -12    1    3    3    0    0  0.11855654434E+02 -0.15155692180E+02  0.26003237932E+02  0.32348414651E+02  0.00000000000E+00 0.  1.
</event>
<event>
 7    1  0.3221417E-010  0.4778728E+02  0.7816164E-02  0.1312668E+00
        -11   -1    0    0    0    0  0.00000000000E+00  0.00000000000E+00  0.45593999997E+02  0.45594000000E+02  0.51100000000E-03 0. -1.
         11   -1    0    0    0    0 -0.00000000000E+00 -0.00000000000E+00 -0.45593999997E+02  0.45594000000E+02  0.51100000000E-03 0.  1.
    9900012    2    1    2    0    0 -0.35423901919E+02 -0.15349338408E+02 -0.19828444036E+02  0.47787283306E+02  0.20000055903E+02 0.  0.
         12    1    1    2    0    0  0.35423901919E+02  0.15349338408E+02  0.19828444036E+02  0.43400716694E+02  0.00000000000E+00 0. -1.
         11    1    3    3    0    0 -0.82322699807E+00 -0.33317992992E+01 -0.32655518076E+01  0.47373429399E+01  0.51100000000E-03 0. -1.
        -11    1    3    3    0    0 -0.24709876623E+02 -0.68374483689E+01 -0.35169527151E+01  0.25878517337E+02  0.51100000000E-03 0.  1.
        -12    1    3    3    0    0 -0.98907982978E+01 -0.51800907402E+01 -0.13045939513E+02  0.17171423028E+02  0.00000000000E+00 0.  1.
</event>
<event>
 7    1  0.3221417E-010  0.4778727E+02  0.7816164E-02  0.1312668E+00
        -11   -1    0    0    0    0  0.00000000000E+00  0.00000000000E+00  0.45593999997E+02  0.45594000000E+02  0.51100000000E-03 0. -1.
         11   -1    0    0    0    0 -0.00000000000E+00 -0.00000000000E+00 -0.45593999997E+02  0.45594000000E+02  0.51100000000E-03 0.  1.
    9900012    2    1    2    0    0  0.17080579522E+02  0.15373762234E+02 -0.36817446355E+02  0.47787272839E+02  0.20000008180E+02 0.  0.
         12    1    1    2    0    0 -0.17080579522E+02 -0.15373762234E+02  0.36817446355E+02  0.43400727161E+02  0.00000000000E+00 0. -1.
         11    1    3    3    0    0  0.63671729815E+01 -0.21797929306E+01 -0.11003305672E+02  0.12898260540E+02  0.51100000000E-03 0. -1.
        -11    1    3    3    0    0 -0.11390791662E+01  0.53250744408E+01 -0.11177889748E+02  0.12433790196E+02  0.51100000000E-03 0.  1.
         12    1    3    3    0    0  0.11852485707E+02  0.12228480724E+02 -0.14636250935E+02  0.22455222102E+02  0.00000000000E+00 0. -1.
</event>
<event>
 7    1  0.3221417E-010  0.4778729E+02  0.7816164E-02  0.1312668E+00
        -11   -1    0    0    0    0  0.00000000000E+00  0.00000000000E+00  0.45593999997E+02  0.45594000000E+02  0.51100000000E-03 0. -1.
         11   -1    0    0    0    0 -0.00000000000E+00 -0.00000000000E+00 -0.45593999997E+02  0.45594000000E+02  0.51100000000E-03 0.  1.
    9900012    2    1    2    0    0 -0.35330447395E+02 -0.59567062724E+01  0.24492837577E+02  0.47787286235E+02  0.20000069262E+02 0.  0.
        -12    1    1    2    0    0  0.35330447395E+02  0.59567062724E+01 -0.24492837577E+02  0.43400713765E+02  0.00000000000E+00 0.  1.
         11    1    3    3    0    0 -0.19941208739E+02 -0.79705756684E+01  0.13729858237E+02  0.25489034700E+02  0.51100000000E-03 0. -1.
        -11    1    3    3    0    0 -0.17146996175E+02  0.53368426302E+00  0.10095256827E+02  0.19905238189E+02  0.51100000000E-03 0.  1.
        -12    1    3    3    0    0  0.17577575188E+01  0.14801851330E+01  0.66772251246E+00  0.23930133465E+01  0.00000000000E+00 0.  1.
</event>
<event>
 7    1  0.3221417E-010  0.4778727E+02  0.7816164E-02  0.1312668E+00
        -11   -1    0    0    0    0  0.00000000000E+00  0.00000000000E+00  0.45593999997E+02  0.45594000000E+02  0.51100000000E-03 0. -1.
         11   -1    0    0    0    0 -0.00000000000E+00 -0.00000000000E+00 -0.45593999997E+02  0.45594000000E+02  0.51100000000E-03 0.  1.
    9900012    2    1    2    0    0 -0.16176449021E+02  0.21701748641E+02  0.33926094943E+02  0.47787270570E+02  0.19999997835E+02 0.  0.
        -12    1    1    2    0    0  0.16176449021E+02 -0.21701748641E+02 -0.33926094943E+02  0.43400729430E+02  0.00000000000E+00 0.  1.
         11    1    3    3    0    0 -0.35530246296E+01  0.74006400854E+01  0.33584958901E+01  0.88697774830E+01  0.51100000000E-03 0. -1.
        -11    1    3    3    0    0 -0.21396405546E+01 -0.27452740642E+01  0.81775315540E+01  0.88874413623E+01  0.51100000000E-03 0.  1.
         12    1    3    3    0    0 -0.10483783837E+02  0.17046382620E+02  0.22390067499E+02  0.30030051724E+02  0.00000000000E+00 0. -1.
</event>
<event>
 7    1  0.3221417E-010  0.4778725E+02  0.7816164E-02  0.1312668E+00
        -11   -1    0    0    0    0  0.00000000000E+00  0.00000000000E+00  0.45593999997E+02  0.45594000000E+02  0.51100000000E-03 0. -1.
         11   -1    0    0    0    0 -0.00000000000E+00 -0.00000000000E+00 -0.45593999997E+02  0.45594000000E+02  0.51100000000E-03 0.  1.
    9900012    2    1    2    0    0 -0.72713177200E+01 -0.29862663538E+02 -0.30642682719E+02  0.47787254163E+02  0.19999923032E+02 0.  0.
         12    1    1    2    0    0  0.72713177200E+01  0.29862663538E+02  0.30642682719E+02  0.43400745837E+02  0.00000000000E+00 0. -1.
         11    1    3    3    0    0 -0.59347184353E+01 -0.57647520310E+01 -0.80140656331E+01  0.11518615243E+02  0.51100000000E-03 0. -1.
        -11    1    3    3    0    0  0.56074819752E+01 -0.52863090265E+01 -0.97865963856E+01  0.12456580040E+02  0.51100000000E-03 0.  1.
        -12    1    3    3    0    0 -0.69440812600E+01 -0.18811602480E+02 -0.12842020700E+02  0.23812058880E+02  0.00000000000E+00 0.  1.
</event>
<event>
 7    1  0.3221417E-010  0.4778727E+02  0.7816164E-02  0.1312668E+00
        -11   -1    0    0    0    0  0.00000000000E+00  0.00000000000E+00  0.45593999997E+02  0.45594000000E+02  0.51100000000E-03 0. -1.
         11   -1    0    0    0    0 -0.00000000000E+00 -0.00000000000E+00 -0.45593999997E+02  0.45594000000E+02  0.51100000000E-03 0.  1.
    9900012    2    1    2    0    0 -0.82643228975E+01 -0.33332032803E+02  0.26538647533E+02  0.47787271243E+02  0.20000000904E+02 0.  0.
        -12    1    1    2    0    0  0.82643228975E+01  0.33332032803E+02 -0.26538647533E+02  0.43400728757E+02  0.00000000000E+00 0.  1.
         11    1    3    3    0    0 -0.47776460661E+01 -0.16436582118E+02  0.18466249991E+02  0.25179148569E+02  0.51100000000E-03 0. -1.
        -11    1    3    3    0    0 -0.40816731808E+01 -0.18569635482E+02  0.61323854239E+01  0.19977426490E+02  0.51100000000E-03 0.  1.
        -12    1    3    3    0    0  0.59499634943E+00  0.16741847976E+01  0.19400121184E+01  0.26306961838E+01  0.00000000000E+00 0.  1.
</event>
<event>
 7    1  0.3221417E-010  0.4778727E+02  0.7816164E-02  0.1312668E+00
        -11   -1    0    0    0    0  0.00000000000E+00  0.00000000000E+00  0.45593999997E+02  0.45594000000E+02  0.51100000000E-03 0. -1.
         11   -1    0    0    0    0 -0.00000000000E+00 -0.00000000000E+00 -0.45593999997E+02  0.45594000000E+02  0.51100000000E-03 0.  1.
    9900012    2    1    2    0    0  0.19997026324E+02 -0.27160479926E+02  0.27313929018E+02  0.47787269016E+02  0.19999990751E+02 0.  0.
        -12    1    1    2    0    0 -0.19997026324E+02  0.27160479926E+02 -0.27313929018E+02  0.43400730984E+02  0.00000000000E+00 0.  1.
         11    1    3    3    0    0  0.11997953912E+02 -0.18410970323E+02  0.19732960355E+02  0.29534800676E+02  0.51100000000E-03 0. -1.
        -11    1    3    3    0    0 -0.27243318058E+01 -0.38445316146E+01  0.30874408916E+01  0.56333558954E+01  0.51100000000E-03 0.  1.
        -12    1    3    3    0    0  0.10723404217E+02 -0.49049779877E+01  0.44935277711E+01  0.12619112445E+02  0.00000000000E+00 0.  1.
</event>
<event>
 7    1  0.3221417E-010  0.4778727E+02  0.7816164E-02  0.1312668E+00
        -11   -1    0    0    0    0  0.00000000000E+00  0.00000000000E+00  0.45593999997E+02  0.45594000000E+02  0.51100000000E-03 0. -1.
         11   -1    0    0    0    0 -0.00000000000E+00 -0.00000000000E+00 -0.45593999997E+02  0.45594000000E+02  0.51100000000E-03 0.  1.
    9900012    2    1    2    0    0 -0.84471124692E+01 -0.32280740588E+02 -0.27752901285E+02  0.47787268995E+02  0.19999990656E+02 0.  0.
         12    1    1    2    0    0  0.84471124692E+01  0.32280740588E+02  0.27752901285E+02  0.43400731005E+02  0.00000000000E+00 0. -1.
         11    1    3    3    0    0 -0.50000423677E+01 -0.59512038898E+00  0.56640191141E+00  0.50670902244E+01  0.51100000000E-03 0. -1.
        -11    1    3    3    0    0 -0.18792217325E+01 -0.70799748115E+01 -0.61983752490E+01  0.95956955788E+01  0.51100000000E-03 0.  1.
         12    1    3    3    0    0 -0.15678483691E+01 -0.24605645388E+02 -0.22120927948E+02  0.33124483192E+02  0.00000000000E+00 0. -1.
</event>
<event>
 7    1  0.3221417E-010  0.4778728E+02  0.7816164E-02  0.1312668E+00
        -11   -1    0    0    0    0  0.00000000000E+00  0.00000000000E+00  0.45593999997E+02  0.45594000000E+02  0.51100000000E-03 0. -1.
         11   -1    0    0    0    0 -0.00000000000E+00 -0.00000000000E+00 -0.45593999997E+02  0.45594000000E+02  0.51100000000E-03 0.  1.
    9900012    2    1    2    0    0 -0.31081238320E+02 -0.29367638247E+02  0.74243603467E+01  0.47787277906E+02  0.20000031285E+02 0.  0.
        -12    1    1    2    0    0  0.31081238320E+02  0.29367638247E+02 -0.74243603467E+01  0.43400722094E+02  0.00000000000E+00 0.  1.
         11    1    3    3    0    0 -0.60545187582E+01 -0.48647931255E+01  0.31408838182E+01  0.83778613600E+01  0.51100000000E-03 0. -1.
        -11    1    3    3    0    0 -0.52875088839E+00 -0.11053026650E+01  0.53777531846E+01  0.55155689696E+01  0.51100000000E-03 0.  1.
         12    1    3    3    0    0 -0.24497968673E+02 -0.23397542457E+02 -0.10942766561E+01  0.33893847576E+02  0.00000000000E+00 0. -1.
</event>
<event>
 7    1  0.3221417E-010  0.4778727E+02  0.7816164E-02  0.1312668E+00
        -11   -1    0    0    0    0  0.00000000000E+00  0.00000000000E+00  0.45593999997E+02  0.45594000000E+02  0.51100000000E-03 0. -1.
         11   -1    0    0    0    0 -0.00000000000E+00 -0.00000000000E+00 -0.45593999997E+02  0.45594000000E+02  0.51100000000E-03 0.  1.
    9900012    2    1    2    0    0  0.38886046910E+02 -0.36412716083E+01  0.18927220094E+02  0.47787272313E+02  0.20000005784E+02 0.  0.
        -12    1    1    2    0    0 -0.38886046910E+02  0.36412716083E+01 -0.18927220094E+02  0.43400727687E+02  0.00000000000E+00 0.  1.
         11    1    3    3    0    0  0.14502987109E+02 -0.24398043242E+00  0.16169511873E+02  0.21722091888E+02  0.51100000000E-03 0. -1.
        -11    1    3    3    0    0  0.59577281008E+01  0.13489999059E+01  0.34694323814E+01  0.70250470589E+01  0.51100000000E-03 0.  1.
        -12    1    3    3    0    0  0.18425331701E+02 -0.47462910818E+01 -0.71172415965E+00  0.19040133366E+02  0.00000000000E+00 0.  1.
</event>
<event>
 7    1  0.3221417E-010  0.4778727E+02  0.7816164E-02  0.1312668E+00
        -11   -1    0    0    0    0  0.00000000000E+00  0.00000000000E+00  0.45593999997E+02  0.45594000000E+02  0.51100000000E-03 0. -1.
         11   -1    0    0    0    0 -0.00000000000E+00 -0.00000000000E+00 -0.45593999997E+02  0.45594000000E+02  0.51100000000E-03 0.  1.
    9900012    2    1    2    0    0 -0.64377132450E+01 -0.27484614150E+02 -0.32966270628E+02  0.47787272288E+02  0.20000005672E+02 0.  0.
         12    1    1    2    0    0  0.64377132450E+01  0.27484614150E+02  0.32966270628E+02  0.43400727712E+02  0.00000000000E+00 0. -1.
         11    1    3    3    0    0 -0.51188345098E+01 -0.34524601796E+01 -0.57189154268E+01  0.84159338134E+01  0.51100000000E-03 0. -1.
        -11    1    3    3    0    0 -0.23867626359E+01 -0.23926441140E+02 -0.17934745554E+02  0.29997105191E+02  0.51100000000E-03 0.  1.
         12    1    3    3    0    0  0.10678839007E+01 -0.10571283035E+00 -0.93126096467E+01  0.93742332838E+01  0.00000000000E+00 0. -1.
</event>
<event>
 7    1  0.3221417E-010  0.4778728E+02  0.7816164E-02  0.1312668E+00
        -11   -1    0    0    0    0  0.00000000000E+00  0.00000000000E+00  0.45593999997E+02  0.45594000000E+02  0.51100000000E-03 0. -1.
         11   -1    0    0    0    0 -0.00000000000E+00 -0.00000000000E+00 -0.45593999997E+02  0.45594000000E+02  0.51100000000E-03 0.  1.
    9900012    2    1    2    0    0  0.42214728471E+01  0.38633622021E+02  0.19319552843E+02  0.47787277593E+02  0.20000029856E+02 0.  0.
        -12    1    1    2    0    0 -0.42214728471E+01 -0.38633622021E+02 -0.19319552843E+02  0.43400722407E+02  0.00000000000E+00 0.  1.
         11    1    3    3    0    0 -0.13187726593E+01  0.61629827015E+01 -0.65320811754E+00  0.63362605859E+01  0.51100000000E-03 0. -1.
        -11    1    3    3    0    0 -0.43851102367E+01  0.34880736681E+01  0.41386389465E+01  0.69659301096E+01  0.51100000000E-03 0.  1.
         12    1    3    3    0    0  0.99253557431E+01  0.28982565651E+02  0.15834122014E+02  0.34485086897E+02  0.00000000000E+00 0. -1.
</event>
<event>
 7    1  0.3221417E-010  0.4778727E+02  0.7816164E-02  0.1312668E+00
        -11   -1    0    0    0    0  0.00000000000E+00  0.00000000000E+00  0.45593999997E+02  0.45594000000E+02  0.51100000000E-03 0. -1.
         11   -1    0    0    0    0 -0.00000000000E+00 -0.00000000000E+00 -0.45593999997E+02  0.45594000000E+02  0.51100000000E-03 0.  1.
    9900012    2    1    2    0    0 -0.38789643948E+02  0.80051435265E+01  0.17745553600E+02  0.47787268749E+02  0.19999989536E+02 0.  0.
        -12    1    1    2    0    0  0.38789643948E+02 -0.80051435265E+01 -0.17745553600E+02  0.43400731251E+02  0.00000000000E+00 0.  1.
         11    1    3    3    0    0 -0.66025894285E+01 -0.19868311824E+00  0.82038451570E+01  0.10532651032E+02  0.51100000000E-03 0. -1.
        -11    1    3    3    0    0 -0.89587557395E+01  0.24080406304E+01  0.95503475120E+01  0.13314169217E+02  0.51100000000E-03 0.  1.
         12    1    3    3    0    0 -0.23228298780E+02  0.57957860144E+01 -0.86390691524E-02  0.23940448500E+02  0.00000000000E+00 0. -1.
</event>
<event>
 7    1  0.3221417E-010  0.4778727E+02  0.7816164E-02  0.1312668E+00
        -11   -1    0    0    0    0  0.00000000000E+00  0.00000000000E+00  0.45593999997E+02  0.45594000000E+02  0.51100000000E-03 0. -1.
         11   -1    0    0    0    0 -0.00000000000E+00 -0.00000000000E+00 -0.45593999997E+02  0.45594000000E+02  0.51100000000E-03 0.  1.
    9900012    2    1    2    0    0  0.26628495151E+01 -0.26043200335E+02  0.34616238981E+02  0.47787273595E+02  0.20000011630E+02 0.  0.
        -12    1    1    2    0    0 -0.26628495151E+01  0.26043200335E+02 -0.34616238981E+02  0.43400726405E+02  0.00000000000E+00 0.  1.
         11    1    3    3    0    0 -0.62024217097E+01 -0.12454903590E+02  0.17255584191E+02  0.22166412532E+02  0.51100000000E-03 0. -1.
        -11    1    3    3    0    0  0.30900135242E+01 -0.80197879015E+01  0.28760961779E+01  0.90629526673E+01  0.51100000000E-03 0.  1.
        -12    1    3    3    0    0  0.57752577005E+01 -0.55685088433E+01  0.14484558613E+02  0.16557908396E+02  0.00000000000E+00 0.  1.
</event>
<event>
 7    1  0.3221417E-010  0.4778727E+02  0.7816164E-02  0.1312668E+00
        -11   -1    0    0    0    0  0.00000000000E+00  0.00000000000E+00  0.45593999997E+02  0.45594000000E+02  0.51100000000E-03 0. -1.
         11   -1    0    0    0    0 -0.00000000000E+00 -0.00000000000E+00 -0.45593999997E+02  0.45594000000E+02  0.51100000000E-03 0.  1.
    9900012    2    1    2    0    0 -0.10614365535E+02  0.31081159779E+02  0.28371115130E+02  0.47787269330E+02  0.19999992185E+02 0.  0.
        -12    1    1    2    0    0  0.10614365535E+02 -0.31081159779E+02 -0.28371115130E+02  0.43400730670E+02  0.00000000000E+00 0.  1.
         11    1    3    3    0    0 -0.31222653716E+01  0.19342679110E+01  0.82073836959E+01  0.89917229047E+01  0.51100000000E-03 0. -1.
        -11    1    3    3    0    0 -0.57124048818E+01  0.17449010047E+02  0.40459435025E+01  0.18800776054E+02  0.51100000000E-03 0.  1.
        -12    1    3    3    0    0 -0.17796952814E+01  0.11697881821E+02  0.16117787932E+02  0.19994770372E+02  0.00000000000E+00 0.  1.
</event>
<event>
 7    1  0.3386474E-010  0.4778727E+02  0.7816164E-02  0.1312668E+00
        -11   -1    0    0    0    0  0.00000000000E+00  0.00000000000E+00  0.45593999997E+02  0.45594000000E+02  0.51100000000E-03 0. -1.
         11   -1    0    0    0    0 -0.00000000000E+00 -0.00000000000E+00 -0.45593999997E+02  0.45594000000E+02  0.51100000000E-03 0.  1.
    9900012    2    1    2    0    0 -0.15140612605E+02  0.77349544727E+01 -0.39931885645E+02  0.47787272334E+02  0.20000005879E+02 0.  0.
         12    1    1    2    0    0  0.15140612605E+02 -0.77349544727E+01  0.39931885645E+02  0.43400727666E+02  0.00000000000E+00 0. -1.
         11    1    3    3    0    0 -0.29384466850E+01 -0.51706824091E+01 -0.15585708309E+02  0.16681868278E+02  0.51100000000E-03 0. -1.
        -11    1    3    3    0    0 -0.85897850161E+01  0.35376515320E+01 -0.10838204278E+02  0.14274664872E+02  0.51100000000E-03 0.  1.
         12    1    3    3    0    0 -0.36123809042E+01  0.93679853498E+01 -0.13507973059E+02  0.16830739184E+02  0.00000000000E+00 0. -1.
</event>
<event>
 7    1  0.4132403E-010  0.4778728E+02  0.7816164E-02  0.1312668E+00
        -11   -1    0    0    0    0  0.00000000000E+00  0.00000000000E+00  0.45593999997E+02  0.45594000000E+02  0.51100000000E-03 0. -1.
         11   -1    0    0    0    0 -0.00000000000E+00 -0.00000000000E+00 -0.45593999997E+02  0.45594000000E+02  0.51100000000E-03 0.  1.
    9900012    2    1    2    0    0  0.14380015203E+02  0.16281410859E+01 -0.40916825465E+02  0.47787282416E+02  0.20000051849E+02 0.  0.
         12    1    1    2    0    0 -0.14380015203E+02 -0.16281410859E+01  0.40916825465E+02  0.43400717584E+02  0.00000000000E+00 0. -1.
         11    1    3    3    0    0  0.14790786550E+01  0.55851957649E+01 -0.91489363755E+01  0.10820587898E+02  0.51100000000E-03 0. -1.
        -11    1    3    3    0    0  0.52724529369E+01 -0.35237160115E+01 -0.27485680899E+02  0.28207764697E+02  0.51100000000E-03 0.  1.
         12    1    3    3    0    0  0.76284836116E+01 -0.43333866738E+00 -0.42822081909E+01  0.87589298207E+01  0.00000000000E+00 0. -1.
</event>
<event>
 7    1  0.3221417E-010  0.4778727E+02  0.7816164E-02  0.1312668E+00
        -11   -1    0    0    0    0  0.00000000000E+00  0.00000000000E+00  0.45593999997E+02  0.45594000000E+02  0.51100000000E-03 0. -1.
         11   -1    0    0    0    0 -0.00000000000E+00 -0.00000000000E+00 -0.45593999997E+02  0.45594000000E+02  0.51100000000E-03 0.  1.
    9900012    2    1    2    0    0 -0.17989748519E+02  0.33294760680E+02  0.21247377984E+02  0.47787271761E+02  0.20000003265E+02 0.  0.
        -12    1    1    2    0    0  0.17989748519E+02 -0.33294760680E+02 -0.21247377984E+02  0.43400728239E+02  0.00000000000E+00 0.  1.
         11    1    3    3    0    0  0.19182381046E+01  0.19964836305E+01  0.23791389524E+01  0.36504639059E+01  0.51100000000E-03 0. -1.
        -11    1    3    3    0    0 -0.15959143809E+02  0.13531187471E+02  0.57429740600E+01  0.21697213112E+02  0.51100000000E-03 0.  1.
         12    1    3    3    0    0 -0.39488428148E+01  0.17767089578E+02  0.13125264972E+02  0.22439594743E+02  0.00000000000E+00 0. -1.
</event>
<event>
 7    1  0.3221417E-010  0.4778727E+02  0.7816164E-02  0.1312668E+00
        -11   -1    0    0    0    0  0.00000000000E+00  0.00000000000E+00  0.45593999997E+02  0.45594000000E+02  0.51100000000E-03 0. -1.
         11   -1    0    0    0    0 -0.00000000000E+00 -0.00000000000E+00 -0.45593999997E+02  0.45594000000E+02  0.51100000000E-03 0.  1.
    9900012    2    1    2    0    0  0.21480521308E+01  0.17107512800E+02  0.39828913236E+02  0.47787268995E+02  0.19999990657E+02 0.  0.
        -12    1    1    2    0    0 -0.21480521308E+01 -0.17107512800E+02 -0.39828913236E+02  0.43400731005E+02  0.00000000000E+00 0.  1.
         11    1    3    3    0    0 -0.60292578429E+00  0.40353609506E+01 -0.93793550421E+00  0.41865714820E+01  0.51100000000E-03 0. -1.
        -11    1    3    3    0    0 -0.27259140471E+01  0.40780632914E+01  0.14173942312E+02  0.14998728231E+02  0.51100000000E-03 0.  1.
         12    1    3    3    0    0  0.54768919622E+01  0.89940885581E+01  0.26592906428E+02  0.28601969283E+02  0.00000000000E+00 0. -1.
</event>
<event>
 7    1  0.3221417E-010  0.4778727E+02  0.7816164E-02  0.1312668E+00
        -11   -1    0    0    0    0  0.00000000000E+00  0.00000000000E+00  0.45593999997E+02  0.45594000000E+02  0.51100000000E-03 0. -1.
         11   -1    0    0    0    0 -0.00000000000E+00 -0.00000000000E+00 -0.45593999997E+02  0.45594000000E+02  0.51100000000E-03 0.  1.
    9900012    2    1    2    0    0  0.37883644782E+01 -0.31435110746E+01  0.43120644061E+02  0.47787270611E+02  0.19999998022E+02 0.  0.
        -12    1    1    2    0    0 -0.37883644782E+01  0.31435110746E+01 -0.43120644061E+02  0.43400729389E+02  0.00000000000E+00 0.  1.
         11    1    3    3    0    0 -0.31163837158E+01 -0.37566092860E+01  0.11763430518E+01  0.50207314237E+01  0.51100000000E-03 0. -1.
        -11    1    3    3    0    0  0.16661599756E+01 -0.18236702192E+01  0.15758575848E+02  0.15951005459E+02  0.51100000000E-03 0.  1.
        -12    1    3    3    0    0  0.52385882185E+01  0.24367684306E+01  0.26185725161E+02  0.26815533728E+02  0.00000000000E+00 0.  1.
</event>
<event>
 7    1  0.3221417E-010  0.4778730E+02  0.7816164E-02  0.1312668E+00
        -11   -1    0    0    0    0  0.00000000000E+00  0.00000000000E+00  0.45593999997E+02  0.45594000000E+02  0.51100000000E-03 0. -1.
         11   -1    0    0    0    0 -0.00000000000E+00 -0.00000000000E+00 -0.45593999997E+02  0.45594000000E+02  0.51100000000E-03 0.  1.
    9900012    2    1    2    0    0 -0.31246535067E+02  0.90225983167E+01 -0.28737910425E+02  0.47787300355E+02  0.20000133639E+02 0.  0.
         12    1    1    2    0    0  0.31246535067E+02 -0.90225983167E+01  0.28737910425E+02  0.43400699645E+02  0.00000000000E+00 0. -1.
         11    1    3    3    0    0 -0.13239555390E+02 -0.27140596734E+01 -0.47241282408E+01  0.14316750146E+02  0.51100000000E-03 0. -1.
        -11    1    3    3    0    0 -0.97292276815E+01  0.22241499152E+01 -0.14810612672E+02  0.17859422222E+02  0.51100000000E-03 0.  1.
        -12    1    3    3    0    0 -0.82777519952E+01  0.95125080749E+01 -0.92031695121E+01  0.15611127987E+02  0.00000000000E+00 0.  1.
</event>
<event>
 7    1  0.3221417E-010  0.4778727E+02  0.7816164E-02  0.1312668E+00
        -11   -1    0    0    0    0  0.00000000000E+00  0.00000000000E+00  0.45593999997E+02  0.45594000000E+02  0.51100000000E-03 0. -1.
         11   -1    0    0    0    0 -0.00000000000E+00 -0.00000000000E+00 -0.45593999997E+02  0.45594000000E+02  0.51100000000E-03 0.  1.
    9900012    2    1    2    0    0  0.34502927816E+02  0.26195118300E+02 -0.26433195810E+01  0.47787269718E+02  0.19999993951E+02 0.  0.
         12    1    1    2    0    0 -0.34502927816E+02 -0.26195118300E+02  0.26433195810E+01  0.43400730282E+02  0.00000000000E+00 0. -1.
         11    1    3    3    0    0  0.17474947539E+01  0.59961859421E+00  0.40815479635E+01  0.44802136571E+01  0.51100000000E-03 0. -1.
        -11    1    3    3    0    0  0.14063326554E+02  0.57100355140E+01 -0.49204722902E+01  0.15955961492E+02  0.51100000000E-03 0.  1.
        -12    1    3    3    0    0  0.18692106509E+02  0.19885464192E+02 -0.18043952543E+01  0.27351094568E+02  0.00000000000E+00 0.  1.
</event>
<event>
 7    1  0.3221417E-010  0.4778727E+02  0.7816164E-02  0.1312668E+00
        -11   -1    0    0    0    0  0.00000000000E+00  0.00000000000E+00  0.45593999997E+02  0.45594000000E+02  0.51100000000E-03 0. -1.
         11   -1    0    0    0    0 -0.00000000000E+00 -0.00000000000E+00 -0.45593999997E+02  0.45594000000E+02  0.51100000000E-03 0.  1.
    9900012    2    1    2    0    0 -0.18017772997E+01 -0.20398382088E+02 -0.38265948768E+02  0.47787271569E+02  0.20000002391E+02 0.  0.
         12    1    1    2    0    0  0.18017772997E+01  0.20398382088E+02  0.38265948768E+02  0.43400728431E+02  0.00000000000E+00 0. -1.
         11    1    3    3    0    0  0.40984443264E+01  0.55966700309E+00 -0.97630229032E+01  0.10603164128E+02  0.51100000000E-03 0.  1.
        -11    1    3    3    0    0 -0.18026320221E+01 -0.64248942923E+00 -0.72531557770E+01  0.75013694656E+01  0.51100000000E-03 0. -1.
        -12    1    3    3    0    0 -0.40975896040E+01 -0.20315559662E+02 -0.21249770087E+02  0.29682737976E+02  0.00000000000E+00 0.  1.
</event>
<event>
 7    1  0.3221417E-010  0.4778727E+02  0.7816164E-02  0.1312668E+00
        -11   -1    0    0    0    0  0.00000000000E+00  0.00000000000E+00  0.45593999997E+02  0.45594000000E+02  0.51100000000E-03 0. -1.
         11   -1    0    0    0    0 -0.00000000000E+00 -0.00000000000E+00 -0.45593999997E+02  0.45594000000E+02  0.51100000000E-03 0.  1.
    9900012    2    1    2    0    0 -0.92670741152E+01  0.37937013929E+02  0.18934822832E+02  0.47787271847E+02  0.20000003661E+02 0.  0.
        -12    1    1    2    0    0  0.92670741152E+01 -0.37937013929E+02 -0.18934822832E+02  0.43400728153E+02  0.00000000000E+00 0.  1.
         11    1    3    3    0    0 -0.99987985864E+01  0.17040212205E+02  0.87168739876E+01  0.21594645113E+02  0.51100000000E-03 0. -1.
        -11    1    3    3    0    0 -0.46314987218E+01  0.14047994832E+02  0.34962208806E+01  0.15199358536E+02  0.51100000000E-03 0.  1.
        -12    1    3    3    0    0  0.53632231930E+01  0.68488068917E+01  0.67217279642E+01  0.10993268198E+02  0.00000000000E+00 0.  1.
</event>
<event>
 7    1  0.3221417E-010  0.4778728E+02  0.7816164E-02  0.1312668E+00
        -11   -1    0    0    0    0  0.00000000000E+00  0.00000000000E+00  0.45593999997E+02  0.45594000000E+02  0.51100000000E-03 0. -1.
         11   -1    0    0    0    0 -0.00000000000E+00 -0.00000000000E+00 -0.45593999997E+02  0.45594000000E+02  0.51100000000E-03 0.  1.
    9900012    2    1    2    0    0 -0.71222765938E+01  0.12563354815E+02 -0.40927474177E+02  0.47787275921E+02  0.20000022232E+02 0.  0.
         12    1    1    2    0    0  0.71222765938E+01 -0.12563354815E+02  0.40927474177E+02  0.43400724079E+02  0.00000000000E+00 0. -1.
         11    1    3    3    0    0 -0.61158383437E+01  0.58098152925E+00 -0.69530283103E+01  0.92782337289E+01  0.51100000000E-03 0. -1.
        -11    1    3    3    0    0  0.26252501054E+01  0.11386812420E+02 -0.32513164175E+02  0.34549345582E+02  0.51100000000E-03 0.  1.
         12    1    3    3    0    0 -0.36316883555E+01  0.59556086516E+00 -0.14612816917E+01  0.39596966093E+01  0.00000000000E+00 0. -1.
</event>
<event>
 7    1  0.3221417E-010  0.4778727E+02  0.7816164E-02  0.1312668E+00
        -11   -1    0    0    0    0  0.00000000000E+00  0.00000000000E+00  0.45593999997E+02  0.45594000000E+02  0.51100000000E-03 0. -1.
         11   -1    0    0    0    0 -0.00000000000E+00 -0.00000000000E+00 -0.45593999997E+02  0.45594000000E+02  0.51100000000E-03 0.  1.
    9900012    2    1    2    0    0 -0.11768734119E+02  0.39667167944E+01 -0.41585882290E+02  0.47787267854E+02  0.19999985455E+02 0.  0.
         12    1    1    2    0    0  0.11768734119E+02 -0.39667167944E+01  0.41585882290E+02  0.43400732146E+02  0.00000000000E+00 0. -1.
         11    1    3    3    0    0  0.41332627638E+01  0.44307882228E+01 -0.96480349587E+01  0.11392994522E+02  0.51100000000E-03 0. -1.
        -11    1    3    3    0    0 -0.78226163914E+01 -0.27865564679E+01 -0.21121130170E+02  0.22694941376E+02  0.51100000000E-03 0.  1.
        -12    1    3    3    0    0 -0.80793804919E+01  0.23224850395E+01 -0.10816717162E+02  0.13699331956E+02  0.00000000000E+00 0.  1.
</event>
<event>
 7    1  0.3221417E-010  0.4778727E+02  0.7816164E-02  0.1312668E+00
        -11   -1    0    0    0    0  0.00000000000E+00  0.00000000000E+00  0.45593999997E+02  0.45594000000E+02  0.51100000000E-03 0. -1.
         11   -1    0    0    0    0 -0.00000000000E+00 -0.00000000000E+00 -0.45593999997E+02  0.45594000000E+02  0.51100000000E-03 0.  1.
    9900012    2    1    2    0    0 -0.11215179814E+02  0.15153924948E+02  0.39092216526E+02  0.47787273133E+02  0.20000009524E+02 0.  0.
        -12    1    1    2    0    0  0.11215179814E+02 -0.15153924948E+02 -0.39092216526E+02  0.43400726867E+02  0.00000000000E+00 0.  1.
         11    1    3    3    0    0 -0.47329710439E+01  0.62765403511E+01  0.12263931839E+02  0.14567086123E+02  0.51100000000E-03 0.  1.
        -11    1    3    3    0    0 -0.45883122059E+01  0.13660349535E+02  0.20643373996E+02  0.25175516847E+02  0.51100000000E-03 0. -1.
         12    1    3    3    0    0 -0.18938965646E+01 -0.47829649375E+01  0.61849106905E+01  0.80446701636E+01  0.00000000000E+00 0. -1.
</event>
<event>
 7    1  0.3221417E-010  0.4778727E+02  0.7816164E-02  0.1312668E+00
        -11   -1    0    0    0    0  0.00000000000E+00  0.00000000000E+00  0.45593999997E+02  0.45594000000E+02  0.51100000000E-03 0.  1.
         11   -1    0    0    0    0 -0.00000000000E+00 -0.00000000000E+00 -0.45593999997E+02  0.45594000000E+02  0.51100000000E-03 0. -1.
    9900012    2    1    2    0    0  0.26469808444E+02 -0.22370498773E+02  0.26125337230E+02  0.47787271667E+02  0.20000002838E+02 0.  0.
        -12    1    1    2    0    0 -0.26469808444E+02  0.22370498773E+02 -0.26125337230E+02  0.43400728333E+02  0.00000000000E+00 0.  1.
         11    1    3    3    0    0  0.13964528248E+02 -0.68511331439E+01  0.66741452002E+01  0.16926024015E+02  0.51100000000E-03 0. -1.
        -11    1    3    3    0    0  0.93676114065E+01 -0.16775367681E+02  0.11931437108E+02  0.22616902883E+02  0.51100000000E-03 0.  1.
        -12    1    3    3    0    0  0.31376687897E+01  0.12560020512E+01  0.75197549218E+01  0.82443447690E+01  0.00000000000E+00 0.  1.
</event>
<event>
 7    1  0.3221417E-010  0.4778727E+02  0.7816164E-02  0.1312668E+00
        -11   -1    0    0    0    0  0.00000000000E+00  0.00000000000E+00  0.45593999997E+02  0.45594000000E+02  0.51100000000E-03 0. -1.
         11   -1    0    0    0    0 -0.00000000000E+00 -0.00000000000E+00 -0.45593999997E+02  0.45594000000E+02  0.51100000000E-03 0.  1.
    9900012    2    1    2    0    0  0.12121801292E+02 -0.23311057855E+02  0.34543887055E+02  0.47787267083E+02  0.19999981939E+02 0.  0.
        -12    1    1    2    0    0 -0.12121801292E+02  0.23311057855E+02 -0.34543887055E+02  0.43400732917E+02  0.00000000000E+00 0.  1.
         11    1    3    3    0    0  0.13220296940E+02 -0.15179808561E+02  0.19890806623E+02  0.28299240759E+02  0.51100000000E-03 0. -1.
        -11    1    3    3    0    0 -0.43906286678E+00 -0.56667534012E+01  0.12178853494E+01  0.58127545360E+01  0.51100000000E-03 0.  1.
        -12    1    3    3    0    0 -0.65943278098E+00 -0.24644958919E+01  0.13435195082E+02  0.13675271788E+02  0.00000000000E+00 0.  1.
</event>
<event>
 7    1  0.3221417E-010  0.4778728E+02  0.7816164E-02  0.1312668E+00
        -11   -1    0    0    0    0  0.00000000000E+00  0.00000000000E+00  0.45593999997E+02  0.45594000000E+02  0.51100000000E-03 0. -1.
         11   -1    0    0    0    0 -0.00000000000E+00 -0.00000000000E+00 -0.45593999997E+02  0.45594000000E+02  0.51100000000E-03 0.  1.
    9900012    2    1    2    0    0  0.92610748977E+01  0.23961885553E+02  0.34981186874E+02  0.47787275322E+02  0.20000019501E+02 0.  0.
        -12    1    1    2    0    0 -0.92610748977E+01 -0.23961885553E+02 -0.34981186874E+02  0.43400724678E+02  0.00000000000E+00 0.  1.
         11    1    3    3    0    0  0.75126972333E+01  0.77715054080E+01  0.89057476584E+01  0.14005329616E+02  0.51100000000E-03 0.  1.
        -11    1    3    3    0    0  0.51554629816E+00  0.17127304003E+02  0.27000143269E+02  0.31978400010E+02  0.51100000000E-03 0. -1.
         12    1    3    3    0    0  0.12328313662E+01 -0.93692385737E+00 -0.92470405343E+00  0.18035456963E+01  0.00000000000E+00 0. -1.
</event>
<event>
 7    1  0.3221417E-010  0.4778726E+02  0.7816164E-02  0.1312668E+00
        -11   -1    0    0    0    0  0.00000000000E+00  0.00000000000E+00  0.45593999997E+02  0.45594000000E+02  0.51100000000E-03 0. -1.
         11   -1    0    0    0    0 -0.00000000000E+00 -0.00000000000E+00 -0.45593999997E+02  0.45594000000E+02  0.51100000000E-03 0.  1.
    9900012    2    1    2    0    0  0.67615668159E+01  0.22351361032E+02 -0.36583080379E+02  0.47787263880E+02  0.19999967332E+02 0.  0.
         12    1    1    2    0    0 -0.67615668159E+01 -0.22351361032E+02  0.36583080379E+02  0.43400736120E+02  0.00000000000E+00 0. -1.
         11    1    3    3    0    0  0.77088910685E+01  0.39799710281E+01 -0.15989955988E+02  0.18191917536E+02  0.51100000000E-03 0. -1.
        -11    1    3    3    0    0  0.25685458273E+01  0.17412241816E+02 -0.16698890252E+02  0.24261832755E+02  0.51100000000E-03 0.  1.
        -12    1    3    3    0    0 -0.35158700799E+01  0.95914818751E+00 -0.38942341386E+01  0.53335135878E+01  0.00000000000E+00 0.  1.
</event>
<event>
 7    1  0.3221417E-010  0.4778727E+02  0.7816164E-02  0.1312668E+00
        -11   -1    0    0    0    0  0.00000000000E+00  0.00000000000E+00  0.45593999997E+02  0.45594000000E+02  0.51100000000E-03 0.  1.
         11   -1    0    0    0    0 -0.00000000000E+00 -0.00000000000E+00 -0.45593999997E+02  0.45594000000E+02  0.51100000000E-03 0. -1.
    9900012    2    1    2    0    0  0.20518942032E+02  0.37077524219E+02 -0.93730170020E+01  0.47787271526E+02  0.20000002197E+02 0.  0.
        -12    1    1    2    0    0 -0.20518942032E+02 -0.37077524219E+02  0.93730170020E+01  0.43400728474E+02  0.00000000000E+00 0.  1.
         11    1    3    3    0    0  0.99437407198E+01  0.60409557539E+01 -0.21206835373E+00  0.11636842320E+02  0.51100000000E-03 0. -1.
        -11    1    3    3    0    0  0.12717698244E+02  0.25163812748E+02 -0.49842250189E+01  0.28632146618E+02  0.51100000000E-03 0.  1.
        -12    1    3    3    0    0 -0.21424969314E+01  0.58727557166E+01 -0.41767236294E+01  0.75182825888E+01  0.00000000000E+00 0.  1.
</event>
<event>
 7    1  0.3272177E-010  0.4778728E+02  0.7816164E-02  0.1312668E+00
        -11   -1    0    0    0    0  0.00000000000E+00  0.00000000000E+00  0.45593999997E+02  0.45594000000E+02  0.51100000000E-03 0. -1.
         11   -1    0    0    0    0 -0.00000000000E+00 -0.00000000000E+00 -0.45593999997E+02  0.45594000000E+02  0.51100000000E-03 0.  1.
    9900012    2    1    2    0    0 -0.90481829652E+01 -0.28838944362E+02 -0.31145918372E+02  0.47787279291E+02  0.20000037598E+02 0.  0.
         12    1    1    2    0    0  0.90481829652E+01  0.28838944362E+02  0.31145918372E+02  0.43400720709E+02  0.00000000000E+00 0. -1.
         11    1    3    3    0    0  0.55308926173E+00 -0.71664480679E+01 -0.11801145076E+02  0.13817775183E+02  0.51100000000E-03 0. -1.
        -11    1    3    3    0    0 -0.74651123963E+01 -0.17283475107E+02 -0.21548016679E+02  0.28614042670E+02  0.51100000000E-03 0.  1.
         12    1    3    3    0    0 -0.21361598306E+01 -0.43890211874E+01  0.22032433836E+01  0.53554614379E+01  0.00000000000E+00 0. -1.
</event>
<event>
 7    1  0.4231245E-010  0.4778724E+02  0.7816164E-02  0.1312668E+00
        -11   -1    0    0    0    0  0.00000000000E+00  0.00000000000E+00  0.45593999997E+02  0.45594000000E+02  0.51100000000E-03 0. -1.
         11   -1    0    0    0    0 -0.00000000000E+00 -0.00000000000E+00 -0.45593999997E+02  0.45594000000E+02  0.51100000000E-03 0.  1.
    9900012    2    1    2    0    0 -0.22988013780E+02 -0.23669017360E+02 -0.28194941068E+02  0.47787241226E+02  0.19999864045E+02 0.  0.
         12    1    1    2    0    0  0.22988013780E+02  0.23669017360E+02  0.28194941068E+02  0.43400758774E+02  0.00000000000E+00 0. -1.
         11    1    3    3    0    0 -0.10877601233E+02 -0.13335958765E+02 -0.21539132474E+02  0.27569987899E+02  0.51100000000E-03 0. -1.
        -11    1    3    3    0    0 -0.91105946586E+01 -0.12395516570E+02 -0.60317486706E+01  0.16523733184E+02  0.51100000000E-03 0.  1.
         12    1    3    3    0    0 -0.29998178884E+01  0.20624579740E+01 -0.62405992390E+00  0.36935201430E+01  0.00000000000E+00 0. -1.
</event>
<event>
 7    1  0.3221417E-010  0.4778727E+02  0.7816164E-02  0.1312668E+00
        -11   -1    0    0    0    0  0.00000000000E+00  0.00000000000E+00  0.45593999997E+02  0.45594000000E+02  0.51100000000E-03 0. -1.
         11   -1    0    0    0    0 -0.00000000000E+00 -0.00000000000E+00 -0.45593999997E+02  0.45594000000E+02  0.51100000000E-03 0.  1.
    9900012    2    1    2    0    0  0.24438286728E+02 -0.60672714046E+01  0.35349419582E+02  0.47787272987E+02  0.20000008856E+02 0.  0.
        -12    1    1    2    0    0 -0.24438286728E+02  0.60672714046E+01 -0.35349419582E+02  0.43400727013E+02  0.00000000000E+00 0.  1.
         11    1    3    3    0    0  0.17659238405E+02 -0.31759501820E+01  0.22632675286E+02  0.28882059336E+02  0.51100000000E-03 0. -1.
        -11    1    3    3    0    0  0.51527841646E+01  0.35908864169E+01  0.26381314125E+01  0.68121499923E+01  0.51100000000E-03 0.  1.
        -12    1    3    3    0    0  0.16262641577E+01 -0.64822076395E+01  0.10078612884E+02  0.12093063659E+02  0.00000000000E+00 0.  1.
</event>
<event>
 7    1  0.3221417E-010  0.4778728E+02  0.7816164E-02  0.1312668E+00
        -11   -1    0    0    0    0  0.00000000000E+00  0.00000000000E+00  0.45593999997E+02  0.45594000000E+02  0.51100000000E-03 0. -1.
         11   -1    0    0    0    0 -0.00000000000E+00 -0.00000000000E+00 -0.45593999997E+02  0.45594000000E+02  0.51100000000E-03 0.  1.
    9900012    2    1    2    0    0  0.30898439038E+02  0.55704305132E+01  0.29964633783E+02  0.47787279858E+02  0.20000040185E+02 0.  0.
        -12    1    1    2    0    0 -0.30898439038E+02 -0.55704305132E+01 -0.29964633783E+02  0.43400720142E+02  0.00000000000E+00 0.  1.
         11    1    3    3    0    0  0.25765730381E+01  0.42044738426E+01  0.13422329032E+01  0.51105692776E+01  0.51100000000E-03 0. -1.
        -11    1    3    3    0    0  0.64444537153E+01 -0.46730296245E+01  0.12567591103E+02  0.14876576755E+02  0.51100000000E-03 0.  1.
         12    1    3    3    0    0  0.21877412285E+02  0.60389862951E+01  0.16054809777E+02  0.27800133826E+02  0.00000000000E+00 0. -1.
</event>
<event>
 7    1  0.3221417E-010  0.4778727E+02  0.7816164E-02  0.1312668E+00
        -11   -1    0    0    0    0  0.00000000000E+00  0.00000000000E+00  0.45593999997E+02  0.45594000000E+02  0.51100000000E-03 0. -1.
         11   -1    0    0    0    0 -0.00000000000E+00 -0.00000000000E+00 -0.45593999997E+02  0.45594000000E+02  0.51100000000E-03 0.  1.
    9900012    2    1    2    0    0 -0.65880211173E+01  0.37766329553E+02  0.20345165444E+02  0.47787269279E+02  0.19999991950E+02 0.  0.
        -12    1    1    2    0    0  0.65880211173E+01 -0.37766329553E+02 -0.20345165444E+02  0.43400730721E+02  0.00000000000E+00 0.  1.
         11    1    3    3    0    0 -0.73912280115E+01  0.25701801655E+02  0.51903681100E+01  0.27242481187E+02  0.51100000000E-03 0. -1.
        -11    1    3    3    0    0 -0.29441704419E+01  0.55758620026E+01  0.79814569043E+01  0.10171628741E+02  0.51100000000E-03 0.  1.
        -12    1    3    3    0    0  0.37473773360E+01  0.64886658956E+01  0.71733404299E+01  0.10373159351E+02  0.00000000000E+00 0.  1.
</event>
<event>
 7    1  0.3221417E-010  0.4778727E+02  0.7816164E-02  0.1312668E+00
        -11   -1    0    0    0    0  0.00000000000E+00  0.00000000000E+00  0.45593999997E+02  0.45594000000E+02  0.51100000000E-03 0. -1.
         11   -1    0    0    0    0 -0.00000000000E+00 -0.00000000000E+00 -0.45593999997E+02  0.45594000000E+02  0.51100000000E-03 0.  1.
    9900012    2    1    2    0    0 -0.26064193104E+02  0.10109048725E+02 -0.33197718070E+02  0.47787268286E+02  0.19999987422E+02 0.  0.
         12    1    1    2    0    0  0.26064193104E+02 -0.10109048725E+02  0.33197718070E+02  0.43400731714E+02  0.00000000000E+00 0. -1.
         11    1    3    3    0    0 -0.14020617716E+02  0.62934371542E+01 -0.27572048469E+02  0.31565850684E+02  0.51100000000E-03 0. -1.
        -11    1    3    3    0    0 -0.11350912177E+02  0.40393104794E+01 -0.75128915193E+01  0.14198689223E+02  0.51100000000E-03 0.  1.
         12    1    3    3    0    0 -0.69266321127E+00 -0.22369890818E+00  0.18872219188E+01  0.20227283793E+01  0.00000000000E+00 0. -1.
</event>
<event>
 7    1  0.3221417E-010  0.4778727E+02  0.7816164E-02  0.1312668E+00
        -11   -1    0    0    0    0  0.00000000000E+00  0.00000000000E+00  0.45593999997E+02  0.45594000000E+02  0.51100000000E-03 0. -1.
         11   -1    0    0    0    0 -0.00000000000E+00 -0.00000000000E+00 -0.45593999997E+02  0.45594000000E+02  0.51100000000E-03 0.  1.
    9900012    2    1    2    0    0 -0.13645260883E+01 -0.37196803421E+02  0.22319478122E+02  0.47787271667E+02  0.20000002838E+02 0.  0.
        -12    1    1    2    0    0  0.13645260883E+01  0.37196803421E+02 -0.22319478122E+02  0.43400728333E+02  0.00000000000E+00 0.  1.
         11    1    3    3    0    0 -0.64530529675E+01 -0.15929522995E+02  0.16070829009E+02  0.23530047614E+02  0.51100000000E-03 0. -1.
        -11    1    3    3    0    0  0.11347112942E+01 -0.89680824377E+01  0.68227706972E+01  0.11325381785E+02  0.51100000000E-03 0.  1.
        -12    1    3    3    0    0  0.39538155850E+01 -0.12299197988E+02 -0.57412158335E+00  0.12931842267E+02  0.00000000000E+00 0.  1.
</event>
<event>
 7    1  0.3221417E-010  0.4778728E+02  0.7816164E-02  0.1312668E+00
        -11   -1    0    0    0    0  0.00000000000E+00  0.00000000000E+00  0.45593999997E+02  0.45594000000E+02  0.51100000000E-03 0. -1.
         11   -1    0    0    0    0 -0.00000000000E+00 -0.00000000000E+00 -0.45593999997E+02  0.45594000000E+02  0.51100000000E-03 0.  1.
    9900012    2    1    2    0    0 -0.32456963770E+02  0.21826174445E+01  0.28729853124E+02  0.47787276773E+02  0.20000026119E+02 0.  0.
        -12    1    1    2    0    0  0.32456963770E+02 -0.21826174445E+01 -0.28729853124E+02  0.43400723227E+02  0.00000000000E+00 0.  1.
         11    1    3    3    0    0 -0.23063990427E+02  0.97878835163E+01  0.23803817561E+02  0.34559688206E+02  0.51100000000E-03 0. -1.
        -11    1    3    3    0    0 -0.61475391965E+01 -0.37039184351E+01  0.24749133530E+01  0.75918671163E+01  0.51100000000E-03 0.  1.
         12    1    3    3    0    0 -0.32454341469E+01 -0.39013476368E+01  0.24511222102E+01  0.56357214511E+01  0.00000000000E+00 0. -1.
</event>
<event>
 7    1  0.3221417E-010  0.4778727E+02  0.7816164E-02  0.1312668E+00
        -11   -1    0    0    0    0  0.00000000000E+00  0.00000000000E+00  0.45593999997E+02  0.45594000000E+02  0.51100000000E-03 0.  1.
         11   -1    0    0    0    0 -0.00000000000E+00 -0.00000000000E+00 -0.45593999997E+02  0.45594000000E+02  0.51100000000E-03 0. -1.
    9900012    2    1    2    0    0  0.33851283714E+02 -0.20097641911E+02 -0.18270160414E+02  0.47787269810E+02  0.19999994373E+02 0.  0.
        -12    1    1    2    0    0 -0.33851283714E+02  0.20097641911E+02  0.18270160414E+02  0.43400730190E+02  0.00000000000E+00 0.  1.
         11    1    3    3    0    0  0.19051369049E+02 -0.14078692512E+02 -0.15981877440E+02  0.28575945343E+02  0.51100000000E-03 0. -1.
        -11    1    3    3    0    0 -0.12206742087E+01 -0.21239597191E+01  0.47138896735E+00  0.24946859987E+01  0.51100000000E-03 0.  1.
        -12    1    3    3    0    0  0.16020588874E+02 -0.38949896800E+01 -0.27596719410E+01  0.16716638468E+02  0.00000000000E+00 0.  1.
</event>
<event>
 7    1  0.3221417E-010  0.4778726E+02  0.7816164E-02  0.1312668E+00
        -11   -1    0    0    0    0  0.00000000000E+00  0.00000000000E+00  0.45593999997E+02  0.45594000000E+02  0.51100000000E-03 0. -1.
         11   -1    0    0    0    0 -0.00000000000E+00 -0.00000000000E+00 -0.45593999997E+02  0.45594000000E+02  0.51100000000E-03 0.  1.
    9900012    2    1    2    0    0 -0.16079272293E+02  0.97243364389E+00  0.40300565049E+02  0.47787260744E+02  0.19999953038E+02 0.  0.
        -12    1    1    2    0    0  0.16079272293E+02 -0.97243364389E+00 -0.40300565049E+02  0.43400739256E+02  0.00000000000E+00 0.  1.
         11    1    3    3    0    0 -0.96331627877E+01 -0.49937883520E+01  0.19523139524E+02  0.22335817078E+02  0.51100000000E-03 0. -1.
        -11    1    3    3    0    0 -0.69520652699E+01  0.78532113292E+01  0.21011561165E+02  0.23483820868E+02  0.51100000000E-03 0.  1.
         12    1    3    3    0    0  0.50595576507E+00 -0.18869893333E+01 -0.23413563979E+00  0.19676227987E+01  0.00000000000E+00 0. -1.
</event>
<event>
 7    1  0.3221417E-010  0.4778727E+02  0.7816164E-02  0.1312668E+00
        -11   -1    0    0    0    0  0.00000000000E+00  0.00000000000E+00  0.45593999997E+02  0.45594000000E+02  0.51100000000E-03 0. -1.
         11   -1    0    0    0    0 -0.00000000000E+00 -0.00000000000E+00 -0.45593999997E+02  0.45594000000E+02  0.51100000000E-03 0.  1.
    9900012    2    1    2    0    0 -0.16543585918E+02 -0.94173648910E+01 -0.39003159102E+02  0.47787269402E+02  0.19999992511E+02 0.  0.
         12    1    1    2    0    0  0.16543585918E+02  0.94173648910E+01  0.39003159102E+02  0.43400730598E+02  0.00000000000E+00 0. -1.
         11    1    3    3    0    0 -0.53428073491E+01  0.53806216025E+01 -0.11624665025E+02  0.13879103588E+02  0.51100000000E-03 0. -1.
        -11    1    3    3    0    0 -0.84462159061E+01 -0.74401010730E+01 -0.10977873400E+02  0.15722829636E+02  0.51100000000E-03 0.  1.
        -12    1    3    3    0    0 -0.27545626625E+01 -0.73578854205E+01 -0.16400620678E+02  0.18185336179E+02  0.00000000000E+00 0.  1.
</event>
<event>
 7    1  0.3221417E-010  0.4778725E+02  0.7816164E-02  0.1312668E+00
        -11   -1    0    0    0    0  0.00000000000E+00  0.00000000000E+00  0.45593999997E+02  0.45594000000E+02  0.51100000000E-03 0. -1.
         11   -1    0    0    0    0 -0.00000000000E+00 -0.00000000000E+00 -0.45593999997E+02  0.45594000000E+02  0.51100000000E-03 0.  1.
    9900012    2    1    2    0    0  0.15361487153E+02 -0.14416005926E+02  0.37945074726E+02  0.47787248735E+02  0.19999898282E+02 0.  0.
        -12    1    1    2    0    0 -0.15361487153E+02  0.14416005926E+02 -0.37945074726E+02  0.43400751265E+02  0.00000000000E+00 0.  1.
         11    1    3    3    0    0  0.45585002607E+01 -0.11470429525E+01  0.66834233505E+01  0.81709106044E+01  0.51100000000E-03 0. -1.
        -11    1    3    3    0    0  0.10995595502E+02 -0.14250378928E+02  0.15300130525E+02  0.23623514014E+02  0.51100000000E-03 0.  1.
        -12    1    3    3    0    0 -0.19260860973E+00  0.98141595465E+00  0.15961520851E+02  0.15992824117E+02  0.00000000000E+00 0.  1.
</event>
<event>
 7    1  0.3221417E-010  0.4778727E+02  0.7816164E-02  0.1312668E+00
        -11   -1    0    0    0    0  0.00000000000E+00  0.00000000000E+00  0.45593999997E+02  0.45594000000E+02  0.51100000000E-03 0.  1.
         11   -1    0    0    0    0 -0.00000000000E+00 -0.00000000000E+00 -0.45593999997E+02  0.45594000000E+02  0.51100000000E-03 0. -1.
    9900012    2    1    2    0    0 -0.40232687242E+02 -0.12825223750E+02  0.10023368597E+02  0.47787269534E+02  0.19999993114E+02 0.  0.
        -12    1    1    2    0    0  0.40232687242E+02  0.12825223750E+02 -0.10023368597E+02  0.43400730466E+02  0.00000000000E+00 0.  1.
         11    1    3    3    0    0 -0.20469382802E+02 -0.32752097544E+01  0.62973800323E+01  0.21665170822E+02  0.51100000000E-03 0. -1.
        -11    1    3    3    0    0 -0.20982641361E+02 -0.55956588701E+01  0.30466955672E+01  0.21928634039E+02  0.51100000000E-03 0.  1.
        -12    1    3    3    0    0  0.12193369212E+01 -0.39543551257E+01  0.67929299706E+00  0.41934646729E+01  0.00000000000E+00 0.  1.
</event>
<event>
 7    1  0.3221417E-010  0.4778725E+02  0.7816164E-02  0.1312668E+00
        -11   -1    0    0    0    0  0.00000000000E+00  0.00000000000E+00  0.45593999997E+02  0.45594000000E+02  0.51100000000E-03 0. -1.
         11   -1    0    0    0    0 -0.00000000000E+00 -0.00000000000E+00 -0.45593999997E+02  0.45594000000E+02  0.51100000000E-03 0.  1.
    9900012    2    1    2    0    0 -0.66676422633E+01  0.23922064359E+02 -0.35593575942E+02  0.47787248107E+02  0.19999895418E+02 0.  0.
         12    1    1    2    0    0  0.66676422633E+01 -0.23922064359E+02  0.35593575942E+02  0.43400751893E+02  0.00000000000E+00 0. -1.
         11    1    3    3    0    0 -0.23225040530E+01  0.18603241308E+01 -0.39743761164E+01  0.49649266585E+01  0.51100000000E-03 0. -1.
        -11    1    3    3    0    0 -0.98889890318E+01  0.20992447216E+02 -0.24670456592E+02  0.33868958840E+02  0.51100000000E-03 0.  1.
         12    1    3    3    0    0  0.55438508216E+01  0.10692930128E+01 -0.69487432331E+01  0.89533626085E+01  0.00000000000E+00 0. -1.
</event>
<event>
 7    1  0.3221417E-010  0.4778727E+02  0.7816164E-02  0.1312668E+00
        -11   -1    0    0    0    0  0.00000000000E+00  0.00000000000E+00  0.45593999997E+02  0.45594000000E+02  0.51100000000E-03 0. -1.
         11   -1    0    0    0    0 -0.00000000000E+00 -0.00000000000E+00 -0.45593999997E+02  0.45594000000E+02  0.51100000000E-03 0.  1.
    9900012    2    1    2    0    0  0.40442865865E+02 -0.92908337167E+01  0.12715292509E+02  0.47787266664E+02  0.19999980028E+02 0.  0.
        -12    1    1    2    0    0 -0.40442865865E+02  0.92908337167E+01 -0.12715292509E+02  0.43400733336E+02  0.00000000000E+00 0.  1.
         11    1    3    3    0    0  0.33021691012E+02 -0.91022008141E+01  0.23890394158E+01  0.34336418662E+02  0.51100000000E-03 0. -1.
        -11    1    3    3    0    0  0.50982931761E+01  0.17253477757E+01  0.50720024854E+01  0.73955816357E+01  0.51100000000E-03 0.  1.
        -12    1    3    3    0    0  0.23228816768E+01 -0.19139806783E+01  0.52542506074E+01  0.60552663663E+01  0.00000000000E+00 0.  1.
</event>
<event>
 7    1  0.3221417E-010  0.4778727E+02  0.7816164E-02  0.1312668E+00
        -11   -1    0    0    0    0  0.00000000000E+00  0.00000000000E+00  0.45593999997E+02  0.45594000000E+02  0.51100000000E-03 0. -1.
         11   -1    0    0    0    0 -0.00000000000E+00 -0.00000000000E+00 -0.45593999997E+02  0.45594000000E+02  0.51100000000E-03 0.  1.
    9900012    2    1    2    0    0 -0.38347861218E+02 -0.32108484708E+01  0.20068764717E+02  0.47787270454E+02  0.19999997308E+02 0.  0.
        -12    1    1    2    0    0  0.38347861218E+02  0.32108484708E+01 -0.20068764717E+02  0.43400729546E+02  0.00000000000E+00 0.  1.
         11    1    3    3    0    0 -0.41147809513E+01  0.35322726624E+01  0.60019327140E+01  0.80889782422E+01  0.51100000000E-03 0. -1.
        -11    1    3    3    0    0 -0.87181163612E+01  0.34810200550E+01  0.56264149022E+01  0.10944386617E+02  0.51100000000E-03 0.  1.
         12    1    3    3    0    0 -0.25514963905E+02 -0.10224141188E+02  0.84404171005E+01  0.28753905595E+02  0.00000000000E+00 0. -1.
</event>
<event>
 7    1  0.3221417E-010  0.4778727E+02  0.7816164E-02  0.1312668E+00
        -11   -1    0    0    0    0  0.00000000000E+00  0.00000000000E+00  0.45593999997E+02  0.45594000000E+02  0.51100000000E-03 0.  1.
         11   -1    0    0    0    0 -0.00000000000E+00 -0.00000000000E+00 -0.45593999997E+02  0.45594000000E+02  0.51100000000E-03 0. -1.
    9900012    2    1    2    0    0  0.69544703972E+01  0.41067010924E+02  0.12196698665E+02  0.47787268404E+02  0.19999987961E+02 0.  0.
        -12    1    1    2    0    0 -0.69544703972E+01 -0.41067010924E+02 -0.12196698665E+02  0.43400731596E+02  0.00000000000E+00 0.  1.
         11    1    3    3    0    0 -0.11937466838E+01  0.15996060074E+02  0.13888775948E+02  0.21217847832E+02  0.51100000000E-03 0. -1.
        -11    1    3    3    0    0  0.15120883374E+01  0.53404729752E+01 -0.15096100925E+01  0.57520418663E+01  0.51100000000E-03 0.  1.
         12    1    3    3    0    0  0.66361287436E+01  0.19730477875E+02 -0.18246719084E+00  0.20817378706E+02  0.00000000000E+00 0. -1.
</event>
<event>
 7    1  0.3221417E-010  0.4778726E+02  0.7816164E-02  0.1312668E+00
        -11   -1    0    0    0    0  0.00000000000E+00  0.00000000000E+00  0.45593999997E+02  0.45594000000E+02  0.51100000000E-03 0. -1.
         11   -1    0    0    0    0 -0.00000000000E+00 -0.00000000000E+00 -0.45593999997E+02  0.45594000000E+02  0.51100000000E-03 0.  1.
    9900012    2    1    2    0    0  0.16990766496E+02 -0.31400130987E+02  0.24677315606E+02  0.47787259480E+02  0.19999947275E+02 0.  0.
        -12    1    1    2    0    0 -0.16990766496E+02  0.31400130987E+02 -0.24677315606E+02  0.43400740520E+02  0.00000000000E+00 0.  1.
         11    1    3    3    0    0  0.13630071084E+02 -0.20110723957E+02  0.17933481653E+02  0.30196520003E+02  0.51100000000E-03 0. -1.
        -11    1    3    3    0    0  0.42462526496E+00 -0.12892494157E+02  0.52430964059E+01  0.13924323049E+02  0.51100000000E-03 0.  1.
        -12    1    3    3    0    0  0.29360701472E+01  0.16030871260E+01  0.15007375468E+01  0.36664164284E+01  0.00000000000E+00 0.  1.
</event>
<event>
 7    1  0.3221417E-010  0.4778727E+02  0.7816164E-02  0.1312668E+00
        -11   -1    0    0    0    0  0.00000000000E+00  0.00000000000E+00  0.45593999997E+02  0.45594000000E+02  0.51100000000E-03 0. -1.
         11   -1    0    0    0    0 -0.00000000000E+00 -0.00000000000E+00 -0.45593999997E+02  0.45594000000E+02  0.51100000000E-03 0.  1.
    9900012    2    1    2    0    0  0.19360783236E+02  0.36050768174E+02  0.14461163234E+02  0.47787273560E+02  0.20000011469E+02 0.  0.
        -12    1    1    2    0    0 -0.19360783236E+02 -0.36050768174E+02 -0.14461163234E+02  0.43400726440E+02  0.00000000000E+00 0.  1.
         11    1    3    3    0    0  0.26154026696E+01 -0.89483596909E+00  0.27819641553E+00  0.27782109427E+01  0.51100000000E-03 0. -1.
        -11    1    3    3    0    0  0.17079996063E+02  0.27310196006E+02  0.69405465228E+01  0.32950633647E+02  0.51100000000E-03 0.  1.
         12    1    3    3    0    0 -0.33461549666E+00  0.96354081367E+01  0.72424202959E+01  0.12058428970E+02  0.00000000000E+00 0. -1.
</event>
<event>
 7    1  0.3221417E-010  0.4778727E+02  0.7816164E-02  0.1312668E+00
        -11   -1    0    0    0    0  0.00000000000E+00  0.00000000000E+00  0.45593999997E+02  0.45594000000E+02  0.51100000000E-03 0. -1.
         11   -1    0    0    0    0 -0.00000000000E+00 -0.00000000000E+00 -0.45593999997E+02  0.45594000000E+02  0.51100000000E-03 0.  1.
    9900012    2    1    2    0    0 -0.30591078037E+02 -0.15575126766E+02 -0.26556071318E+02  0.47787267828E+02  0.19999985334E+02 0.  0.
         12    1    1    2    0    0  0.30591078037E+02  0.15575126766E+02  0.26556071318E+02  0.43400732172E+02  0.00000000000E+00 0. -1.
         11    1    3    3    0    0  0.47181406971E+00 -0.11985329446E+01  0.17403089062E+01  0.21651247275E+01  0.51100000000E-03 0. -1.
        -11    1    3    3    0    0 -0.11891627384E+01  0.12456106887E+01 -0.19356680972E+00  0.17329519258E+01  0.51100000000E-03 0.  1.
        -12    1    3    3    0    0 -0.29873729369E+02 -0.15622204510E+02 -0.28102813414E+02  0.43889191174E+02  0.00000000000E+00 0.  1.
</event>
<event>
 7    1  0.3221417E-010  0.4778727E+02  0.7816164E-02  0.1312668E+00
        -11   -1    0    0    0    0  0.00000000000E+00  0.00000000000E+00  0.45593999997E+02  0.45594000000E+02  0.51100000000E-03 0. -1.
         11   -1    0    0    0    0 -0.00000000000E+00 -0.00000000000E+00 -0.45593999997E+02  0.45594000000E+02  0.51100000000E-03 0.  1.
    9900012    2    1    2    0    0  0.63294022045E+01  0.15944077195E+02 -0.39866630135E+02  0.47787272723E+02  0.20000007653E+02 0.  0.
         12    1    1    2    0    0 -0.63294022045E+01 -0.15944077195E+02  0.39866630135E+02  0.43400727277E+02  0.00000000000E+00 0. -1.
         11    1    3    3    0    0  0.37865732580E-01 -0.26797610478E+01 -0.12517772553E+02  0.12801452380E+02  0.51100000000E-03 0. -1.
        -11    1    3    3    0    0  0.56024289391E+01  0.10833560335E+02 -0.23009083320E+02  0.26041719510E+02  0.51100000000E-03 0.  1.
         12    1    3    3    0    0  0.68910753282E+00  0.77902779076E+01 -0.43397742625E+01  0.89441008335E+01  0.00000000000E+00 0. -1.
</event>
<event>
 7    1  0.3221417E-010  0.4778727E+02  0.7816164E-02  0.1312668E+00
        -11   -1    0    0    0    0  0.00000000000E+00  0.00000000000E+00  0.45593999997E+02  0.45594000000E+02  0.51100000000E-03 0. -1.
         11   -1    0    0    0    0 -0.00000000000E+00 -0.00000000000E+00 -0.45593999997E+02  0.45594000000E+02  0.51100000000E-03 0.  1.
    9900012    2    1    2    0    0  0.81643692962E+01 -0.18510117386E+02 -0.38397159791E+02  0.47787271300E+02  0.20000001167E+02 0.  0.
         12    1    1    2    0    0 -0.81643692962E+01  0.18510117386E+02  0.38397159791E+02  0.43400728700E+02  0.00000000000E+00 0. -1.
         11    1    3    3    0    0  0.33877788293E+01 -0.16921548017E+02 -0.20331969187E+02  0.26668423350E+02  0.51100000000E-03 0.  1.
        -11    1    3    3    0    0 -0.30137747037E+01 -0.57525899862E+00 -0.45956260965E+01  0.55257162758E+01  0.51100000000E-03 0. -1.
        -12    1    3    3    0    0  0.77903651707E+01 -0.10133103703E+01 -0.13469564508E+02  0.15593131675E+02  0.00000000000E+00 0.  1.
</event>
<event>
 7    1  0.3221417E-010  0.4778727E+02  0.7816164E-02  0.1312668E+00
        -11   -1    0    0    0    0  0.00000000000E+00  0.00000000000E+00  0.45593999997E+02  0.45594000000E+02  0.51100000000E-03 0. -1.
         11   -1    0    0    0    0 -0.00000000000E+00 -0.00000000000E+00 -0.45593999997E+02  0.45594000000E+02  0.51100000000E-03 0.  1.
    9900012    2    1    2    0    0 -0.16755225436E+02 -0.33738002957E+02  0.21555343121E+02  0.47787271434E+02  0.20000001778E+02 0.  0.
        -12    1    1    2    0    0  0.16755225436E+02  0.33738002957E+02 -0.21555343121E+02  0.43400728566E+02  0.00000000000E+00 0.  1.
         11    1    3    3    0    0 -0.25273758437E+01 -0.13395414553E+02  0.57544150416E+01  0.14796555425E+02  0.51100000000E-03 0. -1.
        -11    1    3    3    0    0 -0.90040163949E+01 -0.60726336905E+01  0.13954820072E+02  0.17682935126E+02  0.51100000000E-03 0.  1.
        -12    1    3    3    0    0 -0.52238331976E+01 -0.14269954713E+02  0.18461080075E+01  0.15307780883E+02  0.00000000000E+00 0.  1.
</event>
<event>
 7    1  0.3221417E-010  0.4778727E+02  0.7816164E-02  0.1312668E+00
        -11   -1    0    0    0    0  0.00000000000E+00  0.00000000000E+00  0.45593999997E+02  0.45594000000E+02  0.51100000000E-03 0. -1.
         11   -1    0    0    0    0 -0.00000000000E+00 -0.00000000000E+00 -0.45593999997E+02  0.45594000000E+02  0.51100000000E-03 0.  1.
    9900012    2    1    2    0    0  0.35413073320E+01  0.23451663134E+02  0.36346971037E+02  0.47787266539E+02  0.19999979457E+02 0.  0.
        -12    1    1    2    0    0 -0.35413073320E+01 -0.23451663134E+02 -0.36346971037E+02  0.43400733461E+02  0.00000000000E+00 0.  1.
         11    1    3    3    0    0  0.67680619435E+01  0.11134049056E+02  0.21801436102E+02  0.25398352845E+02  0.51100000000E-03 0. -1.
        -11    1    3    3    0    0 -0.31637930181E+01  0.14072488865E+02  0.14738881478E+02  0.20622297559E+02  0.51100000000E-03 0.  1.
        -12    1    3    3    0    0 -0.62961593319E-01 -0.17548747878E+01 -0.19334654267E+00  0.17666161351E+01  0.00000000000E+00 0.  1.
</event>
<event>
 7    1  0.3221417E-010  0.4778727E+02  0.7816164E-02  0.1312668E+00
        -11   -1    0    0    0    0  0.00000000000E+00  0.00000000000E+00  0.45593999997E+02  0.45594000000E+02  0.51100000000E-03 0. -1.
         11   -1    0    0    0    0 -0.00000000000E+00 -0.00000000000E+00 -0.45593999997E+02  0.45594000000E+02  0.51100000000E-03 0.  1.
    9900012    2    1    2    0    0  0.17070602600E+01 -0.28701656779E+02 -0.32510365412E+02  0.47787274017E+02  0.20000013555E+02 0.  0.
         12    1    1    2    0    0 -0.17070602600E+01  0.28701656779E+02  0.32510365412E+02  0.43400725983E+02  0.00000000000E+00 0. -1.
         11    1    3    3    0    0  0.15661128444E+01 -0.35986455665E+01 -0.12734309808E+02  0.13325374513E+02  0.51100000000E-03 0. -1.
        -11    1    3    3    0    0 -0.44132429676E+01 -0.19103467075E+02 -0.18230760858E+02  0.26772743780E+02  0.51100000000E-03 0.  1.
        -12    1    3    3    0    0  0.45541903832E+01 -0.59995441382E+01 -0.15452947455E+01  0.76891557250E+01  0.00000000000E+00 0.  1.
</event>
<event>
 7    1  0.3221417E-010  0.4778727E+02  0.7816164E-02  0.1312668E+00
        -11   -1    0    0    0    0  0.00000000000E+00  0.00000000000E+00  0.45593999997E+02  0.45594000000E+02  0.51100000000E-03 0. -1.
         11   -1    0    0    0    0 -0.00000000000E+00 -0.00000000000E+00 -0.45593999997E+02  0.45594000000E+02  0.51100000000E-03 0.  1.
    9900012    2    1    2    0    0 -0.27225543551E+02  0.19735955448E+02  0.27438750719E+02  0.47787271894E+02  0.20000003875E+02 0.  0.
        -12    1    1    2    0    0  0.27225543551E+02 -0.19735955448E+02 -0.27438750719E+02  0.43400728106E+02  0.00000000000E+00 0.  1.
         11    1    3    3    0    0  0.16672262230E+01  0.27543610023E+01  0.50876080013E+01  0.60207892543E+01  0.51100000000E-03 0.  1.
        -11    1    3    3    0    0 -0.18223012862E+02  0.15016180719E+02  0.19298781314E+02  0.30496013536E+02  0.51100000000E-03 0. -1.
        -12    1    3    3    0    0 -0.10669756912E+02  0.19654137275E+01  0.30523614036E+01  0.11270469104E+02  0.00000000000E+00 0.  1.
</event>
<event>
 7    1  0.3221417E-010  0.4778727E+02  0.7816164E-02  0.1312668E+00
        -11   -1    0    0    0    0  0.00000000000E+00  0.00000000000E+00  0.45593999997E+02  0.45594000000E+02  0.51100000000E-03 0.  1.
         11   -1    0    0    0    0 -0.00000000000E+00 -0.00000000000E+00 -0.45593999997E+02  0.45594000000E+02  0.51100000000E-03 0. -1.
    9900012    2    1    2    0    0  0.24105542497E+02 -0.30327805488E+02  0.19564515803E+02  0.47787271395E+02  0.20000001599E+02 0.  0.
        -12    1    1    2    0    0 -0.24105542497E+02  0.30327805488E+02 -0.19564515803E+02  0.43400728605E+02  0.00000000000E+00 0.  1.
         11    1    3    3    0    0  0.42444938655E+01 -0.71510853810E+01 -0.18790332071E+01  0.85255214712E+01  0.51100000000E-03 0. -1.
        -11    1    3    3    0    0  0.70355532621E+01 -0.16997557130E+02  0.14492668958E+02  0.23419082217E+02  0.51100000000E-03 0.  1.
        -12    1    3    3    0    0  0.12825495370E+02 -0.61791629768E+01  0.69508800524E+01  0.15842667707E+02  0.00000000000E+00 0.  1.
</event>
<event>
 7    1  0.3221417E-010  0.4778727E+02  0.7816164E-02  0.1312668E+00
        -11   -1    0    0    0    0  0.00000000000E+00  0.00000000000E+00  0.45593999997E+02  0.45594000000E+02  0.51100000000E-03 0.  1.
         11   -1    0    0    0    0 -0.00000000000E+00 -0.00000000000E+00 -0.45593999997E+02  0.45594000000E+02  0.51100000000E-03 0. -1.
    9900012    2    1    2    0    0  0.37487293018E+02 -0.19604711526E+02 -0.96944280612E+01  0.47787265130E+02  0.19999973033E+02 0.  0.
         12    1    1    2    0    0 -0.37487293018E+02  0.19604711526E+02  0.96944280612E+01  0.43400734870E+02  0.00000000000E+00 0. -1.
         11    1    3    3    0    0 -0.10289348184E+01 -0.29252883704E+01  0.32004981907E+00  0.31174430321E+01  0.51100000000E-03 0. -1.
        -11    1    3    3    0    0  0.26865046489E+02 -0.16988224499E+02 -0.60322946452E+01  0.32353038086E+02  0.51100000000E-03 0.  1.
        -12    1    3    3    0    0  0.11651181347E+02  0.30880134345E+00 -0.39821832351E+01  0.12316784011E+02  0.00000000000E+00 0.  1.
</event>
<event>
 7    1  0.3221417E-010  0.4778727E+02  0.7816164E-02  0.1312668E+00
        -11   -1    0    0    0    0  0.00000000000E+00  0.00000000000E+00  0.45593999997E+02  0.45594000000E+02  0.51100000000E-03 0. -1.
         11   -1    0    0    0    0 -0.00000000000E+00 -0.00000000000E+00 -0.45593999997E+02  0.45594000000E+02  0.51100000000E-03 0.  1.
    9900012    2    1    2    0    0  0.10385276463E+02  0.21646502750E+02 -0.36155197371E+02  0.47787270220E+02  0.19999996242E+02 0.  0.
         12    1    1    2    0    0 -0.10385276463E+02 -0.21646502750E+02  0.36155197371E+02  0.43400729780E+02  0.00000000000E+00 0. -1.
         11    1    3    3    0    0 -0.20983279152E+01  0.47395139167E+01 -0.11188224677E+02  0.12330545158E+02  0.51100000000E-03 0.  1.
        -11    1    3    3    0    0  0.63866482181E+01  0.38919835329E+01 -0.10483921484E+01  0.75522140886E+01  0.51100000000E-03 0. -1.
         12    1    3    3    0    0  0.60969561602E+01  0.13015005300E+02 -0.23918580545E+02  0.27904510974E+02  0.00000000000E+00 0. -1.
</event>
<event>
 7    1  0.3221417E-010  0.4778727E+02  0.7816164E-02  0.1312668E+00
        -11   -1    0    0    0    0  0.00000000000E+00  0.00000000000E+00  0.45593999997E+02  0.45594000000E+02  0.51100000000E-03 0. -1.
         11   -1    0    0    0    0 -0.00000000000E+00 -0.00000000000E+00 -0.45593999997E+02  0.45594000000E+02  0.51100000000E-03 0.  1.
    9900012    2    1    2    0    0  0.22532371058E+02  0.25780544807E+02 -0.26669824791E+02  0.47787265094E+02  0.19999972869E+02 0.  0.
         12    1    1    2    0    0 -0.22532371058E+02 -0.25780544807E+02  0.26669824791E+02  0.43400734906E+02  0.00000000000E+00 0. -1.
         11    1    3    3    0    0  0.70314436501E+00 -0.11835068708E+01 -0.65008103023E+01  0.66449706816E+01  0.51100000000E-03 0.  1.
        -11    1    3    3    0    0  0.10806489844E+02  0.13046610737E+02 -0.46642707760E+01  0.17571274757E+02  0.51100000000E-03 0. -1.
        -12    1    3    3    0    0  0.11022736849E+02  0.13917440941E+02 -0.15504743713E+02  0.23571019655E+02  0.00000000000E+00 0.  1.
</event>
<event>
 7    1  0.3221417E-010  0.4778727E+02  0.7816164E-02  0.1312668E+00
        -11   -1    0    0    0    0  0.00000000000E+00  0.00000000000E+00  0.45593999997E+02  0.45594000000E+02  0.51100000000E-03 0. -1.
         11   -1    0    0    0    0 -0.00000000000E+00 -0.00000000000E+00 -0.45593999997E+02  0.45594000000E+02  0.51100000000E-03 0.  1.
    9900012    2    1    2    0    0 -0.40772150793E+01 -0.31169339693E+02  0.29924434824E+02  0.47787271674E+02  0.20000002869E+02 0.  0.
        -12    1    1    2    0    0  0.40772150793E+01  0.31169339693E+02 -0.29924434824E+02  0.43400728326E+02  0.00000000000E+00 0.  1.
         11    1    3    3    0    0 -0.49119285076E+00 -0.17232968589E+02  0.20653893736E+02  0.26903527715E+02  0.51100000000E-03 0. -1.
        -11    1    3    3    0    0 -0.75577325940E+01 -0.82386401344E+01  0.81804568906E+01  0.13853316875E+02  0.51100000000E-03 0.  1.
        -12    1    3    3    0    0  0.39717103655E+01 -0.56977309698E+01  0.10900841982E+01  0.70304270845E+01  0.00000000000E+00 0.  1.
</event>
<event>
 7    1  0.3221417E-010  0.4778727E+02  0.7816164E-02  0.1312668E+00
        -11   -1    0    0    0    0  0.00000000000E+00  0.00000000000E+00  0.45593999997E+02  0.45594000000E+02  0.51100000000E-03 0. -1.
         11   -1    0    0    0    0 -0.00000000000E+00 -0.00000000000E+00 -0.45593999997E+02  0.45594000000E+02  0.51100000000E-03 0.  1.
    9900012    2    1    2    0    0 -0.33402347675E+02  0.21215070875E+01 -0.27629796459E+02  0.47787271033E+02  0.19999999947E+02 0.  0.
         12    1    1    2    0    0  0.33402347675E+02 -0.21215070875E+01  0.27629796459E+02  0.43400728967E+02  0.00000000000E+00 0. -1.
         11    1    3    3    0    0 -0.11781207156E+02  0.43191206259E+01 -0.64783331670E+01  0.14121630427E+02  0.51100000000E-03 0.  1.
        -11    1    3    3    0    0 -0.19944845965E+02 -0.59651604584E+01 -0.20954019121E+02  0.29537280468E+02  0.51100000000E-03 0. -1.
         12    1    3    3    0    0 -0.16762945535E+01  0.37675469200E+01 -0.19744417079E+00  0.41283601375E+01  0.00000000000E+00 0. -1.
</event>
<event>
 7    1  0.3221417E-010  0.4778727E+02  0.7816164E-02  0.1312668E+00
        -11   -1    0    0    0    0  0.00000000000E+00  0.00000000000E+00  0.45593999997E+02  0.45594000000E+02  0.51100000000E-03 0.  1.
         11   -1    0    0    0    0 -0.00000000000E+00 -0.00000000000E+00 -0.45593999997E+02  0.45594000000E+02  0.51100000000E-03 0. -1.
    9900012    2    1    2    0    0  0.18666585923E+02  0.38978319342E+02  0.39840257845E+01  0.47787271087E+02  0.20000000194E+02 0.  0.
        -12    1    1    2    0    0 -0.18666585923E+02 -0.38978319342E+02 -0.39840257845E+01  0.43400728913E+02  0.00000000000E+00 0.  1.
         11    1    3    3    0    0  0.11018206301E+02  0.22143139862E+02 -0.27229250959E+01  0.24882400093E+02  0.51100000000E-03 0. -1.
        -11    1    3    3    0    0 -0.18587796162E+01  0.10050776198E+02  0.31055310415E+01  0.10682578676E+02  0.51100000000E-03 0.  1.
         12    1    3    3    0    0  0.95071592381E+01  0.67844032813E+01  0.36014198388E+01  0.12222292318E+02  0.00000000000E+00 0. -1.
</event>
<event>
 7    1  0.3221417E-010  0.4778727E+02  0.7816164E-02  0.1312668E+00
        -11   -1    0    0    0    0  0.00000000000E+00  0.00000000000E+00  0.45593999997E+02  0.45594000000E+02  0.51100000000E-03 0. -1.
         11   -1    0    0    0    0 -0.00000000000E+00 -0.00000000000E+00 -0.45593999997E+02  0.45594000000E+02  0.51100000000E-03 0.  1.
    9900012    2    1    2    0    0  0.32955998379E+01  0.32378126242E+02 -0.28712698855E+02  0.47787272900E+02  0.20000008462E+02 0.  0.
         12    1    1    2    0    0 -0.32955998379E+01 -0.32378126242E+02  0.28712698855E+02  0.43400727100E+02  0.00000000000E+00 0. -1.
         11    1    3    3    0    0  0.98345176441E+00  0.54412293744E+01 -0.12733685055E+02  0.13882394960E+02  0.51100000000E-03 0.  1.
        -11    1    3    3    0    0 -0.18114418815E+00 -0.89705623650E+00  0.87858828048E+00  0.12686373540E+01  0.51100000000E-03 0. -1.
         12    1    3    3    0    0  0.24932922616E+01  0.27833953104E+02 -0.16857602080E+02  0.32636240586E+02  0.00000000000E+00 0. -1.
</event>
<event>
 7    1  0.3221417E-010  0.4778727E+02  0.7816164E-02  0.1312668E+00
        -11   -1    0    0    0    0  0.00000000000E+00  0.00000000000E+00  0.45593999997E+02  0.45594000000E+02  0.51100000000E-03 0. -1.
         11   -1    0    0    0    0 -0.00000000000E+00 -0.00000000000E+00 -0.45593999997E+02  0.45594000000E+02  0.51100000000E-03 0.  1.
    9900012    2    1    2    0    0 -0.17295822516E+02  0.31861992590E+01 -0.39677780065E+02  0.47787267597E+02  0.19999984282E+02 0.  0.
         12    1    1    2    0    0  0.17295822516E+02 -0.31861992590E+01  0.39677780065E+02  0.43400732403E+02  0.00000000000E+00 0. -1.
         11    1    3    3    0    0  0.22483562544E+01  0.21304528919E+01 -0.19006500686E+02  0.19257232511E+02  0.51100000000E-03 0. -1.
        -11    1    3    3    0    0 -0.70744230609E+01  0.50254612277E+00 -0.88224474182E+01  0.11319699332E+02  0.51100000000E-03 0.  1.
         12    1    3    3    0    0 -0.12469755709E+02  0.55320024435E+00 -0.11848831961E+02  0.17210335755E+02  0.00000000000E+00 0. -1.
</event>
<event>
 7    1  0.3221417E-010  0.4778727E+02  0.7816164E-02  0.1312668E+00
        -11   -1    0    0    0    0  0.00000000000E+00  0.00000000000E+00  0.45593999997E+02  0.45594000000E+02  0.51100000000E-03 0. -1.
         11   -1    0    0    0    0 -0.00000000000E+00 -0.00000000000E+00 -0.45593999997E+02  0.45594000000E+02  0.51100000000E-03 0.  1.
    9900012    2    1    2    0    0  0.31379031188E+02  0.18219860523E+02 -0.23812106429E+02  0.47787270416E+02  0.19999997136E+02 0.  0.
         12    1    1    2    0    0 -0.31379031188E+02 -0.18219860523E+02  0.23812106429E+02  0.43400729584E+02  0.00000000000E+00 0. -1.
         11    1    3    3    0    0  0.12687834336E+02  0.62717358672E+01 -0.10197309446E+02  0.17444223431E+02  0.51100000000E-03 0.  1.
        -11    1    3    3    0    0  0.20042479592E+02  0.12627001894E+02 -0.87568811188E+01  0.25255200102E+02  0.51100000000E-03 0. -1.
         12    1    3    3    0    0 -0.13512827401E+01 -0.67887723785E+00 -0.48579158650E+01  0.50878468824E+01  0.00000000000E+00 0. -1.
</event>
<event>
 7    1  0.3221417E-010  0.4778726E+02  0.7816164E-02  0.1312668E+00
        -11   -1    0    0    0    0  0.00000000000E+00  0.00000000000E+00  0.45593999997E+02  0.45594000000E+02  0.51100000000E-03 0. -1.
         11   -1    0    0    0    0 -0.00000000000E+00 -0.00000000000E+00 -0.45593999997E+02  0.45594000000E+02  0.51100000000E-03 0.  1.
    9900012    2    1    2    0    0  0.24952844486E+01  0.55987305804E+01 -0.42965706517E+02  0.47787260778E+02  0.19999953189E+02 0.  0.
         12    1    1    2    0    0 -0.24952844486E+01 -0.55987305804E+01  0.42965706517E+02  0.43400739222E+02  0.00000000000E+00 0. -1.
         11    1    3    3    0    0 -0.78931288296E+00 -0.39821266025E+01 -0.81550374177E+01  0.91096093577E+01  0.51100000000E-03 0. -1.
        -11    1    3    3    0    0  0.60815157475E+01  0.76192041920E+01 -0.33705610147E+02  0.35087109627E+02  0.51100000000E-03 0.  1.
        -12    1    3    3    0    0 -0.27969184159E+01  0.19616529909E+01 -0.11050589520E+01  0.35905417933E+01  0.00000000000E+00 0.  1.
</event>
<event>
 7    1  0.3221417E-010  0.4778727E+02  0.7816164E-02  0.1312668E+00
        -11   -1    0    0    0    0  0.00000000000E+00  0.00000000000E+00  0.45593999997E+02  0.45594000000E+02  0.51100000000E-03 0. -1.
         11   -1    0    0    0    0 -0.00000000000E+00 -0.00000000000E+00 -0.45593999997E+02  0.45594000000E+02  0.51100000000E-03 0.  1.
    9900012    2    1    2    0    0 -0.23079989311E+00  0.24403919974E+02 -0.35888974714E+02  0.47787273224E+02  0.20000009936E+02 0.  0.
         12    1    1    2    0    0  0.23079989311E+00 -0.24403919974E+02  0.35888974714E+02  0.43400726776E+02  0.00000000000E+00 0. -1.
         11    1    3    3    0    0 -0.32217031306E+01  0.39231385313E+01 -0.15804491399E+02  0.16599769144E+02  0.51100000000E-03 0. -1.
        -11    1    3    3    0    0  0.47917165835E+01  0.14990268905E+02 -0.19946830541E+02  0.25407572858E+02  0.51100000000E-03 0.  1.
        -12    1    3    3    0    0 -0.18008133460E+01  0.54905125375E+01 -0.13765277364E+00  0.57799312208E+01  0.00000000000E+00 0.  1.
</event>
<event>
 7    1  0.3221417E-010  0.4778727E+02  0.7816164E-02  0.1312668E+00
        -11   -1    0    0    0    0  0.00000000000E+00  0.00000000000E+00  0.45593999997E+02  0.45594000000E+02  0.51100000000E-03 0. -1.
         11   -1    0    0    0    0 -0.00000000000E+00 -0.00000000000E+00 -0.45593999997E+02  0.45594000000E+02  0.51100000000E-03 0.  1.
    9900012    2    1    2    0    0  0.15312037951E+02 -0.32266444037E+02 -0.24658496063E+02  0.47787270224E+02  0.19999996261E+02 0.  0.
         12    1    1    2    0    0 -0.15312037951E+02  0.32266444037E+02  0.24658496063E+02  0.43400729776E+02  0.00000000000E+00 0. -1.
         11    1    3    3    0    0  0.67715970939E+01 -0.84010588485E+01 -0.13576448455E+02  0.17342210640E+02  0.51100000000E-03 0. -1.
        -11    1    3    3    0    0  0.11021472757E+02 -0.23307759681E+02 -0.96673720234E+01  0.27535115856E+02  0.51100000000E-03 0.  1.
         12    1    3    3    0    0 -0.24810318999E+01 -0.55762550726E+00 -0.14146755848E+01  0.29099437288E+01  0.00000000000E+00 0. -1.
</event>
<event>
 7    1  0.3221417E-010  0.4778727E+02  0.7816164E-02  0.1312668E+00
        -11   -1    0    0    0    0  0.00000000000E+00  0.00000000000E+00  0.45593999997E+02  0.45594000000E+02  0.51100000000E-03 0. -1.
         11   -1    0    0    0    0 -0.00000000000E+00 -0.00000000000E+00 -0.45593999997E+02  0.45594000000E+02  0.51100000000E-03 0.  1.
    9900012    2    1    2    0    0  0.11837771949E+02 -0.32609183532E+01  0.41627599183E+02  0.47787269050E+02  0.19999990909E+02 0.  0.
        -12    1    1    2    0    0 -0.11837771949E+02  0.32609183532E+01 -0.41627599183E+02  0.43400730950E+02  0.00000000000E+00 0.  1.
         11    1    3    3    0    0  0.59296118920E+01 -0.73994100861E+01  0.12210789707E+02  0.15460108419E+02  0.51100000000E-03 0. -1.
        -11    1    3    3    0    0  0.91719497825E+01  0.17641205427E+01  0.21490589543E+02  0.23432503564E+02  0.51100000000E-03 0.  1.
         12    1    3    3    0    0 -0.32637897252E+01  0.23743711901E+01  0.79262199328E+01  0.88946570671E+01  0.00000000000E+00 0. -1.
</event>
<event>
 7    1  0.3221417E-010  0.4778726E+02  0.7816164E-02  0.1312668E+00
        -11   -1    0    0    0    0  0.00000000000E+00  0.00000000000E+00  0.45593999997E+02  0.45594000000E+02  0.51100000000E-03 0. -1.
         11   -1    0    0    0    0 -0.00000000000E+00 -0.00000000000E+00 -0.45593999997E+02  0.45594000000E+02  0.51100000000E-03 0.  1.
    9900012    2    1    2    0    0  0.38849351800E+02  0.73528766361E+00 -0.19334199514E+02  0.47787262056E+02  0.19999959018E+02 0.  0.
         12    1    1    2    0    0 -0.38849351800E+02 -0.73528766361E+00  0.19334199514E+02  0.43400737944E+02  0.00000000000E+00 0. -1.
         11    1    3    3    0    0  0.75078918912E+00 -0.24253604602E+01 -0.40468284295E+00  0.25709582325E+01  0.51100000000E-03 0. -1.
        -11    1    3    3    0    0  0.12499151292E+00  0.29970086103E+01 -0.63854856187E+00  0.30668270273E+01  0.51100000000E-03 0.  1.
        -12    1    3    3    0    0  0.37973571098E+02  0.16363951359E+00 -0.18290968109E+02  0.42149476796E+02  0.00000000000E+00 0.  1.
</event>
<event>
 7    1  0.3221417E-010  0.4778728E+02  0.7816164E-02  0.1312668E+00
        -11   -1    0    0    0    0  0.00000000000E+00  0.00000000000E+00  0.45593999997E+02  0.45594000000E+02  0.51100000000E-03 0. -1.
         11   -1    0    0    0    0 -0.00000000000E+00 -0.00000000000E+00 -0.45593999997E+02  0.45594000000E+02  0.51100000000E-03 0.  1.
    9900012    2    1    2    0    0 -0.25908618598E+02  0.26380488413E+02  0.22725224390E+02  0.47787279843E+02  0.20000040116E+02 0.  0.
        -12    1    1    2    0    0  0.25908618598E+02 -0.26380488413E+02 -0.22725224390E+02  0.43400720157E+02  0.00000000000E+00 0.  1.
         11    1    3    3    0    0 -0.64394746299E+01  0.39045382811E+01 -0.14801615251E+01  0.76748375292E+01  0.51100000000E-03 0. -1.
        -11    1    3    3    0    0 -0.20276187606E+01  0.10182511505E+02  0.10412161510E+02  0.14704009180E+02  0.51100000000E-03 0.  1.
         12    1    3    3    0    0 -0.17441525208E+02  0.12293438627E+02  0.13793224405E+02  0.25408433134E+02  0.00000000000E+00 0. -1.
</event>
<event>
 7    1  0.3221417E-010  0.4778727E+02  0.7816164E-02  0.1312668E+00
        -11   -1    0    0    0    0  0.00000000000E+00  0.00000000000E+00  0.45593999997E+02  0.45594000000E+02  0.51100000000E-03 0. -1.
         11   -1    0    0    0    0 -0.00000000000E+00 -0.00000000000E+00 -0.45593999997E+02  0.45594000000E+02  0.51100000000E-03 0.  1.
    9900012    2    1    2    0    0 -0.28962305849E+02 -0.20091474523E+02 -0.25320759729E+02  0.47787269800E+02  0.19999994327E+02 0.  0.
         12    1    1    2    0    0  0.28962305849E+02  0.20091474523E+02  0.25320759729E+02  0.43400730200E+02  0.00000000000E+00 0. -1.
         11    1    3    3    0    0  0.23309083987E+01 -0.10622957261E+01 -0.27994470382E+01  0.37945368826E+01  0.51100000000E-03 0.  1.
        -11    1    3    3    0    0 -0.10875721190E+02 -0.99924809286E+01 -0.13160212585E+02  0.19781864979E+02  0.51100000000E-03 0. -1.
         12    1    3    3    0    0 -0.20417493058E+02 -0.90366978688E+01 -0.93611001055E+01  0.24210867938E+02  0.00000000000E+00 0. -1.
</event>
<event>
 7    1  0.3221417E-010  0.4778727E+02  0.7816164E-02  0.1312668E+00
        -11   -1    0    0    0    0  0.00000000000E+00  0.00000000000E+00  0.45593999997E+02  0.45594000000E+02  0.51100000000E-03 0. -1.
         11   -1    0    0    0    0 -0.00000000000E+00 -0.00000000000E+00 -0.45593999997E+02  0.45594000000E+02  0.51100000000E-03 0.  1.
    9900012    2    1    2    0    0  0.19587822676E+02  0.21057326816E+02 -0.32504299038E+02  0.47787271138E+02  0.20000000426E+02 0.  0.
         12    1    1    2    0    0 -0.19587822676E+02 -0.21057326816E+02  0.32504299038E+02  0.43400728862E+02  0.00000000000E+00 0. -1.
         11    1    3    3    0    0  0.80851329536E+01  0.83050458629E+01 -0.82077814969E+01  0.14202494113E+02  0.51100000000E-03 0. -1.
        -11    1    3    3    0    0 -0.36850083042E+01  0.27371372549E+01 -0.76721496919E+01  0.89405306168E+01  0.51100000000E-03 0.  1.
        -12    1    3    3    0    0  0.15187698026E+02  0.10015143698E+02 -0.16624367850E+02  0.24644246408E+02  0.00000000000E+00 0.  1.
</event>
<event>
 7    1  0.3221417E-010  0.4778727E+02  0.7816164E-02  0.1312668E+00
        -11   -1    0    0    0    0  0.00000000000E+00  0.00000000000E+00  0.45593999997E+02  0.45594000000E+02  0.51100000000E-03 0. -1.
         11   -1    0    0    0    0 -0.00000000000E+00 -0.00000000000E+00 -0.45593999997E+02  0.45594000000E+02  0.51100000000E-03 0.  1.
    9900012    2    1    2    0    0 -0.29092678584E+02  0.16834268821E+02 -0.27456275071E+02  0.47787267348E+02  0.19999983147E+02 0.  0.
         12    1    1    2    0    0  0.29092678584E+02 -0.16834268821E+02  0.27456275071E+02  0.43400732652E+02  0.00000000000E+00 0. -1.
         11    1    3    3    0    0 -0.27124370351E+01 -0.30783325958E+01 -0.29220952459E-01  0.41029623889E+01  0.51100000000E-03 0. -1.
        -11    1    3    3    0    0 -0.10209319321E+02  0.79726264306E+01 -0.15913825715E+02  0.20519328019E+02  0.51100000000E-03 0.  1.
        -12    1    3    3    0    0 -0.16170922228E+02  0.11939974986E+02 -0.11513228404E+02  0.23164976941E+02  0.00000000000E+00 0.  1.
</event>
<event>
 7    1  0.3221417E-010  0.4778727E+02  0.7816164E-02  0.1312668E+00
        -11   -1    0    0    0    0  0.00000000000E+00  0.00000000000E+00  0.45593999997E+02  0.45594000000E+02  0.51100000000E-03 0. -1.
         11   -1    0    0    0    0 -0.00000000000E+00 -0.00000000000E+00 -0.45593999997E+02  0.45594000000E+02  0.51100000000E-03 0.  1.
    9900012    2    1    2    0    0  0.24977690301E+02  0.91475949274E+01 -0.34293723942E+02  0.47787274113E+02  0.20000013992E+02 0.  0.
         12    1    1    2    0    0 -0.24977690301E+02 -0.91475949274E+01  0.34293723942E+02  0.43400725887E+02  0.00000000000E+00 0. -1.
         11    1    3    3    0    0 -0.26427939100E+01  0.20584446380E+01 -0.28755119673E+00  0.33621778553E+01  0.51100000000E-03 0. -1.
        -11    1    3    3    0    0  0.81289133308E+01  0.19370385487E+01 -0.85972682963E+01  0.11989344131E+02  0.51100000000E-03 0.  1.
         12    1    3    3    0    0  0.19491570880E+02  0.51521117406E+01 -0.25408904448E+02  0.32435752127E+02  0.00000000000E+00 0. -1.
</event>
<event>
 7    1  0.3352343E-010  0.4778727E+02  0.7816164E-02  0.1312668E+00
        -11   -1    0    0    0    0  0.00000000000E+00  0.00000000000E+00  0.45593999997E+02  0.45594000000E+02  0.51100000000E-03 0. -1.
         11   -1    0    0    0    0 -0.00000000000E+00 -0.00000000000E+00 -0.45593999997E+02  0.45594000000E+02  0.51100000000E-03 0.  1.
    9900012    2    1    2    0    0 -0.10439098171E+01 -0.23731222950E+02 -0.36323031381E+02  0.47787270754E+02  0.19999998675E+02 0.  0.
         12    1    1    2    0    0  0.10439098171E+01  0.23731222950E+02  0.36323031381E+02  0.43400729246E+02  0.00000000000E+00 0. -1.
         11    1    3    3    0    0  0.46483869036E+01 -0.15623557092E+02 -0.15733307032E+02  0.22654800539E+02  0.51100000000E-03 0. -1.
        -11    1    3    3    0    0 -0.49159874048E+01 -0.10042059366E+02 -0.20085863932E+02  0.22988079925E+02  0.51100000000E-03 0.  1.
         12    1    3    3    0    0 -0.77630931587E+00  0.19343935083E+01 -0.50386041696E+00  0.21443902906E+01  0.00000000000E+00 0. -1.
</event>
<event>
 7    1  0.3221417E-010  0.4778727E+02  0.7816164E-02  0.1312668E+00
        -11   -1    0    0    0    0  0.00000000000E+00  0.00000000000E+00  0.45593999997E+02  0.45594000000E+02  0.51100000000E-03 0. -1.
         11   -1    0    0    0    0 -0.00000000000E+00 -0.00000000000E+00 -0.45593999997E+02  0.45594000000E+02  0.51100000000E-03 0.  1.
    9900012    2    1    2    0    0  0.60386701858E+01 -0.31215467095E+02 -0.29542377762E+02  0.47787274114E+02  0.20000013996E+02 0.  0.
         12    1    1    2    0    0 -0.60386701858E+01  0.31215467095E+02  0.29542377762E+02  0.43400725886E+02  0.00000000000E+00 0. -1.
         11    1    3    3    0    0  0.40374673489E+01 -0.83332663102E+01  0.88799661238E-01  0.92602567800E+01  0.51100000000E-03 0. -1.
        -11    1    3    3    0    0  0.21905686901E+00 -0.20455014354E+02 -0.20701902352E+02  0.29103682918E+02  0.51100000000E-03 0.  1.
        -12    1    3    3    0    0  0.17821459679E+01 -0.24271864305E+01 -0.89292750710E+01  0.94233344158E+01  0.00000000000E+00 0.  1.
</event>
<event>
 7    1  0.3221417E-010  0.4778727E+02  0.7816164E-02  0.1312668E+00
        -11   -1    0    0    0    0  0.00000000000E+00  0.00000000000E+00  0.45593999997E+02  0.45594000000E+02  0.51100000000E-03 0. -1.
         11   -1    0    0    0    0 -0.00000000000E+00 -0.00000000000E+00 -0.45593999997E+02  0.45594000000E+02  0.51100000000E-03 0.  1.
    9900012    2    1    2    0    0 -0.27022025319E+02  0.75494893525E+01 -0.33112514623E+02  0.47787271130E+02  0.20000000390E+02 0.  0.
         12    1    1    2    0    0  0.27022025319E+02 -0.75494893525E+01  0.33112514623E+02  0.43400728870E+02  0.00000000000E+00 0. -1.
         11    1    3    3    0    0 -0.11936855388E+01 -0.26213344494E+01 -0.42614632701E+01  0.51435735559E+01  0.51100000000E-03 0. -1.
        -11    1    3    3    0    0 -0.18344448153E+02 -0.31801267604E+00 -0.19103053281E+02  0.26486724127E+02  0.51100000000E-03 0.  1.
        -12    1    3    3    0    0 -0.74838916271E+01  0.10488836478E+02 -0.97479980720E+01  0.16156973447E+02  0.00000000000E+00 0.  1.
</event>
<event>
 7    1  0.3221417E-010  0.4778727E+02  0.7816164E-02  0.1312668E+00
        -11   -1    0    0    0    0  0.00000000000E+00  0.00000000000E+00  0.45593999997E+02  0.45594000000E+02  0.51100000000E-03 0. -1.
         11   -1    0    0    0    0 -0.00000000000E+00 -0.00000000000E+00 -0.45593999997E+02  0.45594000000E+02  0.51100000000E-03 0.  1.
    9900012    2    1    2    0    0  0.12988569117E+02 -0.19966983258E+02 -0.36280021657E+02  0.47787270518E+02  0.19999997599E+02 0.  0.
         12    1    1    2    0    0 -0.12988569117E+02  0.19966983258E+02  0.36280021657E+02  0.43400729482E+02  0.00000000000E+00 0. -1.
         11    1    3    3    0    0  0.25928942571E+01  0.14303596320E+01 -0.30425940753E+01  0.42457517914E+01  0.51100000000E-03 0. -1.
        -11    1    3    3    0    0  0.64936693148E+01 -0.25936870730E+01 -0.27584230320E+01  0.75169043953E+01  0.51100000000E-03 0.  1.
        -12    1    3    3    0    0  0.39020055453E+01 -0.18803655817E+02 -0.30479004550E+02  0.36024614331E+02  0.00000000000E+00 0.  1.
</event>
<event>
 7    1  0.3413933E-010  0.4778727E+02  0.7816164E-02  0.1312668E+00
        -11   -1    0    0    0    0  0.00000000000E+00  0.00000000000E+00  0.45593999997E+02  0.45594000000E+02  0.51100000000E-03 0. -1.
         11   -1    0    0    0    0 -0.00000000000E+00 -0.00000000000E+00 -0.45593999997E+02  0.45594000000E+02  0.51100000000E-03 0.  1.
    9900012    2    1    2    0    0  0.13390481172E+01 -0.79991508700E+01 -0.42636181559E+02  0.47787269102E+02  0.19999991145E+02 0.  0.
         12    1    1    2    0    0 -0.13390481172E+01  0.79991508700E+01  0.42636181559E+02  0.43400730898E+02  0.00000000000E+00 0. -1.
         11    1    3    3    0    0 -0.18236238289E+01  0.53462051752E+01 -0.47647677967E+01  0.73898935082E+01  0.51100000000E-03 0. -1.
        -11    1    3    3    0    0  0.13085133408E+00 -0.56920949590E+01 -0.18298783017E+02  0.19164094741E+02  0.51100000000E-03 0.  1.
         12    1    3    3    0    0  0.30318206120E+01 -0.76532610862E+01 -0.19572630746E+02  0.21233280853E+02  0.00000000000E+00 0. -1.
</event>
<event>
 7    1  0.3221417E-010  0.4778726E+02  0.7816164E-02  0.1312668E+00
        -11   -1    0    0    0    0  0.00000000000E+00  0.00000000000E+00  0.45593999997E+02  0.45594000000E+02  0.51100000000E-03 0. -1.
         11   -1    0    0    0    0 -0.00000000000E+00 -0.00000000000E+00 -0.45593999997E+02  0.45594000000E+02  0.51100000000E-03 0.  1.
    9900012    2    1    2    0    0  0.15438298403E+02  0.11640651152E+02 -0.38855863878E+02  0.47787262973E+02  0.19999963197E+02 0.  0.
         12    1    1    2    0    0 -0.15438298403E+02 -0.11640651152E+02  0.38855863878E+02  0.43400737027E+02  0.00000000000E+00 0. -1.
         11    1    3    3    0    0  0.16445425701E+01 -0.54504608976E+01 -0.69687502958E+01  0.89986401866E+01  0.51100000000E-03 0. -1.
        -11    1    3    3    0    0  0.41192184756E+01  0.62428052217E+01 -0.93976886104E+01  0.12010708945E+02  0.51100000000E-03 0.  1.
         12    1    3    3    0    0  0.96745373575E+01  0.10848306828E+02 -0.22489424972E+02  0.26777913841E+02  0.00000000000E+00 0. -1.
</event>
<event>
 7    1  0.3221417E-010  0.4778727E+02  0.7816164E-02  0.1312668E+00
        -11   -1    0    0    0    0  0.00000000000E+00  0.00000000000E+00  0.45593999997E+02  0.45594000000E+02  0.51100000000E-03 0. -1.
         11   -1    0    0    0    0 -0.00000000000E+00 -0.00000000000E+00 -0.45593999997E+02  0.45594000000E+02  0.51100000000E-03 0.  1.
    9900012    2    1    2    0    0  0.21602386711E+02 -0.23274985285E+02 -0.29584377915E+02  0.47787268805E+02  0.19999989790E+02 0.  0.
         12    1    1    2    0    0 -0.21602386711E+02  0.23274985285E+02  0.29584377915E+02  0.43400731195E+02  0.00000000000E+00 0. -1.
         11    1    3    3    0    0  0.43807884867E+01 -0.41294906922E+01 -0.18595292892E+02  0.19545560088E+02  0.51100000000E-03 0.  1.
        -11    1    3    3    0    0  0.41643479436E+01 -0.51296205182E+01 -0.11483250893E+01  0.67062248119E+01  0.51100000000E-03 0. -1.
        -12    1    3    3    0    0  0.13057250281E+02 -0.14015874075E+02 -0.98407599335E+01  0.21535483906E+02  0.00000000000E+00 0.  1.
</event>
<event>
 7    1  0.3221417E-010  0.4778727E+02  0.7816164E-02  0.1312668E+00
        -11   -1    0    0    0    0  0.00000000000E+00  0.00000000000E+00  0.45593999997E+02  0.45594000000E+02  0.51100000000E-03 0. -1.
         11   -1    0    0    0    0 -0.00000000000E+00 -0.00000000000E+00 -0.45593999997E+02  0.45594000000E+02  0.51100000000E-03 0.  1.
    9900012    2    1    2    0    0 -0.10698672352E+02 -0.10814053439E+02 -0.40647485165E+02  0.47787269682E+02  0.19999993790E+02 0.  0.
         12    1    1    2    0    0  0.10698672352E+02  0.10814053439E+02  0.40647485165E+02  0.43400730318E+02  0.00000000000E+00 0. -1.
         11    1    3    3    0    0 -0.22345240026E+01 -0.73294418049E+01 -0.11343507629E+02  0.13689009470E+02  0.51100000000E-03 0. -1.
        -11    1    3    3    0    0 -0.34615405701E+01 -0.46651313623E+01 -0.28263099579E+02  0.28853916750E+02  0.51100000000E-03 0.  1.
         12    1    3    3    0    0 -0.50026077796E+01  0.11805197282E+01 -0.10408779568E+01  0.52443434619E+01  0.00000000000E+00 0. -1.
</event>
<event>
 7    1  0.4319116E-010  0.4778727E+02  0.7816164E-02  0.1312668E+00
        -11   -1    0    0    0    0  0.00000000000E+00  0.00000000000E+00  0.45593999997E+02  0.45594000000E+02  0.51100000000E-03 0. -1.
         11   -1    0    0    0    0 -0.00000000000E+00 -0.00000000000E+00 -0.45593999997E+02  0.45594000000E+02  0.51100000000E-03 0.  1.
    9900012    2    1    2    0    0  0.38345182634E+02  0.13267436157E+01 -0.20285711834E+02  0.47787269770E+02  0.19999994191E+02 0.  0.
         12    1    1    2    0    0 -0.38345182634E+02 -0.13267436157E+01  0.20285711834E+02  0.43400730230E+02  0.00000000000E+00 0. -1.
         11    1    3    3    0    0  0.30823287392E+01  0.27659281535E+01 -0.63800780933E+01  0.76063464123E+01  0.51100000000E-03 0. -1.
        -11    1    3    3    0    0  0.30087694448E+02  0.77101644472E+00 -0.16109178047E+02  0.34137507834E+02  0.51100000000E-03 0.  1.
         12    1    3    3    0    0  0.51751594471E+01 -0.22102009825E+01  0.22035443056E+01  0.60434155237E+01  0.00000000000E+00 0. -1.
</event>
<event>
 7    1  0.3221417E-010  0.4778727E+02  0.7816164E-02  0.1312668E+00
        -11   -1    0    0    0    0  0.00000000000E+00  0.00000000000E+00  0.45593999997E+02  0.45594000000E+02  0.51100000000E-03 0. -1.
         11   -1    0    0    0    0 -0.00000000000E+00 -0.00000000000E+00 -0.45593999997E+02  0.45594000000E+02  0.51100000000E-03 0.  1.
    9900012    2    1    2    0    0  0.13830149964E+02 -0.18557447537E+02 -0.36714729037E+02  0.47787271488E+02  0.20000002020E+02 0.  0.
         12    1    1    2    0    0 -0.13830149964E+02  0.18557447537E+02  0.36714729037E+02  0.43400728512E+02  0.00000000000E+00 0. -1.
         11    1    3    3    0    0  0.31358835610E+01 -0.36048145441E+01 -0.18879555730E+00  0.47816417294E+01  0.51100000000E-03 0. -1.
        -11    1    3    3    0    0  0.39924205424E+01 -0.96661909325E+01 -0.78231253076E+01  0.13060473145E+02  0.51100000000E-03 0.  1.
        -12    1    3    3    0    0  0.67018458608E+01 -0.52864420604E+01 -0.28702808172E+02  0.29945156613E+02  0.00000000000E+00 0.  1.
</event>
<event>
 7    1  0.3221417E-010  0.4778727E+02  0.7816164E-02  0.1312668E+00
        -11   -1    0    0    0    0  0.00000000000E+00  0.00000000000E+00  0.45593999997E+02  0.45594000000E+02  0.51100000000E-03 0. -1.
         11   -1    0    0    0    0 -0.00000000000E+00 -0.00000000000E+00 -0.45593999997E+02  0.45594000000E+02  0.51100000000E-03 0.  1.
    9900012    2    1    2    0    0  0.16362986760E+02 -0.15594236431E+02 -0.37049911463E+02  0.47787268612E+02  0.19999988911E+02 0.  0.
         12    1    1    2    0    0 -0.16362986760E+02  0.15594236431E+02  0.37049911463E+02  0.43400731388E+02  0.00000000000E+00 0. -1.
         11    1    3    3    0    0  0.33198358288E+01 -0.11933220924E+02 -0.29870727405E+02  0.32337028737E+02  0.51100000000E-03 0. -1.
        -11    1    3    3    0    0  0.59902855450E+01 -0.25665054520E+01 -0.39095547587E+01  0.75996769548E+01  0.51100000000E-03 0.  1.
         12    1    3    3    0    0  0.70528653860E+01 -0.10945100544E+01 -0.32696292992E+01  0.78505629203E+01  0.00000000000E+00 0. -1.
</event>
<event>
 7    1  0.3221417E-010  0.4778731E+02  0.7816164E-02  0.1312668E+00
        -11   -1    0    0    0    0  0.00000000000E+00  0.00000000000E+00  0.45593999997E+02  0.45594000000E+02  0.51100000000E-03 0.  1.
         11   -1    0    0    0    0 -0.00000000000E+00 -0.00000000000E+00 -0.45593999997E+02  0.45594000000E+02  0.51100000000E-03 0. -1.
    9900012    2    1    2    0    0  0.22609696130E+02  0.30133512402E+02  0.21549779173E+02  0.47787309785E+02  0.20000176631E+02 0.  0.
        -12    1    1    2    0    0 -0.22609696130E+02 -0.30133512402E+02 -0.21549779173E+02  0.43400690215E+02  0.00000000000E+00 0.  1.
         11    1    3    3    0    0  0.92595164566E+01  0.22680376800E+02  0.67081151796E+01  0.25399546183E+02  0.51100000000E-03 0. -1.
        -11    1    3    3    0    0  0.96669429773E+00 -0.11863578161E+01  0.22817544634E+01  0.27474254176E+01  0.51100000000E-03 0.  1.
        -12    1    3    3    0    0  0.12383485375E+02  0.86394934187E+01  0.12559909530E+02  0.19640338184E+02  0.00000000000E+00 0.  1.
</event>
<event>
 7    1  0.3221417E-010  0.4778727E+02  0.7816164E-02  0.1312668E+00
        -11   -1    0    0    0    0  0.00000000000E+00  0.00000000000E+00  0.45593999997E+02  0.45594000000E+02  0.51100000000E-03 0.  1.
         11   -1    0    0    0    0 -0.00000000000E+00 -0.00000000000E+00 -0.45593999997E+02  0.45594000000E+02  0.51100000000E-03 0. -1.
    9900012    2    1    2    0    0  0.30088893217E+02 -0.27048329763E+02  0.15705723981E+02  0.47787269548E+02  0.19999993177E+02 0.  0.
        -12    1    1    2    0    0 -0.30088893217E+02  0.27048329763E+02 -0.15705723981E+02  0.43400730452E+02  0.00000000000E+00 0.  1.
         11    1    3    3    0    0  0.12641298771E+02 -0.10683603979E+02  0.58281807516E+01  0.17547350790E+02  0.51100000000E-03 0. -1.
        -11    1    3    3    0    0 -0.88467892680E+00 -0.82163677750E+01  0.47566769600E+01  0.95350580585E+01  0.51100000000E-03 0.  1.
        -12    1    3    3    0    0  0.18332273372E+02 -0.81483580089E+01  0.51208662695E+01  0.20704860699E+02  0.00000000000E+00 0.  1.
</event>
<event>
 7    1  0.3221417E-010  0.4778727E+02  0.7816164E-02  0.1312668E+00
        -11   -1    0    0    0    0  0.00000000000E+00  0.00000000000E+00  0.45593999997E+02  0.45594000000E+02  0.51100000000E-03 0. -1.
         11   -1    0    0    0    0 -0.00000000000E+00 -0.00000000000E+00 -0.45593999997E+02  0.45594000000E+02  0.51100000000E-03 0.  1.
    9900012    2    1    2    0    0  0.11283079324E+02 -0.27733064005E+02  0.31419620847E+02  0.47787270832E+02  0.19999999031E+02 0.  0.
        -12    1    1    2    0    0 -0.11283079324E+02  0.27733064005E+02 -0.31419620847E+02  0.43400729168E+02  0.00000000000E+00 0.  1.
         11    1    3    3    0    0  0.73765182348E+01 -0.23397748768E+02  0.27834382878E+02  0.37102837346E+02  0.51100000000E-03 0. -1.
        -11    1    3    3    0    0 -0.23765494850E+01 -0.10000136548E+01  0.23012875074E+01  0.34560004655E+01  0.51100000000E-03 0.  1.
         12    1    3    3    0    0  0.62831105747E+01 -0.33353015819E+01  0.12839504618E+01  0.72284330199E+01  0.00000000000E+00 0. -1.
</event>
<event>
 7    1  0.3221417E-010  0.4778727E+02  0.7816164E-02  0.1312668E+00
        -11   -1    0    0    0    0  0.00000000000E+00  0.00000000000E+00  0.45593999997E+02  0.45594000000E+02  0.51100000000E-03 0.  1.
         11   -1    0    0    0    0 -0.00000000000E+00 -0.00000000000E+00 -0.45593999997E+02  0.45594000000E+02  0.51100000000E-03 0. -1.
    9900012    2    1    2    0    0 -0.42509166965E+02  0.87270517766E+01 -0.65766453997E+00  0.47787271534E+02  0.20000002230E+02 0.  0.
        -12    1    1    2    0    0  0.42509166965E+02 -0.87270517766E+01  0.65766453997E+00  0.43400728466E+02  0.00000000000E+00 0.  1.
         11    1    3    3    0    0 -0.50378828254E+01 -0.25366605268E+01  0.36060097269E+00  0.56519857850E+01  0.51100000000E-03 0. -1.
        -11    1    3    3    0    0 -0.11102220538E+02 -0.30193849826E+01  0.29692448115E+01  0.11882440892E+02  0.51100000000E-03 0.  1.
        -12    1    3    3    0    0 -0.26369063602E+02  0.14283097286E+02 -0.39875103241E+01  0.30252844856E+02  0.00000000000E+00 0.  1.
</event>
<event>
 7    1  0.3221417E-010  0.4778727E+02  0.7816164E-02  0.1312668E+00
        -11   -1    0    0    0    0  0.00000000000E+00  0.00000000000E+00  0.45593999997E+02  0.45594000000E+02  0.51100000000E-03 0. -1.
         11   -1    0    0    0    0 -0.00000000000E+00 -0.00000000000E+00 -0.45593999997E+02  0.45594000000E+02  0.51100000000E-03 0.  1.
    9900012    2    1    2    0    0 -0.28346740938E+02 -0.22508574210E+02 -0.23946810394E+02  0.47787270020E+02  0.19999995330E+02 0.  0.
         12    1    1    2    0    0  0.28346740938E+02  0.22508574210E+02  0.23946810394E+02  0.43400729980E+02  0.00000000000E+00 0. -1.
         11    1    3    3    0    0 -0.13455660048E+02 -0.72729298065E+01 -0.15844469120E+02  0.22022658724E+02  0.51100000000E-03 0. -1.
        -11    1    3    3    0    0 -0.85536907695E+01 -0.24912316699E+01  0.85092223120E+00  0.89496329488E+01  0.51100000000E-03 0.  1.
         12    1    3    3    0    0 -0.63373901201E+01 -0.12744412733E+02 -0.89532635046E+01  0.16814978348E+02  0.00000000000E+00 0. -1.
</event>
<event>
 7    1  0.3221417E-010  0.4778727E+02  0.7816164E-02  0.1312668E+00
        -11   -1    0    0    0    0  0.00000000000E+00  0.00000000000E+00  0.45593999997E+02  0.45594000000E+02  0.51100000000E-03 0. -1.
         11   -1    0    0    0    0 -0.00000000000E+00 -0.00000000000E+00 -0.45593999997E+02  0.45594000000E+02  0.51100000000E-03 0.  1.
    9900012    2    1    2    0    0 -0.22968217176E+02  0.85211630162E+00  0.36815189808E+02  0.47787270708E+02  0.19999998468E+02 0.  0.
        -12    1    1    2    0    0  0.22968217176E+02 -0.85211630162E+00 -0.36815189808E+02  0.43400729292E+02  0.00000000000E+00 0.  1.
         11    1    3    3    0    0 -0.61238132331E+01 -0.47385964755E+01  0.11271923669E+02  0.13675220237E+02  0.51100000000E-03 0. -1.
        -11    1    3    3    0    0 -0.14461651580E+02  0.41818601292E+01  0.94322928867E+01  0.17765006893E+02  0.51100000000E-03 0.  1.
         12    1    3    3    0    0 -0.23827523634E+01  0.14088526479E+01  0.16110973253E+02  0.16347043578E+02  0.00000000000E+00 0. -1.
</event>
<event>
 7    1  0.3221417E-010  0.4778727E+02  0.7816164E-02  0.1312668E+00
        -11   -1    0    0    0    0  0.00000000000E+00  0.00000000000E+00  0.45593999997E+02  0.45594000000E+02  0.51100000000E-03 0. -1.
         11   -1    0    0    0    0 -0.00000000000E+00 -0.00000000000E+00 -0.45593999997E+02  0.45594000000E+02  0.51100000000E-03 0.  1.
    9900012    2    1    2    0    0  0.55851520739E+01 -0.19907142892E+02 -0.38159334851E+02  0.47787273070E+02  0.20000009235E+02 0.  0.
         12    1    1    2    0    0 -0.55851520739E+01  0.19907142892E+02  0.38159334851E+02  0.43400726930E+02  0.00000000000E+00 0. -1.
         11    1    3    3    0    0 -0.48520478176E+01 -0.45959700938E+01 -0.63747283288E+01  0.92359336645E+01  0.51100000000E-03 0. -1.
        -11    1    3    3    0    0  0.31255197203E+01 -0.12065440822E+02 -0.25483105500E+02  0.28367805730E+02  0.51100000000E-03 0.  1.
        -12    1    3    3    0    0  0.73116801713E+01 -0.32457319767E+01 -0.63015010214E+01  0.10183533675E+02  0.00000000000E+00 0.  1.
</event>
<event>
 7    1  0.3221417E-010  0.4778725E+02  0.7816164E-02  0.1312668E+00
        -11   -1    0    0    0    0  0.00000000000E+00  0.00000000000E+00  0.45593999997E+02  0.45594000000E+02  0.51100000000E-03 0. -1.
         11   -1    0    0    0    0 -0.00000000000E+00 -0.00000000000E+00 -0.45593999997E+02  0.45594000000E+02  0.51100000000E-03 0.  1.
    9900012    2    1    2    0    0  0.92786449739E+01 -0.36031199622E+02  0.22344666168E+02  0.47787254558E+02  0.19999924833E+02 0.  0.
        -12    1    1    2    0    0 -0.92786449739E+01  0.36031199622E+02 -0.22344666168E+02  0.43400745442E+02  0.00000000000E+00 0.  1.
         11    1    3    3    0    0  0.68728091824E+01 -0.25412055202E+02  0.13340086186E+02  0.29512132341E+02  0.51100000000E-03 0. -1.
        -11    1    3    3    0    0  0.27167472032E+01 -0.18993986739E+01  0.89559103822E+01  0.95496995619E+01  0.51100000000E-03 0.  1.
         12    1    3    3    0    0 -0.31091141173E+00 -0.87197457459E+01  0.48669600295E-01  0.87254226550E+01  0.00000000000E+00 0. -1.
</event>
<event>
 7    1  0.3221417E-010  0.4778728E+02  0.7816164E-02  0.1312668E+00
        -11   -1    0    0    0    0  0.00000000000E+00  0.00000000000E+00  0.45593999997E+02  0.45594000000E+02  0.51100000000E-03 0. -1.
         11   -1    0    0    0    0 -0.00000000000E+00 -0.00000000000E+00 -0.45593999997E+02  0.45594000000E+02  0.51100000000E-03 0.  1.
    9900012    2    1    2    0    0  0.77290658283E+01 -0.28388390565E+02  0.31905856983E+02  0.47787275499E+02  0.20000020308E+02 0.  0.
        -12    1    1    2    0    0 -0.77290658283E+01  0.28388390565E+02 -0.31905856983E+02  0.43400724501E+02  0.00000000000E+00 0.  1.
         11    1    3    3    0    0  0.80742827142E+01 -0.18089928970E+02  0.25419916985E+02  0.32227499923E+02  0.51100000000E-03 0. -1.
        -11    1    3    3    0    0  0.25142552594E+01 -0.10580574525E+02  0.35210436739E+01  0.11431001076E+02  0.51100000000E-03 0.  1.
        -12    1    3    3    0    0 -0.28594721453E+01  0.28211293071E+00  0.29648963242E+01  0.41287744996E+01  0.00000000000E+00 0.  1.
</event>
<event>
 7    1  0.3221417E-010  0.4778727E+02  0.7816164E-02  0.1312668E+00
        -11   -1    0    0    0    0  0.00000000000E+00  0.00000000000E+00  0.45593999997E+02  0.45594000000E+02  0.51100000000E-03 0. -1.
         11   -1    0    0    0    0 -0.00000000000E+00 -0.00000000000E+00 -0.45593999997E+02  0.45594000000E+02  0.51100000000E-03 0.  1.
    9900012    2    1    2    0    0  0.27380563598E+02 -0.22205397328E+02  0.25314985627E+02  0.47787269237E+02  0.19999991759E+02 0.  0.
        -12    1    1    2    0    0 -0.27380563598E+02  0.22205397328E+02 -0.25314985627E+02  0.43400730763E+02  0.00000000000E+00 0.  1.
         11    1    3    3    0    0  0.64166945733E+01 -0.10724248592E+02  0.39832997547E+01  0.13116789025E+02  0.51100000000E-03 0. -1.
        -11    1    3    3    0    0  0.36390555125E+01 -0.44446232686E+01 -0.68446241693E+00  0.57849710530E+01  0.51100000000E-03 0.  1.
        -12    1    3    3    0    0  0.17324813512E+02 -0.70365254674E+01  0.22016148290E+02  0.28885509159E+02  0.00000000000E+00 0.  1.
</event>
<event>
 7    1  0.3221417E-010  0.4778727E+02  0.7816164E-02  0.1312668E+00
        -11   -1    0    0    0    0  0.00000000000E+00  0.00000000000E+00  0.45593999997E+02  0.45594000000E+02  0.51100000000E-03 0. -1.
         11   -1    0    0    0    0 -0.00000000000E+00 -0.00000000000E+00 -0.45593999997E+02  0.45594000000E+02  0.51100000000E-03 0.  1.
    9900012    2    1    2    0    0 -0.32167075023E+02  0.43525224904E+00 -0.29132677482E+02  0.47787273539E+02  0.20000011375E+02 0.  0.
         12    1    1    2    0    0  0.32167075023E+02 -0.43525224904E+00  0.29132677482E+02  0.43400726461E+02  0.00000000000E+00 0. -1.
         11    1    3    3    0    0 -0.53751414025E+01  0.23571302928E+01  0.42602664011E+00  0.58847011202E+01  0.51100000000E-03 0. -1.
        -11    1    3    3    0    0 -0.16987753109E+02 -0.62183361144E+01 -0.13368646729E+02  0.22493825271E+02  0.51100000000E-03 0.  1.
        -12    1    3    3    0    0 -0.98041805119E+01  0.42964580706E+01 -0.16190057393E+02  0.19408747148E+02  0.00000000000E+00 0.  1.
</event>
<event>
 7    1  0.3221417E-010  0.4778727E+02  0.7816164E-02  0.1312668E+00
        -11   -1    0    0    0    0  0.00000000000E+00  0.00000000000E+00  0.45593999997E+02  0.45594000000E+02  0.51100000000E-03 0. -1.
         11   -1    0    0    0    0 -0.00000000000E+00 -0.00000000000E+00 -0.45593999997E+02  0.45594000000E+02  0.51100000000E-03 0.  1.
    9900012    2    1    2    0    0  0.76797852021E+01 -0.35312428852E+00  0.42714393084E+02  0.47787272194E+02  0.20000005242E+02 0.  0.
        -12    1    1    2    0    0 -0.76797852021E+01  0.35312428852E+00 -0.42714393084E+02  0.43400727806E+02  0.00000000000E+00 0.  1.
         11    1    3    3    0    0  0.83582789746E+01  0.54032754227E+01  0.26253222859E+02  0.28076465651E+02  0.51100000000E-03 0. -1.
        -11    1    3    3    0    0  0.13741790721E+01 -0.29582707084E+01  0.40853459613E+00  0.32873445946E+01  0.51100000000E-03 0.  1.
        -12    1    3    3    0    0 -0.20526728446E+01 -0.27981290028E+01  0.16052635630E+02  0.16423461949E+02  0.00000000000E+00 0.  1.
</event>
<event>
 7    1  0.3221417E-010  0.4778727E+02  0.7816164E-02  0.1312668E+00
        -11   -1    0    0    0    0  0.00000000000E+00  0.00000000000E+00  0.45593999997E+02  0.45594000000E+02  0.51100000000E-03 0. -1.
         11   -1    0    0    0    0 -0.00000000000E+00 -0.00000000000E+00 -0.45593999997E+02  0.45594000000E+02  0.51100000000E-03 0.  1.
    9900012    2    1    2    0    0 -0.20755871129E+02 -0.21641694482E+02  0.31376010156E+02  0.47787272590E+02  0.20000007049E+02 0.  0.
        -12    1    1    2    0    0  0.20755871129E+02  0.21641694482E+02 -0.31376010156E+02  0.43400727410E+02  0.00000000000E+00 0.  1.
         11    1    3    3    0    0 -0.14473712860E+02 -0.11652689500E+02  0.69565131727E+01  0.19841033550E+02  0.51100000000E-03 0. -1.
        -11    1    3    3    0    0 -0.57030749297E+00  0.74685935131E+00  0.45870783320E+01  0.46823431540E+01  0.51100000000E-03 0.  1.
         12    1    3    3    0    0 -0.57118507761E+01 -0.10735864333E+02  0.19832418651E+02  0.23263895887E+02  0.00000000000E+00 0. -1.
</event>
<event>
 7    1  0.3221417E-010  0.4778727E+02  0.7816164E-02  0.1312668E+00
        -11   -1    0    0    0    0  0.00000000000E+00  0.00000000000E+00  0.45593999997E+02  0.45594000000E+02  0.51100000000E-03 0.  1.
         11   -1    0    0    0    0 -0.00000000000E+00 -0.00000000000E+00 -0.45593999997E+02  0.45594000000E+02  0.51100000000E-03 0. -1.
    9900012    2    1    2    0    0 -0.37906410117E+02 -0.17408412254E+02  0.11986431443E+02  0.47787270929E+02  0.19999999473E+02 0.  0.
         12    1    1    2    0    0  0.37906410117E+02  0.17408412254E+02 -0.11986431443E+02  0.43400729071E+02  0.00000000000E+00 0. -1.
         11    1    3    3    0    0 -0.54295319214E+01 -0.96798774909E+01  0.41138382612E+01  0.11836532880E+02  0.51100000000E-03 0.  1.
        -11    1    3    3    0    0 -0.20635776105E+02 -0.83815232248E+01  0.90330573659E+01  0.24035001823E+02  0.51100000000E-03 0. -1.
         12    1    3    3    0    0 -0.11841102091E+02  0.65298846210E+00 -0.11604641841E+01  0.11915736225E+02  0.00000000000E+00 0. -1.
</event>
<event>
 7    1  0.3221417E-010  0.4778727E+02  0.7816164E-02  0.1312668E+00
        -11   -1    0    0    0    0  0.00000000000E+00  0.00000000000E+00  0.45593999997E+02  0.45594000000E+02  0.51100000000E-03 0. -1.
         11   -1    0    0    0    0 -0.00000000000E+00 -0.00000000000E+00 -0.45593999997E+02  0.45594000000E+02  0.51100000000E-03 0.  1.
    9900012    2    1    2    0    0  0.10194424703E+01  0.15905455167E+02 -0.40368310981E+02  0.47787270761E+02  0.19999998708E+02 0.  0.
         12    1    1    2    0    0 -0.10194424703E+01 -0.15905455167E+02  0.40368310981E+02  0.43400729239E+02  0.00000000000E+00 0. -1.
         11    1    3    3    0    0  0.49308960848E+01 -0.21394596618E+01 -0.10011065272E+02  0.11362766036E+02  0.51100000000E-03 0. -1.
        -11    1    3    3    0    0  0.55778925590E+00  0.77853539791E+01 -0.18707863999E+02  0.20270842141E+02  0.51100000000E-03 0.  1.
        -12    1    3    3    0    0 -0.44692428704E+01  0.10259560850E+02 -0.11649381710E+02  0.16153662584E+02  0.00000000000E+00 0.  1.
</event>
<event>
 7    1  0.3221417E-010  0.4778727E+02  0.7816164E-02  0.1312668E+00
        -11   -1    0    0    0    0  0.00000000000E+00  0.00000000000E+00  0.45593999997E+02  0.45594000000E+02  0.51100000000E-03 0. -1.
         11   -1    0    0    0    0 -0.00000000000E+00 -0.00000000000E+00 -0.45593999997E+02  0.45594000000E+02  0.51100000000E-03 0.  1.
    9900012    2    1    2    0    0 -0.22736584969E+02  0.16837703448E+01 -0.36930153117E+02  0.47787267427E+02  0.19999983505E+02 0.  0.
         12    1    1    2    0    0  0.22736584969E+02 -0.16837703448E+01  0.36930153117E+02  0.43400732573E+02  0.00000000000E+00 0. -1.
         11    1    3    3    0    0 -0.12162448488E+02  0.43764927017E+01 -0.13013766234E+02  0.18342217790E+02  0.51100000000E-03 0.  1.
        -11    1    3    3    0    0 -0.29100782977E+01 -0.75559192723E+01 -0.11034592274E+02  0.13686588277E+02  0.51100000000E-03 0. -1.
         12    1    3    3    0    0 -0.76640581833E+01  0.48631969153E+01 -0.12881794610E+02  0.15758461360E+02  0.00000000000E+00 0. -1.
</event>
<event>
 7    1  0.3221417E-010  0.4778729E+02  0.7816164E-02  0.1312668E+00
        -11   -1    0    0    0    0  0.00000000000E+00  0.00000000000E+00  0.45593999997E+02  0.45594000000E+02  0.51100000000E-03 0. -1.
         11   -1    0    0    0    0 -0.00000000000E+00 -0.00000000000E+00 -0.45593999997E+02  0.45594000000E+02  0.51100000000E-03 0.  1.
    9900012    2    1    2    0    0  0.22235201328E+02  0.29260707697E+02  0.23087415170E+02  0.47787286500E+02  0.20000070470E+02 0.  0.
        -12    1    1    2    0    0 -0.22235201328E+02 -0.29260707697E+02 -0.23087415170E+02  0.43400713500E+02  0.00000000000E+00 0.  1.
         11    1    3    3    0    0 -0.79711351793E+00  0.18462820145E+01  0.35435460419E+01  0.40744160379E+01  0.51100000000E-03 0. -1.
        -11    1    3    3    0    0  0.17929014419E+02  0.14219761921E+02  0.50000227081E+01  0.23423309213E+02  0.51100000000E-03 0.  1.
        -12    1    3    3    0    0  0.51033004271E+01  0.13194663761E+02  0.14543846420E+02  0.20289561250E+02  0.00000000000E+00 0.  1.
</event>
<event>
 7    1  0.3221417E-010  0.4778727E+02  0.7816164E-02  0.1312668E+00
        -11   -1    0    0    0    0  0.00000000000E+00  0.00000000000E+00  0.45593999997E+02  0.45594000000E+02  0.51100000000E-03 0.  1.
         11   -1    0    0    0    0 -0.00000000000E+00 -0.00000000000E+00 -0.45593999997E+02  0.45594000000E+02  0.51100000000E-03 0. -1.
    9900012    2    1    2    0    0 -0.36640554147E+02 -0.12916291963E+02 -0.19345855750E+02  0.47787274879E+02  0.20000017484E+02 0.  0.
         12    1    1    2    0    0  0.36640554147E+02  0.12916291963E+02  0.19345855750E+02  0.43400725121E+02  0.00000000000E+00 0. -1.
         11    1    3    3    0    0 -0.10117444416E+02  0.11600699282E+01 -0.48138719014E+01  0.11264182469E+02  0.51100000000E-03 0. -1.
        -11    1    3    3    0    0 -0.59630418362E+01  0.18196889865E+01 -0.71917731372E+01  0.95179166347E+01  0.51100000000E-03 0.  1.
        -12    1    3    3    0    0 -0.20560067895E+02 -0.15896050878E+02 -0.73402107115E+01  0.27005175775E+02  0.00000000000E+00 0.  1.
</event>
<event>
 7    1  0.3221417E-010  0.4778726E+02  0.7816164E-02  0.1312668E+00
        -11   -1    0    0    0    0  0.00000000000E+00  0.00000000000E+00  0.45593999997E+02  0.45594000000E+02  0.51100000000E-03 0. -1.
         11   -1    0    0    0    0 -0.00000000000E+00 -0.00000000000E+00 -0.45593999997E+02  0.45594000000E+02  0.51100000000E-03 0.  1.
    9900012    2    1    2    0    0 -0.19315752692E+02 -0.31144919654E+02 -0.23249075728E+02  0.47787264470E+02  0.19999970025E+02 0.  0.
         12    1    1    2    0    0  0.19315752692E+02  0.31144919654E+02  0.23249075728E+02  0.43400735530E+02  0.00000000000E+00 0. -1.
         11    1    3    3    0    0 -0.93386997444E+01 -0.19699849164E+02 -0.11542721765E+02  0.24668396705E+02  0.51100000000E-03 0. -1.
        -11    1    3    3    0    0 -0.18355617858E+01 -0.30551452228E+00 -0.88309133188E+01  0.90248355385E+01  0.51100000000E-03 0.  1.
         12    1    3    3    0    0 -0.81414911620E+01 -0.11139555967E+02 -0.28754406444E+01  0.14094032226E+02  0.00000000000E+00 0. -1.
</event>
<event>
 7    1  0.3221417E-010  0.4778727E+02  0.7816164E-02  0.1312668E+00
        -11   -1    0    0    0    0  0.00000000000E+00  0.00000000000E+00  0.45593999997E+02  0.45594000000E+02  0.51100000000E-03 0. -1.
         11   -1    0    0    0    0 -0.00000000000E+00 -0.00000000000E+00 -0.45593999997E+02  0.45594000000E+02  0.51100000000E-03 0.  1.
    9900012    2    1    2    0    0  0.21065257796E+02  0.13617050962E+02  0.35418274455E+02  0.47787270418E+02  0.19999997143E+02 0.  0.
        -12    1    1    2    0    0 -0.21065257796E+02 -0.13617050962E+02 -0.35418274455E+02  0.43400729582E+02  0.00000000000E+00 0.  1.
         11    1    3    3    0    0  0.19077197473E+00  0.49517872960E+00 -0.13044448727E+01  0.14082516137E+01  0.51100000000E-03 0. -1.
        -11    1    3    3    0    0  0.15169023867E+02  0.14445059655E+02  0.21265098411E+02  0.29849010774E+02  0.51100000000E-03 0.  1.
         12    1    3    3    0    0  0.57054619542E+01 -0.13231874224E+01  0.15457620917E+02  0.16530008030E+02  0.00000000000E+00 0. -1.
</event>
<event>
 7    1  0.3221417E-010  0.4778728E+02  0.7816164E-02  0.1312668E+00
        -11   -1    0    0    0    0  0.00000000000E+00  0.00000000000E+00  0.45593999997E+02  0.45594000000E+02  0.51100000000E-03 0. -1.
         11   -1    0    0    0    0 -0.00000000000E+00 -0.00000000000E+00 -0.45593999997E+02  0.45594000000E+02  0.51100000000E-03 0.  1.
    9900012    2    1    2    0    0 -0.36085453645E+02 -0.71218383584E+01 -0.23037833809E+02  0.47787281884E+02  0.20000049422E+02 0.  0.
         12    1    1    2    0    0  0.36085453645E+02  0.71218383584E+01  0.23037833809E+02  0.43400718116E+02  0.00000000000E+00 0. -1.
         11    1    3    3    0    0 -0.49342437857E+01  0.53604226830E+01 -0.55605446219E+01  0.91651813856E+01  0.51100000000E-03 0. -1.
        -11    1    3    3    0    0 -0.14874402501E+02 -0.54334501328E+01 -0.12570176829E+02  0.20218298046E+02  0.51100000000E-03 0.  1.
        -12    1    3    3    0    0 -0.16276807358E+02 -0.70488109086E+01 -0.49071123578E+01  0.18403802452E+02  0.00000000000E+00 0.  1.
</event>
<event>
 7    1  0.3221417E-010  0.4778727E+02  0.7816164E-02  0.1312668E+00
        -11   -1    0    0    0    0  0.00000000000E+00  0.00000000000E+00  0.45593999997E+02  0.45594000000E+02  0.51100000000E-03 0. -1.
         11   -1    0    0    0    0 -0.00000000000E+00 -0.00000000000E+00 -0.45593999997E+02  0.45594000000E+02  0.51100000000E-03 0.  1.
    9900012    2    1    2    0    0 -0.28940531244E+02 -0.21515640374E+02  0.24148418983E+02  0.47787271103E+02  0.20000000268E+02 0.  0.
        -12    1    1    2    0    0  0.28940531244E+02  0.21515640374E+02 -0.24148418983E+02  0.43400728897E+02  0.00000000000E+00 0.  1.
         11    1    3    3    0    0 -0.17508009186E+02 -0.85938242249E+01  0.11934378312E+02  0.22865117240E+02  0.51100000000E-03 0. -1.
        -11    1    3    3    0    0 -0.33615535359E+01 -0.93930762211E+01  0.12640501830E+02  0.16103173906E+02  0.51100000000E-03 0.  1.
         12    1    3    3    0    0 -0.80709685217E+01 -0.35287399282E+01 -0.42646115882E+00  0.88189799569E+01  0.00000000000E+00 0. -1.
</event>
<event>
 7    1  0.3221417E-010  0.4778726E+02  0.7816164E-02  0.1312668E+00
        -11   -1    0    0    0    0  0.00000000000E+00  0.00000000000E+00  0.45593999997E+02  0.45594000000E+02  0.51100000000E-03 0. -1.
         11   -1    0    0    0    0 -0.00000000000E+00 -0.00000000000E+00 -0.45593999997E+02  0.45594000000E+02  0.51100000000E-03 0.  1.
    9900012    2    1    2    0    0 -0.22826484554E+01 -0.52794830976E+01  0.43017911591E+02  0.47787261027E+02  0.19999954327E+02 0.  0.
        -12    1    1    2    0    0  0.22826484554E+01  0.52794830976E+01 -0.43017911591E+02  0.43400738973E+02  0.00000000000E+00 0.  1.
         11    1    3    3    0    0  0.75766738474E+01 -0.11086068082E+01  0.25221191824E+02  0.26357987649E+02  0.51100000000E-03 0.  1.
        -11    1    3    3    0    0 -0.31873218375E+01 -0.26405714020E+01  0.29568238208E+01  0.50866929525E+01  0.51100000000E-03 0. -1.
        -12    1    3    3    0    0 -0.66720004653E+01 -0.15303048873E+01  0.14839895947E+02  0.16342580425E+02  0.00000000000E+00 0.  1.
</event>
<event>
 7    1  0.3221417E-010  0.4778727E+02  0.7816164E-02  0.1312668E+00
        -11   -1    0    0    0    0  0.00000000000E+00  0.00000000000E+00  0.45593999997E+02  0.45594000000E+02  0.51100000000E-03 0. -1.
         11   -1    0    0    0    0 -0.00000000000E+00 -0.00000000000E+00 -0.45593999997E+02  0.45594000000E+02  0.51100000000E-03 0.  1.
    9900012    2    1    2    0    0  0.11891645091E+02 -0.24630869529E+02 -0.33697660079E+02  0.47787271302E+02  0.20000001174E+02 0.  0.
         12    1    1    2    0    0 -0.11891645091E+02  0.24630869529E+02  0.33697660079E+02  0.43400728698E+02  0.00000000000E+00 0. -1.
         11    1    3    3    0    0 -0.27432982570E-01 -0.23588872228E+00  0.49452423590E+00  0.54858959053E+00  0.51100000000E-03 0. -1.
        -11    1    3    3    0    0  0.57276460382E+01  0.14839003543E+01 -0.50843910157E+01  0.78012128327E+01  0.51100000000E-03 0.  1.
         12    1    3    3    0    0  0.61914320353E+01 -0.25878881161E+02 -0.29107793299E+02  0.39437468879E+02  0.00000000000E+00 0. -1.
</event>
<event>
 7    1  0.3221417E-010  0.4778727E+02  0.7816164E-02  0.1312668E+00
        -11   -1    0    0    0    0  0.00000000000E+00  0.00000000000E+00  0.45593999997E+02  0.45594000000E+02  0.51100000000E-03 0. -1.
         11   -1    0    0    0    0 -0.00000000000E+00 -0.00000000000E+00 -0.45593999997E+02  0.45594000000E+02  0.51100000000E-03 0.  1.
    9900012    2    1    2    0    0  0.97060551462E+01  0.86139910057E+01  0.41415155545E+02  0.47787268942E+02  0.19999990413E+02 0.  0.
        -12    1    1    2    0    0 -0.97060551462E+01 -0.86139910057E+01 -0.41415155545E+02  0.43400731058E+02  0.00000000000E+00 0.  1.
         11    1    3    3    0    0  0.45934029733E+00  0.14589806999E+01  0.15631255323E+02  0.15705914855E+02  0.51100000000E-03 0. -1.
        -11    1    3    3    0    0  0.82229383175E+01 -0.11191597641E+01  0.50024765360E+01  0.96898918934E+01  0.51100000000E-03 0.  1.
        -12    1    3    3    0    0  0.10237765314E+01  0.82741700700E+01  0.20781423686E+02  0.22391462193E+02  0.00000000000E+00 0.  1.
</event>
<event>
 7    1  0.3221417E-010  0.4778727E+02  0.7816164E-02  0.1312668E+00
        -11   -1    0    0    0    0  0.00000000000E+00  0.00000000000E+00  0.45593999997E+02  0.45594000000E+02  0.51100000000E-03 0. -1.
         11   -1    0    0    0    0 -0.00000000000E+00 -0.00000000000E+00 -0.45593999997E+02  0.45594000000E+02  0.51100000000E-03 0.  1.
    9900012    2    1    2    0    0 -0.19402184401E+02  0.31558217864E+02  0.22611001200E+02  0.47787271325E+02  0.20000001279E+02 0.  0.
        -12    1    1    2    0    0  0.19402184401E+02 -0.31558217864E+02 -0.22611001200E+02  0.43400728675E+02  0.00000000000E+00 0.  1.
         11    1    3    3    0    0  0.22701067013E+01  0.18478579502E+01  0.89544154878E-01  0.29284777370E+01  0.51100000000E-03 0. -1.
        -11    1    3    3    0    0 -0.13925511143E+02  0.12967154360E+02  0.17221397596E+02  0.25664050502E+02  0.51100000000E-03 0.  1.
         12    1    3    3    0    0 -0.77467799591E+01  0.16743205554E+02  0.53000594495E+01  0.19194743085E+02  0.00000000000E+00 0. -1.
</event>
<event>
 7    1  0.3221417E-010  0.4778727E+02  0.7816164E-02  0.1312668E+00
        -11   -1    0    0    0    0  0.00000000000E+00  0.00000000000E+00  0.45593999997E+02  0.45594000000E+02  0.51100000000E-03 0. -1.
         11   -1    0    0    0    0 -0.00000000000E+00 -0.00000000000E+00 -0.45593999997E+02  0.45594000000E+02  0.51100000000E-03 0.  1.
    9900012    2    1    2    0    0  0.11627665077E+02 -0.23808011680E+02  0.34374395430E+02  0.47787273319E+02  0.20000010371E+02 0.  0.
        -12    1    1    2    0    0 -0.11627665077E+02  0.23808011680E+02 -0.34374395430E+02  0.43400726681E+02  0.00000000000E+00 0.  1.
         11    1    3    3    0    0  0.48246108251E+01 -0.80480496693E+01  0.16570576107E+02  0.19042898043E+02  0.51100000000E-03 0. -1.
        -11    1    3    3    0    0 -0.13709113778E+01 -0.13510863370E+02  0.79129726345E+01  0.15717441369E+02  0.51100000000E-03 0.  1.
        -12    1    3    3    0    0  0.81739656301E+01 -0.22490986403E+01  0.98908466883E+01  0.13026933907E+02  0.00000000000E+00 0.  1.
</event>
<event>
 7    1  0.3221417E-010  0.4778727E+02  0.7816164E-02  0.1312668E+00
        -11   -1    0    0    0    0  0.00000000000E+00  0.00000000000E+00  0.45593999997E+02  0.45594000000E+02  0.51100000000E-03 0.  1.
         11   -1    0    0    0    0 -0.00000000000E+00 -0.00000000000E+00 -0.45593999997E+02  0.45594000000E+02  0.51100000000E-03 0. -1.
    9900012    2    1    2    0    0 -0.27454046934E+02 -0.32953000669E+02  0.66331416053E+01  0.47787268282E+02  0.19999987404E+02 0.  0.
         12    1    1    2    0    0  0.27454046934E+02  0.32953000669E+02 -0.66331416053E+01  0.43400731718E+02  0.00000000000E+00 0. -1.
         11    1    3    3    0    0 -0.70157853397E+01 -0.15015447907E+02  0.82170476359E+01  0.18498778119E+02  0.51100000000E-03 0. -1.
        -11    1    3    3    0    0 -0.15232630357E+02 -0.18225829456E+02  0.27102467450E+00  0.23754733036E+02  0.51100000000E-03 0.  1.
         12    1    3    3    0    0 -0.52056312367E+01  0.28827669392E+00 -0.18549307051E+01  0.55337571275E+01  0.00000000000E+00 0. -1.
</event>
<event>
 7    1  0.3221417E-010  0.4778730E+02  0.7816164E-02  0.1312668E+00
        -11   -1    0    0    0    0  0.00000000000E+00  0.00000000000E+00  0.45593999997E+02  0.45594000000E+02  0.51100000000E-03 0. -1.
         11   -1    0    0    0    0 -0.00000000000E+00 -0.00000000000E+00 -0.45593999997E+02  0.45594000000E+02  0.51100000000E-03 0.  1.
    9900012    2    1    2    0    0 -0.18599761560E+02  0.34313004425E+02 -0.18981245787E+02  0.47787296154E+02  0.20000114482E+02 0.  0.
         12    1    1    2    0    0  0.18599761560E+02 -0.34313004425E+02  0.18981245787E+02  0.43400703846E+02  0.00000000000E+00 0. -1.
         11    1    3    3    0    0 -0.66538060899E+01  0.17069290990E+02  0.15966740976E+01  0.18389757987E+02  0.51100000000E-03 0. -1.
        -11    1    3    3    0    0 -0.53156220070E+01  0.70151414541E+01 -0.83735000318E+01  0.12148397013E+02  0.51100000000E-03 0.  1.
         12    1    3    3    0    0 -0.66303334629E+01  0.10228571981E+02 -0.12204419853E+02  0.17249141154E+02  0.00000000000E+00 0. -1.
</event>
<event>
 7    1  0.3221417E-010  0.4778728E+02  0.7816164E-02  0.1312668E+00
        -11   -1    0    0    0    0  0.00000000000E+00  0.00000000000E+00  0.45593999997E+02  0.45594000000E+02  0.51100000000E-03 0. -1.
         11   -1    0    0    0    0 -0.00000000000E+00 -0.00000000000E+00 -0.45593999997E+02  0.45594000000E+02  0.51100000000E-03 0.  1.
    9900012    2    1    2    0    0 -0.14819451468E+02  0.15212576060E+02  0.37849495307E+02  0.47787275269E+02  0.20000019260E+02 0.  0.
        -12    1    1    2    0    0  0.14819451468E+02 -0.15212576060E+02 -0.37849495307E+02  0.43400724731E+02  0.00000000000E+00 0.  1.
         11    1    3    3    0    0 -0.14625213105E+02  0.15524821924E+02  0.29709879195E+02  0.36573130522E+02  0.51100000000E-03 0. -1.
        -11    1    3    3    0    0 -0.10834410837E+01  0.33415209460E+01  0.20795647726E+01  0.40821803878E+01  0.51100000000E-03 0.  1.
        -12    1    3    3    0    0  0.88920272005E+00 -0.36537668102E+01  0.60600513393E+01  0.71319643588E+01  0.00000000000E+00 0.  1.
</event>
<event>
 7    1  0.3221417E-010  0.4778727E+02  0.7816164E-02  0.1312668E+00
        -11   -1    0    0    0    0  0.00000000000E+00  0.00000000000E+00  0.45593999997E+02  0.45594000000E+02  0.51100000000E-03 0. -1.
         11   -1    0    0    0    0 -0.00000000000E+00 -0.00000000000E+00 -0.45593999997E+02  0.45594000000E+02  0.51100000000E-03 0.  1.
    9900012    2    1    2    0    0  0.19043683772E+02  0.18771956579E+02  0.34184426634E+02  0.47787271092E+02  0.20000000218E+02 0.  0.
        -12    1    1    2    0    0 -0.19043683772E+02 -0.18771956579E+02 -0.34184426634E+02  0.43400728908E+02  0.00000000000E+00 0.  1.
         11    1    3    3    0    0  0.65720414195E+01  0.71190722177E+01  0.20723861771E+02  0.22876874013E+02  0.51100000000E-03 0. -1.
        -11    1    3    3    0    0  0.13322962280E+02  0.50399451625E+01  0.99476685348E+01  0.17374074960E+02  0.51100000000E-03 0.  1.
        -12    1    3    3    0    0 -0.85131992805E+00  0.66129391993E+01  0.35128963286E+01  0.75363221195E+01  0.00000000000E+00 0.  1.
</event>
<event>
 7    1  0.3221417E-010  0.4778727E+02  0.7816164E-02  0.1312668E+00
        -11   -1    0    0    0    0  0.00000000000E+00  0.00000000000E+00  0.45593999997E+02  0.45594000000E+02  0.51100000000E-03 0. -1.
         11   -1    0    0    0    0 -0.00000000000E+00 -0.00000000000E+00 -0.45593999997E+02  0.45594000000E+02  0.51100000000E-03 0.  1.
    9900012    2    1    2    0    0  0.97288498645E+01 -0.20401668840E+02  0.37050569566E+02  0.47787270556E+02  0.19999997772E+02 0.  0.
        -12    1    1    2    0    0 -0.97288498645E+01  0.20401668840E+02 -0.37050569566E+02  0.43400729444E+02  0.00000000000E+00 0.  1.
         11    1    3    3    0    0  0.56868083109E+01 -0.28445288799E+01  0.11143097128E+02  0.12829643299E+02  0.51100000000E-03 0. -1.
        -11    1    3    3    0    0 -0.14626311617E+01 -0.37569659885E+01 -0.10595692770E+01  0.41685453899E+01  0.51100000000E-03 0.  1.
        -12    1    3    3    0    0  0.55046727152E+01 -0.13800173972E+02  0.26967041714E+02  0.30789081867E+02  0.00000000000E+00 0.  1.
</event>
<event>
 7    1  0.3221417E-010  0.4778724E+02  0.7816164E-02  0.1312668E+00
        -11   -1    0    0    0    0  0.00000000000E+00  0.00000000000E+00  0.45593999997E+02  0.45594000000E+02  0.51100000000E-03 0. -1.
         11   -1    0    0    0    0 -0.00000000000E+00 -0.00000000000E+00 -0.45593999997E+02  0.45594000000E+02  0.51100000000E-03 0.  1.
    9900012    2    1    2    0    0 -0.13638989452E+02 -0.10150345119E+02 -0.39932128180E+02  0.47787235027E+02  0.19999835780E+02 0.  0.
         12    1    1    2    0    0  0.13638989452E+02  0.10150345119E+02  0.39932128180E+02  0.43400764973E+02  0.00000000000E+00 0. -1.
         11    1    3    3    0    0  0.15303699378E+01 -0.48788607717E+00 -0.20807912403E+02  0.20869817532E+02  0.51100000000E-03 0. -1.
        -11    1    3    3    0    0 -0.91367238995E+00 -0.18329403313E+01 -0.34955962880E+00  0.20776572599E+01  0.51100000000E-03 0.  1.
        -12    1    3    3    0    0 -0.14255686999E+02 -0.78295187104E+01 -0.18774656148E+02  0.24839760235E+02  0.00000000000E+00 0.  1.
</event>
<event>
 7    1  0.3221417E-010  0.4778728E+02  0.7816164E-02  0.1312668E+00
        -11   -1    0    0    0    0  0.00000000000E+00  0.00000000000E+00  0.45593999997E+02  0.45594000000E+02  0.51100000000E-03 0. -1.
         11   -1    0    0    0    0 -0.00000000000E+00 -0.00000000000E+00 -0.45593999997E+02  0.45594000000E+02  0.51100000000E-03 0.  1.
    9900012    2    1    2    0    0 -0.89838775500E+01 -0.20592373413E+01  0.42410749736E+02  0.47787283330E+02  0.20000056015E+02 0.  0.
        -12    1    1    2    0    0  0.89838775500E+01  0.20592373413E+01 -0.42410749736E+02  0.43400716670E+02  0.00000000000E+00 0.  1.
         11    1    3    3    0    0 -0.88095013494E+01  0.38856568422E+01  0.16289665701E+02  0.18922443078E+02  0.51100000000E-03 0. -1.
        -11    1    3    3    0    0 -0.30377274959E+01 -0.46701999474E+01  0.49180576668E+01  0.74314095139E+01  0.51100000000E-03 0.  1.
         12    1    3    3    0    0  0.28633512953E+01 -0.12746942361E+01  0.21203026369E+02  0.21433430739E+02  0.00000000000E+00 0. -1.
</event>
<event>
 7    1  0.3221417E-010  0.4778727E+02  0.7816164E-02  0.1312668E+00
        -11   -1    0    0    0    0  0.00000000000E+00  0.00000000000E+00  0.45593999997E+02  0.45594000000E+02  0.51100000000E-03 0. -1.
         11   -1    0    0    0    0 -0.00000000000E+00 -0.00000000000E+00 -0.45593999997E+02  0.45594000000E+02  0.51100000000E-03 0.  1.
    9900012    2    1    2    0    0  0.18892882973E+02 -0.17759480193E+02 -0.34803488967E+02  0.47787274107E+02  0.20000013965E+02 0.  0.
         12    1    1    2    0    0 -0.18892882973E+02  0.17759480193E+02  0.34803488967E+02  0.43400725893E+02  0.00000000000E+00 0. -1.
         11    1    3    3    0    0  0.11109491832E+02 -0.11865650526E+02 -0.81625425384E+01  0.18189050885E+02  0.51100000000E-03 0. -1.
        -11    1    3    3    0    0  0.43976995036E+00  0.72034982770E-02  0.61727638507E+00  0.75794452060E+00  0.51100000000E-03 0.  1.
        -12    1    3    3    0    0  0.73436211904E+01 -0.59010331655E+01 -0.27258222814E+02  0.28840278701E+02  0.00000000000E+00 0.  1.
</event>
<event>
 7    1  0.3221417E-010  0.4778727E+02  0.7816164E-02  0.1312668E+00
        -11   -1    0    0    0    0  0.00000000000E+00  0.00000000000E+00  0.45593999997E+02  0.45594000000E+02  0.51100000000E-03 0. -1.
         11   -1    0    0    0    0 -0.00000000000E+00 -0.00000000000E+00 -0.45593999997E+02  0.45594000000E+02  0.51100000000E-03 0.  1.
    9900012    2    1    2    0    0  0.14378269069E+02  0.25075230458E+02  0.32374700235E+02  0.47787273978E+02  0.20000013374E+02 0.  0.
        -12    1    1    2    0    0 -0.14378269069E+02 -0.25075230458E+02 -0.32374700235E+02  0.43400726022E+02  0.00000000000E+00 0.  1.
         11    1    3    3    0    0  0.10193430933E+02  0.85968257513E+01  0.21181109184E+02  0.25028999854E+02  0.51100000000E-03 0. -1.
        -11    1    3    3    0    0  0.57574282469E-01 -0.11958204063E+01 -0.35154072602E+00  0.12477509308E+01  0.51100000000E-03 0.  1.
         12    1    3    3    0    0  0.41272638537E+01  0.17674225113E+02  0.11545131777E+02  0.21510523193E+02  0.00000000000E+00 0. -1.
</event>
<event>
 7    1  0.3221417E-010  0.4778727E+02  0.7816164E-02  0.1312668E+00
        -11   -1    0    0    0    0  0.00000000000E+00  0.00000000000E+00  0.45593999997E+02  0.45594000000E+02  0.51100000000E-03 0. -1.
         11   -1    0    0    0    0 -0.00000000000E+00 -0.00000000000E+00 -0.45593999997E+02  0.45594000000E+02  0.51100000000E-03 0.  1.
    9900012    2    1    2    0    0  0.21410319719E+02 -0.17392386618E+02  0.33507110728E+02  0.47787269913E+02  0.19999994843E+02 0.  0.
        -12    1    1    2    0    0 -0.21410319719E+02  0.17392386618E+02 -0.33507110728E+02  0.43400730087E+02  0.00000000000E+00 0.  1.
         11    1    3    3    0    0  0.72134381559E+01 -0.29636911903E+01 -0.46498482196E+00  0.78123854645E+01  0.51100000000E-03 0. -1.
        -11    1    3    3    0    0  0.51475282368E+01 -0.22223487322E+01  0.12178044389E+02  0.13406738836E+02  0.51100000000E-03 0.  1.
         12    1    3    3    0    0  0.90493533262E+01 -0.12206346696E+02  0.21794051161E+02  0.26568145612E+02  0.00000000000E+00 0. -1.
</event>
<event>
 7    1  0.3221417E-010  0.4778726E+02  0.7816164E-02  0.1312668E+00
        -11   -1    0    0    0    0  0.00000000000E+00  0.00000000000E+00  0.45593999997E+02  0.45594000000E+02  0.51100000000E-03 0. -1.
         11   -1    0    0    0    0 -0.00000000000E+00 -0.00000000000E+00 -0.45593999997E+02  0.45594000000E+02  0.51100000000E-03 0.  1.
    9900012    2    1    2    0    0  0.71525700065E+00  0.61989913124E+01 -0.42949794154E+02  0.47787263788E+02  0.19999966915E+02 0.  0.
         12    1    1    2    0    0 -0.71525700065E+00 -0.61989913124E+01  0.42949794154E+02  0.43400736212E+02  0.00000000000E+00 0. -1.
         11    1    3    3    0    0  0.60584659934E+01  0.64388780143E+01 -0.20729302698E+02  0.22535930220E+02  0.51100000000E-03 0. -1.
        -11    1    3    3    0    0 -0.58945990570E+01  0.19975135242E+01 -0.22082544349E+02  0.22942866506E+02  0.51100000000E-03 0.  1.
         12    1    3    3    0    0  0.55139006429E+00 -0.22374002261E+01 -0.13794710757E+00  0.23084670627E+01  0.00000000000E+00 0. -1.
</event>
<event>
 7    1  0.3221417E-010  0.4778727E+02  0.7816164E-02  0.1312668E+00
        -11   -1    0    0    0    0  0.00000000000E+00  0.00000000000E+00  0.45593999997E+02  0.45594000000E+02  0.51100000000E-03 0. -1.
         11   -1    0    0    0    0 -0.00000000000E+00 -0.00000000000E+00 -0.45593999997E+02  0.45594000000E+02  0.51100000000E-03 0.  1.
    9900012    2    1    2    0    0  0.29865145172E+02  0.29404168199E+02  0.11273471172E+02  0.47787272404E+02  0.20000006198E+02 0.  0.
        -12    1    1    2    0    0 -0.29865145172E+02 -0.29404168199E+02 -0.11273471172E+02  0.43400727596E+02  0.00000000000E+00 0.  1.
         11    1    3    3    0    0  0.68367281026E+01  0.95377782691E+01  0.98161982458E+01  0.15299274941E+02  0.51100000000E-03 0. -1.
        -11    1    3    3    0    0  0.18823394190E+02  0.10710001934E+02  0.41669606531E+01  0.22054203037E+02  0.51100000000E-03 0.  1.
        -12    1    3    3    0    0  0.42050228798E+01  0.91563879950E+01 -0.27096877270E+01  0.10433794425E+02  0.00000000000E+00 0.  1.
</event>
<event>
 7    1  0.3221417E-010  0.4778727E+02  0.7816164E-02  0.1312668E+00
        -11   -1    0    0    0    0  0.00000000000E+00  0.00000000000E+00  0.45593999997E+02  0.45594000000E+02  0.51100000000E-03 0. -1.
         11   -1    0    0    0    0 -0.00000000000E+00 -0.00000000000E+00 -0.45593999997E+02  0.45594000000E+02  0.51100000000E-03 0.  1.
    9900012    2    1    2    0    0  0.15513325913E+02  0.84983937790E+01 -0.39632527877E+02  0.47787271393E+02  0.20000001588E+02 0.  0.
         12    1    1    2    0    0 -0.15513325913E+02 -0.84983937790E+01  0.39632527877E+02  0.43400728607E+02  0.00000000000E+00 0. -1.
         11    1    3    3    0    0  0.23125039060E+01  0.31182352600E+01 -0.24173540872E+01  0.45732555686E+01  0.51100000000E-03 0. -1.
        -11    1    3    3    0    0  0.16029693422E+02  0.40490909951E+01 -0.21138705878E+02  0.26836376349E+02  0.51100000000E-03 0.  1.
         12    1    3    3    0    0 -0.28288714151E+01  0.13310675239E+01 -0.16076467912E+02  0.16377639475E+02  0.00000000000E+00 0. -1.
</event>
<event>
 7    1  0.3221417E-010  0.4778727E+02  0.7816164E-02  0.1312668E+00
        -11   -1    0    0    0    0  0.00000000000E+00  0.00000000000E+00  0.45593999997E+02  0.45594000000E+02  0.51100000000E-03 0. -1.
         11   -1    0    0    0    0 -0.00000000000E+00 -0.00000000000E+00 -0.45593999997E+02  0.45594000000E+02  0.51100000000E-03 0.  1.
    9900012    2    1    2    0    0 -0.97389464448E+01 -0.94288476991E+01  0.41229513503E+02  0.47787273848E+02  0.20000012783E+02 0.  0.
        -12    1    1    2    0    0  0.97389464448E+01  0.94288476991E+01 -0.41229513503E+02  0.43400726152E+02  0.00000000000E+00 0.  1.
         11    1    3    3    0    0 -0.61173695365E+01 -0.11485995943E+02  0.12042648073E+02  0.17730642564E+02  0.51100000000E-03 0.  1.
        -11    1    3    3    0    0 -0.20112318962E+01 -0.18568369395E+01  0.15160767263E+02  0.15405900214E+02  0.51100000000E-03 0. -1.
        -12    1    3    3    0    0 -0.16103450122E+01  0.39139851837E+01  0.14026098167E+02  0.14650731070E+02  0.00000000000E+00 0.  1.
</event>
<event>
 7    1  0.3221417E-010  0.4778732E+02  0.7816164E-02  0.1312668E+00
        -11   -1    0    0    0    0  0.00000000000E+00  0.00000000000E+00  0.45593999997E+02  0.45594000000E+02  0.51100000000E-03 0. -1.
         11   -1    0    0    0    0 -0.00000000000E+00 -0.00000000000E+00 -0.45593999997E+02  0.45594000000E+02  0.51100000000E-03 0.  1.
    9900012    2    1    2    0    0 -0.27559299102E+02 -0.95761341557E+01  0.32131013559E+02  0.47787316311E+02  0.20000206387E+02 0.  0.
        -12    1    1    2    0    0  0.27559299102E+02  0.95761341557E+01 -0.32131013559E+02  0.43400683689E+02  0.00000000000E+00 0.  1.
         11    1    3    3    0    0 -0.11354867753E+02 -0.10670261368E+02  0.16862479960E+02  0.22959327735E+02  0.51100000000E-03 0.  1.
        -11    1    3    3    0    0 -0.17440660362E+02 -0.62758324105E+00  0.13810792972E+02  0.22255527344E+02  0.51100000000E-03 0. -1.
        -12    1    3    3    0    0  0.12362290130E+01  0.17217104535E+01  0.14577406263E+01  0.25724612323E+01  0.00000000000E+00 0.  1.
</event>
<event>
 7    1  0.3221417E-010  0.4778727E+02  0.7816164E-02  0.1312668E+00
        -11   -1    0    0    0    0  0.00000000000E+00  0.00000000000E+00  0.45593999997E+02  0.45594000000E+02  0.51100000000E-03 0. -1.
         11   -1    0    0    0    0 -0.00000000000E+00 -0.00000000000E+00 -0.45593999997E+02  0.45594000000E+02  0.51100000000E-03 0.  1.
    9900012    2    1    2    0    0  0.32990135503E+02 -0.45632969586E+00 -0.28196915950E+02  0.47787270209E+02  0.19999996191E+02 0.  0.
         12    1    1    2    0    0 -0.32990135503E+02  0.45632969586E+00  0.28196915950E+02  0.43400729791E+02  0.00000000000E+00 0. -1.
         11    1    3    3    0    0  0.15626269308E+02 -0.76612282228E+01 -0.17586487538E+02  0.24741852286E+02  0.51100000000E-03 0. -1.
        -11    1    3    3    0    0  0.14959580047E+02  0.26231543481E+01 -0.88593265106E+01  0.17582879184E+02  0.51100000000E-03 0.  1.
         12    1    3    3    0    0  0.24042861480E+01  0.45817441789E+01 -0.17511019014E+01  0.54625387386E+01  0.00000000000E+00 0. -1.
</event>
<event>
 7    1  0.3221417E-010  0.4778727E+02  0.7816164E-02  0.1312668E+00
        -11   -1    0    0    0    0  0.00000000000E+00  0.00000000000E+00  0.45593999997E+02  0.45594000000E+02  0.51100000000E-03 0. -1.
         11   -1    0    0    0    0 -0.00000000000E+00 -0.00000000000E+00 -0.45593999997E+02  0.45594000000E+02  0.51100000000E-03 0.  1.
    9900012    2    1    2    0    0 -0.15239059096E+02 -0.25004967654E+02  0.32033511960E+02  0.47787271688E+02  0.20000002935E+02 0.  0.
        -12    1    1    2    0    0  0.15239059096E+02  0.25004967654E+02 -0.32033511960E+02  0.43400728312E+02  0.00000000000E+00 0.  1.
         11    1    3    3    0    0 -0.14304845668E+02 -0.20031892698E+02  0.27415206364E+02  0.36844251585E+02  0.51100000000E-03 0. -1.
        -11    1    3    3    0    0 -0.39377339830E+01 -0.29226078485E+01  0.53242499874E+01  0.72384406986E+01  0.51100000000E-03 0.  1.
        -12    1    3    3    0    0  0.30035205547E+01 -0.20504671071E+01 -0.70594439109E+00  0.37045794044E+01  0.00000000000E+00 0.  1.
</event>
<event>
 7    1  0.3221417E-010  0.4778727E+02  0.7816164E-02  0.1312668E+00
        -11   -1    0    0    0    0  0.00000000000E+00  0.00000000000E+00  0.45593999997E+02  0.45594000000E+02  0.51100000000E-03 0. -1.
         11   -1    0    0    0    0 -0.00000000000E+00 -0.00000000000E+00 -0.45593999997E+02  0.45594000000E+02  0.51100000000E-03 0.  1.
    9900012    2    1    2    0    0  0.24598921482E+02 -0.15432565465E+02 -0.32254493773E+02  0.47787269782E+02  0.19999994245E+02 0.  0.
         12    1    1    2    0    0 -0.24598921482E+02  0.15432565465E+02  0.32254493773E+02  0.43400730218E+02  0.00000000000E+00 0. -1.
         11    1    3    3    0    0  0.20523916365E+02 -0.71875415033E+01 -0.17300152091E+02  0.27788255765E+02  0.51100000000E-03 0. -1.
        -11    1    3    3    0    0  0.32916699627E+01  0.13285806188E+01 -0.53101939326E+01  0.63873607591E+01  0.51100000000E-03 0.  1.
         12    1    3    3    0    0  0.78333515431E+00 -0.95736045800E+01 -0.96441477489E+01  0.13611653258E+02  0.00000000000E+00 0. -1.
</event>
<event>
 7    1  0.3221417E-010  0.4778727E+02  0.7816164E-02  0.1312668E+00
        -11   -1    0    0    0    0  0.00000000000E+00  0.00000000000E+00  0.45593999997E+02  0.45594000000E+02  0.51100000000E-03 0. -1.
         11   -1    0    0    0    0 -0.00000000000E+00 -0.00000000000E+00 -0.45593999997E+02  0.45594000000E+02  0.51100000000E-03 0.  1.
    9900012    2    1    2    0    0 -0.19522349356E+02 -0.34030456256E+02  0.18558808912E+02  0.47787268835E+02  0.19999989928E+02 0.  0.
        -12    1    1    2    0    0  0.19522349356E+02  0.34030456256E+02 -0.18558808912E+02  0.43400731165E+02  0.00000000000E+00 0.  1.
         11    1    3    3    0    0 -0.16916976580E+02 -0.21230789927E+02  0.19295750374E+02  0.33305502853E+02  0.51100000000E-03 0. -1.
        -11    1    3    3    0    0  0.15870391439E+01 -0.37287821640E+01  0.13536308193E+01  0.42725667141E+01  0.51100000000E-03 0.  1.
         12    1    3    3    0    0 -0.41924119195E+01 -0.90708841649E+01 -0.20905722809E+01  0.10209199268E+02  0.00000000000E+00 0. -1.
</event>
<event>
 7    1  0.3221417E-010  0.4778727E+02  0.7816164E-02  0.1312668E+00
        -11   -1    0    0    0    0  0.00000000000E+00  0.00000000000E+00  0.45593999997E+02  0.45594000000E+02  0.51100000000E-03 0.  1.
         11   -1    0    0    0    0 -0.00000000000E+00 -0.00000000000E+00 -0.45593999997E+02  0.45594000000E+02  0.51100000000E-03 0. -1.
    9900012    2    1    2    0    0  0.34463166991E+02 -0.26343435152E+02  0.13916592719E+01  0.47787272239E+02  0.20000005446E+02 0.  0.
         12    1    1    2    0    0 -0.34463166991E+02  0.26343435152E+02 -0.13916592719E+01  0.43400727761E+02  0.00000000000E+00 0. -1.
         11    1    3    3    0    0  0.35517638142E+01  0.10237771900E+01 -0.24950268408E+01  0.44596306040E+01  0.51100000000E-03 0. -1.
        -11    1    3    3    0    0  0.10494076411E+02 -0.11632696317E+02  0.73752371244E+01  0.17315870935E+02  0.51100000000E-03 0.  1.
         12    1    3    3    0    0  0.20417326765E+02 -0.15734516025E+02 -0.34885510117E+01  0.26011770700E+02  0.00000000000E+00 0. -1.
</event>
<event>
 7    1  0.3221417E-010  0.4778727E+02  0.7816164E-02  0.1312668E+00
        -11   -1    0    0    0    0  0.00000000000E+00  0.00000000000E+00  0.45593999997E+02  0.45594000000E+02  0.51100000000E-03 0. -1.
         11   -1    0    0    0    0 -0.00000000000E+00 -0.00000000000E+00 -0.45593999997E+02  0.45594000000E+02  0.51100000000E-03 0.  1.
    9900012    2    1    2    0    0  0.22577010705E+02  0.22274592113E+02  0.29626753177E+02  0.47787269937E+02  0.19999994951E+02 0.  0.
        -12    1    1    2    0    0 -0.22577010705E+02 -0.22274592113E+02 -0.29626753177E+02  0.43400730063E+02  0.00000000000E+00 0.  1.
         11    1    3    3    0    0  0.32089815079E+01  0.37144046384E+01  0.11189304716E+02  0.12218629400E+02  0.51100000000E-03 0. -1.
        -11    1    3    3    0    0  0.10835282376E+02  0.19230481497E+01  0.32340655636E+01  0.11469988608E+02  0.51100000000E-03 0.  1.
         12    1    3    3    0    0  0.85327468218E+01  0.16637139325E+02  0.15203382898E+02  0.24098651928E+02  0.00000000000E+00 0. -1.
</event>
<event>
 7    1  0.3221417E-010  0.4778727E+02  0.7816164E-02  0.1312668E+00
        -11   -1    0    0    0    0  0.00000000000E+00  0.00000000000E+00  0.45593999997E+02  0.45594000000E+02  0.51100000000E-03 0. -1.
         11   -1    0    0    0    0 -0.00000000000E+00 -0.00000000000E+00 -0.45593999997E+02  0.45594000000E+02  0.51100000000E-03 0.  1.
    9900012    2    1    2    0    0  0.14021428185E+00  0.36496344736E+02  0.23486605760E+02  0.47787268563E+02  0.19999988687E+02 0.  0.
        -12    1    1    2    0    0 -0.14021428185E+00 -0.36496344736E+02 -0.23486605760E+02  0.43400731437E+02  0.00000000000E+00 0.  1.
         11    1    3    3    0    0 -0.63245246475E+01  0.39262311862E+01  0.15548868637E+01  0.76047732881E+01  0.51100000000E-03 0. -1.
        -11    1    3    3    0    0  0.18027470548E+01  0.21660560732E+02  0.15413049078E+02  0.26645672637E+02  0.51100000000E-03 0.  1.
        -12    1    3    3    0    0  0.46619918745E+01  0.10909552818E+02  0.65186698186E+01  0.13536822638E+02  0.00000000000E+00 0.  1.
</event>
<event>
 7    1  0.3221417E-010  0.4778727E+02  0.7816164E-02  0.1312668E+00
        -11   -1    0    0    0    0  0.00000000000E+00  0.00000000000E+00  0.45593999997E+02  0.45594000000E+02  0.51100000000E-03 0. -1.
         11   -1    0    0    0    0 -0.00000000000E+00 -0.00000000000E+00 -0.45593999997E+02  0.45594000000E+02  0.51100000000E-03 0.  1.
    9900012    2    1    2    0    0  0.28927148763E+02 -0.24360488495E+02  0.21293423883E+02  0.47787271482E+02  0.20000001994E+02 0.  0.
        -12    1    1    2    0    0 -0.28927148763E+02  0.24360488495E+02 -0.21293423883E+02  0.43400728518E+02  0.00000000000E+00 0.  1.
         11    1    3    3    0    0  0.97114091229E+01 -0.93475060144E+01  0.14104046001E+02  0.19509265740E+02  0.51100000000E-03 0. -1.
        -11    1    3    3    0    0  0.20558630716E+02 -0.14640865653E+02  0.82209507261E+01  0.26544232426E+02  0.51100000000E-03 0.  1.
         12    1    3    3    0    0 -0.13428910765E+01 -0.37211682768E+00 -0.10315728446E+01  0.17337733158E+01  0.00000000000E+00 0. -1.
</event>
<event>
 7    1  0.3221417E-010  0.4778727E+02  0.7816164E-02  0.1312668E+00
        -11   -1    0    0    0    0  0.00000000000E+00  0.00000000000E+00  0.45593999997E+02  0.45594000000E+02  0.51100000000E-03 0.  1.
         11   -1    0    0    0    0 -0.00000000000E+00 -0.00000000000E+00 -0.45593999997E+02  0.45594000000E+02  0.51100000000E-03 0. -1.
    9900012    2    1    2    0    0  0.27565346993E+01 -0.43068931898E+02  0.45925903306E+01  0.47787271155E+02  0.20000000502E+02 0.  0.
        -12    1    1    2    0    0 -0.27565346993E+01  0.43068931898E+02 -0.45925903306E+01  0.43400728845E+02  0.00000000000E+00 0.  1.
         11    1    3    3    0    0 -0.18986630101E+01 -0.21234165064E+02  0.50606907542E+01  0.21911304807E+02  0.51100000000E-03 0. -1.
        -11    1    3    3    0    0  0.77107530952E+01 -0.12401628928E+02  0.37862654416E+01  0.15086149927E+02  0.51100000000E-03 0.  1.
         12    1    3    3    0    0 -0.30555553858E+01 -0.94331379062E+01 -0.42543658652E+01  0.10789816420E+02  0.00000000000E+00 0. -1.
</event>
<event>
 7    1  0.3221417E-010  0.4778727E+02  0.7816164E-02  0.1312668E+00
        -11   -1    0    0    0    0  0.00000000000E+00  0.00000000000E+00  0.45593999997E+02  0.45594000000E+02  0.51100000000E-03 0. -1.
         11   -1    0    0    0    0 -0.00000000000E+00 -0.00000000000E+00 -0.45593999997E+02  0.45594000000E+02  0.51100000000E-03 0.  1.
    9900012    2    1    2    0    0 -0.11795748457E+01 -0.14522905052E+02  0.40881744406E+02  0.47787271969E+02  0.20000004215E+02 0.  0.
        -12    1    1    2    0    0  0.11795748457E+01  0.14522905052E+02 -0.40881744406E+02  0.43400728031E+02  0.00000000000E+00 0.  1.
         11    1    3    3    0    0 -0.27126366421E+01 -0.13534612899E+02  0.16931050417E+02  0.21845013444E+02  0.51100000000E-03 0. -1.
        -11    1    3    3    0    0  0.11471645716E+01 -0.53727358292E+00 -0.58787432635E+00  0.13965120629E+01  0.51100000000E-03 0.  1.
        -12    1    3    3    0    0  0.38589722482E+00 -0.45101856975E+00  0.24538568316E+02  0.24545746462E+02  0.00000000000E+00 0.  1.
</event>
<event>
 7    1  0.3221417E-010  0.4778727E+02  0.7816164E-02  0.1312668E+00
        -11   -1    0    0    0    0  0.00000000000E+00  0.00000000000E+00  0.45593999997E+02  0.45594000000E+02  0.51100000000E-03 0. -1.
         11   -1    0    0    0    0 -0.00000000000E+00 -0.00000000000E+00 -0.45593999997E+02  0.45594000000E+02  0.51100000000E-03 0.  1.
    9900012    2    1    2    0    0  0.11450790038E+02  0.18033801254E+02 -0.37779423873E+02  0.47787269035E+02  0.19999990837E+02 0.  0.
         12    1    1    2    0    0 -0.11450790038E+02 -0.18033801254E+02  0.37779423873E+02  0.43400730965E+02  0.00000000000E+00 0. -1.
         11    1    3    3    0    0 -0.92251588740E+00  0.55138513955E+00  0.50496395234E+00  0.11874552576E+01  0.51100000000E-03 0. -1.
        -11    1    3    3    0    0  0.82416495786E+01  0.19879959589E+02 -0.33657189745E+02  0.39949267863E+02  0.51100000000E-03 0.  1.
        -12    1    3    3    0    0  0.41316563464E+01 -0.23975434746E+01 -0.46271980803E+01  0.66505459138E+01  0.00000000000E+00 0.  1.
</event>
<event>
 7    1  0.3221417E-010  0.4778729E+02  0.7816164E-02  0.1312668E+00
        -11   -1    0    0    0    0  0.00000000000E+00  0.00000000000E+00  0.45593999997E+02  0.45594000000E+02  0.51100000000E-03 0. -1.
         11   -1    0    0    0    0 -0.00000000000E+00 -0.00000000000E+00 -0.45593999997E+02  0.45594000000E+02  0.51100000000E-03 0.  1.
    9900012    2    1    2    0    0  0.34165985994E+02  0.17335434684E+02  0.20390926595E+02  0.47787288231E+02  0.20000078362E+02 0.  0.
        -12    1    1    2    0    0 -0.34165985994E+02 -0.17335434684E+02 -0.20390926595E+02  0.43400711769E+02  0.00000000000E+00 0.  1.
         11    1    3    3    0    0  0.88020684568E+01  0.13206035914E+02  0.12166429297E+02  0.19997444731E+02  0.51100000000E-03 0. -1.
        -11    1    3    3    0    0  0.69228976264E+01  0.36700254056E+01  0.42719088721E+01  0.89243937439E+01  0.51100000000E-03 0.  1.
        -12    1    3    3    0    0  0.18441019911E+02  0.45937336436E+00  0.39525884257E+01  0.18865449756E+02  0.00000000000E+00 0.  1.
</event>
<event>
 7    1  0.3221417E-010  0.4778727E+02  0.7816164E-02  0.1312668E+00
        -11   -1    0    0    0    0  0.00000000000E+00  0.00000000000E+00  0.45593999997E+02  0.45594000000E+02  0.51100000000E-03 0. -1.
         11   -1    0    0    0    0 -0.00000000000E+00 -0.00000000000E+00 -0.45593999997E+02  0.45594000000E+02  0.51100000000E-03 0.  1.
    9900012    2    1    2    0    0 -0.17122676488E+02 -0.17877771738E+02  0.35648598804E+02  0.47787269947E+02  0.19999994997E+02 0.  0.
        -12    1    1    2    0    0  0.17122676488E+02  0.17877771738E+02 -0.35648598804E+02  0.43400730053E+02  0.00000000000E+00 0.  1.
         11    1    3    3    0    0 -0.20638519599E+01 -0.12271066659E+02  0.11462934797E+02  0.16918553020E+02  0.51100000000E-03 0. -1.
        -11    1    3    3    0    0 -0.68397424382E+00  0.25528322999E+01  0.36771189227E+01  0.45283526089E+01  0.51100000000E-03 0.  1.
         12    1    3    3    0    0 -0.14374850285E+02 -0.81595373785E+01  0.20508545084E+02  0.26340364318E+02  0.00000000000E+00 0. -1.
</event>
<event>
 7    1  0.3221417E-010  0.4778727E+02  0.7816164E-02  0.1312668E+00
        -11   -1    0    0    0    0  0.00000000000E+00  0.00000000000E+00  0.45593999997E+02  0.45594000000E+02  0.51100000000E-03 0. -1.
         11   -1    0    0    0    0 -0.00000000000E+00 -0.00000000000E+00 -0.45593999997E+02  0.45594000000E+02  0.51100000000E-03 0.  1.
    9900012    2    1    2    0    0  0.23892152873E+02 -0.12165105200E+01  0.36211994383E+02  0.47787269546E+02  0.19999993166E+02 0.  0.
        -12    1    1    2    0    0 -0.23892152873E+02  0.12165105200E+01 -0.36211994383E+02  0.43400730454E+02  0.00000000000E+00 0.  1.
         11    1    3    3    0    0  0.16015146928E+02  0.67184407207E+01  0.25878832878E+02  0.31166269720E+02  0.51100000000E-03 0. -1.
        -11    1    3    3    0    0  0.80238344682E+01 -0.38081370496E+01  0.67889364622E+01  0.11179154078E+02  0.51100000000E-03 0.  1.
         12    1    3    3    0    0 -0.14682852318E+00 -0.41268141910E+01  0.35442250428E+01  0.54418457472E+01  0.00000000000E+00 0. -1.
</event>
<event>
 7    1  0.3221417E-010  0.4778727E+02  0.7816164E-02  0.1312668E+00
        -11   -1    0    0    0    0  0.00000000000E+00  0.00000000000E+00  0.45593999997E+02  0.45594000000E+02  0.51100000000E-03 0. -1.
         11   -1    0    0    0    0 -0.00000000000E+00 -0.00000000000E+00 -0.45593999997E+02  0.45594000000E+02  0.51100000000E-03 0.  1.
    9900012    2    1    2    0    0  0.13676991535E+02 -0.20228515467E+02  0.35879949951E+02  0.47787265629E+02  0.19999975309E+02 0.  0.
        -12    1    1    2    0    0 -0.13676991535E+02  0.20228515467E+02 -0.35879949951E+02  0.43400734371E+02  0.00000000000E+00 0.  1.
         11    1    3    3    0    0  0.38357476414E+00 -0.10539471838E+02  0.14040151099E+02  0.17559995426E+02  0.51100000000E-03 0. -1.
        -11    1    3    3    0    0  0.31782228397E+01  0.29078073841E+01  0.23321438159E+01  0.48985037757E+01  0.51100000000E-03 0.  1.
         12    1    3    3    0    0  0.10115193931E+02 -0.12596851012E+02  0.19507655037E+02  0.25328766427E+02  0.00000000000E+00 0. -1.
</event>
<event>
 7    1  0.3221417E-010  0.4778726E+02  0.7816164E-02  0.1312668E+00
        -11   -1    0    0    0    0  0.00000000000E+00  0.00000000000E+00  0.45593999997E+02  0.45594000000E+02  0.51100000000E-03 0. -1.
         11   -1    0    0    0    0 -0.00000000000E+00 -0.00000000000E+00 -0.45593999997E+02  0.45594000000E+02  0.51100000000E-03 0.  1.
    9900012    2    1    2    0    0 -0.18930627856E+02 -0.20870402360E+02  0.33010324522E+02  0.47787263938E+02  0.19999967597E+02 0.  0.
        -12    1    1    2    0    0  0.18930627856E+02  0.20870402360E+02 -0.33010324522E+02  0.43400736062E+02  0.00000000000E+00 0.  1.
         11    1    3    3    0    0 -0.11112202332E+02 -0.42266960042E+01  0.21677742698E+02  0.24723885789E+02  0.51100000000E-03 0. -1.
        -11    1    3    3    0    0 -0.78622293716E+01 -0.11786910785E+02  0.11431952161E+02  0.18205368632E+02  0.51100000000E-03 0.  1.
         12    1    3    3    0    0  0.43803847603E-01 -0.48567955709E+01 -0.99370337523E-01  0.48580095161E+01  0.00000000000E+00 0. -1.
</event>
<event>
 7    1  0.3221417E-010  0.4778724E+02  0.7816164E-02  0.1312668E+00
        -11   -1    0    0    0    0  0.00000000000E+00  0.00000000000E+00  0.45593999997E+02  0.45594000000E+02  0.51100000000E-03 0. -1.
         11   -1    0    0    0    0 -0.00000000000E+00 -0.00000000000E+00 -0.45593999997E+02  0.45594000000E+02  0.51100000000E-03 0.  1.
    9900012    2    1    2    0    0 -0.34694579775E+01 -0.75265517109E+01 -0.42602115163E+02  0.47787235770E+02  0.19999839171E+02 0.  0.
         12    1    1    2    0    0  0.34694579775E+01  0.75265517109E+01  0.42602115163E+02  0.43400764230E+02  0.00000000000E+00 0. -1.
         11    1    3    3    0    0 -0.51718319074E+00  0.36904242636E+01 -0.15221718895E+02  0.15671229565E+02  0.51100000000E-03 0. -1.
        -11    1    3    3    0    0 -0.22797753366E+01  0.23024555631E+01 -0.48787153568E+01  0.58566663726E+01  0.51100000000E-03 0.  1.
        -12    1    3    3    0    0 -0.67249945014E+00 -0.13519431538E+02 -0.22501680912E+02  0.26259339833E+02  0.00000000000E+00 0.  1.
</event>
<event>
 7    1  0.3221417E-010  0.4778726E+02  0.7816164E-02  0.1312668E+00
        -11   -1    0    0    0    0  0.00000000000E+00  0.00000000000E+00  0.45593999997E+02  0.45594000000E+02  0.51100000000E-03 0. -1.
         11   -1    0    0    0    0 -0.00000000000E+00 -0.00000000000E+00 -0.45593999997E+02  0.45594000000E+02  0.51100000000E-03 0.  1.
    9900012    2    1    2    0    0  0.73313881989E+00  0.43384512619E+02  0.93323608731E+00  0.47787258563E+02  0.19999943091E+02 0.  0.
        -12    1    1    2    0    0 -0.73313881989E+00 -0.43384512619E+02 -0.93323608731E+00  0.43400741437E+02  0.00000000000E+00 0.  1.
         11    1    3    3    0    0 -0.58865384394E+00  0.84208852530E+01  0.56600405556E+01  0.10163359737E+02  0.51100000000E-03 0. -1.
        -11    1    3    3    0    0 -0.57366196450E+01  0.14591338440E+02 -0.72519059035E+00  0.15695281586E+02  0.51100000000E-03 0.  1.
         12    1    3    3    0    0  0.70584123088E+01  0.20372288926E+02 -0.40016138780E+01  0.21928617240E+02  0.00000000000E+00 0. -1.
</event>
<event>
 7    1  0.3221417E-010  0.4778726E+02  0.7816164E-02  0.1312668E+00
        -11   -1    0    0    0    0  0.00000000000E+00  0.00000000000E+00  0.45593999997E+02  0.45594000000E+02  0.51100000000E-03 0. -1.
         11   -1    0    0    0    0 -0.00000000000E+00 -0.00000000000E+00 -0.45593999997E+02  0.45594000000E+02  0.51100000000E-03 0.  1.
    9900012    2    1    2    0    0  0.17343334319E+02  0.34573214350E+02 -0.19685672381E+02  0.47787261609E+02  0.19999956980E+02 0.  0.
         12    1    1    2    0    0 -0.17343334319E+02 -0.34573214350E+02  0.19685672381E+02  0.43400738391E+02  0.00000000000E+00 0. -1.
         11    1    3    3    0    0  0.15594858365E+02  0.23526352557E+02 -0.39909054268E+01  0.28506423810E+02  0.51100000000E-03 0. -1.
        -11    1    3    3    0    0  0.51181230381E+00  0.35039719036E+01 -0.54341598055E+01  0.64861285825E+01  0.51100000000E-03 0.  1.
         12    1    3    3    0    0  0.12366636499E+01  0.75428898898E+01 -0.10260607148E+02  0.12794709216E+02  0.00000000000E+00 0. -1.
</event>
<event>
 7    1  0.3221417E-010  0.4778727E+02  0.7816164E-02  0.1312668E+00
        -11   -1    0    0    0    0  0.00000000000E+00  0.00000000000E+00  0.45593999997E+02  0.45594000000E+02  0.51100000000E-03 0. -1.
         11   -1    0    0    0    0 -0.00000000000E+00 -0.00000000000E+00 -0.45593999997E+02  0.45594000000E+02  0.51100000000E-03 0.  1.
    9900012    2    1    2    0    0 -0.13308784147E+02 -0.23346579917E+02 -0.34079858224E+02  0.47787271137E+02  0.20000000422E+02 0.  0.
         12    1    1    2    0    0  0.13308784147E+02  0.23346579917E+02  0.34079858224E+02  0.43400728863E+02  0.00000000000E+00 0. -1.
         11    1    3    3    0    0 -0.98160972753E+00  0.15201847649E+00  0.17408132248E+01  0.20042699966E+01  0.51100000000E-03 0. -1.
        -11    1    3    3    0    0 -0.19503946306E+01 -0.26591197858E+01 -0.29743351645E+00  0.33111061910E+01  0.51100000000E-03 0.  1.
        -12    1    3    3    0    0 -0.10376779789E+02 -0.20839478607E+02 -0.35523237932E+02  0.42471894949E+02  0.00000000000E+00 0.  1.
</event>
<event>
 7    1  0.3221417E-010  0.4778727E+02  0.7816164E-02  0.1312668E+00
        -11   -1    0    0    0    0  0.00000000000E+00  0.00000000000E+00  0.45593999997E+02  0.45594000000E+02  0.51100000000E-03 0. -1.
         11   -1    0    0    0    0 -0.00000000000E+00 -0.00000000000E+00 -0.45593999997E+02  0.45594000000E+02  0.51100000000E-03 0.  1.
    9900012    2    1    2    0    0 -0.22224028486E+02 -0.14869860824E+01  0.37249220937E+02  0.47787273852E+02  0.20000012801E+02 0.  0.
        -12    1    1    2    0    0  0.22224028486E+02  0.14869860824E+01 -0.37249220937E+02  0.43400726148E+02  0.00000000000E+00 0.  1.
         11    1    3    3    0    0 -0.99625205530E+01  0.13186337772E+01  0.28860698431E+02  0.30560276913E+02  0.51100000000E-03 0. -1.
        -11    1    3    3    0    0 -0.48889255452E+01  0.19201000309E+01  0.63406450418E+01  0.82335992690E+01  0.51100000000E-03 0.  1.
        -12    1    3    3    0    0 -0.73725823877E+01 -0.47257198905E+01  0.20478774644E+01  0.89933976703E+01  0.00000000000E+00 0.  1.
</event>
<event>
 7    1  0.3221417E-010  0.4778727E+02  0.7816164E-02  0.1312668E+00
        -11   -1    0    0    0    0  0.00000000000E+00  0.00000000000E+00  0.45593999997E+02  0.45594000000E+02  0.51100000000E-03 0. -1.
         11   -1    0    0    0    0 -0.00000000000E+00 -0.00000000000E+00 -0.45593999997E+02  0.45594000000E+02  0.51100000000E-03 0.  1.
    9900012    2    1    2    0    0 -0.19488157759E+02 -0.18499832609E+02  0.34082121301E+02  0.47787273142E+02  0.20000009564E+02 0.  0.
        -12    1    1    2    0    0  0.19488157759E+02  0.18499832609E+02 -0.34082121301E+02  0.43400726858E+02  0.00000000000E+00 0.  1.
         11    1    3    3    0    0 -0.15919601704E+02 -0.10969188317E+02  0.15617234460E+02  0.24852662296E+02  0.51100000000E-03 0. -1.
        -11    1    3    3    0    0 -0.22937410835E+01 -0.10278639539E+02  0.13554160254E+02  0.17164700387E+02  0.51100000000E-03 0.  1.
         12    1    3    3    0    0 -0.12748149716E+01  0.27479952474E+01  0.49107265872E+01  0.57699104591E+01  0.00000000000E+00 0. -1.
</event>
<event>
 7    1  0.3221417E-010  0.4778727E+02  0.7816164E-02  0.1312668E+00
        -11   -1    0    0    0    0  0.00000000000E+00  0.00000000000E+00  0.45593999997E+02  0.45594000000E+02  0.51100000000E-03 0. -1.
         11   -1    0    0    0    0 -0.00000000000E+00 -0.00000000000E+00 -0.45593999997E+02  0.45594000000E+02  0.51100000000E-03 0.  1.
    9900012    2    1    2    0    0 -0.46979435694E+01  0.11209422063E+02  0.41664150425E+02  0.47787271350E+02  0.20000001391E+02 0.  0.
        -12    1    1    2    0    0  0.46979435694E+01 -0.11209422063E+02 -0.41664150425E+02  0.43400728650E+02  0.00000000000E+00 0.  1.
         11    1    3    3    0    0  0.24429808448E+01 -0.11381244982E+01  0.57281420064E+01  0.63304892297E+01  0.51100000000E-03 0.  1.
        -11    1    3    3    0    0 -0.37252930681E+01 -0.30435880044E+01  0.10166240289E+02  0.11246940840E+02  0.51100000000E-03 0. -1.
         12    1    3    3    0    0 -0.34156313461E+01  0.15391134565E+02  0.25769768130E+02  0.30209841280E+02  0.00000000000E+00 0. -1.
</event>
<event>
 7    1  0.7211222E-010  0.4778727E+02  0.7816164E-02  0.1312668E+00
        -11   -1    0    0    0    0  0.00000000000E+00  0.00000000000E+00  0.45593999997E+02  0.45594000000E+02  0.51100000000E-03 0. -1.
         11   -1    0    0    0    0 -0.00000000000E+00 -0.00000000000E+00 -0.45593999997E+02  0.45594000000E+02  0.51100000000E-03 0.  1.
    9900012    2    1    2    0    0 -0.22370416153E+02  0.22296465677E+02 -0.29766680998E+02  0.47787271916E+02  0.20000003976E+02 0.  0.
         12    1    1    2    0    0  0.22370416153E+02 -0.22296465677E+02  0.29766680998E+02  0.43400728084E+02  0.00000000000E+00 0. -1.
         11    1    3    3    0    0 -0.21009828443E+01  0.27096981911E+01 -0.11104208177E+02  0.11621533147E+02  0.51100000000E-03 0. -1.
        -11    1    3    3    0    0 -0.19887002544E+02  0.18998816309E+02 -0.20431895920E+02  0.34262373859E+02  0.51100000000E-03 0.  1.
         12    1    3    3    0    0 -0.38243076524E+00  0.58795117619E+00  0.17694230989E+01  0.19033649095E+01  0.00000000000E+00 0. -1.
</event>
<event>
 7    1  0.3221417E-010  0.4778727E+02  0.7816164E-02  0.1312668E+00
        -11   -1    0    0    0    0  0.00000000000E+00  0.00000000000E+00  0.45593999997E+02  0.45594000000E+02  0.51100000000E-03 0. -1.
         11   -1    0    0    0    0 -0.00000000000E+00 -0.00000000000E+00 -0.45593999997E+02  0.45594000000E+02  0.51100000000E-03 0.  1.
    9900012    2    1    2    0    0  0.86896330133E+01 -0.35035794281E+02 -0.24095781358E+02  0.47787270950E+02  0.19999999569E+02 0.  0.
         12    1    1    2    0    0 -0.86896330133E+01  0.35035794281E+02  0.24095781358E+02  0.43400729050E+02  0.00000000000E+00 0. -1.
         11    1    3    3    0    0 -0.31920550368E+01 -0.68926071152E+01 -0.33185243820E+01  0.82891406393E+01  0.51100000000E-03 0. -1.
        -11    1    3    3    0    0  0.11230025205E+02 -0.29446985655E+02 -0.17829079682E+02  0.36209315277E+02  0.51100000000E-03 0.  1.
         12    1    3    3    0    0  0.65166284536E+00  0.13037984895E+01 -0.29481772943E+01  0.32888150333E+01  0.00000000000E+00 0. -1.
</event>
<event>
 7    1  0.3221417E-010  0.4778727E+02  0.7816164E-02  0.1312668E+00
        -11   -1    0    0    0    0  0.00000000000E+00  0.00000000000E+00  0.45593999997E+02  0.45594000000E+02  0.51100000000E-03 0. -1.
         11   -1    0    0    0    0 -0.00000000000E+00 -0.00000000000E+00 -0.45593999997E+02  0.45594000000E+02  0.51100000000E-03 0.  1.
    9900012    2    1    2    0    0 -0.14071846353E+02 -0.10750369005E+01  0.41042061976E+02  0.47787269414E+02  0.19999992567E+02 0.  0.
        -12    1    1    2    0    0  0.14071846353E+02  0.10750369005E+01 -0.41042061976E+02  0.43400730586E+02  0.00000000000E+00 0.  1.
         11    1    3    3    0    0 -0.14183569191E+02 -0.46090200427E+00  0.34487746242E+02  0.37293306460E+02  0.51100000000E-03 0. -1.
        -11    1    3    3    0    0 -0.33168991499E+01  0.10422253177E+01  0.75742292202E+00  0.35583343473E+01  0.51100000000E-03 0.  1.
         12    1    3    3    0    0  0.34286219875E+01 -0.16563602139E+01  0.57968928125E+01  0.69356286068E+01  0.00000000000E+00 0. -1.
</event>
<event>
 7    1  0.3221417E-010  0.4778727E+02  0.7816164E-02  0.1312668E+00
        -11   -1    0    0    0    0  0.00000000000E+00  0.00000000000E+00  0.45593999997E+02  0.45594000000E+02  0.51100000000E-03 0. -1.
         11   -1    0    0    0    0 -0.00000000000E+00 -0.00000000000E+00 -0.45593999997E+02  0.45594000000E+02  0.51100000000E-03 0.  1.
    9900012    2    1    2    0    0 -0.24742787922E+02 -0.21306187328E+02  0.28591325176E+02  0.47787273647E+02  0.20000011867E+02 0.  0.
        -12    1    1    2    0    0  0.24742787922E+02  0.21306187328E+02 -0.28591325176E+02  0.43400726353E+02  0.00000000000E+00 0.  1.
         11    1    3    3    0    0 -0.13170594015E+02 -0.10839564996E+02  0.16411223098E+02  0.23670423736E+02  0.51100000000E-03 0. -1.
        -11    1    3    3    0    0 -0.14704896798E+02 -0.95741019127E+01  0.10549981549E+02  0.20474362706E+02  0.51100000000E-03 0.  1.
        -12    1    3    3    0    0  0.31327028907E+01 -0.89252041937E+00  0.16301205299E+01  0.36424872055E+01  0.00000000000E+00 0.  1.
</event>
<event>
 7    1  0.3221417E-010  0.4778726E+02  0.7816164E-02  0.1312668E+00
        -11   -1    0    0    0    0  0.00000000000E+00  0.00000000000E+00  0.45593999997E+02  0.45594000000E+02  0.51100000000E-03 0. -1.
         11   -1    0    0    0    0 -0.00000000000E+00 -0.00000000000E+00 -0.45593999997E+02  0.45594000000E+02  0.51100000000E-03 0.  1.
    9900012    2    1    2    0    0  0.19033790128E+01  0.41776777297E+02  0.11606113861E+02  0.47787264385E+02  0.19999969635E+02 0.  0.
        -12    1    1    2    0    0 -0.19033790128E+01 -0.41776777297E+02 -0.11606113861E+02  0.43400735615E+02  0.00000000000E+00 0.  1.
         11    1    3    3    0    0  0.58550297674E+01  0.24458541869E+01 -0.27081436235E-01  0.63454164518E+01  0.51100000000E-03 0. -1.
        -11    1    3    3    0    0 -0.30797020394E+01  0.11614143757E+02  0.27866726461E+01  0.12334441397E+02  0.51100000000E-03 0.  1.
         12    1    3    3    0    0 -0.87194871527E+00  0.27716779353E+02  0.88465226513E+01  0.29107406536E+02  0.00000000000E+00 0. -1.
</event>
<event>
 7    1  0.3221417E-010  0.4778727E+02  0.7816164E-02  0.1312668E+00
        -11   -1    0    0    0    0  0.00000000000E+00  0.00000000000E+00  0.45593999997E+02  0.45594000000E+02  0.51100000000E-03 0. -1.
         11   -1    0    0    0    0 -0.00000000000E+00 -0.00000000000E+00 -0.45593999997E+02  0.45594000000E+02  0.51100000000E-03 0.  1.
    9900012    2    1    2    0    0  0.72598190226E+00 -0.92565198281E+01 -0.42395913438E+02  0.47787266304E+02  0.19999978388E+02 0.  0.
         12    1    1    2    0    0 -0.72598190226E+00  0.92565198281E+01  0.42395913438E+02  0.43400733696E+02  0.00000000000E+00 0. -1.
         11    1    3    3    0    0 -0.68624613474E+00 -0.71813983108E+01 -0.16529670423E+02  0.18035338090E+02  0.51100000000E-03 0. -1.
        -11    1    3    3    0    0  0.51573814874E+01  0.26141089225E+01 -0.21672516784E+02  0.22430562482E+02  0.51100000000E-03 0.  1.
         12    1    3    3    0    0 -0.37451534504E+01 -0.46892304398E+01 -0.41937262319E+01  0.73213657327E+01  0.00000000000E+00 0. -1.
</event>
<event>
 7    1  0.3221417E-010  0.4778726E+02  0.7816164E-02  0.1312668E+00
        -11   -1    0    0    0    0  0.00000000000E+00  0.00000000000E+00  0.45593999997E+02  0.45594000000E+02  0.51100000000E-03 0.  1.
         11   -1    0    0    0    0 -0.00000000000E+00 -0.00000000000E+00 -0.45593999997E+02  0.45594000000E+02  0.51100000000E-03 0. -1.
    9900012    2    1    2    0    0  0.36391756819E+02  0.22956388063E+01  0.23537074789E+02  0.47787264850E+02  0.19999971759E+02 0.  0.
        -12    1    1    2    0    0 -0.36391756819E+02 -0.22956388063E+01 -0.23537074789E+02  0.43400735150E+02  0.00000000000E+00 0.  1.
         11    1    3    3    0    0  0.18393765268E+02 -0.24041644049E-01  0.21223978135E+02  0.28085377456E+02  0.51100000000E-03 0.  1.
        -11    1    3    3    0    0  0.75605387446E+01  0.46350970669E+01  0.12955162724E+01  0.89623787914E+01  0.51100000000E-03 0. -1.
        -12    1    3    3    0    0  0.10437452806E+02 -0.23154166165E+01  0.10175803817E+01  0.10739508602E+02  0.00000000000E+00 0.  1.
</event>
<event>
 7    1  0.3221417E-010  0.4778727E+02  0.7816164E-02  0.1312668E+00
        -11   -1    0    0    0    0  0.00000000000E+00  0.00000000000E+00  0.45593999997E+02  0.45594000000E+02  0.51100000000E-03 0. -1.
         11   -1    0    0    0    0 -0.00000000000E+00 -0.00000000000E+00 -0.45593999997E+02  0.45594000000E+02  0.51100000000E-03 0.  1.
    9900012    2    1    2    0    0  0.27939782050E+02 -0.28060346636E+02 -0.17765381907E+02  0.47787271105E+02  0.20000000275E+02 0.  0.
         12    1    1    2    0    0 -0.27939782050E+02  0.28060346636E+02  0.17765381907E+02  0.43400728895E+02  0.00000000000E+00 0. -1.
         11    1    3    3    0    0  0.68380070548E+01  0.11027359223E+01 -0.14660151238E+01  0.70797999689E+01  0.51100000000E-03 0. -1.
        -11    1    3    3    0    0  0.29271615946E+01 -0.37271477581E+01 -0.63037267094E+01  0.78864996100E+01  0.51100000000E-03 0.  1.
        -12    1    3    3    0    0  0.18174613400E+02 -0.25435934800E+02 -0.99956400743E+01  0.32820971526E+02  0.00000000000E+00 0.  1.
</event>
<event>
 7    1  0.3221417E-010  0.4778727E+02  0.7816164E-02  0.1312668E+00
        -11   -1    0    0    0    0  0.00000000000E+00  0.00000000000E+00  0.45593999997E+02  0.45594000000E+02  0.51100000000E-03 0. -1.
         11   -1    0    0    0    0 -0.00000000000E+00 -0.00000000000E+00 -0.45593999997E+02  0.45594000000E+02  0.51100000000E-03 0.  1.
    9900012    2    1    2    0    0 -0.33290609606E+02  0.15305217097E+02 -0.23261748717E+02  0.47787270609E+02  0.19999998013E+02 0.  0.
         12    1    1    2    0    0  0.33290609606E+02 -0.15305217097E+02  0.23261748717E+02  0.43400729391E+02  0.00000000000E+00 0. -1.
         11    1    3    3    0    0 -0.14587733851E+01  0.96533861663E+00  0.24834265797E+01  0.30376481481E+01  0.51100000000E-03 0. -1.
        -11    1    3    3    0    0 -0.17648249065E+02  0.20860906094E+01 -0.10988188367E+02  0.20893844858E+02  0.51100000000E-03 0.  1.
         12    1    3    3    0    0 -0.14183587156E+02  0.12253787871E+02 -0.14756986929E+02  0.23855777602E+02  0.00000000000E+00 0. -1.
</event>
<event>
 7    1  0.3221417E-010  0.4778727E+02  0.7816164E-02  0.1312668E+00
        -11   -1    0    0    0    0  0.00000000000E+00  0.00000000000E+00  0.45593999997E+02  0.45594000000E+02  0.51100000000E-03 0. -1.
         11   -1    0    0    0    0 -0.00000000000E+00 -0.00000000000E+00 -0.45593999997E+02  0.45594000000E+02  0.51100000000E-03 0.  1.
    9900012    2    1    2    0    0  0.90989915938E+01  0.13254021374E+02  0.40313306714E+02  0.47787269259E+02  0.19999991860E+02 0.  0.
        -12    1    1    2    0    0 -0.90989915938E+01 -0.13254021374E+02 -0.40313306714E+02  0.43400730741E+02  0.00000000000E+00 0.  1.
         11    1    3    3    0    0 -0.35193510301E+01  0.16482167606E+01  0.10798279766E+02  0.11476292796E+02  0.51100000000E-03 0. -1.
        -11    1    3    3    0    0  0.33202645798E+01  0.94118781044E+01  0.80719938975E+01  0.12836069962E+02  0.51100000000E-03 0.  1.
         12    1    3    3    0    0  0.92980780442E+01  0.21939265093E+01  0.21443033050E+02  0.23474906501E+02  0.00000000000E+00 0. -1.
</event>
<event>
 7    1  0.3221417E-010  0.4778727E+02  0.7816164E-02  0.1312668E+00
        -11   -1    0    0    0    0  0.00000000000E+00  0.00000000000E+00  0.45593999997E+02  0.45594000000E+02  0.51100000000E-03 0. -1.
         11   -1    0    0    0    0 -0.00000000000E+00 -0.00000000000E+00 -0.45593999997E+02  0.45594000000E+02  0.51100000000E-03 0.  1.
    9900012    2    1    2    0    0 -0.12591689004E+02 -0.26498806665E+01 -0.41449379859E+02  0.47787267400E+02  0.19999983384E+02 0.  0.
         12    1    1    2    0    0  0.12591689004E+02  0.26498806665E+01  0.41449379859E+02  0.43400732600E+02  0.00000000000E+00 0. -1.
         11    1    3    3    0    0 -0.18104056379E+01 -0.16961383368E+00  0.97395816515E+00  0.20627486989E+01  0.51100000000E-03 0. -1.
        -11    1    3    3    0    0 -0.26962808470E+01 -0.56945951058E+01 -0.78112055404E+01  0.10035600434E+02  0.51100000000E-03 0.  1.
         12    1    3    3    0    0 -0.80850025190E+01  0.32143282730E+01 -0.34612132484E+02  0.35688918267E+02  0.00000000000E+00 0. -1.
</event>
<event>
 7    1  0.3221417E-010  0.4778726E+02  0.7816164E-02  0.1312668E+00
        -11   -1    0    0    0    0  0.00000000000E+00  0.00000000000E+00  0.45593999997E+02  0.45594000000E+02  0.51100000000E-03 0.  1.
         11   -1    0    0    0    0 -0.00000000000E+00 -0.00000000000E+00 -0.45593999997E+02  0.45594000000E+02  0.51100000000E-03 0. -1.
    9900012    2    1    2    0    0  0.51802480371E+01  0.40790596183E+02  0.13889431631E+02  0.47787262475E+02  0.19999960929E+02 0.  0.
        -12    1    1    2    0    0 -0.51802480371E+01 -0.40790596183E+02 -0.13889431631E+02  0.43400737525E+02  0.00000000000E+00 0.  1.
         11    1    3    3    0    0 -0.49504381880E+00  0.13219434090E+02  0.65084507504E+01  0.14743081003E+02  0.51100000000E-03 0.  1.
        -11    1    3    3    0    0  0.59856522418E+01  0.21218004495E+02 -0.15263320521E+01  0.22098901269E+02  0.51100000000E-03 0. -1.
         12    1    3    3    0    0 -0.31036038592E+00  0.63531575979E+01  0.89073129328E+01  0.10945280203E+02  0.00000000000E+00 0. -1.
</event>
<event>
 7    1  0.3221417E-010  0.4778727E+02  0.7816164E-02  0.1312668E+00
        -11   -1    0    0    0    0  0.00000000000E+00  0.00000000000E+00  0.45593999997E+02  0.45594000000E+02  0.51100000000E-03 0. -1.
         11   -1    0    0    0    0 -0.00000000000E+00 -0.00000000000E+00 -0.45593999997E+02  0.45594000000E+02  0.51100000000E-03 0.  1.
    9900012    2    1    2    0    0  0.25955969028E+02 -0.32690572188E+02 -0.11884336105E+02  0.47787270941E+02  0.19999999530E+02 0.  0.
         12    1    1    2    0    0 -0.25955969028E+02  0.32690572188E+02  0.11884336105E+02  0.43400729059E+02  0.00000000000E+00 0. -1.
         11    1    3    3    0    0  0.20379377904E+02 -0.13660548069E+02 -0.30956175283E+01  0.24728778082E+02  0.51100000000E-03 0. -1.
        -11    1    3    3    0    0 -0.16889435156E+00 -0.15698837198E+01 -0.36433104779E+01  0.39707394394E+01  0.51100000000E-03 0.  1.
        -12    1    3    3    0    0  0.57454854755E+01 -0.17460140399E+02 -0.51454080990E+01  0.19087753420E+02  0.00000000000E+00 0.  1.
</event>
<event>
 7    1  0.3221417E-010  0.4778727E+02  0.7816164E-02  0.1312668E+00
        -11   -1    0    0    0    0  0.00000000000E+00  0.00000000000E+00  0.45593999997E+02  0.45594000000E+02  0.51100000000E-03 0. -1.
         11   -1    0    0    0    0 -0.00000000000E+00 -0.00000000000E+00 -0.45593999997E+02  0.45594000000E+02  0.51100000000E-03 0.  1.
    9900012    2    1    2    0    0  0.41739078534E+02  0.84107461281E+01  0.84102268640E+01  0.47787271398E+02  0.20000001611E+02 0.  0.
         12    1    1    2    0    0 -0.41739078534E+02 -0.84107461281E+01 -0.84102268640E+01  0.43400728602E+02  0.00000000000E+00 0. -1.
         11    1    3    3    0    0  0.27040078021E+01  0.27364398405E+01 -0.32293297907E+01  0.50227813364E+01  0.51100000000E-03 0. -1.
        -11    1    3    3    0    0  0.21930182160E+02 -0.14473140563E+01  0.25455093727E+01  0.22124810186E+02  0.51100000000E-03 0.  1.
        -12    1    3    3    0    0  0.17104888573E+02  0.71216203439E+01  0.90940472820E+01  0.20639679876E+02  0.00000000000E+00 0.  1.
</event>
<event>
 7    1  0.3996765E-010  0.4778727E+02  0.7816164E-02  0.1312668E+00
        -11   -1    0    0    0    0  0.00000000000E+00  0.00000000000E+00  0.45593999997E+02  0.45594000000E+02  0.51100000000E-03 0. -1.
         11   -1    0    0    0    0 -0.00000000000E+00 -0.00000000000E+00 -0.45593999997E+02  0.45594000000E+02  0.51100000000E-03 0.  1.
    9900012    2    1    2    0    0  0.57105369915E+01 -0.16497988262E+02 -0.39734484887E+02  0.47787272602E+02  0.20000007103E+02 0.  0.
         12    1    1    2    0    0 -0.57105369915E+01  0.16497988262E+02  0.39734484887E+02  0.43400727398E+02  0.00000000000E+00 0. -1.
         11    1    3    3    0    0  0.56158587138E+01 -0.46647075336E+01 -0.19235842711E+02  0.20574620544E+02  0.51100000000E-03 0. -1.
        -11    1    3    3    0    0 -0.28294116208E+01 -0.13284836043E+02 -0.19564154679E+02  0.23816981072E+02  0.51100000000E-03 0.  1.
         12    1    3    3    0    0  0.29240898985E+01  0.14515553147E+01 -0.93448749675E+00  0.33956709864E+01  0.00000000000E+00 0. -1.
</event>
<event>
 7    1  0.3221417E-010  0.4778727E+02  0.7816164E-02  0.1312668E+00
        -11   -1    0    0    0    0  0.00000000000E+00  0.00000000000E+00  0.45593999997E+02  0.45594000000E+02  0.51100000000E-03 0. -1.
         11   -1    0    0    0    0 -0.00000000000E+00 -0.00000000000E+00 -0.45593999997E+02  0.45594000000E+02  0.51100000000E-03 0.  1.
    9900012    2    1    2    0    0 -0.66906917891E+01  0.40308682263E+02  0.14631063598E+02  0.47787271384E+02  0.20000001550E+02 0.  0.
        -12    1    1    2    0    0  0.66906917891E+01 -0.40308682263E+02 -0.14631063598E+02  0.43400728616E+02  0.00000000000E+00 0.  1.
         11    1    3    3    0    0  0.56138534929E+01  0.23185813696E+02  0.85487377266E+01  0.25341235660E+02  0.51100000000E-03 0.  1.
        -11    1    3    3    0    0 -0.46428740226E+01  0.45362153075E+01  0.38383549896E+01  0.75409878526E+01  0.51100000000E-03 0. -1.
        -12    1    3    3    0    0 -0.76616712594E+01  0.12586653259E+02  0.22439708818E+01  0.14905047872E+02  0.00000000000E+00 0.  1.
</event>
<event>
 7    1  0.3221417E-010  0.4778728E+02  0.7816164E-02  0.1312668E+00
        -11   -1    0    0    0    0  0.00000000000E+00  0.00000000000E+00  0.45593999997E+02  0.45594000000E+02  0.51100000000E-03 0. -1.
         11   -1    0    0    0    0 -0.00000000000E+00 -0.00000000000E+00 -0.45593999997E+02  0.45594000000E+02  0.51100000000E-03 0.  1.
    9900012    2    1    2    0    0 -0.83478248846E+01 -0.46408249246E+01  0.42336738290E+02  0.47787275982E+02  0.20000022510E+02 0.  0.
        -12    1    1    2    0    0  0.83478248846E+01  0.46408249246E+01 -0.42336738290E+02  0.43400724018E+02  0.00000000000E+00 0.  1.
         11    1    3    3    0    0 -0.43157901828E+01  0.61542366001E+00  0.25743314643E+02  0.26109826508E+02  0.51100000000E-03 0. -1.
        -11    1    3    3    0    0 -0.63805230956E+01  0.11094582547E+01  0.47621584795E+01  0.80386644561E+01  0.51100000000E-03 0.  1.
         12    1    3    3    0    0  0.23484883938E+01 -0.63657068393E+01  0.11831265167E+02  0.13638785018E+02  0.00000000000E+00 0. -1.
</event>
<event>
 7    1  0.3221417E-010  0.4778727E+02  0.7816164E-02  0.1312668E+00
        -11   -1    0    0    0    0  0.00000000000E+00  0.00000000000E+00  0.45593999997E+02  0.45594000000E+02  0.51100000000E-03 0. -1.
         11   -1    0    0    0    0 -0.00000000000E+00 -0.00000000000E+00 -0.45593999997E+02  0.45594000000E+02  0.51100000000E-03 0.  1.
    9900012    2    1    2    0    0 -0.22761910930E+02  0.16749542129E+02 -0.32938903969E+02  0.47787272525E+02  0.20000006751E+02 0.  0.
         12    1    1    2    0    0  0.22761910930E+02 -0.16749542129E+02  0.32938903969E+02  0.43400727475E+02  0.00000000000E+00 0. -1.
         11    1    3    3    0    0 -0.53938433238E+01 -0.14741159612E+01 -0.11800814698E+02  0.13058552426E+02  0.51100000000E-03 0. -1.
        -11    1    3    3    0    0  0.12318264728E+01  0.22721477315E+01 -0.42334393243E+01  0.49600464259E+01  0.51100000000E-03 0.  1.
        -12    1    3    3    0    0 -0.18599894079E+02  0.15951510359E+02 -0.16904649946E+02  0.29768673673E+02  0.00000000000E+00 0.  1.
</event>
<event>
 7    1  0.3490249E-010  0.4778727E+02  0.7816164E-02  0.1312668E+00
        -11   -1    0    0    0    0  0.00000000000E+00  0.00000000000E+00  0.45593999997E+02  0.45594000000E+02  0.51100000000E-03 0. -1.
         11   -1    0    0    0    0 -0.00000000000E+00 -0.00000000000E+00 -0.45593999997E+02  0.45594000000E+02  0.51100000000E-03 0.  1.
    9900012    2    1    2    0    0  0.21091998303E+01 -0.17914096354E+02 -0.39474802404E+02  0.47787267323E+02  0.19999983033E+02 0.  0.
         12    1    1    2    0    0 -0.21091998303E+01  0.17914096354E+02  0.39474802404E+02  0.43400732677E+02  0.00000000000E+00 0. -1.
         11    1    3    3    0    0 -0.47680871486E+00 -0.43522073899E+01  0.12429365658E+01  0.45512577693E+01  0.51100000000E-03 0. -1.
        -11    1    3    3    0    0  0.29540600861E+01 -0.56547469555E+01 -0.14317623574E+02  0.15674724214E+02  0.51100000000E-03 0.  1.
         12    1    3    3    0    0 -0.36805154092E+00 -0.79071420083E+01 -0.26400115396E+02  0.27561285340E+02  0.00000000000E+00 0. -1.
</event>
<event>
 7    1  0.3221417E-010  0.4778727E+02  0.7816164E-02  0.1312668E+00
        -11   -1    0    0    0    0  0.00000000000E+00  0.00000000000E+00  0.45593999997E+02  0.45594000000E+02  0.51100000000E-03 0. -1.
         11   -1    0    0    0    0 -0.00000000000E+00 -0.00000000000E+00 -0.45593999997E+02  0.45594000000E+02  0.51100000000E-03 0.  1.
    9900012    2    1    2    0    0  0.15550492219E+02  0.25509267749E+02  0.31481464440E+02  0.47787272441E+02  0.20000006367E+02 0.  0.
        -12    1    1    2    0    0 -0.15550492219E+02 -0.25509267749E+02 -0.31481464440E+02  0.43400727559E+02  0.00000000000E+00 0.  1.
         11    1    3    3    0    0 -0.12569710738E+01  0.86360922240E+00 -0.13822095875E+01  0.20582275808E+01  0.51100000000E-03 0. -1.
        -11    1    3    3    0    0  0.43676262908E+01  0.55021416466E+01  0.19345649213E+01  0.72864438385E+01  0.51100000000E-03 0.  1.
         12    1    3    3    0    0  0.12439837002E+02  0.19143516880E+02  0.30929109107E+02  0.38442601022E+02  0.00000000000E+00 0. -1.
</event>
<event>
 7    1  0.3221417E-010  0.4778727E+02  0.7816164E-02  0.1312668E+00
        -11   -1    0    0    0    0  0.00000000000E+00  0.00000000000E+00  0.45593999997E+02  0.45594000000E+02  0.51100000000E-03 0. -1.
         11   -1    0    0    0    0 -0.00000000000E+00 -0.00000000000E+00 -0.45593999997E+02  0.45594000000E+02  0.51100000000E-03 0.  1.
    9900012    2    1    2    0    0 -0.30100376786E+02  0.22651695282E+02 -0.21552057395E+02  0.47787272359E+02  0.20000005994E+02 0.  0.
         12    1    1    2    0    0  0.30100376786E+02 -0.22651695282E+02  0.21552057395E+02  0.43400727641E+02  0.00000000000E+00 0. -1.
         11    1    3    3    0    0 -0.13530288034E+01 -0.16397910005E+01  0.38116890323E+00  0.21598359804E+01  0.51100000000E-03 0. -1.
        -11    1    3    3    0    0 -0.27545355508E+02  0.17962947976E+02 -0.14939900811E+02  0.36119451083E+02  0.51100000000E-03 0.  1.
        -12    1    3    3    0    0 -0.12019924744E+01  0.63285383062E+01 -0.69933254876E+01  0.95079852954E+01  0.00000000000E+00 0.  1.
</event>
<event>
 7    1  0.3221417E-010  0.4778731E+02  0.7816164E-02  0.1312668E+00
        -11   -1    0    0    0    0  0.00000000000E+00  0.00000000000E+00  0.45593999997E+02  0.45594000000E+02  0.51100000000E-03 0. -1.
         11   -1    0    0    0    0 -0.00000000000E+00 -0.00000000000E+00 -0.45593999997E+02  0.45594000000E+02  0.51100000000E-03 0.  1.
    9900012    2    1    2    0    0 -0.19240332175E+01  0.33147848688E+02 -0.27948853348E+02  0.47787306689E+02  0.20000162516E+02 0.  0.
         12    1    1    2    0    0  0.19240332175E+01 -0.33147848688E+02  0.27948853348E+02  0.43400693311E+02  0.00000000000E+00 0. -1.
         11    1    3    3    0    0 -0.12642661203E+01  0.11839132093E+02  0.60757200718E+00  0.11921936149E+02  0.51100000000E-03 0. -1.
        -11    1    3    3    0    0 -0.22555297725E+01  0.88007534196E+01 -0.12326742937E+02  0.15313042382E+02  0.51100000000E-03 0.  1.
        -12    1    3    3    0    0  0.15957626754E+01  0.12507963175E+02 -0.16229682418E+02  0.20552328158E+02  0.00000000000E+00 0.  1.
</event>
<event>
 7    1  0.3221417E-010  0.4778727E+02  0.7816164E-02  0.1312668E+00
        -11   -1    0    0    0    0  0.00000000000E+00  0.00000000000E+00  0.45593999997E+02  0.45594000000E+02  0.51100000000E-03 0. -1.
         11   -1    0    0    0    0 -0.00000000000E+00 -0.00000000000E+00 -0.45593999997E+02  0.45594000000E+02  0.51100000000E-03 0.  1.
    9900012    2    1    2    0    0 -0.16151513120E+02 -0.37257642375E+02  0.15317312584E+02  0.47787270096E+02  0.19999995676E+02 0.  0.
        -12    1    1    2    0    0  0.16151513120E+02  0.37257642375E+02 -0.15317312584E+02  0.43400729904E+02  0.00000000000E+00 0.  1.
         11    1    3    3    0    0  0.35108540097E+01 -0.28047906602E+01  0.36445385868E+01  0.57858109454E+01  0.51100000000E-03 0. -1.
        -11    1    3    3    0    0 -0.64619715556E+01 -0.89348561275E+01  0.97422313764E-01  0.11027158373E+02  0.51100000000E-03 0.  1.
         12    1    3    3    0    0 -0.13200395574E+02 -0.25517995587E+02  0.11575351684E+02  0.30974300778E+02  0.00000000000E+00 0. -1.
</event>
<event>
 7    1  0.3221417E-010  0.4778727E+02  0.7816164E-02  0.1312668E+00
        -11   -1    0    0    0    0  0.00000000000E+00  0.00000000000E+00  0.45593999997E+02  0.45594000000E+02  0.51100000000E-03 0. -1.
         11   -1    0    0    0    0 -0.00000000000E+00 -0.00000000000E+00 -0.45593999997E+02  0.45594000000E+02  0.51100000000E-03 0.  1.
    9900012    2    1    2    0    0  0.33024127601E+02  0.15049319072E+02 -0.23802271079E+02  0.47787272853E+02  0.20000008246E+02 0.  0.
         12    1    1    2    0    0 -0.33024127601E+02 -0.15049319072E+02  0.23802271079E+02  0.43400727147E+02  0.00000000000E+00 0. -1.
         11    1    3    3    0    0  0.60013561190E+01  0.26575283104E+01  0.11670333717E+01  0.66663857629E+01  0.51100000000E-03 0. -1.
        -11    1    3    3    0    0  0.28286592593E+02  0.11926942425E+02 -0.25246196222E+02  0.39746115535E+02  0.51100000000E-03 0.  1.
        -12    1    3    3    0    0 -0.12638211112E+01  0.46484833584E+00  0.27689177084E+00  0.13747715553E+01  0.00000000000E+00 0.  1.
</event>
<event>
 7    1  0.3221417E-010  0.4778727E+02  0.7816164E-02  0.1312668E+00
        -11   -1    0    0    0    0  0.00000000000E+00  0.00000000000E+00  0.45593999997E+02  0.45594000000E+02  0.51100000000E-03 0. -1.
         11   -1    0    0    0    0 -0.00000000000E+00 -0.00000000000E+00 -0.45593999997E+02  0.45594000000E+02  0.51100000000E-03 0.  1.
    9900012    2    1    2    0    0  0.11942870309E+02 -0.29740283154E+02  0.29266135533E+02  0.47787270947E+02  0.19999999557E+02 0.  0.
        -12    1    1    2    0    0 -0.11942870309E+02  0.29740283154E+02 -0.29266135533E+02  0.43400729053E+02  0.00000000000E+00 0.  1.
         11    1    3    3    0    0  0.11119589667E+02 -0.20400719757E+02  0.14492051682E+02  0.27383465872E+02  0.51100000000E-03 0. -1.
        -11    1    3    3    0    0 -0.15322765121E+01 -0.11013828109E+02  0.10906409464E+02  0.15575687741E+02  0.51100000000E-03 0.  1.
        -12    1    3    3    0    0  0.23555571543E+01  0.16742647124E+01  0.38676743867E+01  0.48281173346E+01  0.00000000000E+00 0.  1.
</event>
<event>
 7    1  0.3221417E-010  0.4778728E+02  0.7816164E-02  0.1312668E+00
        -11   -1    0    0    0    0  0.00000000000E+00  0.00000000000E+00  0.45593999997E+02  0.45594000000E+02  0.51100000000E-03 0. -1.
         11   -1    0    0    0    0 -0.00000000000E+00 -0.00000000000E+00 -0.45593999997E+02  0.45594000000E+02  0.51100000000E-03 0.  1.
    9900012    2    1    2    0    0  0.15184160111E+02  0.24418135629E+02  0.32508747066E+02  0.47787277636E+02  0.20000030054E+02 0.  0.
        -12    1    1    2    0    0 -0.15184160111E+02 -0.24418135629E+02 -0.32508747066E+02  0.43400722364E+02  0.00000000000E+00 0.  1.
         11    1    3    3    0    0  0.77251701217E+01  0.12155710711E+02  0.22224905427E+02  0.26483692677E+02  0.51100000000E-03 0. -1.
        -11    1    3    3    0    0  0.64480509204E+01  0.33117413252E+00  0.52204532381E+01  0.83030216940E+01  0.51100000000E-03 0.  1.
         12    1    3    3    0    0  0.10109390689E+01  0.11931250785E+02  0.50633884008E+01  0.13000563265E+02  0.00000000000E+00 0. -1.
</event>
<event>
 7    1  0.3221417E-010  0.4778727E+02  0.7816164E-02  0.1312668E+00
        -11   -1    0    0    0    0  0.00000000000E+00  0.00000000000E+00  0.45593999997E+02  0.45594000000E+02  0.51100000000E-03 0. -1.
         11   -1    0    0    0    0 -0.00000000000E+00 -0.00000000000E+00 -0.45593999997E+02  0.45594000000E+02  0.51100000000E-03 0.  1.
    9900012    2    1    2    0    0  0.14976349791E+01  0.33643056712E+02  0.27377457491E+02  0.47787270120E+02  0.19999995787E+02 0.  0.
        -12    1    1    2    0    0 -0.14976349791E+01 -0.33643056712E+02 -0.27377457491E+02  0.43400729880E+02  0.00000000000E+00 0.  1.
         11    1    3    3    0    0  0.13503589364E+01  0.16697763979E+02  0.19525895493E+01  0.16865686982E+02  0.51100000000E-03 0.  1.
        -11    1    3    3    0    0  0.15382509683E+01  0.32738946339E+01  0.75782666683E+01  0.83973048100E+01  0.51100000000E-03 0. -1.
        -12    1    3    3    0    0 -0.13909749256E+01  0.13671398098E+02  0.17846601273E+02  0.22524278328E+02  0.00000000000E+00 0.  1.
</event>
<event>
 7    1  0.3221417E-010  0.4778727E+02  0.7816164E-02  0.1312668E+00
        -11   -1    0    0    0    0  0.00000000000E+00  0.00000000000E+00  0.45593999997E+02  0.45594000000E+02  0.51100000000E-03 0. -1.
         11   -1    0    0    0    0 -0.00000000000E+00 -0.00000000000E+00 -0.45593999997E+02  0.45594000000E+02  0.51100000000E-03 0.  1.
    9900012    2    1    2    0    0 -0.70976914724E+01 -0.16885211529E+02  0.39346354925E+02  0.47787271452E+02  0.20000001860E+02 0.  0.
        -12    1    1    2    0    0  0.70976914724E+01  0.16885211529E+02 -0.39346354925E+02  0.43400728548E+02  0.00000000000E+00 0.  1.
         11    1    3    3    0    0  0.19689310871E+01 -0.34586916352E+01  0.80773406948E+00  0.40609939721E+01  0.51100000000E-03 0. -1.
        -11    1    3    3    0    0 -0.92523005046E+01 -0.23120828345E+01  0.18295987165E+02  0.20632351739E+02  0.51100000000E-03 0.  1.
         12    1    3    3    0    0  0.18567794505E+00 -0.11114437060E+02  0.20242633690E+02  0.23093925742E+02  0.00000000000E+00 0. -1.
</event>
<event>
 7    1  0.3221417E-010  0.4778727E+02  0.7816164E-02  0.1312668E+00
        -11   -1    0    0    0    0  0.00000000000E+00  0.00000000000E+00  0.45593999997E+02  0.45594000000E+02  0.51100000000E-03 0. -1.
         11   -1    0    0    0    0 -0.00000000000E+00 -0.00000000000E+00 -0.45593999997E+02  0.45594000000E+02  0.51100000000E-03 0.  1.
    9900012    2    1    2    0    0 -0.18731302303E+02 -0.21875522744E+02  0.32468799407E+02  0.47787272861E+02  0.20000008284E+02 0.  0.
        -12    1    1    2    0    0  0.18731302303E+02  0.21875522744E+02 -0.32468799407E+02  0.43400727139E+02  0.00000000000E+00 0.  1.
         11    1    3    3    0    0 -0.15464193897E+02 -0.11122116795E+02  0.78492333026E+01  0.20602262948E+02  0.51100000000E-03 0. -1.
        -11    1    3    3    0    0  0.30421997232E+00 -0.24196927903E+01  0.59464701559E+01  0.64271277074E+01  0.51100000000E-03 0.  1.
         12    1    3    3    0    0 -0.35713283783E+01 -0.83337131585E+01  0.18673095948E+02  0.20757882206E+02  0.00000000000E+00 0. -1.
</event>
<event>
 7    1  0.3221417E-010  0.4778727E+02  0.7816164E-02  0.1312668E+00
        -11   -1    0    0    0    0  0.00000000000E+00  0.00000000000E+00  0.45593999997E+02  0.45594000000E+02  0.51100000000E-03 0. -1.
         11   -1    0    0    0    0 -0.00000000000E+00 -0.00000000000E+00 -0.45593999997E+02  0.45594000000E+02  0.51100000000E-03 0.  1.
    9900012    2    1    2    0    0 -0.10437851049E+02  0.13240317471E+02  0.39992105866E+02  0.47787271056E+02  0.20000000052E+02 0.  0.
        -12    1    1    2    0    0  0.10437851049E+02 -0.13240317471E+02 -0.39992105866E+02  0.43400728944E+02  0.00000000000E+00 0.  1.
         11    1    3    3    0    0 -0.17220871531E+01  0.33974037973E+01  0.33156768509E+00  0.38233328544E+01  0.51100000000E-03 0. -1.
        -11    1    3    3    0    0 -0.90544654033E+00  0.10892287116E+02  0.25801837036E+02  0.28021358760E+02  0.51100000000E-03 0.  1.
         12    1    3    3    0    0 -0.78103173554E+01 -0.10493734423E+01  0.13858701145E+02  0.15942579441E+02  0.00000000000E+00 0. -1.
</event>
<event>
 7    1  0.3221417E-010  0.4778727E+02  0.7816164E-02  0.1312668E+00
        -11   -1    0    0    0    0  0.00000000000E+00  0.00000000000E+00  0.45593999997E+02  0.45594000000E+02  0.51100000000E-03 0. -1.
         11   -1    0    0    0    0 -0.00000000000E+00 -0.00000000000E+00 -0.45593999997E+02  0.45594000000E+02  0.51100000000E-03 0.  1.
    9900012    2    1    2    0    0  0.15908312019E+02  0.39454919556E+02 -0.85940961842E+01  0.47787267774E+02  0.19999985090E+02 0.  0.
         12    1    1    2    0    0 -0.15908312019E+02 -0.39454919556E+02  0.85940961842E+01  0.43400732226E+02  0.00000000000E+00 0. -1.
         11    1    3    3    0    0 -0.21780119266E+01  0.12239743288E+00 -0.16636342417E+01  0.27434278258E+01  0.51100000000E-03 0. -1.
        -11    1    3    3    0    0  0.82662681932E+01  0.16937701412E+02 -0.82086421449E+01  0.20557206159E+02  0.51100000000E-03 0.  1.
        -12    1    3    3    0    0  0.98200557528E+01  0.22394820712E+02  0.12781802024E+01  0.24486633789E+02  0.00000000000E+00 0.  1.
</event>
<event>
 7    1  0.3221417E-010  0.4778727E+02  0.7816164E-02  0.1312668E+00
        -11   -1    0    0    0    0  0.00000000000E+00  0.00000000000E+00  0.45593999997E+02  0.45594000000E+02  0.51100000000E-03 0. -1.
         11   -1    0    0    0    0 -0.00000000000E+00 -0.00000000000E+00 -0.45593999997E+02  0.45594000000E+02  0.51100000000E-03 0.  1.
    9900012    2    1    2    0    0  0.26973344903E+02 -0.20372809791E+01 -0.33939821844E+02  0.47787270100E+02  0.19999995696E+02 0.  0.
         12    1    1    2    0    0 -0.26973344903E+02  0.20372809791E+01  0.33939821844E+02  0.43400729900E+02  0.00000000000E+00 0. -1.
         11    1    3    3    0    0 -0.24086531279E+01  0.27917871070E+00 -0.36560814038E+01  0.43870812775E+01  0.51100000000E-03 0. -1.
        -11    1    3    3    0    0  0.15705811585E+02  0.30354828657E+01 -0.12281126705E+02  0.20167120448E+02  0.51100000000E-03 0.  1.
         12    1    3    3    0    0  0.13676186446E+02 -0.53519425555E+01 -0.18002613735E+02  0.23233068375E+02  0.00000000000E+00 0. -1.
</event>
<event>
 7    1  0.3221417E-010  0.4778727E+02  0.7816164E-02  0.1312668E+00
        -11   -1    0    0    0    0  0.00000000000E+00  0.00000000000E+00  0.45593999997E+02  0.45594000000E+02  0.51100000000E-03 0. -1.
         11   -1    0    0    0    0 -0.00000000000E+00 -0.00000000000E+00 -0.45593999997E+02  0.45594000000E+02  0.51100000000E-03 0.  1.
    9900012    2    1    2    0    0 -0.98297445435E+01 -0.10538001944E+02  0.40938369093E+02  0.47787269283E+02  0.19999991968E+02 0.  0.
        -12    1    1    2    0    0  0.98297445435E+01  0.10538001944E+02 -0.40938369093E+02  0.43400730717E+02  0.00000000000E+00 0.  1.
         11    1    3    3    0    0 -0.10299505609E+02 -0.51532900056E+01  0.16978076734E+02  0.20515635587E+02  0.51100000000E-03 0. -1.
        -11    1    3    3    0    0  0.34930406601E+01 -0.27270149502E+01  0.18570687295E+01  0.48048567220E+01  0.51100000000E-03 0.  1.
         12    1    3    3    0    0 -0.30232795943E+01 -0.26576969879E+01  0.22103223629E+02  0.22466776974E+02  0.00000000000E+00 0. -1.
</event>
<event>
 7    1  0.3221417E-010  0.4778727E+02  0.7816164E-02  0.1312668E+00
        -11   -1    0    0    0    0  0.00000000000E+00  0.00000000000E+00  0.45593999997E+02  0.45594000000E+02  0.51100000000E-03 0. -1.
         11   -1    0    0    0    0 -0.00000000000E+00 -0.00000000000E+00 -0.45593999997E+02  0.45594000000E+02  0.51100000000E-03 0.  1.
    9900012    2    1    2    0    0 -0.12109340908E+02 -0.81062977179E+00 -0.41669289938E+02  0.47787274410E+02  0.20000015344E+02 0.  0.
         12    1    1    2    0    0  0.12109340908E+02  0.81062977179E+00  0.41669289938E+02  0.43400725590E+02  0.00000000000E+00 0. -1.
         11    1    3    3    0    0  0.37013628592E+01 -0.38791454695E+01 -0.88756275294E+01  0.10369407933E+02  0.51100000000E-03 0. -1.
        -11    1    3    3    0    0 -0.35090827070E+01  0.38523922769E+01 -0.14039945240E+02  0.14975802158E+02  0.51100000000E-03 0.  1.
        -12    1    3    3    0    0 -0.12301621060E+02 -0.78387657917E+00 -0.18753717169E+02  0.22442064318E+02  0.00000000000E+00 0.  1.
</event>
<event>
 7    1  0.3221417E-010  0.4778727E+02  0.7816164E-02  0.1312668E+00
        -11   -1    0    0    0    0  0.00000000000E+00  0.00000000000E+00  0.45593999997E+02  0.45594000000E+02  0.51100000000E-03 0.  1.
         11   -1    0    0    0    0 -0.00000000000E+00 -0.00000000000E+00 -0.45593999997E+02  0.45594000000E+02  0.51100000000E-03 0. -1.
    9900012    2    1    2    0    0  0.42781082849E+02 -0.46228369456E+01  0.56596498435E+01  0.47787270657E+02  0.19999998234E+02 0.  0.
         12    1    1    2    0    0 -0.42781082849E+02  0.46228369456E+01 -0.56596498435E+01  0.43400729343E+02  0.00000000000E+00 0. -1.
         11    1    3    3    0    0  0.15996052649E+02 -0.76280950461E+01  0.11918362210E+01  0.17761813202E+02  0.51100000000E-03 0.  1.
        -11    1    3    3    0    0  0.61177091664E+01  0.58474742890E+01 -0.82423013599E+00  0.85028628463E+01  0.51100000000E-03 0. -1.
         12    1    3    3    0    0  0.20667321033E+02 -0.28422161886E+01  0.52920437585E+01  0.21522594609E+02  0.00000000000E+00 0. -1.
</event>
<event>
 7    1  0.3221417E-010  0.4778727E+02  0.7816164E-02  0.1312668E+00
        -11   -1    0    0    0    0  0.00000000000E+00  0.00000000000E+00  0.45593999997E+02  0.45594000000E+02  0.51100000000E-03 0. -1.
         11   -1    0    0    0    0 -0.00000000000E+00 -0.00000000000E+00 -0.45593999997E+02  0.45594000000E+02  0.51100000000E-03 0.  1.
    9900012    2    1    2    0    0 -0.32535685632E+02  0.41684861366E+01  0.28419643147E+02  0.47787271517E+02  0.20000002157E+02 0.  0.
        -12    1    1    2    0    0  0.32535685632E+02 -0.41684861366E+01 -0.28419643147E+02  0.43400728483E+02  0.00000000000E+00 0.  1.
         11    1    3    3    0    0 -0.78715946206E+01  0.93586066573E+01  0.77551301837E+01  0.14480592697E+02  0.51100000000E-03 0. -1.
        -11    1    3    3    0    0 -0.70943083802E+01  0.16067671940E+01  0.61396110261E+01  0.95187045349E+01  0.51100000000E-03 0.  1.
        -12    1    3    3    0    0 -0.17569782631E+02 -0.67968877147E+01  0.14524901938E+02  0.23787974285E+02  0.00000000000E+00 0.  1.
</event>
<event>
 7    1  0.3221417E-010  0.4778727E+02  0.7816164E-02  0.1312668E+00
        -11   -1    0    0    0    0  0.00000000000E+00  0.00000000000E+00  0.45593999997E+02  0.45594000000E+02  0.51100000000E-03 0. -1.
         11   -1    0    0    0    0 -0.00000000000E+00 -0.00000000000E+00 -0.45593999997E+02  0.45594000000E+02  0.51100000000E-03 0.  1.
    9900012    2    1    2    0    0  0.37078467895E+01  0.21543804834E+02 -0.37493195571E+02  0.47787269953E+02  0.19999995022E+02 0.  0.
         12    1    1    2    0    0 -0.37078467895E+01 -0.21543804834E+02  0.37493195571E+02  0.43400730047E+02  0.00000000000E+00 0. -1.
         11    1    3    3    0    0 -0.51667590149E+01  0.14524452226E+02 -0.23872342035E+02  0.28417315596E+02  0.51100000000E-03 0. -1.
        -11    1    3    3    0    0  0.20487531256E+01 -0.10084074821E+01 -0.58417369790E+01  0.62721739622E+01  0.51100000000E-03 0.  1.
        -12    1    3    3    0    0  0.68258526789E+01  0.80277600902E+01 -0.77791165567E+01  0.13097780394E+02  0.00000000000E+00 0.  1.
</event>
<event>
 7    1  0.3221417E-010  0.4778730E+02  0.7816164E-02  0.1312668E+00
        -11   -1    0    0    0    0  0.00000000000E+00  0.00000000000E+00  0.45593999997E+02  0.45594000000E+02  0.51100000000E-03 0. -1.
         11   -1    0    0    0    0 -0.00000000000E+00 -0.00000000000E+00 -0.45593999997E+02  0.45594000000E+02  0.51100000000E-03 0.  1.
    9900012    2    1    2    0    0  0.15007938575E+02 -0.36412673373E+02 -0.18234583139E+02  0.47787296956E+02  0.20000118142E+02 0.  0.
         12    1    1    2    0    0 -0.15007938575E+02  0.36412673373E+02  0.18234583139E+02  0.43400703044E+02  0.00000000000E+00 0. -1.
         11    1    3    3    0    0  0.11497909341E+02 -0.28227537619E+02 -0.14289799981E+02  0.33662949707E+02  0.51100000000E-03 0. -1.
        -11    1    3    3    0    0  0.18530916709E+01 -0.60179041912E+01  0.27680767945E+01  0.68783260316E+01  0.51100000000E-03 0.  1.
         12    1    3    3    0    0  0.16569375632E+01 -0.21672315629E+01 -0.67128599529E+01  0.72460212174E+01  0.00000000000E+00 0. -1.
</event>
<event>
 7    1  0.3221417E-010  0.4778727E+02  0.7816164E-02  0.1312668E+00
        -11   -1    0    0    0    0  0.00000000000E+00  0.00000000000E+00  0.45593999997E+02  0.45594000000E+02  0.51100000000E-03 0. -1.
         11   -1    0    0    0    0 -0.00000000000E+00 -0.00000000000E+00 -0.45593999997E+02  0.45594000000E+02  0.51100000000E-03 0.  1.
    9900012    2    1    2    0    0  0.70638529020E+01 -0.42189937787E+02  0.73303696156E+01  0.47787272046E+02  0.20000004565E+02 0.  0.
        -12    1    1    2    0    0 -0.70638529020E+01  0.42189937787E+02 -0.73303696156E+01  0.43400727954E+02  0.00000000000E+00 0.  1.
         11    1    3    3    0    0  0.42184623839E+01 -0.14236181177E+02 -0.26714058902E+01  0.15086440570E+02  0.51100000000E-03 0. -1.
        -11    1    3    3    0    0 -0.36754863097E+01 -0.60777177744E+01 -0.13133923435E+01  0.72230777835E+01  0.51100000000E-03 0.  1.
        -12    1    3    3    0    0  0.65208768278E+01 -0.21876038836E+02  0.11315167849E+02  0.25477753692E+02  0.00000000000E+00 0.  1.
</event>
<event>
 7    1  0.3221417E-010  0.4778727E+02  0.7816164E-02  0.1312668E+00
        -11   -1    0    0    0    0  0.00000000000E+00  0.00000000000E+00  0.45593999997E+02  0.45594000000E+02  0.51100000000E-03 0. -1.
         11   -1    0    0    0    0 -0.00000000000E+00 -0.00000000000E+00 -0.45593999997E+02  0.45594000000E+02  0.51100000000E-03 0.  1.
    9900012    2    1    2    0    0  0.35452466196E+02 -0.76428647357E+01 -0.23839725936E+02  0.47787271049E+02  0.20000000022E+02 0.  0.
         12    1    1    2    0    0 -0.35452466196E+02  0.76428647357E+01  0.23839725936E+02  0.43400728951E+02  0.00000000000E+00 0. -1.
         11    1    3    3    0    0  0.93324107273E+01  0.40225978877E+01 -0.26981477282E+01  0.10514522584E+02  0.51100000000E-03 0. -1.
        -11    1    3    3    0    0  0.21316357795E+02 -0.66219212861E+01 -0.10780647288E+02  0.24788289722E+02  0.51100000000E-03 0.  1.
        -12    1    3    3    0    0  0.48036976734E+01 -0.50435413373E+01 -0.10360930920E+02  0.12484458743E+02  0.00000000000E+00 0.  1.
</event>
<event>
 7    1  0.3221417E-010  0.4778727E+02  0.7816164E-02  0.1312668E+00
        -11   -1    0    0    0    0  0.00000000000E+00  0.00000000000E+00  0.45593999997E+02  0.45594000000E+02  0.51100000000E-03 0. -1.
         11   -1    0    0    0    0 -0.00000000000E+00 -0.00000000000E+00 -0.45593999997E+02  0.45594000000E+02  0.51100000000E-03 0.  1.
    9900012    2    1    2    0    0  0.23316898173E+02  0.88329205642E+01 -0.35523585219E+02  0.47787270364E+02  0.19999996899E+02 0.  0.
         12    1    1    2    0    0 -0.23316898173E+02 -0.88329205642E+01  0.35523585219E+02  0.43400729636E+02  0.00000000000E+00 0. -1.
         11    1    3    3    0    0  0.52149932768E+01 -0.30514426052E+01 -0.29543720788E+01  0.67257543436E+01  0.51100000000E-03 0. -1.
        -11    1    3    3    0    0  0.45762136993E+01  0.97505678888E+01 -0.18644804698E+02  0.21532395326E+02  0.51100000000E-03 0.  1.
         12    1    3    3    0    0  0.13525691197E+02  0.21337952807E+01 -0.13924408442E+02  0.19529120695E+02  0.00000000000E+00 0. -1.
</event>
<event>
 7    1  0.3221417E-010  0.4778728E+02  0.7816164E-02  0.1312668E+00
        -11   -1    0    0    0    0  0.00000000000E+00  0.00000000000E+00  0.45593999997E+02  0.45594000000E+02  0.51100000000E-03 0. -1.
         11   -1    0    0    0    0 -0.00000000000E+00 -0.00000000000E+00 -0.45593999997E+02  0.45594000000E+02  0.51100000000E-03 0.  1.
    9900012    2    1    2    0    0 -0.10254469170E+02  0.31837758302E+02  0.27655486569E+02  0.47787275018E+02  0.20000018115E+02 0.  0.
        -12    1    1    2    0    0  0.10254469170E+02 -0.31837758302E+02 -0.27655486569E+02  0.43400724982E+02  0.00000000000E+00 0.  1.
         11    1    3    3    0    0 -0.11329820429E+02  0.24718515845E+02  0.25453843156E+02  0.37246046612E+02  0.51100000000E-03 0. -1.
        -11    1    3    3    0    0  0.27465470268E+01  0.40542830281E+01  0.42582623679E+01  0.64894938244E+01  0.51100000000E-03 0.  1.
         12    1    3    3    0    0 -0.16711957683E+01  0.30649594283E+01 -0.20566189547E+01  0.40517345814E+01  0.00000000000E+00 0. -1.
</event>
<event>
 7    1  0.3221417E-010  0.4778728E+02  0.7816164E-02  0.1312668E+00
        -11   -1    0    0    0    0  0.00000000000E+00  0.00000000000E+00  0.45593999997E+02  0.45594000000E+02  0.51100000000E-03 0. -1.
         11   -1    0    0    0    0 -0.00000000000E+00 -0.00000000000E+00 -0.45593999997E+02  0.45594000000E+02  0.51100000000E-03 0.  1.
    9900012    2    1    2    0    0  0.50819721262E+00  0.19177694084E+02  0.38930456553E+02  0.47787278091E+02  0.20000032128E+02 0.  0.
        -12    1    1    2    0    0 -0.50819721262E+00 -0.19177694084E+02 -0.38930456553E+02  0.43400721909E+02  0.00000000000E+00 0.  1.
         11    1    3    3    0    0  0.19664342126E+01  0.10639569671E+02  0.11624727866E+02  0.15880856542E+02  0.51100000000E-03 0. -1.
        -11    1    3    3    0    0  0.32310325761E+01  0.13296151539E+01  0.20882682663E+02  0.21172951694E+02  0.51100000000E-03 0.  1.
         12    1    3    3    0    0 -0.46892695761E+01  0.72085092589E+01  0.64230460242E+01  0.10733469855E+02  0.00000000000E+00 0. -1.
</event>
<event>
 7    1  0.3221417E-010  0.4778728E+02  0.7816164E-02  0.1312668E+00
        -11   -1    0    0    0    0  0.00000000000E+00  0.00000000000E+00  0.45593999997E+02  0.45594000000E+02  0.51100000000E-03 0.  1.
         11   -1    0    0    0    0 -0.00000000000E+00 -0.00000000000E+00 -0.45593999997E+02  0.45594000000E+02  0.51100000000E-03 0. -1.
    9900012    2    1    2    0    0  0.43326559814E+02  0.24858975836E+01 -0.50220196595E+00  0.47787277898E+02  0.20000031249E+02 0.  0.
         12    1    1    2    0    0 -0.43326559814E+02 -0.24858975836E+01  0.50220196595E+00  0.43400722102E+02  0.00000000000E+00 0. -1.
         11    1    3    3    0    0  0.27877259685E+02  0.68619469560E+01  0.50001431062E+01  0.29141540023E+02  0.51100000000E-03 0. -1.
        -11    1    3    3    0    0  0.15146062619E+02 -0.18524975312E+01 -0.49789911054E+01  0.16050710658E+02  0.51100000000E-03 0.  1.
        -12    1    3    3    0    0  0.30323751101E+00 -0.25235518412E+01 -0.52335396667E+00  0.25950272171E+01  0.00000000000E+00 0.  1.
</event>
<event>
 7    1  0.3221417E-010  0.4778727E+02  0.7816164E-02  0.1312668E+00
        -11   -1    0    0    0    0  0.00000000000E+00  0.00000000000E+00  0.45593999997E+02  0.45594000000E+02  0.51100000000E-03 0.  1.
         11   -1    0    0    0    0 -0.00000000000E+00 -0.00000000000E+00 -0.45593999997E+02  0.45594000000E+02  0.51100000000E-03 0. -1.
    9900012    2    1    2    0    0  0.20882184718E+02  0.29520137090E+02 -0.24002476311E+02  0.47787274183E+02  0.20000014310E+02 0.  0.
         12    1    1    2    0    0 -0.20882184718E+02 -0.29520137090E+02  0.24002476311E+02  0.43400725817E+02  0.00000000000E+00 0. -1.
         11    1    3    3    0    0 -0.18097534555E+01  0.32957963243E+01 -0.23361875008E+01  0.44266526045E+01  0.51100000000E-03 0. -1.
        -11    1    3    3    0    0  0.13960729882E+02  0.10648771532E+02 -0.35304025007E+01  0.17909831269E+02  0.51100000000E-03 0.  1.
         12    1    3    3    0    0  0.87312082906E+01  0.15575569234E+02 -0.18135886309E+02  0.25450790310E+02  0.00000000000E+00 0. -1.
</event>
<event>
 7    1  0.3221417E-010  0.4778727E+02  0.7816164E-02  0.1312668E+00
        -11   -1    0    0    0    0  0.00000000000E+00  0.00000000000E+00  0.45593999997E+02  0.45594000000E+02  0.51100000000E-03 0. -1.
         11   -1    0    0    0    0 -0.00000000000E+00 -0.00000000000E+00 -0.45593999997E+02  0.45594000000E+02  0.51100000000E-03 0.  1.
    9900012    2    1    2    0    0  0.15341107024E+02 -0.18638372170E+02 -0.36067780241E+02  0.47787271281E+02  0.20000001078E+02 0.  0.
         12    1    1    2    0    0 -0.15341107024E+02  0.18638372170E+02  0.36067780241E+02  0.43400728719E+02  0.00000000000E+00 0. -1.
         11    1    3    3    0    0  0.69577661513E+01 -0.11553628511E+02 -0.15690604527E+02  0.20690382120E+02  0.51100000000E-03 0. -1.
        -11    1    3    3    0    0  0.11702684984E+02 -0.60804126786E+01 -0.19463345478E+02  0.23510552346E+02  0.51100000000E-03 0.  1.
         12    1    3    3    0    0 -0.33193441116E+01 -0.10043309806E+01 -0.91383023573E+00  0.35863368148E+01  0.00000000000E+00 0. -1.
</event>
<event>
 7    1  0.3221417E-010  0.4778728E+02  0.7816164E-02  0.1312668E+00
        -11   -1    0    0    0    0  0.00000000000E+00  0.00000000000E+00  0.45593999997E+02  0.45594000000E+02  0.51100000000E-03 0. -1.
         11   -1    0    0    0    0 -0.00000000000E+00 -0.00000000000E+00 -0.45593999997E+02  0.45594000000E+02  0.51100000000E-03 0.  1.
    9900012    2    1    2    0    0 -0.17687001970E+01  0.69936684362E+01  0.42797000139E+02  0.47787275127E+02  0.20000018615E+02 0.  0.
        -12    1    1    2    0    0  0.17687001970E+01 -0.69936684362E+01 -0.42797000139E+02  0.43400724873E+02  0.00000000000E+00 0.  1.
         11    1    3    3    0    0 -0.14850295146E+01 -0.23778854454E+01  0.31777657308E+02  0.31901083933E+02  0.51100000000E-03 0. -1.
        -11    1    3    3    0    0 -0.19150526681E+01  0.60702183691E+01  0.10339301152E+02  0.12141504287E+02  0.51100000000E-03 0.  1.
        -12    1    3    3    0    0  0.16313819857E+01  0.33013355124E+01  0.68004167890E+00  0.37446869073E+01  0.00000000000E+00 0.  1.
</event>
<event>
 7    1  0.3221417E-010  0.4778727E+02  0.7816164E-02  0.1312668E+00
        -11   -1    0    0    0    0  0.00000000000E+00  0.00000000000E+00  0.45593999997E+02  0.45594000000E+02  0.51100000000E-03 0.  1.
         11   -1    0    0    0    0 -0.00000000000E+00 -0.00000000000E+00 -0.45593999997E+02  0.45594000000E+02  0.51100000000E-03 0. -1.
    9900012    2    1    2    0    0  0.21553846387E+02 -0.29061472166E+02  0.23968433041E+02  0.47787271424E+02  0.20000001729E+02 0.  0.
        -12    1    1    2    0    0 -0.21553846387E+02  0.29061472166E+02 -0.23968433041E+02  0.43400728576E+02  0.00000000000E+00 0.  1.
         11    1    3    3    0    0  0.17646137250E+02 -0.24914611466E+02  0.18493700065E+02  0.35695111244E+02  0.51100000000E-03 0. -1.
        -11    1    3    3    0    0  0.15025837311E+01 -0.25749166600E+01  0.78290920221E+01  0.83775077336E+01  0.51100000000E-03 0.  1.
         12    1    3    3    0    0  0.24051254056E+01 -0.15719440393E+01 -0.23543590457E+01  0.37146524461E+01  0.00000000000E+00 0. -1.
</event>
<event>
 7    1  0.3221417E-010  0.4778727E+02  0.7816164E-02  0.1312668E+00
        -11   -1    0    0    0    0  0.00000000000E+00  0.00000000000E+00  0.45593999997E+02  0.45594000000E+02  0.51100000000E-03 0.  1.
         11   -1    0    0    0    0 -0.00000000000E+00 -0.00000000000E+00 -0.45593999997E+02  0.45594000000E+02  0.51100000000E-03 0. -1.
    9900012    2    1    2    0    0 -0.14665936112E+01 -0.41550689400E+02  0.12450410344E+02  0.47787269543E+02  0.19999993155E+02 0.  0.
        -12    1    1    2    0    0  0.14665936112E+01  0.41550689400E+02 -0.12450410344E+02  0.43400730457E+02  0.00000000000E+00 0.  1.
         11    1    3    3    0    0 -0.14017097831E+01 -0.28466572462E+02  0.34554945746E+01  0.28709771526E+02  0.51100000000E-03 0. -1.
        -11    1    3    3    0    0  0.14309814685E+01 -0.13077862006E+02  0.10591539323E+02  0.16889608879E+02  0.51100000000E-03 0.  1.
        -12    1    3    3    0    0 -0.14958652965E+01 -0.62549327388E-02 -0.15966235534E+01  0.21878891381E+01  0.00000000000E+00 0.  1.
</event>
<event>
 7    1  0.3221417E-010  0.4778727E+02  0.7816164E-02  0.1312668E+00
        -11   -1    0    0    0    0  0.00000000000E+00  0.00000000000E+00  0.45593999997E+02  0.45594000000E+02  0.51100000000E-03 0. -1.
         11   -1    0    0    0    0 -0.00000000000E+00 -0.00000000000E+00 -0.45593999997E+02  0.45594000000E+02  0.51100000000E-03 0.  1.
    9900012    2    1    2    0    0  0.10924236003E+02 -0.12690573164E+00 -0.42003193413E+02  0.47787270810E+02  0.19999998930E+02 0.  0.
         12    1    1    2    0    0 -0.10924236003E+02  0.12690573164E+00  0.42003193413E+02  0.43400729190E+02  0.00000000000E+00 0. -1.
         11    1    3    3    0    0 -0.10261181178E+01  0.50060755096E+00  0.11234190993E+01  0.16017481218E+01  0.51100000000E-03 0. -1.
        -11    1    3    3    0    0  0.72827681886E+01 -0.59335470868E+01 -0.26657368007E+02  0.28264128553E+02  0.51100000000E-03 0.  1.
         12    1    3    3    0    0  0.46675859320E+01  0.53060338042E+01 -0.16469244506E+02  0.17921394135E+02  0.00000000000E+00 0. -1.
</event>
<event>
 7    1  0.3221417E-010  0.4778727E+02  0.7816164E-02  0.1312668E+00
        -11   -1    0    0    0    0  0.00000000000E+00  0.00000000000E+00  0.45593999997E+02  0.45594000000E+02  0.51100000000E-03 0. -1.
         11   -1    0    0    0    0 -0.00000000000E+00 -0.00000000000E+00 -0.45593999997E+02  0.45594000000E+02  0.51100000000E-03 0.  1.
    9900012    2    1    2    0    0  0.31087819719E+02  0.26632489647E+02 -0.14418079893E+02  0.47787273422E+02  0.20000010842E+02 0.  0.
         12    1    1    2    0    0 -0.31087819719E+02 -0.26632489647E+02  0.14418079893E+02  0.43400726578E+02  0.00000000000E+00 0. -1.
         11    1    3    3    0    0  0.44170190949E+01  0.10211519551E+02 -0.26968930192E+01  0.11448075010E+02  0.51100000000E-03 0. -1.
        -11    1    3    3    0    0  0.84251259717E+01  0.17653790341E+01 -0.95175342670E+01  0.12832878460E+02  0.51100000000E-03 0.  1.
         12    1    3    3    0    0  0.18245674653E+02  0.14655591062E+02 -0.22036526064E+01  0.23506319953E+02  0.00000000000E+00 0. -1.
</event>
<event>
 7    1  0.3221417E-010  0.4778727E+02  0.7816164E-02  0.1312668E+00
        -11   -1    0    0    0    0  0.00000000000E+00  0.00000000000E+00  0.45593999997E+02  0.45594000000E+02  0.51100000000E-03 0. -1.
         11   -1    0    0    0    0 -0.00000000000E+00 -0.00000000000E+00 -0.45593999997E+02  0.45594000000E+02  0.51100000000E-03 0.  1.
    9900012    2    1    2    0    0 -0.13124183869E+02  0.38896722287E+01 -0.41185547758E+02  0.47787273089E+02  0.20000009323E+02 0.  0.
         12    1    1    2    0    0  0.13124183869E+02 -0.38896722287E+01  0.41185547758E+02  0.43400726911E+02  0.00000000000E+00 0. -1.
         11    1    3    3    0    0  0.26850668427E+01 -0.19118242429E+01 -0.39256164754E+01  0.51259263415E+01  0.51100000000E-03 0. -1.
        -11    1    3    3    0    0 -0.86349680708E+01  0.79170008099E+00 -0.30193614629E+02  0.31414070529E+02  0.51100000000E-03 0.  1.
        -12    1    3    3    0    0 -0.71742826407E+01  0.50097963906E+01 -0.70663166534E+01  0.11247276218E+02  0.00000000000E+00 0.  1.
</event>
<event>
 7    1  0.3221417E-010  0.4778727E+02  0.7816164E-02  0.1312668E+00
        -11   -1    0    0    0    0  0.00000000000E+00  0.00000000000E+00  0.45593999997E+02  0.45594000000E+02  0.51100000000E-03 0.  1.
         11   -1    0    0    0    0 -0.00000000000E+00 -0.00000000000E+00 -0.45593999997E+02  0.45594000000E+02  0.51100000000E-03 0. -1.
    9900012    2    1    2    0    0  0.82508564105E+01 -0.41193774336E+02 -0.10891271149E+02  0.47787268868E+02  0.19999990077E+02 0.  0.
         12    1    1    2    0    0 -0.82508564105E+01  0.41193774336E+02  0.10891271149E+02  0.43400731132E+02  0.00000000000E+00 0. -1.
         11    1    3    3    0    0  0.53983624027E+00  0.18283161916E-01 -0.17127302335E+01  0.17958848944E+01  0.51100000000E-03 0. -1.
        -11    1    3    3    0    0  0.66619064733E+01 -0.42702223714E+02 -0.91052684021E+01  0.44167486015E+02  0.51100000000E-03 0.  1.
        -12    1    3    3    0    0  0.10491136969E+01  0.14901662162E+01 -0.73272513487E-01  0.18238979583E+01  0.00000000000E+00 0.  1.
</event>
<event>
 7    1  0.3221417E-010  0.4778731E+02  0.7816164E-02  0.1312668E+00
        -11   -1    0    0    0    0  0.00000000000E+00  0.00000000000E+00  0.45593999997E+02  0.45594000000E+02  0.51100000000E-03 0. -1.
         11   -1    0    0    0    0 -0.00000000000E+00 -0.00000000000E+00 -0.45593999997E+02  0.45594000000E+02  0.51100000000E-03 0.  1.
    9900012    2    1    2    0    0  0.29976259791E+02  0.20115424175E+01 -0.31320881610E+02  0.47787307854E+02  0.20000167829E+02 0.  0.
         12    1    1    2    0    0 -0.29976259791E+02 -0.20115424175E+01  0.31320881610E+02  0.43400692146E+02  0.00000000000E+00 0. -1.
         11    1    3    3    0    0  0.13680254299E+02 -0.19210334414E+00 -0.31387454665E+01  0.14037021933E+02  0.51100000000E-03 0. -1.
        -11    1    3    3    0    0  0.57487580956E+01 -0.33280028890E+01 -0.93912430261E+01  0.11503011289E+02  0.51100000000E-03 0.  1.
        -12    1    3    3    0    0  0.10547247396E+02  0.55316486507E+01 -0.18790893117E+02  0.22247274632E+02  0.00000000000E+00 0.  1.
</event>
<event>
 7    1  0.3221417E-010  0.4778727E+02  0.7816164E-02  0.1312668E+00
        -11   -1    0    0    0    0  0.00000000000E+00  0.00000000000E+00  0.45593999997E+02  0.45594000000E+02  0.51100000000E-03 0. -1.
         11   -1    0    0    0    0 -0.00000000000E+00 -0.00000000000E+00 -0.45593999997E+02  0.45594000000E+02  0.51100000000E-03 0.  1.
    9900012    2    1    2    0    0 -0.26560724710E+01 -0.87792339320E+01 -0.42420440732E+02  0.47787268885E+02  0.19999990156E+02 0.  0.
         12    1    1    2    0    0  0.26560724710E+01  0.87792339320E+01  0.42420440732E+02  0.43400731115E+02  0.00000000000E+00 0. -1.
         11    1    3    3    0    0  0.52670744182E+01 -0.14689185356E+00 -0.14451041546E+02  0.15381685609E+02  0.51100000000E-03 0. -1.
        -11    1    3    3    0    0  0.13399309155E+01 -0.39669401274E+01 -0.16135381563E+02  0.16669810055E+02  0.51100000000E-03 0.  1.
        -12    1    3    3    0    0 -0.92630778048E+01 -0.46654019511E+01 -0.11834017623E+02  0.15735773221E+02  0.00000000000E+00 0.  1.
</event>
<event>
 7    1  0.3221417E-010  0.4778726E+02  0.7816164E-02  0.1312668E+00
        -11   -1    0    0    0    0  0.00000000000E+00  0.00000000000E+00  0.45593999997E+02  0.45594000000E+02  0.51100000000E-03 0. -1.
         11   -1    0    0    0    0 -0.00000000000E+00 -0.00000000000E+00 -0.45593999997E+02  0.45594000000E+02  0.51100000000E-03 0.  1.
    9900012    2    1    2    0    0 -0.74329297639E+01  0.15951974521E+02 -0.39672541964E+02  0.47787256667E+02  0.19999934447E+02 0.  0.
         12    1    1    2    0    0  0.74329297639E+01 -0.15951974521E+02  0.39672541964E+02  0.43400743333E+02  0.00000000000E+00 0. -1.
         11    1    3    3    0    0  0.47357803964E+01  0.10346756641E+02 -0.10186812321E+02  0.15272659706E+02  0.51100000000E-03 0. -1.
        -11    1    3    3    0    0 -0.51026943659E+01  0.37314009197E+01 -0.15344291618E+02  0.16595424916E+02  0.51100000000E-03 0.  1.
         12    1    3    3    0    0 -0.70660157945E+01  0.18738169598E+01 -0.14141438024E+02  0.15919172045E+02  0.00000000000E+00 0. -1.
</event>
<event>
 7    1  0.3221417E-010  0.4778727E+02  0.7816164E-02  0.1312668E+00
        -11   -1    0    0    0    0  0.00000000000E+00  0.00000000000E+00  0.45593999997E+02  0.45594000000E+02  0.51100000000E-03 0.  1.
         11   -1    0    0    0    0 -0.00000000000E+00 -0.00000000000E+00 -0.45593999997E+02  0.45594000000E+02  0.51100000000E-03 0. -1.
    9900012    2    1    2    0    0  0.35778812649E+02  0.39042087713E+01  0.24254010527E+02  0.47787270658E+02  0.19999998240E+02 0.  0.
        -12    1    1    2    0    0 -0.35778812649E+02 -0.39042087713E+01 -0.24254010527E+02  0.43400729342E+02  0.00000000000E+00 0.  1.
         11    1    3    3    0    0 -0.66291688500E+00 -0.37434140256E+00 -0.18187504505E+00  0.78273180287E+00  0.51100000000E-03 0. -1.
        -11    1    3    3    0    0  0.32076514026E+02 -0.21694902926E+01  0.21531374152E+02  0.38693791664E+02  0.51100000000E-03 0.  1.
         12    1    3    3    0    0  0.43652155081E+01  0.64480404665E+01  0.29045114201E+01  0.83107471914E+01  0.00000000000E+00 0. -1.
</event>
<event>
 7    1  0.3221417E-010  0.4778727E+02  0.7816164E-02  0.1312668E+00
        -11   -1    0    0    0    0  0.00000000000E+00  0.00000000000E+00  0.45593999997E+02  0.45594000000E+02  0.51100000000E-03 0. -1.
         11   -1    0    0    0    0 -0.00000000000E+00 -0.00000000000E+00 -0.45593999997E+02  0.45594000000E+02  0.51100000000E-03 0.  1.
    9900012    2    1    2    0    0 -0.65926282079E+01 -0.17490222903E+02 -0.39169537481E+02  0.47787270624E+02  0.19999998084E+02 0.  0.
         12    1    1    2    0    0  0.65926282079E+01  0.17490222903E+02  0.39169537481E+02  0.43400729376E+02  0.00000000000E+00 0. -1.
         11    1    3    3    0    0 -0.27668612499E+01 -0.40887314601E+01 -0.26905217572E+01  0.56224686496E+01  0.51100000000E-03 0.  1.
        -11    1    3    3    0    0 -0.49196524985E+01 -0.11134518466E+02 -0.37516739780E+02  0.39442188658E+02  0.51100000000E-03 0. -1.
         12    1    3    3    0    0  0.10938855405E+01 -0.22669729772E+01  0.10377240559E+01  0.27226133166E+01  0.00000000000E+00 0. -1.
</event>
<event>
 7    1  0.3221417E-010  0.4778726E+02  0.7816164E-02  0.1312668E+00
        -11   -1    0    0    0    0  0.00000000000E+00  0.00000000000E+00  0.45593999997E+02  0.45594000000E+02  0.51100000000E-03 0. -1.
         11   -1    0    0    0    0 -0.00000000000E+00 -0.00000000000E+00 -0.45593999997E+02  0.45594000000E+02  0.51100000000E-03 0.  1.
    9900012    2    1    2    0    0 -0.24263566208E+02 -0.89188864558E+01  0.34861966564E+02  0.47787263907E+02  0.19999967456E+02 0.  0.
        -12    1    1    2    0    0  0.24263566208E+02  0.89188864558E+01 -0.34861966564E+02  0.43400736093E+02  0.00000000000E+00 0.  1.
         11    1    3    3    0    0 -0.22343914888E+02 -0.74910154662E+01  0.21872250509E+02  0.32152156815E+02  0.51100000000E-03 0. -1.
        -11    1    3    3    0    0 -0.22846857647E+01 -0.22029494289E+01  0.61751715826E+00  0.32332805217E+01  0.51100000000E-03 0.  1.
        -12    1    3    3    0    0  0.36503444543E+00  0.77507843937E+00  0.12372198897E+02  0.12401826570E+02  0.00000000000E+00 0.  1.
</event>
<event>
 7    1  0.3221417E-010  0.4778726E+02  0.7816164E-02  0.1312668E+00
        -11   -1    0    0    0    0  0.00000000000E+00  0.00000000000E+00  0.45593999997E+02  0.45594000000E+02  0.51100000000E-03 0. -1.
         11   -1    0    0    0    0 -0.00000000000E+00 -0.00000000000E+00 -0.45593999997E+02  0.45594000000E+02  0.51100000000E-03 0.  1.
    9900012    2    1    2    0    0  0.11871683082E+01  0.22684464448E+02  0.36981479863E+02  0.47787260965E+02  0.19999954044E+02 0.  0.
        -12    1    1    2    0    0 -0.11871683082E+01 -0.22684464448E+02 -0.36981479863E+02  0.43400739035E+02  0.00000000000E+00 0.  1.
         11    1    3    3    0    0  0.63581643206E+01  0.67153860406E+01  0.91605271033E+01  0.13016832190E+02  0.51100000000E-03 0.  1.
        -11    1    3    3    0    0  0.41580010426E+00  0.83220138669E+01  0.42196911982E+01  0.93399463915E+01  0.51100000000E-03 0. -1.
        -12    1    3    3    0    0 -0.55867961167E+01  0.76470645410E+01  0.23601261562E+02  0.25430482383E+02  0.00000000000E+00 0.  1.
</event>
<event>
 7    1  0.3221417E-010  0.4778727E+02  0.7816164E-02  0.1312668E+00
        -11   -1    0    0    0    0  0.00000000000E+00  0.00000000000E+00  0.45593999997E+02  0.45594000000E+02  0.51100000000E-03 0.  1.
         11   -1    0    0    0    0 -0.00000000000E+00 -0.00000000000E+00 -0.45593999997E+02  0.45594000000E+02  0.51100000000E-03 0. -1.
    9900012    2    1    2    0    0 -0.92683007456E+01 -0.37923092533E+02  0.18962090627E+02  0.47787271586E+02  0.20000002467E+02 0.  0.
         12    1    1    2    0    0  0.92683007456E+01  0.37923092533E+02 -0.18962090627E+02  0.43400728414E+02  0.00000000000E+00 0. -1.
         11    1    3    3    0    0 -0.51093002783E+01  0.47630632024E+00  0.17215559925E+01  0.54125384378E+01  0.51100000000E-03 0. -1.
        -11    1    3    3    0    0 -0.92700456655E-01 -0.11401110650E+02  0.47797872939E+01  0.12362859065E+02  0.51100000000E-03 0.  1.
         12    1    3    3    0    0 -0.40663000107E+01 -0.26998288203E+02  0.12460747340E+02  0.30011874083E+02  0.00000000000E+00 0. -1.
</event>
<event>
 7    1  0.3221417E-010  0.4778727E+02  0.7816164E-02  0.1312668E+00
        -11   -1    0    0    0    0  0.00000000000E+00  0.00000000000E+00  0.45593999997E+02  0.45594000000E+02  0.51100000000E-03 0.  1.
         11   -1    0    0    0    0 -0.00000000000E+00 -0.00000000000E+00 -0.45593999997E+02  0.45594000000E+02  0.51100000000E-03 0. -1.
    9900012    2    1    2    0    0 -0.61389451596E+01  0.36294912690E+02  0.22991652113E+02  0.47787269572E+02  0.19999993286E+02 0.  0.
        -12    1    1    2    0    0  0.61389451596E+01 -0.36294912690E+02 -0.22991652113E+02  0.43400730428E+02  0.00000000000E+00 0.  1.
         11    1    3    3    0    0 -0.53019636431E+01  0.19876324744E+02  0.57958356399E+01  0.21372197239E+02  0.51100000000E-03 0. -1.
        -11    1    3    3    0    0  0.50088482512E+01  0.94996900419E+01  0.72204897473E+01  0.12940948348E+02  0.51100000000E-03 0.  1.
        -12    1    3    3    0    0 -0.58458297678E+01  0.69188979042E+01  0.99753267254E+01  0.13474123985E+02  0.00000000000E+00 0.  1.
</event>
<event>
 7    1  0.3221417E-010  0.4778727E+02  0.7816164E-02  0.1312668E+00
        -11   -1    0    0    0    0  0.00000000000E+00  0.00000000000E+00  0.45593999997E+02  0.45594000000E+02  0.51100000000E-03 0. -1.
         11   -1    0    0    0    0 -0.00000000000E+00 -0.00000000000E+00 -0.45593999997E+02  0.45594000000E+02  0.51100000000E-03 0.  1.
    9900012    2    1    2    0    0 -0.78078570610E+01 -0.21626042947E+02 -0.36809982718E+02  0.47787271974E+02  0.20000004239E+02 0.  0.
         12    1    1    2    0    0  0.78078570610E+01  0.21626042947E+02  0.36809982718E+02  0.43400728026E+02  0.00000000000E+00 0. -1.
         11    1    3    3    0    0 -0.64165094631E+01 -0.14269906176E+02 -0.28744174849E+02  0.32726585584E+02  0.51100000000E-03 0. -1.
        -11    1    3    3    0    0  0.17331790109E+01 -0.55323770349E+01 -0.95323397739E+01  0.11156908486E+02  0.51100000000E-03 0.  1.
         12    1    3    3    0    0 -0.31245266088E+01 -0.18237597358E+01  0.14665319040E+01  0.39037779046E+01  0.00000000000E+00 0. -1.
</event>
<event>
 7    1  0.3221417E-010  0.4778727E+02  0.7816164E-02  0.1312668E+00
        -11   -1    0    0    0    0  0.00000000000E+00  0.00000000000E+00  0.45593999997E+02  0.45594000000E+02  0.51100000000E-03 0. -1.
         11   -1    0    0    0    0 -0.00000000000E+00 -0.00000000000E+00 -0.45593999997E+02  0.45594000000E+02  0.51100000000E-03 0.  1.
    9900012    2    1    2    0    0  0.35905646047E+02  0.58466861942E+00  0.24373474220E+02  0.47787268428E+02  0.19999988070E+02 0.  0.
        -12    1    1    2    0    0 -0.35905646047E+02 -0.58466861942E+00 -0.24373474220E+02  0.43400731572E+02  0.00000000000E+00 0.  1.
         11    1    3    3    0    0  0.17682824906E+02 -0.26096532254E+01  0.56079452117E+01  0.18733436321E+02  0.51100000000E-03 0. -1.
        -11    1    3    3    0    0  0.11687173776E+02  0.45167031612E+01  0.45112166117E+01  0.13316970898E+02  0.51100000000E-03 0.  1.
        -12    1    3    3    0    0  0.65356473644E+01 -0.13223813164E+01  0.14254312396E+02  0.15736861209E+02  0.00000000000E+00 0.  1.
</event>
<event>
 7    1  0.3221417E-010  0.4778729E+02  0.7816164E-02  0.1312668E+00
        -11   -1    0    0    0    0  0.00000000000E+00  0.00000000000E+00  0.45593999997E+02  0.45594000000E+02  0.51100000000E-03 0. -1.
         11   -1    0    0    0    0 -0.00000000000E+00 -0.00000000000E+00 -0.45593999997E+02  0.45594000000E+02  0.51100000000E-03 0.  1.
    9900012    2    1    2    0    0 -0.43378154382E+02 -0.86028156621E+00 -0.11033728134E+01  0.47787288099E+02  0.20000077760E+02 0.  0.
        -12    1    1    2    0    0  0.43378154382E+02  0.86028156621E+00  0.11033728134E+01  0.43400711901E+02  0.00000000000E+00 0.  1.
         11    1    3    3    0    0 -0.50427547815E+01  0.54477343348E+00 -0.55676422294E+01  0.75315864289E+01  0.51100000000E-03 0. -1.
        -11    1    3    3    0    0 -0.12299325883E+02  0.13675745376E+01 -0.35484276199E+01  0.12873811251E+02  0.51100000000E-03 0.  1.
         12    1    3    3    0    0 -0.26036073717E+02 -0.27726295373E+01  0.80126970359E+01  0.27381890419E+02  0.00000000000E+00 0. -1.
</event>
<event>
 7    1  0.3221417E-010  0.4778726E+02  0.7816164E-02  0.1312668E+00
        -11   -1    0    0    0    0  0.00000000000E+00  0.00000000000E+00  0.45593999997E+02  0.45594000000E+02  0.51100000000E-03 0. -1.
         11   -1    0    0    0    0 -0.00000000000E+00 -0.00000000000E+00 -0.45593999997E+02  0.45594000000E+02  0.51100000000E-03 0.  1.
    9900012    2    1    2    0    0  0.37177461922E+00 -0.17250527563E+02  0.39823424108E+02  0.47787262388E+02  0.19999960532E+02 0.  0.
        -12    1    1    2    0    0 -0.37177461922E+00  0.17250527563E+02 -0.39823424108E+02  0.43400737612E+02  0.00000000000E+00 0.  1.
         11    1    3    3    0    0 -0.21997868980E+01 -0.46016988386E+00  0.20743454413E+00  0.22569554869E+01  0.51100000000E-03 0.  1.
        -11    1    3    3    0    0 -0.46720893306E+01 -0.79899222791E+00  0.10691996771E+02  0.11695537718E+02  0.51100000000E-03 0. -1.
         12    1    3    3    0    0  0.72436508479E+01 -0.15991365451E+02  0.28923992793E+02  0.33834769183E+02  0.00000000000E+00 0. -1.
</event>
<event>
 7    1  0.3221417E-010  0.4778727E+02  0.7816164E-02  0.1312668E+00
        -11   -1    0    0    0    0  0.00000000000E+00  0.00000000000E+00  0.45593999997E+02  0.45594000000E+02  0.51100000000E-03 0. -1.
         11   -1    0    0    0    0 -0.00000000000E+00 -0.00000000000E+00 -0.45593999997E+02  0.45594000000E+02  0.51100000000E-03 0.  1.
    9900012    2    1    2    0    0  0.12136521652E+02  0.37973715069E+02  0.17155910121E+02  0.47787269061E+02  0.19999990956E+02 0.  0.
        -12    1    1    2    0    0 -0.12136521652E+02 -0.37973715069E+02 -0.17155910121E+02  0.43400730939E+02  0.00000000000E+00 0.  1.
         11    1    3    3    0    0  0.10336354834E+02  0.15007051226E+02  0.27127695096E+01  0.18423108761E+02  0.51100000000E-03 0. -1.
        -11    1    3    3    0    0 -0.26563510320E+01  0.53541784241E+01 -0.27449339815E+00  0.59832076923E+01  0.51100000000E-03 0.  1.
        -12    1    3    3    0    0  0.44565178495E+01  0.17612485420E+02  0.14717634009E+02  0.23380952607E+02  0.00000000000E+00 0.  1.
</event>
<event>
 7    1  0.3221417E-010  0.4778727E+02  0.7816164E-02  0.1312668E+00
        -11   -1    0    0    0    0  0.00000000000E+00  0.00000000000E+00  0.45593999997E+02  0.45594000000E+02  0.51100000000E-03 0. -1.
         11   -1    0    0    0    0 -0.00000000000E+00 -0.00000000000E+00 -0.45593999997E+02  0.45594000000E+02  0.51100000000E-03 0.  1.
    9900012    2    1    2    0    0  0.19475417133E+02 -0.19123009045E+02  0.33743766099E+02  0.47787273071E+02  0.20000009240E+02 0.  0.
        -12    1    1    2    0    0 -0.19475417133E+02  0.19123009045E+02 -0.33743766099E+02  0.43400726929E+02  0.00000000000E+00 0.  1.
         11    1    3    3    0    0 -0.14429491365E+01 -0.12839417925E+01 -0.44833760723E+00  0.19828302016E+01  0.51100000000E-03 0. -1.
        -11    1    3    3    0    0  0.14632550085E+02 -0.48669781992E+01  0.22325665506E+02  0.27133638520E+02  0.51100000000E-03 0.  1.
         12    1    3    3    0    0  0.62858161840E+01 -0.12972089053E+02  0.11866438201E+02  0.18670804350E+02  0.00000000000E+00 0. -1.
</event>
<event>
 7    1  0.3221417E-010  0.4778727E+02  0.7816164E-02  0.1312668E+00
        -11   -1    0    0    0    0  0.00000000000E+00  0.00000000000E+00  0.45593999997E+02  0.45594000000E+02  0.51100000000E-03 0. -1.
         11   -1    0    0    0    0 -0.00000000000E+00 -0.00000000000E+00 -0.45593999997E+02  0.45594000000E+02  0.51100000000E-03 0.  1.
    9900012    2    1    2    0    0  0.65704749184E+01  0.24054673436E+02 -0.35522175404E+02  0.47787269589E+02  0.19999993365E+02 0.  0.
         12    1    1    2    0    0 -0.65704749184E+01 -0.24054673436E+02  0.35522175404E+02  0.43400730411E+02  0.00000000000E+00 0. -1.
         11    1    3    3    0    0 -0.24990217427E+01  0.23958961923E+00 -0.76115188820E+00  0.26233309578E+01  0.51100000000E-03 0. -1.
        -11    1    3    3    0    0  0.82536244976E+01  0.14035573716E+02 -0.30270530359E+02  0.34371858480E+02  0.51100000000E-03 0.  1.
         12    1    3    3    0    0  0.81587216347E+00  0.97795101008E+01 -0.44904931562E+01  0.10792080151E+02  0.00000000000E+00 0. -1.
</event>
<event>
 7    1  0.3221417E-010  0.4778723E+02  0.7816164E-02  0.1312668E+00
        -11   -1    0    0    0    0  0.00000000000E+00  0.00000000000E+00  0.45593999997E+02  0.45594000000E+02  0.51100000000E-03 0. -1.
         11   -1    0    0    0    0 -0.00000000000E+00 -0.00000000000E+00 -0.45593999997E+02  0.45594000000E+02  0.51100000000E-03 0.  1.
    9900012    2    1    2    0    0 -0.14115859138E+01  0.40320569199E+01 -0.43190006549E+02  0.47787231303E+02  0.19999818800E+02 0.  0.
         12    1    1    2    0    0  0.14115859138E+01 -0.40320569199E+01  0.43190006549E+02  0.43400768697E+02  0.00000000000E+00 0. -1.
         11    1    3    3    0    0 -0.56525389515E+01  0.23042480721E+01 -0.14595138817E+02  0.15820203322E+02  0.51100000000E-03 0. -1.
        -11    1    3    3    0    0 -0.24496056970E+01 -0.45093023211E+01 -0.96515598391E+01  0.10931010158E+02  0.51100000000E-03 0.  1.
        -12    1    3    3    0    0  0.66905587346E+01  0.62371111689E+01 -0.18943307893E+02  0.21036017823E+02  0.00000000000E+00 0.  1.
</event>
<event>
 7    1  0.3221417E-010  0.4778727E+02  0.7816164E-02  0.1312668E+00
        -11   -1    0    0    0    0  0.00000000000E+00  0.00000000000E+00  0.45593999997E+02  0.45594000000E+02  0.51100000000E-03 0.  1.
         11   -1    0    0    0    0 -0.00000000000E+00 -0.00000000000E+00 -0.45593999997E+02  0.45594000000E+02  0.51100000000E-03 0. -1.
    9900012    2    1    2    0    0  0.18015095472E+02 -0.39225922172E+02 -0.45173609167E+01  0.47787272071E+02  0.20000004680E+02 0.  0.
         12    1    1    2    0    0 -0.18015095472E+02  0.39225922172E+02  0.45173609167E+01  0.43400727929E+02  0.00000000000E+00 0. -1.
         11    1    3    3    0    0  0.42057048946E+01 -0.49750991614E+01 -0.19710642973E+01  0.68062221571E+01  0.51100000000E-03 0. -1.
        -11    1    3    3    0    0  0.10126923561E+02 -0.76680266464E+01 -0.57698356680E+01  0.13951495166E+02  0.51100000000E-03 0.  1.
         12    1    3    3    0    0  0.36824670163E+01 -0.26582796365E+02  0.32235390487E+01  0.27029554748E+02  0.00000000000E+00 0. -1.
</event>
<event>
 7    1  0.3221417E-010  0.4778727E+02  0.7816164E-02  0.1312668E+00
        -11   -1    0    0    0    0  0.00000000000E+00  0.00000000000E+00  0.45593999997E+02  0.45594000000E+02  0.51100000000E-03 0. -1.
         11   -1    0    0    0    0 -0.00000000000E+00 -0.00000000000E+00 -0.45593999997E+02  0.45594000000E+02  0.51100000000E-03 0.  1.
    9900012    2    1    2    0    0 -0.73781561250E+01  0.15517583304E+02 -0.39854621824E+02  0.47787268898E+02  0.19999990215E+02 0.  0.
         12    1    1    2    0    0  0.73781561250E+01 -0.15517583304E+02  0.39854621824E+02  0.43400731102E+02  0.00000000000E+00 0. -1.
         11    1    3    3    0    0 -0.37179205936E+01  0.10112187300E+02 -0.12951256671E+02  0.16846789461E+02  0.51100000000E-03 0. -1.
        -11    1    3    3    0    0  0.26076708326E+01  0.37492227984E+01 -0.16303366383E+01  0.48491872080E+01  0.51100000000E-03 0.  1.
        -12    1    3    3    0    0 -0.62679063640E+01  0.16561732056E+01 -0.25273028515E+02  0.26091292229E+02  0.00000000000E+00 0.  1.
</event>
<event>
 7    1  0.3221417E-010  0.4778727E+02  0.7816164E-02  0.1312668E+00
        -11   -1    0    0    0    0  0.00000000000E+00  0.00000000000E+00  0.45593999997E+02  0.45594000000E+02  0.51100000000E-03 0. -1.
         11   -1    0    0    0    0 -0.00000000000E+00 -0.00000000000E+00 -0.45593999997E+02  0.45594000000E+02  0.51100000000E-03 0.  1.
    9900012    2    1    2    0    0  0.35148243957E+02  0.11117751711E+02  0.22904582313E+02  0.47787270198E+02  0.19999996142E+02 0.  0.
        -12    1    1    2    0    0 -0.35148243957E+02 -0.11117751711E+02 -0.22904582313E+02  0.43400729802E+02  0.00000000000E+00 0.  1.
         11    1    3    3    0    0  0.17859562860E+02  0.47247618630E+01  0.33055115585E+01  0.18767359088E+02  0.51100000000E-03 0.  1.
        -11    1    3    3    0    0  0.13622919601E+02 -0.32683613430E+00  0.13993254563E+02  0.19532074489E+02  0.51100000000E-03 0. -1.
         12    1    3    3    0    0  0.36657614964E+01  0.67198259826E+01  0.56058161914E+01  0.94878366215E+01  0.00000000000E+00 0. -1.
</event>
<event>
 7    1  0.3221417E-010  0.4778728E+02  0.7816164E-02  0.1312668E+00
        -11   -1    0    0    0    0  0.00000000000E+00  0.00000000000E+00  0.45593999997E+02  0.45594000000E+02  0.51100000000E-03 0. -1.
         11   -1    0    0    0    0 -0.00000000000E+00 -0.00000000000E+00 -0.45593999997E+02  0.45594000000E+02  0.51100000000E-03 0.  1.
    9900012    2    1    2    0    0  0.12805970566E+02  0.36751508927E+01 -0.41305245049E+02  0.47787275527E+02  0.20000020439E+02 0.  0.
         12    1    1    2    0    0 -0.12805970566E+02 -0.36751508927E+01  0.41305245049E+02  0.43400724473E+02  0.00000000000E+00 0. -1.
         11    1    3    3    0    0  0.25803257454E+01 -0.16099294382E+01 -0.14192270059E+02  0.14514492187E+02  0.51100000000E-03 0.  1.
        -11    1    3    3    0    0  0.33392045206E-01  0.85751551684E+01 -0.12228387795E+02  0.14935456790E+02  0.51100000000E-03 0. -1.
         12    1    3    3    0    0  0.10192252775E+02 -0.32900748375E+01 -0.14884587194E+02  0.18337326550E+02  0.00000000000E+00 0. -1.
</event>
<event>
 7    1  0.3221417E-010  0.4778727E+02  0.7816164E-02  0.1312668E+00
        -11   -1    0    0    0    0  0.00000000000E+00  0.00000000000E+00  0.45593999997E+02  0.45594000000E+02  0.51100000000E-03 0. -1.
         11   -1    0    0    0    0 -0.00000000000E+00 -0.00000000000E+00 -0.45593999997E+02  0.45594000000E+02  0.51100000000E-03 0.  1.
    9900012    2    1    2    0    0 -0.74225743154E+01  0.40746637538E+02 -0.12970752716E+02  0.47787268369E+02  0.19999987801E+02 0.  0.
         12    1    1    2    0    0  0.74225743154E+01 -0.40746637538E+02  0.12970752716E+02  0.43400731631E+02  0.00000000000E+00 0. -1.
         11    1    3    3    0    0 -0.49705295353E+01  0.50580317650E+01  0.38493556444E+01  0.80689149416E+01  0.51100000000E-03 0. -1.
        -11    1    3    3    0    0 -0.22704003354E+00  0.16412870014E+02 -0.58338996546E+01  0.17420339684E+02  0.51100000000E-03 0.  1.
         12    1    3    3    0    0 -0.22250047465E+01  0.19275735759E+02 -0.10986208706E+02  0.22298013743E+02  0.00000000000E+00 0. -1.
</event>
<event>
 7    1  0.3221417E-010  0.4778728E+02  0.7816164E-02  0.1312668E+00
        -11   -1    0    0    0    0  0.00000000000E+00  0.00000000000E+00  0.45593999997E+02  0.45594000000E+02  0.51100000000E-03 0. -1.
         11   -1    0    0    0    0 -0.00000000000E+00 -0.00000000000E+00 -0.45593999997E+02  0.45594000000E+02  0.51100000000E-03 0.  1.
    9900012    2    1    2    0    0  0.15814918346E+02 -0.39209233282E+02  0.98054330861E+01  0.47787284167E+02  0.20000059829E+02 0.  0.
        -12    1    1    2    0    0 -0.15814918346E+02  0.39209233282E+02 -0.98054330861E+01  0.43400715833E+02  0.00000000000E+00 0.  1.
         11    1    3    3    0    0  0.32634350470E+01 -0.55781623240E+01  0.83656339452E+01  0.10571174712E+02  0.51100000000E-03 0. -1.
        -11    1    3    3    0    0  0.10764742283E+02 -0.20166506619E+02  0.44868899905E+01  0.23295919120E+02  0.51100000000E-03 0.  1.
        -12    1    3    3    0    0  0.17867410166E+01 -0.13464564339E+02 -0.30470908496E+01  0.13920190335E+02  0.00000000000E+00 0.  1.
</event>
<event>
 7    1  0.3221417E-010  0.4778727E+02  0.7816164E-02  0.1312668E+00
        -11   -1    0    0    0    0  0.00000000000E+00  0.00000000000E+00  0.45593999997E+02  0.45594000000E+02  0.51100000000E-03 0. -1.
         11   -1    0    0    0    0 -0.00000000000E+00 -0.00000000000E+00 -0.45593999997E+02  0.45594000000E+02  0.51100000000E-03 0.  1.
    9900012    2    1    2    0    0 -0.41177593658E+02  0.83615975061E+01  0.10867975761E+02  0.47787269252E+02  0.19999991829E+02 0.  0.
        -12    1    1    2    0    0  0.41177593658E+02 -0.83615975061E+01 -0.10867975761E+02  0.43400730748E+02  0.00000000000E+00 0.  1.
         11    1    3    3    0    0 -0.98550580483E+01 -0.40348049294E+01  0.28003538219E+01  0.11011076321E+02  0.51100000000E-03 0. -1.
        -11    1    3    3    0    0 -0.11900237561E+00  0.18667718564E+01 -0.15921943905E+01  0.24564368438E+01  0.51100000000E-03 0.  1.
         12    1    3    3    0    0 -0.31203533234E+02  0.10529630579E+02  0.96598163294E+01  0.34319756088E+02  0.00000000000E+00 0. -1.
</event>
<event>
 7    1  0.3221417E-010  0.4778727E+02  0.7816164E-02  0.1312668E+00
        -11   -1    0    0    0    0  0.00000000000E+00  0.00000000000E+00  0.45593999997E+02  0.45594000000E+02  0.51100000000E-03 0. -1.
         11   -1    0    0    0    0 -0.00000000000E+00 -0.00000000000E+00 -0.45593999997E+02  0.45594000000E+02  0.51100000000E-03 0.  1.
    9900012    2    1    2    0    0 -0.22399127182E+02  0.23503530514E+02  0.28800807074E+02  0.47787270360E+02  0.19999996880E+02 0.  0.
        -12    1    1    2    0    0  0.22399127182E+02 -0.23503530514E+02 -0.28800807074E+02  0.43400729640E+02  0.00000000000E+00 0.  1.
         11    1    3    3    0    0 -0.35603512453E+01  0.36292652539E+01  0.12133161404E+02  0.13155275489E+02  0.51100000000E-03 0. -1.
        -11    1    3    3    0    0 -0.67131967535E+01  0.41143289586E+00  0.86042024063E+00  0.67806054988E+01  0.51100000000E-03 0.  1.
        -12    1    3    3    0    0 -0.12125579183E+02  0.19462832364E+02  0.15807225429E+02  0.27851389372E+02  0.00000000000E+00 0.  1.
</event>
<event>
 7    1  0.3221417E-010  0.4778724E+02  0.7816164E-02  0.1312668E+00
        -11   -1    0    0    0    0  0.00000000000E+00  0.00000000000E+00  0.45593999997E+02  0.45594000000E+02  0.51100000000E-03 0. -1.
         11   -1    0    0    0    0 -0.00000000000E+00 -0.00000000000E+00 -0.45593999997E+02  0.45594000000E+02  0.51100000000E-03 0.  1.
    9900012    2    1    2    0    0  0.15494435016E+02  0.11956788053E+02  0.38737362611E+02  0.47787244717E+02  0.19999879964E+02 0.  0.
        -12    1    1    2    0    0 -0.15494435016E+02 -0.11956788053E+02 -0.38737362611E+02  0.43400755283E+02  0.00000000000E+00 0.  1.
         11    1    3    3    0    0  0.85204416447E+01  0.46298512131E+01  0.84679738538E+01  0.12874005963E+02  0.51100000000E-03 0.  1.
        -11    1    3    3    0    0 -0.29452882002E+01 -0.10480682150E+01  0.17608202161E+01  0.35879879682E+01  0.51100000000E-03 0. -1.
         12    1    3    3    0    0  0.99192815713E+01  0.83750050553E+01  0.28508568541E+02  0.31325250787E+02  0.00000000000E+00 0. -1.
</event>
<event>
 7    1  0.3221417E-010  0.4778727E+02  0.7816164E-02  0.1312668E+00
        -11   -1    0    0    0    0  0.00000000000E+00  0.00000000000E+00  0.45593999997E+02  0.45594000000E+02  0.51100000000E-03 0. -1.
         11   -1    0    0    0    0 -0.00000000000E+00 -0.00000000000E+00 -0.45593999997E+02  0.45594000000E+02  0.51100000000E-03 0.  1.
    9900012    2    1    2    0    0 -0.31467536834E+02 -0.20354280654E+02 -0.21888827283E+02  0.47787269877E+02  0.19999994679E+02 0.  0.
         12    1    1    2    0    0  0.31467536834E+02  0.20354280654E+02  0.21888827283E+02  0.43400730123E+02  0.00000000000E+00 0. -1.
         11    1    3    3    0    0 -0.70934099490E+01 -0.30490772377E+01 -0.99899739157E+01  0.12625882773E+02  0.51100000000E-03 0. -1.
        -11    1    3    3    0    0 -0.66888889646E+01 -0.11383387338E+02 -0.31596314503E+00  0.13206913941E+02  0.51100000000E-03 0.  1.
         12    1    3    3    0    0 -0.17685237921E+02 -0.59218160778E+01 -0.11582890222E+02  0.21954473163E+02  0.00000000000E+00 0. -1.
</event>
<event>
 7    1  0.5246588E-010  0.4778726E+02  0.7816164E-02  0.1312668E+00
        -11   -1    0    0    0    0  0.00000000000E+00  0.00000000000E+00  0.45593999997E+02  0.45594000000E+02  0.51100000000E-03 0.  1.
         11   -1    0    0    0    0 -0.00000000000E+00 -0.00000000000E+00 -0.45593999997E+02  0.45594000000E+02  0.51100000000E-03 0. -1.
    9900012    2    1    2    0    0 -0.11494502851E+02  0.31350900890E+02 -0.27724024200E+02  0.47787261524E+02  0.19999956593E+02 0.  0.
         12    1    1    2    0    0  0.11494502851E+02 -0.31350900890E+02  0.27724024200E+02  0.43400738476E+02  0.00000000000E+00 0. -1.
         11    1    3    3    0    0 -0.85393809556E+01  0.53254295871E+01 -0.11302443933E+02  0.15133620403E+02  0.51100000000E-03 0. -1.
        -11    1    3    3    0    0 -0.68365541418E+01  0.18950543825E+02 -0.11366153825E+02  0.23131170244E+02  0.51100000000E-03 0.  1.
         12    1    3    3    0    0  0.38814322464E+01  0.70749274773E+01 -0.50554264417E+01  0.95224708768E+01  0.00000000000E+00 0. -1.
</event>
<event>
 7    1  0.3221417E-010  0.4778727E+02  0.7816164E-02  0.1312668E+00
        -11   -1    0    0    0    0  0.00000000000E+00  0.00000000000E+00  0.45593999997E+02  0.45594000000E+02  0.51100000000E-03 0.  1.
         11   -1    0    0    0    0 -0.00000000000E+00 -0.00000000000E+00 -0.45593999997E+02  0.45594000000E+02  0.51100000000E-03 0. -1.
    9900012    2    1    2    0    0 -0.10808699275E+02 -0.38717154852E+02 -0.16363903136E+02  0.47787269757E+02  0.19999994128E+02 0.  0.
         12    1    1    2    0    0  0.10808699275E+02  0.38717154852E+02  0.16363903136E+02  0.43400730243E+02  0.00000000000E+00 0. -1.
         11    1    3    3    0    0 -0.60905878550E+01 -0.29603869486E+02 -0.56968887201E+01  0.30756119559E+02  0.51100000000E-03 0.  1.
        -11    1    3    3    0    0  0.13874065829E+01 -0.63134130122E+01 -0.62541599506E+01  0.89943647823E+01  0.51100000000E-03 0. -1.
         12    1    3    3    0    0 -0.61055180034E+01 -0.27998723536E+01 -0.44128544652E+01  0.80367854156E+01  0.00000000000E+00 0. -1.
</event>
<event>
 7    1  0.3221417E-010  0.4778727E+02  0.7816164E-02  0.1312668E+00
        -11   -1    0    0    0    0  0.00000000000E+00  0.00000000000E+00  0.45593999997E+02  0.45594000000E+02  0.51100000000E-03 0. -1.
         11   -1    0    0    0    0 -0.00000000000E+00 -0.00000000000E+00 -0.45593999997E+02  0.45594000000E+02  0.51100000000E-03 0.  1.
    9900012    2    1    2    0    0 -0.61928398116E+01 -0.37754367532E+02 -0.20490965173E+02  0.47787272052E+02  0.20000004595E+02 0.  0.
         12    1    1    2    0    0  0.61928398116E+01  0.37754367532E+02  0.20490965173E+02  0.43400727948E+02  0.00000000000E+00 0. -1.
         11    1    3    3    0    0 -0.29460705302E+01 -0.64516957579E+01  0.22169555223E+01  0.74309220000E+01  0.51100000000E-03 0. -1.
        -11    1    3    3    0    0  0.40498019022E+01 -0.96522366901E+01 -0.81422984006E+01  0.13261357098E+02  0.51100000000E-03 0.  1.
        -12    1    3    3    0    0 -0.72965711836E+01 -0.21650435084E+02 -0.14565622295E+02  0.27094992954E+02  0.00000000000E+00 0.  1.
</event>
<event>
 7    1  0.3221417E-010  0.4778727E+02  0.7816164E-02  0.1312668E+00
        -11   -1    0    0    0    0  0.00000000000E+00  0.00000000000E+00  0.45593999997E+02  0.45594000000E+02  0.51100000000E-03 0. -1.
         11   -1    0    0    0    0 -0.00000000000E+00 -0.00000000000E+00 -0.45593999997E+02  0.45594000000E+02  0.51100000000E-03 0.  1.
    9900012    2    1    2    0    0 -0.11901388676E+02  0.13148495992E+02 -0.39611834447E+02  0.47787269274E+02  0.19999991927E+02 0.  0.
         12    1    1    2    0    0  0.11901388676E+02 -0.13148495992E+02  0.39611834447E+02  0.43400730726E+02  0.00000000000E+00 0. -1.
         11    1    3    3    0    0 -0.38451690286E+01  0.52355096007E+01 -0.20906812367E+02  0.21892708587E+02  0.51100000000E-03 0.  1.
        -11    1    3    3    0    0  0.14931388628E+01  0.59378534970E+01 -0.18054402040E+01  0.63833519727E+01  0.51100000000E-03 0. -1.
         12    1    3    3    0    0 -0.95493585103E+01  0.19751328945E+01 -0.16899581876E+02  0.19511208714E+02  0.00000000000E+00 0. -1.
</event>
<event>
 7    1  0.3221417E-010  0.4778728E+02  0.7816164E-02  0.1312668E+00
        -11   -1    0    0    0    0  0.00000000000E+00  0.00000000000E+00  0.45593999997E+02  0.45594000000E+02  0.51100000000E-03 0. -1.
         11   -1    0    0    0    0 -0.00000000000E+00 -0.00000000000E+00 -0.45593999997E+02  0.45594000000E+02  0.51100000000E-03 0.  1.
    9900012    2    1    2    0    0 -0.11736124597E+00  0.11817162282E+02 -0.41760786873E+02  0.47787280901E+02  0.20000044939E+02 0.  0.
         12    1    1    2    0    0  0.11736124597E+00 -0.11817162282E+02  0.41760786873E+02  0.43400719099E+02  0.00000000000E+00 0. -1.
         11    1    3    3    0    0 -0.46562212715E+01  0.15560522168E+01 -0.33870552435E+01  0.59643808157E+01  0.51100000000E-03 0. -1.
        -11    1    3    3    0    0 -0.21983919366E+00  0.75544464352E+00 -0.23648214819E+02  0.23661299420E+02  0.51100000000E-03 0.  1.
        -12    1    3    3    0    0  0.47586992192E+01  0.95056654212E+01 -0.14725516811E+02  0.18161600665E+02  0.00000000000E+00 0.  1.
</event>
<event>
 7    1  0.3221417E-010  0.4778726E+02  0.7816164E-02  0.1312668E+00
        -11   -1    0    0    0    0  0.00000000000E+00  0.00000000000E+00  0.45593999997E+02  0.45594000000E+02  0.51100000000E-03 0. -1.
         11   -1    0    0    0    0 -0.00000000000E+00 -0.00000000000E+00 -0.45593999997E+02  0.45594000000E+02  0.51100000000E-03 0.  1.
    9900012    2    1    2    0    0  0.29909119676E+02 -0.91934689341E+01  0.30075722630E+02  0.47787258041E+02  0.19999940713E+02 0.  0.
        -12    1    1    2    0    0 -0.29909119676E+02  0.91934689341E+01 -0.30075722630E+02  0.43400741959E+02  0.00000000000E+00 0.  1.
         11    1    3    3    0    0  0.13258494995E+01  0.20268757424E+00  0.76206388680E+01  0.77377707491E+01  0.51100000000E-03 0. -1.
        -11    1    3    3    0    0  0.95500684079E+01 -0.66051048174E+01  0.16743229519E+01  0.11731776245E+02  0.51100000000E-03 0.  1.
         12    1    3    3    0    0  0.19033201769E+02 -0.27910516909E+01  0.20780760810E+02  0.28317711047E+02  0.00000000000E+00 0. -1.
</event>
<event>
 7    1  0.3221417E-010  0.4778727E+02  0.7816164E-02  0.1312668E+00
        -11   -1    0    0    0    0  0.00000000000E+00  0.00000000000E+00  0.45593999997E+02  0.45594000000E+02  0.51100000000E-03 0. -1.
         11   -1    0    0    0    0 -0.00000000000E+00 -0.00000000000E+00 -0.45593999997E+02  0.45594000000E+02  0.51100000000E-03 0.  1.
    9900012    2    1    2    0    0 -0.79343386081E+01  0.17303509721E+02  0.39003312960E+02  0.47787267291E+02  0.19999982888E+02 0.  0.
        -12    1    1    2    0    0  0.79343386081E+01 -0.17303509721E+02 -0.39003312960E+02  0.43400732709E+02  0.00000000000E+00 0.  1.
         11    1    3    3    0    0 -0.69841453522E+01  0.11628950839E+02  0.25386770140E+02  0.28783656515E+02  0.51100000000E-03 0. -1.
        -11    1    3    3    0    0 -0.41397242494E+01 -0.21733651259E+01  0.60417870250E+01  0.76396350402E+01  0.51100000000E-03 0.  1.
         12    1    3    3    0    0  0.31895309935E+01  0.78479240080E+01  0.75747557943E+01  0.11363975736E+02  0.00000000000E+00 0. -1.
</event>
<event>
 7    1  0.3221417E-010  0.4778727E+02  0.7816164E-02  0.1312668E+00
        -11   -1    0    0    0    0  0.00000000000E+00  0.00000000000E+00  0.45593999997E+02  0.45594000000E+02  0.51100000000E-03 0. -1.
         11   -1    0    0    0    0 -0.00000000000E+00 -0.00000000000E+00 -0.45593999997E+02  0.45594000000E+02  0.51100000000E-03 0.  1.
    9900012    2    1    2    0    0 -0.37768665496E+02 -0.10850370714E+02 -0.18423372370E+02  0.47787270888E+02  0.19999999287E+02 0.  0.
         12    1    1    2    0    0  0.37768665496E+02  0.10850370714E+02  0.18423372370E+02  0.43400729112E+02  0.00000000000E+00 0. -1.
         11    1    3    3    0    0 -0.15874775140E+00  0.14210310072E+01  0.15138005683E+01  0.20823358023E+01  0.51100000000E-03 0. -1.
        -11    1    3    3    0    0 -0.19423249041E+02 -0.97253192084E+01 -0.56692960325E+01  0.22449618143E+02  0.51100000000E-03 0.  1.
        -12    1    3    3    0    0 -0.18186668704E+02 -0.25460825123E+01 -0.14267876905E+02  0.23255316943E+02  0.00000000000E+00 0.  1.
</event>
<event>
 7    1  0.3759962E-010  0.4778727E+02  0.7816164E-02  0.1312668E+00
        -11   -1    0    0    0    0  0.00000000000E+00  0.00000000000E+00  0.45593999997E+02  0.45594000000E+02  0.51100000000E-03 0. -1.
         11   -1    0    0    0    0 -0.00000000000E+00 -0.00000000000E+00 -0.45593999997E+02  0.45594000000E+02  0.51100000000E-03 0.  1.
    9900012    2    1    2    0    0  0.50197868862E+00 -0.33004487262E+02 -0.28179338457E+02  0.47787270998E+02  0.19999999788E+02 0.  0.
         12    1    1    2    0    0 -0.50197868862E+00  0.33004487262E+02  0.28179338457E+02  0.43400729002E+02  0.00000000000E+00 0. -1.
         11    1    3    3    0    0  0.54883306521E+01 -0.10885951846E+01 -0.30457917626E+01  0.63705306329E+01  0.51100000000E-03 0. -1.
        -11    1    3    3    0    0 -0.10288613416E+01 -0.97242203341E+01 -0.11406592373E+02  0.15024292549E+02  0.51100000000E-03 0.  1.
         12    1    3    3    0    0 -0.39574906218E+01 -0.22191671744E+02 -0.13726954321E+02  0.26392447816E+02  0.00000000000E+00 0. -1.
</event>
<event>
 7    1  0.3221417E-010  0.4778727E+02  0.7816164E-02  0.1312668E+00
        -11   -1    0    0    0    0  0.00000000000E+00  0.00000000000E+00  0.45593999997E+02  0.45594000000E+02  0.51100000000E-03 0.  1.
         11   -1    0    0    0    0 -0.00000000000E+00 -0.00000000000E+00 -0.45593999997E+02  0.45594000000E+02  0.51100000000E-03 0. -1.
    9900012    2    1    2    0    0  0.31160881321E+02  0.30172995672E+02 -0.14876882784E+01  0.47787269488E+02  0.19999992904E+02 0.  0.
        -12    1    1    2    0    0 -0.31160881321E+02 -0.30172995672E+02  0.14876882784E+01  0.43400730512E+02  0.00000000000E+00 0.  1.
         11    1    3    3    0    0  0.91834558524E+01  0.22853716851E+01  0.34731374629E+01  0.10080747454E+02  0.51100000000E-03 0. -1.
        -11    1    3    3    0    0  0.79178300676E+01  0.12305075134E+02 -0.77100791835E+01  0.16539414388E+02  0.51100000000E-03 0.  1.
         12    1    3    3    0    0  0.14059595401E+02  0.15582548853E+02  0.27492534422E+01  0.21167107646E+02  0.00000000000E+00 0. -1.
</event>
<event>
 7    1  0.3221417E-010  0.4778727E+02  0.7816164E-02  0.1312668E+00
        -11   -1    0    0    0    0  0.00000000000E+00  0.00000000000E+00  0.45593999997E+02  0.45594000000E+02  0.51100000000E-03 0. -1.
         11   -1    0    0    0    0 -0.00000000000E+00 -0.00000000000E+00 -0.45593999997E+02  0.45594000000E+02  0.51100000000E-03 0.  1.
    9900012    2    1    2    0    0 -0.11793787947E+02 -0.23461863062E+02 -0.34555335356E+02  0.47787266664E+02  0.19999980029E+02 0.  0.
         12    1    1    2    0    0  0.11793787947E+02  0.23461863062E+02  0.34555335356E+02  0.43400733336E+02  0.00000000000E+00 0. -1.
         11    1    3    3    0    0  0.20608512285E+01 -0.14974523011E+01 -0.18651540025E+01  0.31572568622E+01  0.51100000000E-03 0. -1.
        -11    1    3    3    0    0 -0.11339174463E+02 -0.19716637703E+02 -0.34087179526E+02  0.40978756547E+02  0.51100000000E-03 0.  1.
        -12    1    3    3    0    0 -0.25154647123E+01 -0.22477730584E+01  0.13969981724E+01  0.36512532553E+01  0.00000000000E+00 0.  1.
</event>
<event>
 7    1  0.3221417E-010  0.4778726E+02  0.7816164E-02  0.1312668E+00
        -11   -1    0    0    0    0  0.00000000000E+00  0.00000000000E+00  0.45593999997E+02  0.45594000000E+02  0.51100000000E-03 0.  1.
         11   -1    0    0    0    0 -0.00000000000E+00 -0.00000000000E+00 -0.45593999997E+02  0.45594000000E+02  0.51100000000E-03 0. -1.
    9900012    2    1    2    0    0  0.47392001181E+01  0.41911335822E+02  0.10227601842E+02  0.47787263514E+02  0.19999965665E+02 0.  0.
        -12    1    1    2    0    0 -0.47392001181E+01 -0.41911335822E+02 -0.10227601842E+02  0.43400736486E+02  0.00000000000E+00 0.  1.
         11    1    3    3    0    0 -0.17643980857E+01  0.62740637271E+01 -0.32511396048E+01  0.72833292695E+01  0.51100000000E-03 0. -1.
        -11    1    3    3    0    0  0.55445475349E+01  0.78712206031E+01  0.71954405615E+01  0.12019670806E+02  0.51100000000E-03 0.  1.
         12    1    3    3    0    0  0.95905066891E+00  0.27766051491E+02  0.62833008849E+01  0.28484263438E+02  0.00000000000E+00 0. -1.
</event>
<event>
 7    1  0.3221417E-010  0.4778727E+02  0.7816164E-02  0.1312668E+00
        -11   -1    0    0    0    0  0.00000000000E+00  0.00000000000E+00  0.45593999997E+02  0.45594000000E+02  0.51100000000E-03 0. -1.
         11   -1    0    0    0    0 -0.00000000000E+00 -0.00000000000E+00 -0.45593999997E+02  0.45594000000E+02  0.51100000000E-03 0.  1.
    9900012    2    1    2    0    0 -0.21209359116E+02  0.28321990449E+02 -0.25132676371E+02  0.47787268685E+02  0.19999989242E+02 0.  0.
         12    1    1    2    0    0  0.21209359116E+02 -0.28321990449E+02  0.25132676371E+02  0.43400731315E+02  0.00000000000E+00 0. -1.
         11    1    3    3    0    0 -0.10406576013E+02  0.42448765962E+00 -0.51271312189E+01  0.11608810830E+02  0.51100000000E-03 0. -1.
        -11    1    3    3    0    0 -0.74730439369E+01  0.14192010867E+02 -0.10542424163E+02  0.19193808002E+02  0.51100000000E-03 0.  1.
         12    1    3    3    0    0 -0.33297391657E+01  0.13705491923E+02 -0.94631209894E+01  0.16984649853E+02  0.00000000000E+00 0. -1.
</event>
<event>
 7    1  0.3221417E-010  0.4778728E+02  0.7816164E-02  0.1312668E+00
        -11   -1    0    0    0    0  0.00000000000E+00  0.00000000000E+00  0.45593999997E+02  0.45594000000E+02  0.51100000000E-03 0. -1.
         11   -1    0    0    0    0 -0.00000000000E+00 -0.00000000000E+00 -0.45593999997E+02  0.45594000000E+02  0.51100000000E-03 0.  1.
    9900012    2    1    2    0    0 -0.25415053712E+02 -0.32260378339E+02 -0.14034444340E+02  0.47787278881E+02  0.20000035728E+02 0.  0.
         12    1    1    2    0    0  0.25415053712E+02  0.32260378339E+02  0.14034444340E+02  0.43400721119E+02  0.00000000000E+00 0. -1.
         11    1    3    3    0    0 -0.99322577318E+01 -0.18990850058E+02 -0.87864563810E+01  0.23162554815E+02  0.51100000000E-03 0. -1.
        -11    1    3    3    0    0 -0.12158327417E+02 -0.10890450176E+02 -0.93687213961E+01  0.18820195841E+02  0.51100000000E-03 0.  1.
         12    1    3    3    0    0 -0.33244685630E+01 -0.23790781053E+01  0.41207334368E+01  0.58045282249E+01  0.00000000000E+00 0. -1.
</event>
<event>
 7    1  0.3221417E-010  0.4778728E+02  0.7816164E-02  0.1312668E+00
        -11   -1    0    0    0    0  0.00000000000E+00  0.00000000000E+00  0.45593999997E+02  0.45594000000E+02  0.51100000000E-03 0. -1.
         11   -1    0    0    0    0 -0.00000000000E+00 -0.00000000000E+00 -0.45593999997E+02  0.45594000000E+02  0.51100000000E-03 0.  1.
    9900012    2    1    2    0    0 -0.16717223784E+02  0.29014160155E+01  0.39946703483E+02  0.47787275293E+02  0.20000019371E+02 0.  0.
        -12    1    1    2    0    0  0.16717223784E+02 -0.29014160155E+01 -0.39946703483E+02  0.43400724707E+02  0.00000000000E+00 0.  1.
         11    1    3    3    0    0 -0.25959912089E+01 -0.45417824335E+01  0.13778718422E+02  0.14738386602E+02  0.51100000000E-03 0. -1.
        -11    1    3    3    0    0 -0.27965728830E+01  0.57061641635E+01  0.26430653352E+01  0.68823632553E+01  0.51100000000E-03 0.  1.
         12    1    3    3    0    0 -0.11324659692E+02  0.17370342856E+01  0.23524919726E+02  0.26166525435E+02  0.00000000000E+00 0. -1.
</event>
<event>
 7    1  0.3221417E-010  0.4778727E+02  0.7816164E-02  0.1312668E+00
        -11   -1    0    0    0    0  0.00000000000E+00  0.00000000000E+00  0.45593999997E+02  0.45594000000E+02  0.51100000000E-03 0.  1.
         11   -1    0    0    0    0 -0.00000000000E+00 -0.00000000000E+00 -0.45593999997E+02  0.45594000000E+02  0.51100000000E-03 0. -1.
    9900012    2    1    2    0    0 -0.14451070600E+02 -0.32795972576E+02 -0.24478845540E+02  0.47787272614E+02  0.20000007155E+02 0.  0.
         12    1    1    2    0    0  0.14451070600E+02  0.32795972576E+02  0.24478845540E+02  0.43400727386E+02  0.00000000000E+00 0. -1.
         11    1    3    3    0    0  0.35624570612E+01 -0.46824805381E+01 -0.72293743790E+01  0.93209751891E+01  0.51100000000E-03 0. -1.
        -11    1    3    3    0    0 -0.47073289529E+01 -0.10004179043E+02 -0.18154350458E+01  0.11204389714E+02  0.51100000000E-03 0.  1.
        -12    1    3    3    0    0 -0.13306198708E+02 -0.18109312994E+02 -0.15434036115E+02  0.27261907710E+02  0.00000000000E+00 0.  1.
</event>
<event>
 7    1  0.3221417E-010  0.4778727E+02  0.7816164E-02  0.1312668E+00
        -11   -1    0    0    0    0  0.00000000000E+00  0.00000000000E+00  0.45593999997E+02  0.45594000000E+02  0.51100000000E-03 0. -1.
         11   -1    0    0    0    0 -0.00000000000E+00 -0.00000000000E+00 -0.45593999997E+02  0.45594000000E+02  0.51100000000E-03 0.  1.
    9900012    2    1    2    0    0  0.11256404583E+02 -0.39254805441E+02  0.14696149664E+02  0.47787271788E+02  0.20000003391E+02 0.  0.
        -12    1    1    2    0    0 -0.11256404583E+02  0.39254805441E+02 -0.14696149664E+02  0.43400728212E+02  0.00000000000E+00 0.  1.
         11    1    3    3    0    0 -0.15439202535E+01 -0.17874645916E+02  0.44608205361E+01  0.18487443752E+02  0.51100000000E-03 0. -1.
        -11    1    3    3    0    0  0.53376154657E+01 -0.54786536510E+01  0.88238950028E+01  0.11677624243E+02  0.51100000000E-03 0.  1.
         12    1    3    3    0    0  0.74627093712E+01 -0.15901505874E+02  0.14114341254E+01  0.17622203793E+02  0.00000000000E+00 0. -1.
</event>
<event>
 7    1  0.3221417E-010  0.4778727E+02  0.7816164E-02  0.1312668E+00
        -11   -1    0    0    0    0  0.00000000000E+00  0.00000000000E+00  0.45593999997E+02  0.45594000000E+02  0.51100000000E-03 0. -1.
         11   -1    0    0    0    0 -0.00000000000E+00 -0.00000000000E+00 -0.45593999997E+02  0.45594000000E+02  0.51100000000E-03 0.  1.
    9900012    2    1    2    0    0  0.12106283131E+02  0.34833482511E+02 -0.22884270077E+02  0.47787269453E+02  0.19999992744E+02 0.  0.
         12    1    1    2    0    0 -0.12106283131E+02 -0.34833482511E+02  0.22884270077E+02  0.43400730547E+02  0.00000000000E+00 0. -1.
         11    1    3    3    0    0  0.47436281496E+01  0.88173773315E+01 -0.98240237032E+01  0.14027102089E+02  0.51100000000E-03 0. -1.
        -11    1    3    3    0    0  0.67843846876E+01  0.84535843283E+01  0.14961286646E+01  0.10942091428E+02  0.51100000000E-03 0.  1.
        -12    1    3    3    0    0  0.57827029396E+00  0.17562520851E+02 -0.14556375038E+02  0.22818075936E+02  0.00000000000E+00 0.  1.
</event>
<event>
 7    1  0.3221417E-010  0.4778727E+02  0.7816164E-02  0.1312668E+00
        -11   -1    0    0    0    0  0.00000000000E+00  0.00000000000E+00  0.45593999997E+02  0.45594000000E+02  0.51100000000E-03 0. -1.
         11   -1    0    0    0    0 -0.00000000000E+00 -0.00000000000E+00 -0.45593999997E+02  0.45594000000E+02  0.51100000000E-03 0.  1.
    9900012    2    1    2    0    0  0.33040044960E+02  0.17705926369E+02  0.21874162327E+02  0.47787269855E+02  0.19999994578E+02 0.  0.
        -12    1    1    2    0    0 -0.33040044960E+02 -0.17705926369E+02 -0.21874162327E+02  0.43400730145E+02  0.00000000000E+00 0.  1.
         11    1    3    3    0    0  0.22726306553E+02  0.84122456844E+01  0.19562752339E+02  0.31144055072E+02  0.51100000000E-03 0. -1.
        -11    1    3    3    0    0  0.29699453637E+01 -0.68671824457E+00 -0.18574269301E+01  0.35696207743E+01  0.51100000000E-03 0.  1.
        -12    1    3    3    0    0  0.73437930440E+01  0.99803989293E+01  0.41688369181E+01  0.13073594009E+02  0.00000000000E+00 0.  1.
</event>
<event>
 7    1  0.3221417E-010  0.4778727E+02  0.7816164E-02  0.1312668E+00
        -11   -1    0    0    0    0  0.00000000000E+00  0.00000000000E+00  0.45593999997E+02  0.45594000000E+02  0.51100000000E-03 0. -1.
         11   -1    0    0    0    0 -0.00000000000E+00 -0.00000000000E+00 -0.45593999997E+02  0.45594000000E+02  0.51100000000E-03 0.  1.
    9900012    2    1    2    0    0  0.27147399808E+02  0.25671963258E+02  0.22081490685E+02  0.47787271380E+02  0.20000001529E+02 0.  0.
        -12    1    1    2    0    0 -0.27147399808E+02 -0.25671963258E+02 -0.22081490685E+02  0.43400728620E+02  0.00000000000E+00 0.  1.
         11    1    3    3    0    0  0.11705957133E+02  0.18991015459E+02  0.11578691955E+02  0.25134721168E+02  0.51100000000E-03 0. -1.
        -11    1    3    3    0    0 -0.55751461662E+00  0.69028415409E+00 -0.15215782969E+01  0.17613959055E+01  0.51100000000E-03 0.  1.
         12    1    3    3    0    0  0.15998957292E+02  0.59906636456E+01  0.12024377027E+02  0.20891154306E+02  0.00000000000E+00 0. -1.
</event>
<event>
 7    1  0.3221417E-010  0.4778727E+02  0.7816164E-02  0.1312668E+00
        -11   -1    0    0    0    0  0.00000000000E+00  0.00000000000E+00  0.45593999997E+02  0.45594000000E+02  0.51100000000E-03 0.  1.
         11   -1    0    0    0    0 -0.00000000000E+00 -0.00000000000E+00 -0.45593999997E+02  0.45594000000E+02  0.51100000000E-03 0. -1.
    9900012    2    1    2    0    0  0.34917660073E+02  0.24697968986E+02 -0.73750043056E+01  0.47787270219E+02  0.19999996237E+02 0.  0.
         12    1    1    2    0    0 -0.34917660073E+02 -0.24697968986E+02  0.73750043056E+01  0.43400729781E+02  0.00000000000E+00 0. -1.
         11    1    3    3    0    0  0.94235399747E+01  0.99447655477E+01 -0.67137656117E+01  0.15257002209E+02  0.51100000000E-03 0.  1.
        -11    1    3    3    0    0  0.37098310938E+01  0.82168476224E+01 -0.33720936033E+01  0.96255102268E+01  0.51100000000E-03 0. -1.
        -12    1    3    3    0    0  0.21784289004E+02  0.65363558163E+01  0.27108549094E+01  0.22904757783E+02  0.00000000000E+00 0.  1.
</event>
<event>
 7    1  0.3221417E-010  0.4778726E+02  0.7816164E-02  0.1312668E+00
        -11   -1    0    0    0    0  0.00000000000E+00  0.00000000000E+00  0.45593999997E+02  0.45594000000E+02  0.51100000000E-03 0.  1.
         11   -1    0    0    0    0 -0.00000000000E+00 -0.00000000000E+00 -0.45593999997E+02  0.45594000000E+02  0.51100000000E-03 0. -1.
    9900012    2    1    2    0    0 -0.39141426804E+02 -0.18279778795E+02 -0.41740007305E+01  0.47787263980E+02  0.19999967789E+02 0.  0.
         12    1    1    2    0    0  0.39141426804E+02  0.18279778795E+02  0.41740007305E+01  0.43400736020E+02  0.00000000000E+00 0. -1.
         11    1    3    3    0    0 -0.20059431316E+02 -0.13254248712E+02 -0.61946594794E+01  0.24828002336E+02  0.51100000000E-03 0. -1.
        -11    1    3    3    0    0 -0.42727149285E+01 -0.64529538694E+01 -0.91913687403E+00  0.77936845814E+01  0.51100000000E-03 0.  1.
        -12    1    3    3    0    0 -0.14809280559E+02  0.14274237867E+01  0.29397956230E+01  0.15165577063E+02  0.00000000000E+00 0.  1.
</event>
<event>
 7    1  0.3221417E-010  0.4778727E+02  0.7816164E-02  0.1312668E+00
        -11   -1    0    0    0    0  0.00000000000E+00  0.00000000000E+00  0.45593999997E+02  0.45594000000E+02  0.51100000000E-03 0. -1.
         11   -1    0    0    0    0 -0.00000000000E+00 -0.00000000000E+00 -0.45593999997E+02  0.45594000000E+02  0.51100000000E-03 0.  1.
    9900012    2    1    2    0    0 -0.28633369930E+02  0.27348192022E+02 -0.17771606134E+02  0.47787268843E+02  0.19999989962E+02 0.  0.
         12    1    1    2    0    0  0.28633369930E+02 -0.27348192022E+02  0.17771606134E+02  0.43400731157E+02  0.00000000000E+00 0. -1.
         11    1    3    3    0    0  0.99950112010E+00  0.64482223020E+00 -0.48815045863E+01  0.50243293567E+01  0.51100000000E-03 0. -1.
        -11    1    3    3    0    0 -0.11455216476E+02  0.13833242617E+02 -0.92240142365E+01  0.20190666772E+02  0.51100000000E-03 0.  1.
        -12    1    3    3    0    0 -0.18177654574E+02  0.12870127175E+02 -0.36660873108E+01  0.22572272714E+02  0.00000000000E+00 0.  1.
</event>
<event>
 7    1  0.3221417E-010  0.4778727E+02  0.7816164E-02  0.1312668E+00
        -11   -1    0    0    0    0  0.00000000000E+00  0.00000000000E+00  0.45593999997E+02  0.45594000000E+02  0.51100000000E-03 0. -1.
         11   -1    0    0    0    0 -0.00000000000E+00 -0.00000000000E+00 -0.45593999997E+02  0.45594000000E+02  0.51100000000E-03 0.  1.
    9900012    2    1    2    0    0  0.25148778585E+02  0.22995703449E+02 -0.26876753722E+02  0.47787270374E+02  0.19999996943E+02 0.  0.
         12    1    1    2    0    0 -0.25148778585E+02 -0.22995703449E+02  0.26876753722E+02  0.43400729626E+02  0.00000000000E+00 0. -1.
         11    1    3    3    0    0 -0.11464651540E+01  0.25749624536E+01 -0.81387589268E+01  0.86130256656E+01  0.51100000000E-03 0. -1.
        -11    1    3    3    0    0  0.72783301398E+01  0.39411972553E+01 -0.89239510036E+00  0.83248720534E+01  0.51100000000E-03 0.  1.
        -12    1    3    3    0    0  0.19016913600E+02  0.16479543740E+02 -0.17845599695E+02  0.30849372655E+02  0.00000000000E+00 0.  1.
</event>
<event>
 7    1  0.3221417E-010  0.4778727E+02  0.7816164E-02  0.1312668E+00
        -11   -1    0    0    0    0  0.00000000000E+00  0.00000000000E+00  0.45593999997E+02  0.45594000000E+02  0.51100000000E-03 0. -1.
         11   -1    0    0    0    0 -0.00000000000E+00 -0.00000000000E+00 -0.45593999997E+02  0.45594000000E+02  0.51100000000E-03 0.  1.
    9900012    2    1    2    0    0  0.12752133890E+02  0.39392143678E+02 -0.13010197257E+02  0.47787272645E+02  0.20000007298E+02 0.  0.
         12    1    1    2    0    0 -0.12752133890E+02 -0.39392143678E+02  0.13010197257E+02  0.43400727355E+02  0.00000000000E+00 0. -1.
         11    1    3    3    0    0 -0.20566061242E+01  0.14138210323E+02  0.12158874247E+01  0.14338654134E+02  0.51100000000E-03 0. -1.
        -11    1    3    3    0    0  0.66476631755E+01  0.46745662915E+01 -0.34942097687E+01  0.88460441938E+01  0.51100000000E-03 0.  1.
        -12    1    3    3    0    0  0.81610768388E+01  0.20579367063E+02 -0.10731874913E+02  0.24602574317E+02  0.00000000000E+00 0.  1.
</event>
<event>
 7    1  0.3221417E-010  0.4778727E+02  0.7816164E-02  0.1312668E+00
        -11   -1    0    0    0    0  0.00000000000E+00  0.00000000000E+00  0.45593999997E+02  0.45594000000E+02  0.51100000000E-03 0. -1.
         11   -1    0    0    0    0 -0.00000000000E+00 -0.00000000000E+00 -0.45593999997E+02  0.45594000000E+02  0.51100000000E-03 0.  1.
    9900012    2    1    2    0    0 -0.25646699325E+02 -0.16896382971E+02  0.30665651313E+02  0.47787272883E+02  0.20000008383E+02 0.  0.
        -12    1    1    2    0    0  0.25646699325E+02  0.16896382971E+02 -0.30665651313E+02  0.43400727117E+02  0.00000000000E+00 0.  1.
         11    1    3    3    0    0 -0.13918079252E+02 -0.41772855640E+01  0.64621088231E+01  0.15903505760E+02  0.51100000000E-03 0.  1.
        -11    1    3    3    0    0 -0.88295949162E+01 -0.13213875800E+02  0.13719583432E+02  0.20995123954E+02  0.51100000000E-03 0. -1.
        -12    1    3    3    0    0 -0.28990251568E+01  0.49477839284E+00  0.10483959058E+02  0.10888643169E+02  0.00000000000E+00 0.  1.
</event>
<event>
 7    1  0.3221417E-010  0.4778728E+02  0.7816164E-02  0.1312668E+00
        -11   -1    0    0    0    0  0.00000000000E+00  0.00000000000E+00  0.45593999997E+02  0.45594000000E+02  0.51100000000E-03 0. -1.
         11   -1    0    0    0    0 -0.00000000000E+00 -0.00000000000E+00 -0.45593999997E+02  0.45594000000E+02  0.51100000000E-03 0.  1.
    9900012    2    1    2    0    0 -0.11291912399E+02  0.36866633913E+02  0.19924026529E+02  0.47787276333E+02  0.20000024113E+02 0.  0.
        -12    1    1    2    0    0  0.11291912399E+02 -0.36866633913E+02 -0.19924026529E+02  0.43400723667E+02  0.00000000000E+00 0.  1.
         11    1    3    3    0    0 -0.46904466713E+01  0.15495982600E+02  0.66513776329E+01  0.17503330866E+02  0.51100000000E-03 0. -1.
        -11    1    3    3    0    0 -0.11733535972E+01  0.16669869113E+01 -0.33623566055E+01  0.39320536912E+01  0.51100000000E-03 0.  1.
        -12    1    3    3    0    0 -0.54281121308E+01  0.19703664401E+02  0.16635005501E+02  0.26351891776E+02  0.00000000000E+00 0.  1.
</event>
<event>
 7    1  0.3221417E-010  0.4778728E+02  0.7816164E-02  0.1312668E+00
        -11   -1    0    0    0    0  0.00000000000E+00  0.00000000000E+00  0.45593999997E+02  0.45594000000E+02  0.51100000000E-03 0. -1.
         11   -1    0    0    0    0 -0.00000000000E+00 -0.00000000000E+00 -0.45593999997E+02  0.45594000000E+02  0.51100000000E-03 0.  1.
    9900012    2    1    2    0    0 -0.12854902021E+02  0.81000139412E+01 -0.40654193054E+02  0.47787284054E+02  0.20000059314E+02 0.  0.
         12    1    1    2    0    0  0.12854902021E+02 -0.81000139412E+01  0.40654193054E+02  0.43400715946E+02  0.00000000000E+00 0. -1.
         11    1    3    3    0    0 -0.92144100031E+01  0.10075208126E+02 -0.28378552868E+02  0.31492180516E+02  0.51100000000E-03 0. -1.
        -11    1    3    3    0    0 -0.63663987463E+01 -0.22490822604E+01 -0.11680449131E+02  0.13491563889E+02  0.51100000000E-03 0.  1.
         12    1    3    3    0    0  0.27259067284E+01  0.27388807534E+00 -0.59519105458E+00  0.28035396486E+01  0.00000000000E+00 0. -1.
</event>
<event>
 7    1  0.3221417E-010  0.4778727E+02  0.7816164E-02  0.1312668E+00
        -11   -1    0    0    0    0  0.00000000000E+00  0.00000000000E+00  0.45593999997E+02  0.45594000000E+02  0.51100000000E-03 0. -1.
         11   -1    0    0    0    0 -0.00000000000E+00 -0.00000000000E+00 -0.45593999997E+02  0.45594000000E+02  0.51100000000E-03 0.  1.
    9900012    2    1    2    0    0 -0.30599352571E+02 -0.23842417046E+02  0.19463863713E+02  0.47787271677E+02  0.20000002882E+02 0.  0.
        -12    1    1    2    0    0  0.30599352571E+02  0.23842417046E+02 -0.19463863713E+02  0.43400728323E+02  0.00000000000E+00 0.  1.
         11    1    3    3    0    0 -0.14401954688E+02 -0.13213855917E+02  0.62697613541E+01  0.20526378023E+02  0.51100000000E-03 0. -1.
        -11    1    3    3    0    0 -0.77536416188E+01 -0.12824808830E+02  0.97614193762E+01  0.17885189079E+02  0.51100000000E-03 0.  1.
        -12    1    3    3    0    0 -0.84437562646E+01  0.21962477014E+01  0.34326829826E+01  0.93757045752E+01  0.00000000000E+00 0.  1.
</event>
<event>
 7    1  0.3221417E-010  0.4778727E+02  0.7816164E-02  0.1312668E+00
        -11   -1    0    0    0    0  0.00000000000E+00  0.00000000000E+00  0.45593999997E+02  0.45594000000E+02  0.51100000000E-03 0. -1.
         11   -1    0    0    0    0 -0.00000000000E+00 -0.00000000000E+00 -0.45593999997E+02  0.45594000000E+02  0.51100000000E-03 0.  1.
    9900012    2    1    2    0    0 -0.29185975060E+02 -0.29248970579E+02 -0.13277801582E+02  0.47787269188E+02  0.19999991537E+02 0.  0.
         12    1    1    2    0    0  0.29185975060E+02  0.29248970579E+02  0.13277801582E+02  0.43400730812E+02  0.00000000000E+00 0. -1.
         11    1    3    3    0    0 -0.65077110303E+01 -0.13315728740E+02 -0.55315837371E+01  0.15819524444E+02  0.51100000000E-03 0. -1.
        -11    1    3    3    0    0 -0.17213381632E+02 -0.13232481415E+02 -0.11737666397E+02  0.24681407665E+02  0.51100000000E-03 0.  1.
         12    1    3    3    0    0 -0.54648823977E+01 -0.27007604232E+01  0.39914485521E+01  0.72863370790E+01  0.00000000000E+00 0. -1.
</event>
<event>
 7    1  0.3221417E-010  0.4778727E+02  0.7816164E-02  0.1312668E+00
        -11   -1    0    0    0    0  0.00000000000E+00  0.00000000000E+00  0.45593999997E+02  0.45594000000E+02  0.51100000000E-03 0. -1.
         11   -1    0    0    0    0 -0.00000000000E+00 -0.00000000000E+00 -0.45593999997E+02  0.45594000000E+02  0.51100000000E-03 0.  1.
    9900012    2    1    2    0    0 -0.32308208395E+01  0.25975491487E+02  0.34618763619E+02  0.47787272404E+02  0.20000006200E+02 0.  0.
        -12    1    1    2    0    0  0.32308208395E+01 -0.25975491487E+02 -0.34618763619E+02  0.43400727596E+02  0.00000000000E+00 0.  1.
         11    1    3    3    0    0 -0.13073831608E+01  0.69828709235E+01  0.23837806762E+02  0.24873897333E+02  0.51100000000E-03 0.  1.
        -11    1    3    3    0    0 -0.90192716837E-01  0.12045715082E+02  0.10056800757E+02  0.15692247395E+02  0.51100000000E-03 0. -1.
        -12    1    3    3    0    0 -0.18332449619E+01  0.69469054816E+01  0.72415610021E+00  0.72211276763E+01  0.00000000000E+00 0.  1.
</event>
<event>
 7    1  0.3221417E-010  0.4778727E+02  0.7816164E-02  0.1312668E+00
        -11   -1    0    0    0    0  0.00000000000E+00  0.00000000000E+00  0.45593999997E+02  0.45594000000E+02  0.51100000000E-03 0. -1.
         11   -1    0    0    0    0 -0.00000000000E+00 -0.00000000000E+00 -0.45593999997E+02  0.45594000000E+02  0.51100000000E-03 0.  1.
    9900012    2    1    2    0    0  0.39048752544E+02 -0.18783934577E+02  0.24458297550E+01  0.47787270091E+02  0.19999995654E+02 0.  0.
        -12    1    1    2    0    0 -0.39048752544E+02  0.18783934577E+02 -0.24458297550E+01  0.43400729909E+02  0.00000000000E+00 0.  1.
         11    1    3    3    0    0  0.13630503780E+02 -0.15093217572E+02  0.68059953462E+01  0.21445685415E+02  0.51100000000E-03 0. -1.
        -11    1    3    3    0    0  0.78926501943E+01 -0.23752228588E+01 -0.27681458915E+01  0.86947249902E+01  0.51100000000E-03 0.  1.
         12    1    3    3    0    0  0.17525598570E+02 -0.13154941457E+01 -0.15920196998E+01  0.17646859686E+02  0.00000000000E+00 0. -1.
</event>
<event>
 7    1  0.3221417E-010  0.4778727E+02  0.7816164E-02  0.1312668E+00
        -11   -1    0    0    0    0  0.00000000000E+00  0.00000000000E+00  0.45593999997E+02  0.45594000000E+02  0.51100000000E-03 0. -1.
         11   -1    0    0    0    0 -0.00000000000E+00 -0.00000000000E+00 -0.45593999997E+02  0.45594000000E+02  0.51100000000E-03 0.  1.
    9900012    2    1    2    0    0  0.14858429370E+02 -0.25587978960E+02  0.31750680400E+02  0.47787270784E+02  0.19999998814E+02 0.  0.
        -12    1    1    2    0    0 -0.14858429370E+02  0.25587978960E+02 -0.31750680400E+02  0.43400729216E+02  0.00000000000E+00 0.  1.
         11    1    3    3    0    0  0.94509206095E+01 -0.79829830710E+01  0.43683408421E+01  0.13119844551E+02  0.51100000000E-03 0. -1.
        -11    1    3    3    0    0  0.42842182039E+01 -0.11430802287E+02  0.87848385887E+01  0.15039652783E+02  0.51100000000E-03 0.  1.
         12    1    3    3    0    0  0.11232905564E+01 -0.61741936020E+01  0.18597500969E+02  0.19627773450E+02  0.00000000000E+00 0. -1.
</event>
<event>
 7    1  0.3221417E-010  0.4778727E+02  0.7816164E-02  0.1312668E+00
        -11   -1    0    0    0    0  0.00000000000E+00  0.00000000000E+00  0.45593999997E+02  0.45594000000E+02  0.51100000000E-03 0. -1.
         11   -1    0    0    0    0 -0.00000000000E+00 -0.00000000000E+00 -0.45593999997E+02  0.45594000000E+02  0.51100000000E-03 0.  1.
    9900012    2    1    2    0    0  0.36407093394E+02  0.33400668336E+01 -0.23387832921E+02  0.47787271612E+02  0.20000002587E+02 0.  0.
         12    1    1    2    0    0 -0.36407093394E+02 -0.33400668336E+01  0.23387832921E+02  0.43400728388E+02  0.00000000000E+00 0. -1.
         11    1    3    3    0    0 -0.19195114287E+01  0.30686080593E+00 -0.18330195470E+01  0.26718249568E+01  0.51100000000E-03 0. -1.
        -11    1    3    3    0    0  0.23488115780E+02 -0.24733600568E+01 -0.15037414529E+02  0.27998802275E+02  0.51100000000E-03 0.  1.
        -12    1    3    3    0    0  0.14838489043E+02  0.55065660844E+01 -0.65173988452E+01  0.17116644380E+02  0.00000000000E+00 0.  1.
</event>
<event>
 7    1  0.3221417E-010  0.4778733E+02  0.7816164E-02  0.1312667E+00
        -11   -1    0    0    0    0  0.00000000000E+00  0.00000000000E+00  0.45593999997E+02  0.45594000000E+02  0.51100000000E-03 0. -1.
         11   -1    0    0    0    0 -0.00000000000E+00 -0.00000000000E+00 -0.45593999997E+02  0.45594000000E+02  0.51100000000E-03 0.  1.
    9900012    2    1    2    0    0  0.11862446044E+02 -0.63516151056E+01  0.41262058788E+02  0.47787330235E+02  0.20000269872E+02 0.  0.
        -12    1    1    2    0    0 -0.11862446044E+02  0.63516151056E+01 -0.41262058788E+02  0.43400669765E+02  0.00000000000E+00 0.  1.
         11    1    3    3    0    0  0.22318072356E+01 -0.59098313488E+01  0.56398579969E+01  0.84684749864E+01  0.51100000000E-03 0. -1.
        -11    1    3    3    0    0  0.41446453779E+01 -0.34674031348E+01  0.31648096473E+01  0.62623470178E+01  0.51100000000E-03 0.  1.
         12    1    3    3    0    0  0.54859934302E+01  0.30256193780E+01  0.32457391144E+02  0.33056508231E+02  0.00000000000E+00 0. -1.
</event>
<event>
 7    1  0.3221417E-010  0.4778726E+02  0.7816164E-02  0.1312668E+00
        -11   -1    0    0    0    0  0.00000000000E+00  0.00000000000E+00  0.45593999997E+02  0.45594000000E+02  0.51100000000E-03 0. -1.
         11   -1    0    0    0    0 -0.00000000000E+00 -0.00000000000E+00 -0.45593999997E+02  0.45594000000E+02  0.51100000000E-03 0.  1.
    9900012    2    1    2    0    0  0.62912541709E+01  0.10508575921E+02  0.41636687820E+02  0.47787264758E+02  0.19999971337E+02 0.  0.
        -12    1    1    2    0    0 -0.62912541709E+01 -0.10508575921E+02 -0.41636687820E+02  0.43400735242E+02  0.00000000000E+00 0.  1.
         11    1    3    3    0    0 -0.23780265032E+01  0.26916340009E+01  0.16921058344E+02  0.17298038021E+02  0.51100000000E-03 0. -1.
        -11    1    3    3    0    0  0.97017747705E+01  0.61794172962E+01  0.25815911807E+02  0.28262535883E+02  0.51100000000E-03 0.  1.
         12    1    3    3    0    0 -0.10324940964E+01  0.16375246235E+01 -0.11002823309E+01  0.22266908540E+01  0.00000000000E+00 0. -1.
</event>
<event>
 7    1  0.3221417E-010  0.4778727E+02  0.7816164E-02  0.1312668E+00
        -11   -1    0    0    0    0  0.00000000000E+00  0.00000000000E+00  0.45593999997E+02  0.45594000000E+02  0.51100000000E-03 0. -1.
         11   -1    0    0    0    0 -0.00000000000E+00 -0.00000000000E+00 -0.45593999997E+02  0.45594000000E+02  0.51100000000E-03 0.  1.
    9900012    2    1    2    0    0 -0.10478347978E+02 -0.26296493127E+02 -0.32898667498E+02  0.47787266708E+02  0.19999980230E+02 0.  0.
         12    1    1    2    0    0  0.10478347978E+02  0.26296493127E+02  0.32898667498E+02  0.43400733292E+02  0.00000000000E+00 0. -1.
         11    1    3    3    0    0  0.20864160203E+01  0.15216369060E+00 -0.18608634180E+01  0.27998390168E+01  0.51100000000E-03 0. -1.
        -11    1    3    3    0    0 -0.88832278527E+01 -0.20478911348E+02 -0.30710400803E+02  0.37966119960E+02  0.51100000000E-03 0.  1.
        -12    1    3    3    0    0 -0.36815361452E+01 -0.59697454698E+01 -0.32740327754E+00  0.70213077321E+01  0.00000000000E+00 0.  1.
</event>
<event>
 7    1  0.3221417E-010  0.4778727E+02  0.7816164E-02  0.1312668E+00
        -11   -1    0    0    0    0  0.00000000000E+00  0.00000000000E+00  0.45593999997E+02  0.45594000000E+02  0.51100000000E-03 0. -1.
         11   -1    0    0    0    0 -0.00000000000E+00 -0.00000000000E+00 -0.45593999997E+02  0.45594000000E+02  0.51100000000E-03 0.  1.
    9900012    2    1    2    0    0  0.30514479019E+02 -0.18361893762E+02 -0.24805856809E+02  0.47787272998E+02  0.20000008905E+02 0.  0.
         12    1    1    2    0    0 -0.30514479019E+02  0.18361893762E+02  0.24805856809E+02  0.43400727002E+02  0.00000000000E+00 0. -1.
         11    1    3    3    0    0  0.12413429093E+02  0.14070465265E+01 -0.73484589288E+01  0.14493890115E+02  0.51100000000E-03 0. -1.
        -11    1    3    3    0    0  0.14402587541E+02 -0.11132070892E+02 -0.14986037091E+02  0.23578355290E+02  0.51100000000E-03 0.  1.
        -12    1    3    3    0    0  0.36984623849E+01 -0.86368693966E+01 -0.24713607894E+01  0.97150275932E+01  0.00000000000E+00 0.  1.
</event>
<event>
 7    1  0.3221417E-010  0.4778727E+02  0.7816164E-02  0.1312668E+00
        -11   -1    0    0    0    0  0.00000000000E+00  0.00000000000E+00  0.45593999997E+02  0.45594000000E+02  0.51100000000E-03 0. -1.
         11   -1    0    0    0    0 -0.00000000000E+00 -0.00000000000E+00 -0.45593999997E+02  0.45594000000E+02  0.51100000000E-03 0.  1.
    9900012    2    1    2    0    0 -0.95827110209E+01 -0.39366451824E+02 -0.15558835447E+02  0.47787271433E+02  0.20000001770E+02 0.  0.
         12    1    1    2    0    0  0.95827110209E+01  0.39366451824E+02  0.15558835447E+02  0.43400728567E+02  0.00000000000E+00 0. -1.
         11    1    3    3    0    0  0.13292894219E+01  0.12333879061E+01 -0.23807988903E+00  0.18289172722E+01  0.51100000000E-03 0. -1.
        -11    1    3    3    0    0 -0.93433732970E+01 -0.16967054726E+02 -0.94750125738E+01  0.21562825283E+02  0.51100000000E-03 0.  1.
        -12    1    3    3    0    0 -0.15686271457E+01 -0.23632785004E+02 -0.58457429840E+01  0.24395528878E+02  0.00000000000E+00 0.  1.
</event>
<event>
 7    1  0.3221417E-010  0.4778727E+02  0.7816164E-02  0.1312668E+00
        -11   -1    0    0    0    0  0.00000000000E+00  0.00000000000E+00  0.45593999997E+02  0.45594000000E+02  0.51100000000E-03 0. -1.
         11   -1    0    0    0    0 -0.00000000000E+00 -0.00000000000E+00 -0.45593999997E+02  0.45594000000E+02  0.51100000000E-03 0.  1.
    9900012    2    1    2    0    0 -0.61393500876E+01  0.73115119391E+01  0.42337616047E+02  0.47787267761E+02  0.19999985030E+02 0.  0.
        -12    1    1    2    0    0  0.61393500876E+01 -0.73115119391E+01 -0.42337616047E+02  0.43400732239E+02  0.00000000000E+00 0.  1.
         11    1    3    3    0    0 -0.23671278341E+00  0.22226192492E+01  0.27995276640E+02  0.28084365467E+02  0.51100000000E-03 0. -1.
        -11    1    3    3    0    0 -0.70450538177E+01  0.72467475894E+01  0.13955397451E+02  0.17230822737E+02  0.51100000000E-03 0.  1.
         12    1    3    3    0    0  0.11424165136E+01 -0.21578548995E+01  0.38694195525E+00  0.24720795567E+01  0.00000000000E+00 0. -1.
</event>
<event>
 7    1  0.3221417E-010  0.4778727E+02  0.7816164E-02  0.1312668E+00
        -11   -1    0    0    0    0  0.00000000000E+00  0.00000000000E+00  0.45593999997E+02  0.45594000000E+02  0.51100000000E-03 0. -1.
         11   -1    0    0    0    0 -0.00000000000E+00 -0.00000000000E+00 -0.45593999997E+02  0.45594000000E+02  0.51100000000E-03 0.  1.
    9900012    2    1    2    0    0 -0.15880932512E+02  0.33417352151E+02 -0.22687004030E+02  0.47787267355E+02  0.19999983178E+02 0.  0.
         12    1    1    2    0    0  0.15880932512E+02 -0.33417352151E+02  0.22687004030E+02  0.43400732645E+02  0.00000000000E+00 0. -1.
         11    1    3    3    0    0  0.27668751289E+01  0.54509616952E+01 -0.16489436098E+01  0.63314766580E+01  0.51100000000E-03 0. -1.
        -11    1    3    3    0    0 -0.11496993491E+02  0.15493474608E+02 -0.50279480873E+01  0.19937624658E+02  0.51100000000E-03 0.  1.
         12    1    3    3    0    0 -0.71508141501E+01  0.12472915848E+02 -0.16010112333E+02  0.21518166039E+02  0.00000000000E+00 0. -1.
</event>
<event>
 7    1  0.3221417E-010  0.4778728E+02  0.7816164E-02  0.1312668E+00
        -11   -1    0    0    0    0  0.00000000000E+00  0.00000000000E+00  0.45593999997E+02  0.45594000000E+02  0.51100000000E-03 0. -1.
         11   -1    0    0    0    0 -0.00000000000E+00 -0.00000000000E+00 -0.45593999997E+02  0.45594000000E+02  0.51100000000E-03 0.  1.
    9900012    2    1    2    0    0  0.15308129006E+02 -0.22616218520E+02 -0.33731153114E+02  0.47787275995E+02  0.20000022570E+02 0.  0.
         12    1    1    2    0    0 -0.15308129006E+02  0.22616218520E+02  0.33731153114E+02  0.43400724005E+02  0.00000000000E+00 0. -1.
         11    1    3    3    0    0  0.58699092355E+01 -0.50228854551E+01 -0.33048977002E+01  0.84028305825E+01  0.51100000000E-03 0. -1.
        -11    1    3    3    0    0  0.10835507641E+02 -0.10222201477E+02 -0.10876358302E+02  0.18444424605E+02  0.51100000000E-03 0.  1.
         12    1    3    3    0    0 -0.13972878705E+01 -0.73711315880E+01 -0.19549897112E+02  0.20940020807E+02  0.00000000000E+00 0. -1.
</event>
<event>
 7    1  0.3221417E-010  0.4778727E+02  0.7816164E-02  0.1312668E+00
        -11   -1    0    0    0    0  0.00000000000E+00  0.00000000000E+00  0.45593999997E+02  0.45594000000E+02  0.51100000000E-03 0. -1.
         11   -1    0    0    0    0 -0.00000000000E+00 -0.00000000000E+00 -0.45593999997E+02  0.45594000000E+02  0.51100000000E-03 0.  1.
    9900012    2    1    2    0    0 -0.34166443676E+01  0.35607628794E+02  0.24577364924E+02  0.47787267821E+02  0.19999985304E+02 0.  0.
        -12    1    1    2    0    0  0.34166443676E+01 -0.35607628794E+02 -0.24577364924E+02  0.43400732179E+02  0.00000000000E+00 0.  1.
         11    1    3    3    0    0  0.56968045688E+01  0.68333601234E+01  0.27465727405E+01  0.93108568323E+01  0.51100000000E-03 0. -1.
        -11    1    3    3    0    0 -0.55003674701E+01  0.98086534871E+01  0.33101523655E+01  0.11722663284E+02  0.51100000000E-03 0.  1.
         12    1    3    3    0    0 -0.36130814663E+01  0.18965615184E+02  0.18520639818E+02  0.26753747704E+02  0.00000000000E+00 0. -1.
</event>
<event>
 7    1  0.3221417E-010  0.4778727E+02  0.7816164E-02  0.1312668E+00
        -11   -1    0    0    0    0  0.00000000000E+00  0.00000000000E+00  0.45593999997E+02  0.45594000000E+02  0.51100000000E-03 0.  1.
         11   -1    0    0    0    0 -0.00000000000E+00 -0.00000000000E+00 -0.45593999997E+02  0.45594000000E+02  0.51100000000E-03 0. -1.
    9900012    2    1    2    0    0  0.13278599325E+02 -0.19898833378E+02  0.36212403851E+02  0.47787274632E+02  0.20000016356E+02 0.  0.
        -12    1    1    2    0    0 -0.13278599325E+02  0.19898833378E+02 -0.36212403851E+02  0.43400725368E+02  0.00000000000E+00 0.  1.
         11    1    3    3    0    0  0.18799381925E+01 -0.14719814573E+02  0.24685319841E+02  0.28802293739E+02  0.51100000000E-03 0. -1.
        -11    1    3    3    0    0  0.92491676418E+01 -0.53372471233E+01  0.12650050599E+02  0.16554669714E+02  0.51100000000E-03 0.  1.
        -12    1    3    3    0    0  0.21494934909E+01  0.15822831832E+00 -0.11229665893E+01  0.24303111794E+01  0.00000000000E+00 0.  1.
</event>
<event>
 7    1  0.3221417E-010  0.4778727E+02  0.7816164E-02  0.1312668E+00
        -11   -1    0    0    0    0  0.00000000000E+00  0.00000000000E+00  0.45593999997E+02  0.45594000000E+02  0.51100000000E-03 0. -1.
         11   -1    0    0    0    0 -0.00000000000E+00 -0.00000000000E+00 -0.45593999997E+02  0.45594000000E+02  0.51100000000E-03 0.  1.
    9900012    2    1    2    0    0 -0.28550529609E+02 -0.16476554716E+01 -0.32646221522E+02  0.47787270868E+02  0.19999999198E+02 0.  0.
         12    1    1    2    0    0  0.28550529609E+02  0.16476554716E+01  0.32646221522E+02  0.43400729132E+02  0.00000000000E+00 0. -1.
         11    1    3    3    0    0 -0.13007347883E+01  0.15659936845E+01  0.15824535517E+01  0.25784504482E+01  0.51100000000E-03 0. -1.
        -11    1    3    3    0    0 -0.16986058100E+02  0.30985002555E+01 -0.17417508769E+02  0.24525425289E+02  0.51100000000E-03 0.  1.
        -12    1    3    3    0    0 -0.10263736721E+02 -0.63121494115E+01 -0.16811166304E+02  0.20683395132E+02  0.00000000000E+00 0.  1.
</event>
<event>
 7    1  0.3221417E-010  0.4778727E+02  0.7816164E-02  0.1312668E+00
        -11   -1    0    0    0    0  0.00000000000E+00  0.00000000000E+00  0.45593999997E+02  0.45594000000E+02  0.51100000000E-03 0. -1.
         11   -1    0    0    0    0 -0.00000000000E+00 -0.00000000000E+00 -0.45593999997E+02  0.45594000000E+02  0.51100000000E-03 0.  1.
    9900012    2    1    2    0    0 -0.26762684414E+02  0.17562031172E+02  0.29307976828E+02  0.47787265886E+02  0.19999976479E+02 0.  0.
        -12    1    1    2    0    0  0.26762684414E+02 -0.17562031172E+02 -0.29307976828E+02  0.43400734114E+02  0.00000000000E+00 0.  1.
         11    1    3    3    0    0 -0.71733066402E+01  0.26050850474E+01  0.11634685929E+02  0.13914334810E+02  0.51100000000E-03 0. -1.
        -11    1    3    3    0    0 -0.15037849437E+01 -0.41250708506E+00 -0.23502791531E+01  0.28205218685E+01  0.51100000000E-03 0.  1.
        -12    1    3    3    0    0 -0.18085592830E+02  0.15369453210E+02  0.20023570052E+02  0.31052409207E+02  0.00000000000E+00 0.  1.
</event>
<event>
 7    1  0.3221417E-010  0.4778727E+02  0.7816164E-02  0.1312668E+00
        -11   -1    0    0    0    0  0.00000000000E+00  0.00000000000E+00  0.45593999997E+02  0.45594000000E+02  0.51100000000E-03 0. -1.
         11   -1    0    0    0    0 -0.00000000000E+00 -0.00000000000E+00 -0.45593999997E+02  0.45594000000E+02  0.51100000000E-03 0.  1.
    9900012    2    1    2    0    0  0.18425247059E+02  0.36466574455E+02  0.14639752809E+02  0.47787272541E+02  0.20000006824E+02 0.  0.
        -12    1    1    2    0    0 -0.18425247059E+02 -0.36466574455E+02 -0.14639752809E+02  0.43400727459E+02  0.00000000000E+00 0.  1.
         11    1    3    3    0    0  0.19553588772E+01 -0.13127462023E+00  0.46932452008E+01  0.50859819249E+01  0.51100000000E-03 0. -1.
        -11    1    3    3    0    0  0.24248094001E-01  0.34138860609E+01  0.38867996956E+01  0.51732405841E+01  0.51100000000E-03 0.  1.
        -12    1    3    3    0    0  0.16445640088E+02  0.33183963014E+02  0.60597079124E+01  0.37528050032E+02  0.00000000000E+00 0.  1.
</event>
<event>
 7    1  0.3221417E-010  0.4778726E+02  0.7816164E-02  0.1312668E+00
        -11   -1    0    0    0    0  0.00000000000E+00  0.00000000000E+00  0.45593999997E+02  0.45594000000E+02  0.51100000000E-03 0. -1.
         11   -1    0    0    0    0 -0.00000000000E+00 -0.00000000000E+00 -0.45593999997E+02  0.45594000000E+02  0.51100000000E-03 0.  1.
    9900012    2    1    2    0    0  0.33958954249E+02 -0.41979938779E+01 -0.26698129261E+02  0.47787264611E+02  0.19999970666E+02 0.  0.
         12    1    1    2    0    0 -0.33958954249E+02  0.41979938779E+01  0.26698129261E+02  0.43400735389E+02  0.00000000000E+00 0. -1.
         11    1    3    3    0    0  0.61673035302E-01  0.20672444422E+01  0.14309462716E+01  0.25149375023E+01  0.51100000000E-03 0. -1.
        -11    1    3    3    0    0  0.94572715157E+01 -0.51741723074E+01 -0.11040771196E+02  0.15430835119E+02  0.51100000000E-03 0.  1.
         12    1    3    3    0    0  0.24440009698E+02 -0.10910660127E+01 -0.17088304336E+02  0.29841491990E+02  0.00000000000E+00 0. -1.
</event>
<event>
 7    1  0.3221417E-010  0.4778726E+02  0.7816164E-02  0.1312668E+00
        -11   -1    0    0    0    0  0.00000000000E+00  0.00000000000E+00  0.45593999997E+02  0.45594000000E+02  0.51100000000E-03 0. -1.
         11   -1    0    0    0    0 -0.00000000000E+00 -0.00000000000E+00 -0.45593999997E+02  0.45594000000E+02  0.51100000000E-03 0.  1.
    9900012    2    1    2    0    0 -0.40570031231E+02  0.13928325882E+02 -0.66104891330E+01  0.47787259654E+02  0.19999948068E+02 0.  0.
         12    1    1    2    0    0  0.40570031231E+02 -0.13928325882E+02  0.66104891330E+01  0.43400740346E+02  0.00000000000E+00 0. -1.
         11    1    3    3    0    0 -0.54885758313E+01  0.24941140092E+01  0.33078637072E+01  0.68765566902E+01  0.51100000000E-03 0. -1.
        -11    1    3    3    0    0 -0.22972928775E+02  0.93678250611E+01 -0.13327746196E+02  0.28162748833E+02  0.51100000000E-03 0.  1.
         12    1    3    3    0    0 -0.12108526625E+02  0.20663868122E+01  0.34093933561E+01  0.12747954131E+02  0.00000000000E+00 0. -1.
</event>
<event>
 7    1  0.3221417E-010  0.4778728E+02  0.7816164E-02  0.1312668E+00
        -11   -1    0    0    0    0  0.00000000000E+00  0.00000000000E+00  0.45593999997E+02  0.45594000000E+02  0.51100000000E-03 0. -1.
         11   -1    0    0    0    0 -0.00000000000E+00 -0.00000000000E+00 -0.45593999997E+02  0.45594000000E+02  0.51100000000E-03 0.  1.
    9900012    2    1    2    0    0  0.13856745505E+02 -0.96989738941E+01 -0.39969281196E+02  0.47787275007E+02  0.20000018067E+02 0.  0.
         12    1    1    2    0    0 -0.13856745505E+02  0.96989738941E+01  0.39969281196E+02  0.43400724993E+02  0.00000000000E+00 0. -1.
         11    1    3    3    0    0  0.10020199936E+01  0.60412469773E+00  0.69804894234E+00  0.13624548818E+01  0.51100000000E-03 0. -1.
        -11    1    3    3    0    0  0.27868296965E+01 -0.65572820447E+01 -0.31521399881E+02  0.32316605921E+02  0.51100000000E-03 0.  1.
        -12    1    3    3    0    0  0.10067895815E+02 -0.37458165471E+01 -0.91459302578E+01  0.14108214204E+02  0.00000000000E+00 0.  1.
</event>
<event>
 7    1  0.3221417E-010  0.4778726E+02  0.7816164E-02  0.1312668E+00
        -11   -1    0    0    0    0  0.00000000000E+00  0.00000000000E+00  0.45593999997E+02  0.45594000000E+02  0.51100000000E-03 0. -1.
         11   -1    0    0    0    0 -0.00000000000E+00 -0.00000000000E+00 -0.45593999997E+02  0.45594000000E+02  0.51100000000E-03 0.  1.
    9900012    2    1    2    0    0 -0.20169977580E+01 -0.40503371015E+02  0.15460681015E+02  0.47787262668E+02  0.19999961808E+02 0.  0.
        -12    1    1    2    0    0  0.20169977580E+01  0.40503371015E+02 -0.15460681015E+02  0.43400737332E+02  0.00000000000E+00 0.  1.
         11    1    3    3    0    0  0.62089847177E+00 -0.12079191131E+02  0.72984805153E+01  0.14126577483E+02  0.51100000000E-03 0.  1.
        -11    1    3    3    0    0 -0.49494475660E+01 -0.15866975249E+02  0.11800720934E+02  0.20384183810E+02  0.51100000000E-03 0. -1.
        -12    1    3    3    0    0  0.23115513363E+01 -0.12557204635E+02 -0.36385204341E+01  0.13276501375E+02  0.00000000000E+00 0.  1.
</event>
<event>
 7    1  0.3221417E-010  0.4778730E+02  0.7816164E-02  0.1312668E+00
        -11   -1    0    0    0    0  0.00000000000E+00  0.00000000000E+00  0.45593999997E+02  0.45594000000E+02  0.51100000000E-03 0. -1.
         11   -1    0    0    0    0 -0.00000000000E+00 -0.00000000000E+00 -0.45593999997E+02  0.45594000000E+02  0.51100000000E-03 0.  1.
    9900012    2    1    2    0    0 -0.23695023027E+02  0.68878044833E+01  0.35703289952E+02  0.47787298620E+02  0.20000125730E+02 0.  0.
        -12    1    1    2    0    0  0.23695023027E+02 -0.68878044833E+01 -0.35703289952E+02  0.43400701380E+02  0.00000000000E+00 0.  1.
         11    1    3    3    0    0 -0.15553290903E+02 -0.87742365172E+00  0.18366869028E+02  0.24083533967E+02  0.51100000000E-03 0. -1.
        -11    1    3    3    0    0 -0.36877001612E+01 -0.21551517385E+01  0.15695530679E+01  0.45505283857E+01  0.51100000000E-03 0.  1.
        -12    1    3    3    0    0 -0.44540319634E+01  0.99203798735E+01  0.15766867855E+02  0.19153236268E+02  0.00000000000E+00 0.  1.
</event>
<event>
 7    1  0.3221417E-010  0.4778727E+02  0.7816164E-02  0.1312668E+00
        -11   -1    0    0    0    0  0.00000000000E+00  0.00000000000E+00  0.45593999997E+02  0.45594000000E+02  0.51100000000E-03 0. -1.
         11   -1    0    0    0    0 -0.00000000000E+00 -0.00000000000E+00 -0.45593999997E+02  0.45594000000E+02  0.51100000000E-03 0.  1.
    9900012    2    1    2    0    0  0.10593536243E+02 -0.19974991314E+02  0.37045921819E+02  0.47787267155E+02  0.19999982265E+02 0.  0.
        -12    1    1    2    0    0 -0.10593536243E+02  0.19974991314E+02 -0.37045921819E+02  0.43400732845E+02  0.00000000000E+00 0.  1.
         11    1    3    3    0    0  0.46091767268E+01 -0.36533633410E+01  0.20837030046E+02  0.21651175377E+02  0.51100000000E-03 0. -1.
        -11    1    3    3    0    0  0.76812804967E+00 -0.44338084756E+01 -0.97048767659E+00  0.46033167271E+01  0.51100000000E-03 0.  1.
         12    1    3    3    0    0  0.52162314661E+01 -0.11887819498E+02  0.17179379449E+02  0.21532775050E+02  0.00000000000E+00 0. -1.
</event>
<event>
 7    1  0.3221417E-010  0.4778727E+02  0.7816164E-02  0.1312668E+00
        -11   -1    0    0    0    0  0.00000000000E+00  0.00000000000E+00  0.45593999997E+02  0.45594000000E+02  0.51100000000E-03 0. -1.
         11   -1    0    0    0    0 -0.00000000000E+00 -0.00000000000E+00 -0.45593999997E+02  0.45594000000E+02  0.51100000000E-03 0.  1.
    9900012    2    1    2    0    0 -0.29203430828E+01  0.18943557665E+02 -0.38938881829E+02  0.47787270757E+02  0.19999998689E+02 0.  0.
         12    1    1    2    0    0  0.29203430828E+01 -0.18943557665E+02  0.38938881829E+02  0.43400729243E+02  0.00000000000E+00 0. -1.
         11    1    3    3    0    0  0.35819881826E+01 -0.42408155434E-01 -0.65857035130E+01  0.74969279585E+01  0.51100000000E-03 0. -1.
        -11    1    3    3    0    0 -0.64588696558E+01  0.76948234426E+01 -0.24658656131E+02  0.26626615021E+02  0.51100000000E-03 0.  1.
        -12    1    3    3    0    0 -0.43461609608E-01  0.11291142378E+02 -0.76945221856E+01  0.13663727778E+02  0.00000000000E+00 0.  1.
</event>
<event>
 7    1  0.3221417E-010  0.4778728E+02  0.7816164E-02  0.1312668E+00
        -11   -1    0    0    0    0  0.00000000000E+00  0.00000000000E+00  0.45593999997E+02  0.45594000000E+02  0.51100000000E-03 0. -1.
         11   -1    0    0    0    0 -0.00000000000E+00 -0.00000000000E+00 -0.45593999997E+02  0.45594000000E+02  0.51100000000E-03 0.  1.
    9900012    2    1    2    0    0 -0.79997679568E+01 -0.18452541655E+02  0.38459463403E+02  0.47787275281E+02  0.20000019317E+02 0.  0.
        -12    1    1    2    0    0  0.79997679568E+01  0.18452541655E+02 -0.38459463403E+02  0.43400724719E+02  0.00000000000E+00 0.  1.
         11    1    3    3    0    0 -0.28512608561E+01 -0.16334027011E+02  0.38019431518E+02  0.41477792854E+02  0.51100000000E-03 0. -1.
        -11    1    3    3    0    0 -0.36260190942E+01 -0.11383972704E+01  0.16378855683E+01  0.41384335457E+01  0.51100000000E-03 0.  1.
        -12    1    3    3    0    0 -0.15224880065E+01 -0.98011737448E+00 -0.11978536835E+01  0.21710488813E+01  0.00000000000E+00 0.  1.
</event>
<event>
 7    1  0.3221417E-010  0.4778727E+02  0.7816164E-02  0.1312668E+00
        -11   -1    0    0    0    0  0.00000000000E+00  0.00000000000E+00  0.45593999997E+02  0.45594000000E+02  0.51100000000E-03 0. -1.
         11   -1    0    0    0    0 -0.00000000000E+00 -0.00000000000E+00 -0.45593999997E+02  0.45594000000E+02  0.51100000000E-03 0.  1.
    9900012    2    1    2    0    0  0.69814209419E+01  0.14405298694E+01 -0.42811303239E+02  0.47787273627E+02  0.20000011776E+02 0.  0.
         12    1    1    2    0    0 -0.69814209419E+01 -0.14405298694E+01  0.42811303239E+02  0.43400726373E+02  0.00000000000E+00 0. -1.
         11    1    3    3    0    0  0.58431556888E+01  0.13143440808E+01 -0.24370900651E+01  0.64660170903E+01  0.51100000000E-03 0. -1.
        -11    1    3    3    0    0 -0.41387205759E+00 -0.39024590842E+01 -0.12130796471E+02  0.12749772557E+02  0.51100000000E-03 0.  1.
        -12    1    3    3    0    0  0.15521373107E+01  0.40286448728E+01 -0.28243416703E+02  0.28571483979E+02  0.00000000000E+00 0.  1.
</event>
<event>
 7    1  0.3221417E-010  0.4778727E+02  0.7816164E-02  0.1312668E+00
        -11   -1    0    0    0    0  0.00000000000E+00  0.00000000000E+00  0.45593999997E+02  0.45594000000E+02  0.51100000000E-03 0.  1.
         11   -1    0    0    0    0 -0.00000000000E+00 -0.00000000000E+00 -0.45593999997E+02  0.45594000000E+02  0.51100000000E-03 0. -1.
    9900012    2    1    2    0    0 -0.33949063389E+02 -0.66994595806E+01  0.26195450505E+02  0.47787270849E+02  0.19999999108E+02 0.  0.
        -12    1    1    2    0    0  0.33949063389E+02  0.66994595806E+01 -0.26195450505E+02  0.43400729151E+02  0.00000000000E+00 0.  1.
         11    1    3    3    0    0 -0.25201033608E+02  0.19908505421E+01  0.20341918188E+02  0.32447638075E+02  0.51100000000E-03 0. -1.
        -11    1    3    3    0    0  0.62227488954E+00 -0.93425943964E+00  0.24713466919E+01  0.27143362856E+01  0.51100000000E-03 0.  1.
        -12    1    3    3    0    0 -0.93703046706E+01 -0.77560506831E+01  0.33821856255E+01  0.12625296489E+02  0.00000000000E+00 0.  1.
</event>
<event>
 7    1  0.3221417E-010  0.4778727E+02  0.7816164E-02  0.1312668E+00
        -11   -1    0    0    0    0  0.00000000000E+00  0.00000000000E+00  0.45593999997E+02  0.45594000000E+02  0.51100000000E-03 0. -1.
         11   -1    0    0    0    0 -0.00000000000E+00 -0.00000000000E+00 -0.45593999997E+02  0.45594000000E+02  0.51100000000E-03 0.  1.
    9900012    2    1    2    0    0 -0.18229977127E+02  0.25813154487E+02  0.29748485921E+02  0.47787269301E+02  0.19999992050E+02 0.  0.
        -12    1    1    2    0    0  0.18229977127E+02 -0.25813154487E+02 -0.29748485921E+02  0.43400730699E+02  0.00000000000E+00 0.  1.
         11    1    3    3    0    0 -0.38910809906E+01  0.52657435240E+01  0.19473725434E+02  0.20544939734E+02  0.51100000000E-03 0. -1.
        -11    1    3    3    0    0 -0.51518112956E+01  0.50536595979E+01  0.28305981079E+01  0.77519623881E+01  0.51100000000E-03 0.  1.
        -12    1    3    3    0    0 -0.91870848404E+01  0.15493751365E+02  0.74441623794E+01  0.19490367179E+02  0.00000000000E+00 0.  1.
</event>
<event>
 7    1  0.3221417E-010  0.4778727E+02  0.7816164E-02  0.1312668E+00
        -11   -1    0    0    0    0  0.00000000000E+00  0.00000000000E+00  0.45593999997E+02  0.45594000000E+02  0.51100000000E-03 0. -1.
         11   -1    0    0    0    0 -0.00000000000E+00 -0.00000000000E+00 -0.45593999997E+02  0.45594000000E+02  0.51100000000E-03 0.  1.
    9900012    2    1    2    0    0 -0.19131399285E+02 -0.23796880367E+02  0.30843499292E+02  0.47787269564E+02  0.19999993250E+02 0.  0.
        -12    1    1    2    0    0  0.19131399285E+02  0.23796880367E+02 -0.30843499292E+02  0.43400730436E+02  0.00000000000E+00 0.  1.
         11    1    3    3    0    0 -0.64623997261E+01 -0.34889800764E+01  0.11294146455E+02  0.13471946281E+02  0.51100000000E-03 0.  1.
        -11    1    3    3    0    0 -0.12739280338E+02 -0.15888399284E+02  0.78789685230E+01  0.21835948356E+02  0.51100000000E-03 0. -1.
         12    1    3    3    0    0  0.70280779798E-01 -0.44195010070E+01  0.11670384314E+02  0.12479374927E+02  0.00000000000E+00 0. -1.
</event>
<event>
 7    1  0.3221417E-010  0.4778727E+02  0.7816164E-02  0.1312668E+00
        -11   -1    0    0    0    0  0.00000000000E+00  0.00000000000E+00  0.45593999997E+02  0.45594000000E+02  0.51100000000E-03 0.  1.
         11   -1    0    0    0    0 -0.00000000000E+00 -0.00000000000E+00 -0.45593999997E+02  0.45594000000E+02  0.51100000000E-03 0. -1.
    9900012    2    1    2    0    0  0.25012729718E+02 -0.27536003104E+02 -0.22355199859E+02  0.47787273329E+02  0.20000010414E+02 0.  0.
         12    1    1    2    0    0 -0.25012729718E+02  0.27536003104E+02  0.22355199859E+02  0.43400726671E+02  0.00000000000E+00 0. -1.
         11    1    3    3    0    0  0.17101205117E+02 -0.94591834134E+01 -0.12136006614E+02  0.23004565288E+02  0.51100000000E-03 0. -1.
        -11    1    3    3    0    0  0.10580208903E+02 -0.12370312025E+02 -0.74156161641E+01  0.17887336397E+02  0.51100000000E-03 0.  1.
        -12    1    3    3    0    0 -0.26686843028E+01 -0.57065076662E+01 -0.28035770805E+01  0.68953716433E+01  0.00000000000E+00 0.  1.
</event>
<event>
 7    1  0.5067727E-010  0.4778726E+02  0.7816164E-02  0.1312668E+00
        -11   -1    0    0    0    0  0.00000000000E+00  0.00000000000E+00  0.45593999997E+02  0.45594000000E+02  0.51100000000E-03 0. -1.
         11   -1    0    0    0    0 -0.00000000000E+00 -0.00000000000E+00 -0.45593999997E+02  0.45594000000E+02  0.51100000000E-03 0.  1.
    9900012    2    1    2    0    0 -0.27897544660E+02 -0.33375142402E+01 -0.33078880966E+02  0.47787258471E+02  0.19999942671E+02 0.  0.
         12    1    1    2    0    0  0.27897544660E+02  0.33375142402E+01  0.33078880966E+02  0.43400741529E+02  0.00000000000E+00 0. -1.
         11    1    3    3    0    0 -0.68138476262E+01  0.60986172852E+01 -0.15792116292E+02  0.18248632538E+02  0.51100000000E-03 0. -1.
        -11    1    3    3    0    0 -0.12980205335E+02 -0.27956993251E+01 -0.11525161081E+02  0.17582121699E+02  0.51100000000E-03 0.  1.
         12    1    3    3    0    0 -0.81034916990E+01 -0.66404322003E+01 -0.57616035932E+01  0.11956504234E+02  0.00000000000E+00 0. -1.
</event>
<event>
 7    1  0.3221417E-010  0.4778727E+02  0.7816164E-02  0.1312668E+00
        -11   -1    0    0    0    0  0.00000000000E+00  0.00000000000E+00  0.45593999997E+02  0.45594000000E+02  0.51100000000E-03 0. -1.
         11   -1    0    0    0    0 -0.00000000000E+00 -0.00000000000E+00 -0.45593999997E+02  0.45594000000E+02  0.51100000000E-03 0.  1.
    9900012    2    1    2    0    0 -0.12879920798E+02  0.63110030686E+01 -0.40962203735E+02  0.47787271269E+02  0.20000001024E+02 0.  0.
         12    1    1    2    0    0  0.12879920798E+02 -0.63110030686E+01  0.40962203735E+02  0.43400728731E+02  0.00000000000E+00 0. -1.
         11    1    3    3    0    0 -0.16517105623E+01  0.74010958927E+01 -0.19017659775E+02  0.20473782058E+02  0.51100000000E-03 0.  1.
        -11    1    3    3    0    0 -0.70685850307E+01  0.20881464223E+01 -0.20642846371E+02  0.21919223443E+02  0.51100000000E-03 0. -1.
         12    1    3    3    0    0 -0.41596252054E+01 -0.31782392464E+01 -0.13016975902E+01  0.53942657677E+01  0.00000000000E+00 0. -1.
</event>
<event>
 7    1  0.3221417E-010  0.4778727E+02  0.7816164E-02  0.1312668E+00
        -11   -1    0    0    0    0  0.00000000000E+00  0.00000000000E+00  0.45593999997E+02  0.45594000000E+02  0.51100000000E-03 0. -1.
         11   -1    0    0    0    0 -0.00000000000E+00 -0.00000000000E+00 -0.45593999997E+02  0.45594000000E+02  0.51100000000E-03 0.  1.
    9900012    2    1    2    0    0 -0.19013936228E+01 -0.20023774143E+02  0.38458501427E+02  0.47787272349E+02  0.20000005946E+02 0.  0.
        -12    1    1    2    0    0  0.19013936228E+01  0.20023774143E+02 -0.38458501427E+02  0.43400727651E+02  0.00000000000E+00 0.  1.
         11    1    3    3    0    0 -0.13803298386E+01  0.85011119546E+00  0.28324062533E+01  0.32635142029E+01  0.51100000000E-03 0. -1.
        -11    1    3    3    0    0 -0.23354099099E+01  0.11309514508E+01 -0.18317036771E-01  0.25949039300E+01  0.51100000000E-03 0.  1.
         12    1    3    3    0    0  0.18143461257E+01 -0.22004836789E+02  0.35644412211E+02  0.41928854216E+02  0.00000000000E+00 0. -1.
</event>
<event>
 7    1  0.3221417E-010  0.4778728E+02  0.7816164E-02  0.1312668E+00
        -11   -1    0    0    0    0  0.00000000000E+00  0.00000000000E+00  0.45593999997E+02  0.45594000000E+02  0.51100000000E-03 0.  1.
         11   -1    0    0    0    0 -0.00000000000E+00 -0.00000000000E+00 -0.45593999997E+02  0.45594000000E+02  0.51100000000E-03 0. -1.
    9900012    2    1    2    0    0  0.14199979253E+02 -0.40666196146E+02 -0.53144613815E+01  0.47787280887E+02  0.20000044876E+02 0.  0.
         12    1    1    2    0    0 -0.14199979253E+02  0.40666196146E+02  0.53144613815E+01  0.43400719113E+02  0.00000000000E+00 0. -1.
         11    1    3    3    0    0  0.14927302295E+02 -0.22760432112E+02 -0.60538323856E+01  0.27883875457E+02  0.51100000000E-03 0. -1.
        -11    1    3    3    0    0  0.22248819342E+01 -0.16376717638E+02  0.10734491738E+01  0.16561982780E+02  0.51100000000E-03 0.  1.
         12    1    3    3    0    0 -0.29522049757E+01 -0.15290463965E+01 -0.33407816974E+00  0.33414226498E+01  0.00000000000E+00 0. -1.
</event>
<event>
 7    1  0.3221417E-010  0.4778727E+02  0.7816164E-02  0.1312668E+00
        -11   -1    0    0    0    0  0.00000000000E+00  0.00000000000E+00  0.45593999997E+02  0.45594000000E+02  0.51100000000E-03 0. -1.
         11   -1    0    0    0    0 -0.00000000000E+00 -0.00000000000E+00 -0.45593999997E+02  0.45594000000E+02  0.51100000000E-03 0.  1.
    9900012    2    1    2    0    0 -0.13643772956E+02 -0.62839996967E+01 -0.40718326565E+02  0.47787270618E+02  0.19999998054E+02 0.  0.
         12    1    1    2    0    0  0.13643772956E+02  0.62839996967E+01  0.40718326565E+02  0.43400729382E+02  0.00000000000E+00 0. -1.
         11    1    3    3    0    0 -0.44515070997E+00 -0.75067985248E+01 -0.14280965921E+02  0.16139893777E+02  0.51100000000E-03 0. -1.
        -11    1    3    3    0    0 -0.28422609633E+01 -0.13597969824E+01 -0.17336906615E+02  0.17620891761E+02  0.51100000000E-03 0.  1.
         12    1    3    3    0    0 -0.10356361283E+02  0.25825958105E+01 -0.91004540285E+01  0.14026485079E+02  0.00000000000E+00 0. -1.
</event>
<event>
 7    1  0.3221417E-010  0.4778728E+02  0.7816164E-02  0.1312668E+00
        -11   -1    0    0    0    0  0.00000000000E+00  0.00000000000E+00  0.45593999997E+02  0.45594000000E+02  0.51100000000E-03 0. -1.
         11   -1    0    0    0    0 -0.00000000000E+00 -0.00000000000E+00 -0.45593999997E+02  0.45594000000E+02  0.51100000000E-03 0.  1.
    9900012    2    1    2    0    0 -0.40002691803E+01  0.24254037622E+02 -0.35768176278E+02  0.47787275020E+02  0.20000018128E+02 0.  0.
         12    1    1    2    0    0  0.40002691803E+01 -0.24254037622E+02  0.35768176278E+02  0.43400724980E+02  0.00000000000E+00 0. -1.
         11    1    3    3    0    0  0.26613580191E+00 -0.11761381052E+01 -0.95204697670E+00  0.15363993018E+01  0.51100000000E-03 0. -1.
        -11    1    3    3    0    0  0.97100383880E+00  0.88467044450E-01 -0.11121926801E+02  0.11164583776E+02  0.51100000000E-03 0.  1.
        -12    1    3    3    0    0 -0.52374088210E+01  0.25341708683E+02 -0.23694202501E+02  0.35086291943E+02  0.00000000000E+00 0.  1.
</event>
<event>
 7    1  0.3221417E-010  0.4778727E+02  0.7816164E-02  0.1312668E+00
        -11   -1    0    0    0    0  0.00000000000E+00  0.00000000000E+00  0.45593999997E+02  0.45594000000E+02  0.51100000000E-03 0.  1.
         11   -1    0    0    0    0 -0.00000000000E+00 -0.00000000000E+00 -0.45593999997E+02  0.45594000000E+02  0.51100000000E-03 0. -1.
    9900012    2    1    2    0    0 -0.14369886982E+02  0.35998470483E+02  0.19525360319E+02  0.47787271612E+02  0.20000002587E+02 0.  0.
        -12    1    1    2    0    0  0.14369886982E+02 -0.35998470483E+02 -0.19525360319E+02  0.43400728388E+02  0.00000000000E+00 0.  1.
         11    1    3    3    0    0 -0.31584625553E+01  0.63792021052E+01 -0.89100970132E-01  0.71188513439E+01  0.51100000000E-03 0. -1.
        -11    1    3    3    0    0 -0.48810261873E+01  0.76117513415E+01  0.14682398856E+02  0.17243433868E+02  0.51100000000E-03 0.  1.
        -12    1    3    3    0    0 -0.63303982391E+01  0.22007517037E+02  0.49320624331E+01  0.23424986400E+02  0.00000000000E+00 0.  1.
</event>
<event>
 7    1  0.3221417E-010  0.4778727E+02  0.7816164E-02  0.1312668E+00
        -11   -1    0    0    0    0  0.00000000000E+00  0.00000000000E+00  0.45593999997E+02  0.45594000000E+02  0.51100000000E-03 0. -1.
         11   -1    0    0    0    0 -0.00000000000E+00 -0.00000000000E+00 -0.45593999997E+02  0.45594000000E+02  0.51100000000E-03 0.  1.
    9900012    2    1    2    0    0 -0.27519181424E+02  0.16863343459E+01  0.33518268453E+02  0.47787269708E+02  0.19999993909E+02 0.  0.
        -12    1    1    2    0    0  0.27519181424E+02 -0.16863343459E+01 -0.33518268453E+02  0.43400730292E+02  0.00000000000E+00 0.  1.
         11    1    3    3    0    0 -0.85629251210E+01 -0.37549719150E+01  0.16772786099E+02  0.19202860581E+02  0.51100000000E-03 0. -1.
        -11    1    3    3    0    0 -0.10681775384E+02 -0.12313491532E+01  0.29143734386E+01  0.11140472113E+02  0.51100000000E-03 0.  1.
         12    1    3    3    0    0 -0.82744809189E+01  0.66726554141E+01  0.13831108915E+02  0.17443937015E+02  0.00000000000E+00 0. -1.
</event>
<event>
 7    1  0.3221417E-010  0.4778727E+02  0.7816164E-02  0.1312668E+00
        -11   -1    0    0    0    0  0.00000000000E+00  0.00000000000E+00  0.45593999997E+02  0.45594000000E+02  0.51100000000E-03 0. -1.
         11   -1    0    0    0    0 -0.00000000000E+00 -0.00000000000E+00 -0.45593999997E+02  0.45594000000E+02  0.51100000000E-03 0.  1.
    9900012    2    1    2    0    0 -0.99935433880E+00  0.15205600858E+02  0.40637594611E+02  0.47787273021E+02  0.20000009011E+02 0.  0.
        -12    1    1    2    0    0  0.99935433880E+00 -0.15205600858E+02 -0.40637594611E+02  0.43400726979E+02  0.00000000000E+00 0.  1.
         11    1    3    3    0    0 -0.18753157066E+01 -0.11183035097E+01  0.36264319334E+01  0.42330155407E+01  0.51100000000E-03 0. -1.
        -11    1    3    3    0    0  0.56453647619E+01  0.17183093652E+02  0.30024506474E+02  0.35051388561E+02  0.51100000000E-03 0.  1.
        -12    1    3    3    0    0 -0.47694033941E+01 -0.85918928389E+00  0.69866562032E+01  0.85028689195E+01  0.00000000000E+00 0.  1.
</event>
<event>
 7    1  0.3221417E-010  0.4778727E+02  0.7816164E-02  0.1312668E+00
        -11   -1    0    0    0    0  0.00000000000E+00  0.00000000000E+00  0.45593999997E+02  0.45594000000E+02  0.51100000000E-03 0. -1.
         11   -1    0    0    0    0 -0.00000000000E+00 -0.00000000000E+00 -0.45593999997E+02  0.45594000000E+02  0.51100000000E-03 0.  1.
    9900012    2    1    2    0    0 -0.25574137604E+01  0.13338887999E+02 -0.41220830501E+02  0.47787272294E+02  0.20000005698E+02 0.  0.
         12    1    1    2    0    0  0.25574137604E+01 -0.13338887999E+02  0.41220830501E+02  0.43400727706E+02  0.00000000000E+00 0. -1.
         11    1    3    3    0    0 -0.98967367129E+01  0.79896799288E+01 -0.32084221896E+02  0.34513441988E+02  0.51100000000E-03 0.  1.
        -11    1    3    3    0    0  0.19970058019E+01  0.10406561919E+00 -0.10688607355E+01  0.22674490863E+01  0.51100000000E-03 0. -1.
        -12    1    3    3    0    0  0.53423171507E+01  0.52451424510E+01 -0.80677478698E+01  0.11006381220E+02  0.00000000000E+00 0.  1.
</event>
<event>
 7    1  0.3221417E-010  0.4778728E+02  0.7816164E-02  0.1312668E+00
        -11   -1    0    0    0    0  0.00000000000E+00  0.00000000000E+00  0.45593999997E+02  0.45594000000E+02  0.51100000000E-03 0.  1.
         11   -1    0    0    0    0 -0.00000000000E+00 -0.00000000000E+00 -0.45593999997E+02  0.45594000000E+02  0.51100000000E-03 0. -1.
    9900012    2    1    2    0    0 -0.88989087240E+00  0.41918863540E+02 -0.11208918718E+02  0.47787275523E+02  0.20000020421E+02 0.  0.
         12    1    1    2    0    0  0.88989087240E+00 -0.41918863540E+02  0.11208918718E+02  0.43400724477E+02  0.00000000000E+00 0. -1.
         11    1    3    3    0    0 -0.47199765721E+01  0.25917489720E+02 -0.69433685435E+01  0.27243436260E+02  0.51100000000E-03 0. -1.
        -11    1    3    3    0    0  0.54975385202E+01  0.17136922009E+02 -0.43825409516E+01  0.18523058365E+02  0.51100000000E-03 0.  1.
        -12    1    3    3    0    0 -0.16674528205E+01 -0.11355481894E+01  0.11699077684E+00  0.20207808988E+01  0.00000000000E+00 0.  1.
</event>
<event>
 7    1  0.3221417E-010  0.4778727E+02  0.7816164E-02  0.1312668E+00
        -11   -1    0    0    0    0  0.00000000000E+00  0.00000000000E+00  0.45593999997E+02  0.45594000000E+02  0.51100000000E-03 0. -1.
         11   -1    0    0    0    0 -0.00000000000E+00 -0.00000000000E+00 -0.45593999997E+02  0.45594000000E+02  0.51100000000E-03 0.  1.
    9900012    2    1    2    0    0 -0.14109742106E+02  0.24237255626E+02  0.33122411293E+02  0.47787268296E+02  0.19999987469E+02 0.  0.
        -12    1    1    2    0    0  0.14109742106E+02 -0.24237255626E+02 -0.33122411293E+02  0.43400731704E+02  0.00000000000E+00 0.  1.
         11    1    3    3    0    0 -0.77628434192E+01  0.21579605063E+02  0.22500030371E+02  0.32127752172E+02  0.51100000000E-03 0. -1.
        -11    1    3    3    0    0 -0.83282033127E+01  0.38584889155E+01  0.82076602371E+01  0.12313106592E+02  0.51100000000E-03 0.  1.
        -12    1    3    3    0    0  0.19813046260E+01 -0.12008383529E+01  0.24147206847E+01  0.33464095320E+01  0.00000000000E+00 0.  1.
</event>
<event>
 7    1  0.3221417E-010  0.4778730E+02  0.7816164E-02  0.1312668E+00
        -11   -1    0    0    0    0  0.00000000000E+00  0.00000000000E+00  0.45593999997E+02  0.45594000000E+02  0.51100000000E-03 0. -1.
         11   -1    0    0    0    0 -0.00000000000E+00 -0.00000000000E+00 -0.45593999997E+02  0.45594000000E+02  0.51100000000E-03 0.  1.
    9900012    2    1    2    0    0  0.21043622759E+02  0.80096081730E-01 -0.37957615454E+02  0.47787296721E+02  0.20000117067E+02 0.  0.
         12    1    1    2    0    0 -0.21043622759E+02 -0.80096081730E-01  0.37957615454E+02  0.43400703279E+02  0.00000000000E+00 0. -1.
         11    1    3    3    0    0  0.76724788982E+00  0.25869633048E+01 -0.75039931821E+01  0.79743941715E+01  0.51100000000E-03 0.  1.
        -11    1    3    3    0    0  0.22757835761E+02 -0.11151916988E+01 -0.26640997659E+02  0.35055748425E+02  0.51100000000E-03 0. -1.
         12    1    3    3    0    0 -0.24814608925E+01 -0.13916755243E+01 -0.38126246127E+01  0.47571541244E+01  0.00000000000E+00 0. -1.
</event>
<event>
 7    1  0.3221417E-010  0.4778727E+02  0.7816164E-02  0.1312668E+00
        -11   -1    0    0    0    0  0.00000000000E+00  0.00000000000E+00  0.45593999997E+02  0.45594000000E+02  0.51100000000E-03 0.  1.
         11   -1    0    0    0    0 -0.00000000000E+00 -0.00000000000E+00 -0.45593999997E+02  0.45594000000E+02  0.51100000000E-03 0. -1.
    9900012    2    1    2    0    0  0.29491895779E+02  0.13727872552E+02 -0.28729719831E+02  0.47787271861E+02  0.20000003725E+02 0.  0.
         12    1    1    2    0    0 -0.29491895779E+02 -0.13727872552E+02  0.28729719831E+02  0.43400728139E+02  0.00000000000E+00 0. -1.
         11    1    3    3    0    0  0.24986431445E+01  0.57372817506E+01 -0.11077444612E+02  0.12722790529E+02  0.51100000000E-03 0. -1.
        -11    1    3    3    0    0  0.83128382313E+01 -0.25176457405E+01 -0.34118370011E+01  0.93317978717E+01  0.51100000000E-03 0.  1.
        -12    1    3    3    0    0  0.18680414403E+02  0.10508236541E+02 -0.14240438217E+02  0.25732683461E+02  0.00000000000E+00 0.  1.
</event>
<event>
 7    1  0.3221417E-010  0.4778727E+02  0.7816164E-02  0.1312668E+00
        -11   -1    0    0    0    0  0.00000000000E+00  0.00000000000E+00  0.45593999997E+02  0.45594000000E+02  0.51100000000E-03 0. -1.
         11   -1    0    0    0    0 -0.00000000000E+00 -0.00000000000E+00 -0.45593999997E+02  0.45594000000E+02  0.51100000000E-03 0.  1.
    9900012    2    1    2    0    0  0.24818031337E+02  0.10602356195E+02  0.33989390793E+02  0.47787270481E+02  0.19999997429E+02 0.  0.
        -12    1    1    2    0    0 -0.24818031337E+02 -0.10602356195E+02 -0.33989390793E+02  0.43400729519E+02  0.00000000000E+00 0.  1.
         11    1    3    3    0    0  0.29518978002E+01  0.51733328870E+01  0.94285853852E+01  0.11152367301E+02  0.51100000000E-03 0. -1.
        -11    1    3    3    0    0  0.21202165359E+02  0.32070587486E+00  0.22929836039E+02  0.31231587363E+02  0.51100000000E-03 0.  1.
        -12    1    3    3    0    0  0.66396817831E+00  0.51083174330E+01  0.16309693688E+01  0.54033158172E+01  0.00000000000E+00 0.  1.
</event>
<event>
 7    1  0.3221417E-010  0.4778726E+02  0.7816164E-02  0.1312668E+00
        -11   -1    0    0    0    0  0.00000000000E+00  0.00000000000E+00  0.45593999997E+02  0.45594000000E+02  0.51100000000E-03 0.  1.
         11   -1    0    0    0    0 -0.00000000000E+00 -0.00000000000E+00 -0.45593999997E+02  0.45594000000E+02  0.51100000000E-03 0. -1.
    9900012    2    1    2    0    0  0.46442012226E+01 -0.32715319674E+02  0.28138289682E+02  0.47787261613E+02  0.19999956997E+02 0.  0.
        -12    1    1    2    0    0 -0.46442012226E+01  0.32715319674E+02 -0.28138289682E+02  0.43400738387E+02  0.00000000000E+00 0.  1.
         11    1    3    3    0    0  0.39286460750E+01 -0.56421261857E+00  0.22921507692E+01  0.45832904415E+01  0.51100000000E-03 0. -1.
        -11    1    3    3    0    0 -0.55299529290E+01 -0.12453273894E+02  0.13234702228E+02  0.18995308721E+02  0.51100000000E-03 0.  1.
         12    1    3    3    0    0  0.62455080766E+01 -0.19697833161E+02  0.12611436684E+02  0.24208662450E+02  0.00000000000E+00 0. -1.
</event>
<event>
 7    1  0.3221417E-010  0.4778728E+02  0.7816164E-02  0.1312668E+00
        -11   -1    0    0    0    0  0.00000000000E+00  0.00000000000E+00  0.45593999997E+02  0.45594000000E+02  0.51100000000E-03 0. -1.
         11   -1    0    0    0    0 -0.00000000000E+00 -0.00000000000E+00 -0.45593999997E+02  0.45594000000E+02  0.51100000000E-03 0.  1.
    9900012    2    1    2    0    0  0.12404161463E+02  0.15578986851E+02 -0.38562339290E+02  0.47787284977E+02  0.20000063526E+02 0.  0.
         12    1    1    2    0    0 -0.12404161463E+02 -0.15578986851E+02  0.38562339290E+02  0.43400715023E+02  0.00000000000E+00 0. -1.
         11    1    3    3    0    0  0.24619198334E+00  0.39031569624E+01 -0.12525306961E+02  0.13121682799E+02  0.51100000000E-03 0.  1.
        -11    1    3    3    0    0  0.92078692490E+01  0.10951202015E+02 -0.27718562651E+02  0.31193467223E+02  0.51100000000E-03 0. -1.
         12    1    3    3    0    0  0.29501002308E+01  0.72462787425E+00  0.16815303212E+01  0.34721349555E+01  0.00000000000E+00 0. -1.
</event>
<event>
 7    1  0.3221417E-010  0.4778727E+02  0.7816164E-02  0.1312668E+00
        -11   -1    0    0    0    0  0.00000000000E+00  0.00000000000E+00  0.45593999997E+02  0.45594000000E+02  0.51100000000E-03 0. -1.
         11   -1    0    0    0    0 -0.00000000000E+00 -0.00000000000E+00 -0.45593999997E+02  0.45594000000E+02  0.51100000000E-03 0.  1.
    9900012    2    1    2    0    0  0.93095089657E+01 -0.14970685003E+02 -0.39658984544E+02  0.47787269341E+02  0.19999992235E+02 0.  0.
         12    1    1    2    0    0 -0.93095089657E+01  0.14970685003E+02  0.39658984544E+02  0.43400730659E+02  0.00000000000E+00 0. -1.
         11    1    3    3    0    0 -0.88770631254E+00  0.26431258202E+01 -0.33308589552E+01  0.43438183940E+01  0.51100000000E-03 0. -1.
        -11    1    3    3    0    0  0.79838191795E+01 -0.81820102116E+01 -0.29367715957E+02  0.31514272966E+02  0.51100000000E-03 0.  1.
        -12    1    3    3    0    0  0.22133960988E+01 -0.94318006115E+01 -0.69604096322E+01  0.11929177981E+02  0.00000000000E+00 0.  1.
</event>
<event>
 7    1  0.3221417E-010  0.4778727E+02  0.7816164E-02  0.1312668E+00
        -11   -1    0    0    0    0  0.00000000000E+00  0.00000000000E+00  0.45593999997E+02  0.45594000000E+02  0.51100000000E-03 0. -1.
         11   -1    0    0    0    0 -0.00000000000E+00 -0.00000000000E+00 -0.45593999997E+02  0.45594000000E+02  0.51100000000E-03 0.  1.
    9900012    2    1    2    0    0 -0.69469424056E+01 -0.42066895472E+02 -0.81079791485E+01  0.47787273862E+02  0.20000012847E+02 0.  0.
         12    1    1    2    0    0  0.69469424056E+01  0.42066895472E+02  0.81079791485E+01  0.43400726138E+02  0.00000000000E+00 0. -1.
         11    1    3    3    0    0 -0.10725211729E+02 -0.33970883921E+02 -0.11930956169E+02  0.37568588427E+02  0.51100000000E-03 0. -1.
        -11    1    3    3    0    0  0.14436371310E+01 -0.63826690375E+01  0.22289410502E+01  0.69130840205E+01  0.51100000000E-03 0.  1.
         12    1    3    3    0    0  0.23346321920E+01 -0.17133425130E+01  0.15940359703E+01  0.33056014148E+01  0.00000000000E+00 0. -1.
</event>
<event>
 7    1  0.3221417E-010  0.4778727E+02  0.7816164E-02  0.1312668E+00
        -11   -1    0    0    0    0  0.00000000000E+00  0.00000000000E+00  0.45593999997E+02  0.45594000000E+02  0.51100000000E-03 0. -1.
         11   -1    0    0    0    0 -0.00000000000E+00 -0.00000000000E+00 -0.45593999997E+02  0.45594000000E+02  0.51100000000E-03 0.  1.
    9900012    2    1    2    0    0  0.96095634094E+00 -0.22629020644E+02  0.37021979339E+02  0.47787274585E+02  0.20000016142E+02 0.  0.
        -12    1    1    2    0    0 -0.96095634094E+00  0.22629020644E+02 -0.37021979339E+02  0.43400725415E+02  0.00000000000E+00 0.  1.
         11    1    3    3    0    0  0.20504620433E+01 -0.21347590123E+02  0.19160944928E+02  0.28758751876E+02  0.51100000000E-03 0. -1.
        -11    1    3    3    0    0 -0.14452898952E+01 -0.36426308451E+01  0.13491040756E+02  0.14048694007E+02  0.51100000000E-03 0.  1.
         12    1    3    3    0    0  0.35578419285E+00  0.23612003240E+01  0.43699936552E+01  0.49798287028E+01  0.00000000000E+00 0. -1.
</event>
<event>
 7    1  0.3221417E-010  0.4778727E+02  0.7816164E-02  0.1312668E+00
        -11   -1    0    0    0    0  0.00000000000E+00  0.00000000000E+00  0.45593999997E+02  0.45594000000E+02  0.51100000000E-03 0.  1.
         11   -1    0    0    0    0 -0.00000000000E+00 -0.00000000000E+00 -0.45593999997E+02  0.45594000000E+02  0.51100000000E-03 0. -1.
    9900012    2    1    2    0    0 -0.39213619171E+02 -0.79344581023E+01  0.16821404642E+02  0.47787271803E+02  0.20000003460E+02 0.  0.
        -12    1    1    2    0    0  0.39213619171E+02  0.79344581023E+01 -0.16821404642E+02  0.43400728197E+02  0.00000000000E+00 0.  1.
         11    1    3    3    0    0 -0.11832210644E+02 -0.54191201045E+01  0.13671892111E+01  0.13085766238E+02  0.51100000000E-03 0. -1.
        -11    1    3    3    0    0 -0.27217532066E+01  0.46034192170E+01  0.18965407768E+01  0.56741762561E+01  0.51100000000E-03 0.  1.
         12    1    3    3    0    0 -0.24659655320E+02 -0.71187572149E+01  0.13557674654E+02  0.29027329309E+02  0.00000000000E+00 0. -1.
</event>
<event>
 7    1  0.3221417E-010  0.4778727E+02  0.7816164E-02  0.1312668E+00
        -11   -1    0    0    0    0  0.00000000000E+00  0.00000000000E+00  0.45593999997E+02  0.45594000000E+02  0.51100000000E-03 0. -1.
         11   -1    0    0    0    0 -0.00000000000E+00 -0.00000000000E+00 -0.45593999997E+02  0.45594000000E+02  0.51100000000E-03 0.  1.
    9900012    2    1    2    0    0  0.77962865242E+01  0.28814059663E+01 -0.42597404423E+02  0.47787269044E+02  0.19999990880E+02 0.  0.
         12    1    1    2    0    0 -0.77962865242E+01 -0.28814059663E+01  0.42597404423E+02  0.43400730956E+02  0.00000000000E+00 0. -1.
         11    1    3    3    0    0  0.35749428334E+01  0.51558901411E+01 -0.10290294701E+02  0.12052119511E+02  0.51100000000E-03 0. -1.
        -11    1    3    3    0    0  0.70083798910E+01 -0.24056925649E+01 -0.32092474765E+02  0.32936783119E+02  0.51100000000E-03 0.  1.
         12    1    3    3    0    0 -0.27870362002E+01  0.13120839015E+00 -0.21463495691E+00  0.27983664141E+01  0.00000000000E+00 0. -1.
</event>
<event>
 7    1  0.3221417E-010  0.4778727E+02  0.7816164E-02  0.1312668E+00
        -11   -1    0    0    0    0  0.00000000000E+00  0.00000000000E+00  0.45593999997E+02  0.45594000000E+02  0.51100000000E-03 0. -1.
         11   -1    0    0    0    0 -0.00000000000E+00 -0.00000000000E+00 -0.45593999997E+02  0.45594000000E+02  0.51100000000E-03 0.  1.
    9900012    2    1    2    0    0 -0.38043527872E+01  0.30311834638E+01 -0.43127280114E+02  0.47787268861E+02  0.19999990047E+02 0.  0.
         12    1    1    2    0    0  0.38043527872E+01 -0.30311834638E+01  0.43127280114E+02  0.43400731139E+02  0.00000000000E+00 0. -1.
         11    1    3    3    0    0 -0.38572336455E+01 -0.45262692113E+01 -0.45290050551E+01  0.74751087898E+01  0.51100000000E-03 0. -1.
        -11    1    3    3    0    0  0.38456429042E+01  0.91914712237E+00 -0.11815606116E+02  0.12459628763E+02  0.51100000000E-03 0.  1.
        -12    1    3    3    0    0 -0.37927620459E+01  0.66383055526E+01 -0.26782668944E+02  0.27852531308E+02  0.00000000000E+00 0.  1.
</event>
<event>
 7    1  0.3221417E-010  0.4778727E+02  0.7816164E-02  0.1312668E+00
        -11   -1    0    0    0    0  0.00000000000E+00  0.00000000000E+00  0.45593999997E+02  0.45594000000E+02  0.51100000000E-03 0. -1.
         11   -1    0    0    0    0 -0.00000000000E+00 -0.00000000000E+00 -0.45593999997E+02  0.45594000000E+02  0.51100000000E-03 0.  1.
    9900012    2    1    2    0    0  0.13370865769E+02 -0.12771357196E+02 -0.39264939579E+02  0.47787273091E+02  0.20000009333E+02 0.  0.
         12    1    1    2    0    0 -0.13370865769E+02  0.12771357196E+02  0.39264939579E+02  0.43400726909E+02  0.00000000000E+00 0. -1.
         11    1    3    3    0    0  0.17208952892E+00  0.13630604187E+01 -0.75174837395E+00  0.15661016537E+01  0.51100000000E-03 0. -1.
        -11    1    3    3    0    0 -0.32010391750E+01 -0.49115722192E+01 -0.46536377751E+01  0.74850877261E+01  0.51100000000E-03 0.  1.
        -12    1    3    3    0    0  0.16399815415E+02 -0.92228453950E+01 -0.33859553430E+02  0.38736083712E+02  0.00000000000E+00 0.  1.
</event>
<event>
 7    1  0.3221417E-010  0.4778725E+02  0.7816164E-02  0.1312668E+00
        -11   -1    0    0    0    0  0.00000000000E+00  0.00000000000E+00  0.45593999997E+02  0.45594000000E+02  0.51100000000E-03 0. -1.
         11   -1    0    0    0    0 -0.00000000000E+00 -0.00000000000E+00 -0.45593999997E+02  0.45594000000E+02  0.51100000000E-03 0.  1.
    9900012    2    1    2    0    0 -0.24725946543E+01  0.24987682086E+00  0.43329539319E+02  0.47787249542E+02  0.19999901960E+02 0.  0.
        -12    1    1    2    0    0  0.24725946543E+01 -0.24987682086E+00 -0.43329539319E+02  0.43400750458E+02  0.00000000000E+00 0.  1.
         11    1    3    3    0    0  0.43921764774E+01 -0.30947978883E+01  0.81133114405E+01  0.97311258840E+01  0.51100000000E-03 0. -1.
        -11    1    3    3    0    0 -0.42812060049E+01  0.71238630145E+01  0.13427240957E+02  0.15791420110E+02  0.51100000000E-03 0.  1.
         12    1    3    3    0    0 -0.25835651268E+01 -0.37791883053E+01  0.21788986921E+02  0.22264703548E+02  0.00000000000E+00 0. -1.
</event>
<event>
 7    1  0.3987030E-010  0.4778727E+02  0.7816164E-02  0.1312668E+00
        -11   -1    0    0    0    0  0.00000000000E+00  0.00000000000E+00  0.45593999997E+02  0.45594000000E+02  0.51100000000E-03 0. -1.
         11   -1    0    0    0    0 -0.00000000000E+00 -0.00000000000E+00 -0.45593999997E+02  0.45594000000E+02  0.51100000000E-03 0.  1.
    9900012    2    1    2    0    0 -0.27302967280E+01 -0.16892057571E+02 -0.39885174686E+02  0.47787270871E+02  0.19999999211E+02 0.  0.
         12    1    1    2    0    0  0.27302967280E+01  0.16892057571E+02  0.39885174686E+02  0.43400729129E+02  0.00000000000E+00 0. -1.
         11    1    3    3    0    0  0.57631959581E+01 -0.43481639456E+01 -0.68699751579E+01  0.99658173915E+01  0.51100000000E-03 0. -1.
        -11    1    3    3    0    0 -0.23804092954E+01 -0.26398059981E+01 -0.20198090423E+02  0.20508480712E+02  0.51100000000E-03 0.  1.
         12    1    3    3    0    0 -0.61130833907E+01 -0.99040876269E+01 -0.12817109105E+02  0.17312972768E+02  0.00000000000E+00 0. -1.
</event>
<event>
 7    1  0.3221417E-010  0.4778728E+02  0.7816164E-02  0.1312668E+00
        -11   -1    0    0    0    0  0.00000000000E+00  0.00000000000E+00  0.45593999997E+02  0.45594000000E+02  0.51100000000E-03 0. -1.
         11   -1    0    0    0    0 -0.00000000000E+00 -0.00000000000E+00 -0.45593999997E+02  0.45594000000E+02  0.51100000000E-03 0.  1.
    9900012    2    1    2    0    0 -0.95271234832E+01 -0.11971911252E+01 -0.42325210448E+02  0.47787276643E+02  0.20000025524E+02 0.  0.
         12    1    1    2    0    0  0.95271234832E+01  0.11971911252E+01  0.42325210448E+02  0.43400723357E+02  0.00000000000E+00 0. -1.
         11    1    3    3    0    0 -0.65955289895E+01  0.31629232557E+01 -0.45243711343E+01  0.86008732461E+01  0.51100000000E-03 0. -1.
        -11    1    3    3    0    0  0.65357716376E+00  0.44950922917E+00  0.11271566161E+00  0.80120330603E+00  0.51100000000E-03 0.  1.
        -12    1    3    3    0    0 -0.35851716574E+01 -0.48096236101E+01 -0.37913554976E+02  0.38385200090E+02  0.00000000000E+00 0.  1.
</event>
<event>
 7    1  0.3221417E-010  0.4778727E+02  0.7816164E-02  0.1312668E+00
        -11   -1    0    0    0    0  0.00000000000E+00  0.00000000000E+00  0.45593999997E+02  0.45594000000E+02  0.51100000000E-03 0. -1.
         11   -1    0    0    0    0 -0.00000000000E+00 -0.00000000000E+00 -0.45593999997E+02  0.45594000000E+02  0.51100000000E-03 0.  1.
    9900012    2    1    2    0    0  0.18212360825E+02 -0.30159427749E+01  0.39278971685E+02  0.47787267123E+02  0.19999982120E+02 0.  0.
        -12    1    1    2    0    0 -0.18212360825E+02  0.30159427749E+01 -0.39278971685E+02  0.43400732877E+02  0.00000000000E+00 0.  1.
         11    1    3    3    0    0  0.82173634276E+01  0.57369048699E+01  0.13795901739E+02  0.17051804721E+02  0.51100000000E-03 0. -1.
        -11    1    3    3    0    0 -0.12621370482E+01 -0.32550988615E+01  0.17649131746E+01  0.39119786939E+01  0.51100000000E-03 0.  1.
         12    1    3    3    0    0  0.11257134446E+02 -0.54977487832E+01  0.23718156772E+02  0.26823483708E+02  0.00000000000E+00 0. -1.
</event>
<event>
 7    1  0.3221417E-010  0.4778727E+02  0.7816164E-02  0.1312668E+00
        -11   -1    0    0    0    0  0.00000000000E+00  0.00000000000E+00  0.45593999997E+02  0.45594000000E+02  0.51100000000E-03 0. -1.
         11   -1    0    0    0    0 -0.00000000000E+00 -0.00000000000E+00 -0.45593999997E+02  0.45594000000E+02  0.51100000000E-03 0.  1.
    9900012    2    1    2    0    0  0.12700676773E+02 -0.65733731749E+01 -0.40976902632E+02  0.47787274491E+02  0.20000015713E+02 0.  0.
         12    1    1    2    0    0 -0.12700676773E+02  0.65733731749E+01  0.40976902632E+02  0.43400725509E+02  0.00000000000E+00 0. -1.
         11    1    3    3    0    0  0.60023011046E+00 -0.28692186479E+01  0.85503322917E+00  0.30534855361E+01  0.51100000000E-03 0. -1.
        -11    1    3    3    0    0  0.15460295138E+01  0.23470003186E+01 -0.33407487930E+01  0.43656867171E+01  0.51100000000E-03 0.  1.
        -12    1    3    3    0    0  0.10554417149E+02 -0.60511548455E+01 -0.38491187068E+02  0.40368102238E+02  0.00000000000E+00 0.  1.
</event>
<event>
 7    1  0.3221417E-010  0.4778727E+02  0.7816164E-02  0.1312668E+00
        -11   -1    0    0    0    0  0.00000000000E+00  0.00000000000E+00  0.45593999997E+02  0.45594000000E+02  0.51100000000E-03 0. -1.
         11   -1    0    0    0    0 -0.00000000000E+00 -0.00000000000E+00 -0.45593999997E+02  0.45594000000E+02  0.51100000000E-03 0.  1.
    9900012    2    1    2    0    0 -0.15379775315E+02  0.77085603589E+01  0.39845506480E+02  0.47787265235E+02  0.19999973512E+02 0.  0.
        -12    1    1    2    0    0  0.15379775315E+02 -0.77085603589E+01 -0.39845506480E+02  0.43400734765E+02  0.00000000000E+00 0.  1.
         11    1    3    3    0    0 -0.15135827969E+02  0.54278664200E+01  0.36834474807E+02  0.40191212432E+02  0.51100000000E-03 0. -1.
        -11    1    3    3    0    0 -0.30817190973E+01 -0.21370742893E+00  0.20168302994E+01  0.36892096955E+01  0.51100000000E-03 0.  1.
         12    1    3    3    0    0  0.28377717517E+01  0.24944013678E+01  0.99420137345E+00  0.39068431079E+01  0.00000000000E+00 0. -1.
</event>
<event>
 7    1  0.3221417E-010  0.4778727E+02  0.7816164E-02  0.1312668E+00
        -11   -1    0    0    0    0  0.00000000000E+00  0.00000000000E+00  0.45593999997E+02  0.45594000000E+02  0.51100000000E-03 0. -1.
         11   -1    0    0    0    0 -0.00000000000E+00 -0.00000000000E+00 -0.45593999997E+02  0.45594000000E+02  0.51100000000E-03 0.  1.
    9900012    2    1    2    0    0  0.26783353840E+02 -0.21449014145E+02  0.26574709418E+02  0.47787269230E+02  0.19999991728E+02 0.  0.
        -12    1    1    2    0    0 -0.26783353840E+02  0.21449014145E+02 -0.26574709418E+02  0.43400730770E+02  0.00000000000E+00 0.  1.
         11    1    3    3    0    0  0.11499251149E+02 -0.62146039284E+01  0.56160370634E+01  0.14226522819E+02  0.51100000000E-03 0. -1.
        -11    1    3    3    0    0  0.49745059352E+01 -0.15009507539E+02  0.14009457066E+02  0.21125716873E+02  0.51100000000E-03 0.  1.
        -12    1    3    3    0    0  0.10309596756E+02 -0.22490267804E+00  0.69492152887E+01  0.12435029538E+02  0.00000000000E+00 0.  1.
</event>
<event>
 7    1  0.3221417E-010  0.4778728E+02  0.7816164E-02  0.1312668E+00
        -11   -1    0    0    0    0  0.00000000000E+00  0.00000000000E+00  0.45593999997E+02  0.45594000000E+02  0.51100000000E-03 0. -1.
         11   -1    0    0    0    0 -0.00000000000E+00 -0.00000000000E+00 -0.45593999997E+02  0.45594000000E+02  0.51100000000E-03 0.  1.
    9900012    2    1    2    0    0 -0.23209132662E+02  0.15767143991E+02  0.33111266874E+02  0.47787278087E+02  0.20000032110E+02 0.  0.
        -12    1    1    2    0    0  0.23209132662E+02 -0.15767143991E+02 -0.33111266874E+02  0.43400721913E+02  0.00000000000E+00 0.  1.
         11    1    3    3    0    0  0.20621107972E+00 -0.16245403121E+01  0.17463350079E+01  0.23940218161E+01  0.51100000000E-03 0. -1.
        -11    1    3    3    0    0 -0.12354914685E+02  0.15830859082E+01  0.69114410210E+01  0.14244932261E+02  0.51100000000E-03 0.  1.
        -12    1    3    3    0    0 -0.11060429057E+02  0.15808598395E+02  0.24453490845E+02  0.31148324010E+02  0.00000000000E+00 0.  1.
</event>
<event>
 7    1  0.3221417E-010  0.4778727E+02  0.7816164E-02  0.1312668E+00
        -11   -1    0    0    0    0  0.00000000000E+00  0.00000000000E+00  0.45593999997E+02  0.45594000000E+02  0.51100000000E-03 0. -1.
         11   -1    0    0    0    0 -0.00000000000E+00 -0.00000000000E+00 -0.45593999997E+02  0.45594000000E+02  0.51100000000E-03 0.  1.
    9900012    2    1    2    0    0 -0.21392957126E+02 -0.23618346619E+02  0.29464187263E+02  0.47787271404E+02  0.20000001640E+02 0.  0.
        -12    1    1    2    0    0  0.21392957126E+02  0.23618346619E+02 -0.29464187263E+02  0.43400728596E+02  0.00000000000E+00 0.  1.
         11    1    3    3    0    0 -0.41962137519E+01 -0.11944116902E+02  0.14552892513E+02  0.19288774434E+02  0.51100000000E-03 0. -1.
        -11    1    3    3    0    0 -0.15356461230E+02 -0.12161248993E+02  0.77125775423E+01  0.21052333153E+02  0.51100000000E-03 0.  1.
         12    1    3    3    0    0 -0.18402821436E+01  0.48701927667E+00  0.71987172077E+01  0.74461638164E+01  0.00000000000E+00 0. -1.
</event>
<event>
 7    1  0.3221417E-010  0.4778730E+02  0.7816164E-02  0.1312668E+00
        -11   -1    0    0    0    0  0.00000000000E+00  0.00000000000E+00  0.45593999997E+02  0.45594000000E+02  0.51100000000E-03 0. -1.
         11   -1    0    0    0    0 -0.00000000000E+00 -0.00000000000E+00 -0.45593999997E+02  0.45594000000E+02  0.51100000000E-03 0.  1.
    9900012    2    1    2    0    0 -0.59423488682E+01 -0.16428241226E+02  0.39729365561E+02  0.47787295999E+02  0.20000113778E+02 0.  0.
        -12    1    1    2    0    0  0.59423488682E+01  0.16428241226E+02 -0.39729365561E+02  0.43400704001E+02  0.00000000000E+00 0.  1.
         11    1    3    3    0    0 -0.78587617240E+00 -0.84075887874E+00 -0.48605631006E+00  0.12492909382E+01  0.51100000000E-03 0.  1.
        -11    1    3    3    0    0 -0.63455469744E+01 -0.12465805939E+02  0.40813876016E+02  0.43144347948E+02  0.51100000000E-03 0. -1.
         12    1    3    3    0    0  0.11890742786E+01 -0.31216764082E+01 -0.59845414484E+00  0.33936571130E+01  0.00000000000E+00 0. -1.
</event>
<event>
 7    1  0.3221417E-010  0.4778727E+02  0.7816164E-02  0.1312668E+00
        -11   -1    0    0    0    0  0.00000000000E+00  0.00000000000E+00  0.45593999997E+02  0.45594000000E+02  0.51100000000E-03 0. -1.
         11   -1    0    0    0    0 -0.00000000000E+00 -0.00000000000E+00 -0.45593999997E+02  0.45594000000E+02  0.51100000000E-03 0.  1.
    9900012    2    1    2    0    0  0.32129080995E+02 -0.24569175449E+02 -0.15738530260E+02  0.47787267718E+02  0.19999984833E+02 0.  0.
         12    1    1    2    0    0 -0.32129080995E+02  0.24569175449E+02  0.15738530260E+02  0.43400732282E+02  0.00000000000E+00 0. -1.
         11    1    3    3    0    0  0.37576115379E-01 -0.32538197820E+01 -0.65221852844E+00  0.33187564551E+01  0.51100000000E-03 0. -1.
        -11    1    3    3    0    0  0.31229024716E+02 -0.19614399091E+02 -0.88193261295E+01  0.37917768263E+02  0.51100000000E-03 0.  1.
        -12    1    3    3    0    0  0.86248016417E+00 -0.17009565762E+01 -0.62669856024E+01  0.65507429997E+01  0.00000000000E+00 0.  1.
</event>
<event>
 7    1  0.3221417E-010  0.4778724E+02  0.7816164E-02  0.1312668E+00
        -11   -1    0    0    0    0  0.00000000000E+00  0.00000000000E+00  0.45593999997E+02  0.45594000000E+02  0.51100000000E-03 0.  1.
         11   -1    0    0    0    0 -0.00000000000E+00 -0.00000000000E+00 -0.45593999997E+02  0.45594000000E+02  0.51100000000E-03 0. -1.
    9900012    2    1    2    0    0 -0.65435006710E+01 -0.41712640805E+02 -0.10043097097E+02  0.47787244209E+02  0.19999877647E+02 0.  0.
         12    1    1    2    0    0  0.65435006710E+01  0.41712640805E+02  0.10043097097E+02  0.43400755791E+02  0.00000000000E+00 0. -1.
         11    1    3    3    0    0 -0.28353393697E+01 -0.27803630066E+02 -0.73349555556E+01  0.28894334522E+02  0.51100000000E-03 0. -1.
        -11    1    3    3    0    0 -0.17657959166E+01 -0.13397147533E+02 -0.61977095715E+01  0.14866512753E+02  0.51100000000E-03 0.  1.
        -12    1    3    3    0    0 -0.19423653847E+01 -0.51186320476E+00  0.34895680306E+01  0.40263969337E+01  0.00000000000E+00 0.  1.
</event>
<event>
 7    1  0.3221417E-010  0.4778726E+02  0.7816164E-02  0.1312668E+00
        -11   -1    0    0    0    0  0.00000000000E+00  0.00000000000E+00  0.45593999997E+02  0.45594000000E+02  0.51100000000E-03 0. -1.
         11   -1    0    0    0    0 -0.00000000000E+00 -0.00000000000E+00 -0.45593999997E+02  0.45594000000E+02  0.51100000000E-03 0.  1.
    9900012    2    1    2    0    0  0.18309175864E+02 -0.21617184374E+02  0.32880013752E+02  0.47787263999E+02  0.19999967878E+02 0.  0.
        -12    1    1    2    0    0 -0.18309175864E+02  0.21617184374E+02 -0.32880013752E+02  0.43400736001E+02  0.00000000000E+00 0.  1.
         11    1    3    3    0    0  0.72793146269E+01 -0.15295263127E+02  0.20842632786E+02  0.26857938068E+02  0.51100000000E-03 0. -1.
        -11    1    3    3    0    0 -0.79656029432E+00 -0.21140114319E+01 -0.13060348905E+01  0.26094597205E+01  0.51100000000E-03 0.  1.
         12    1    3    3    0    0  0.11826421531E+02 -0.42079098153E+01  0.13343415856E+02  0.18319866210E+02  0.00000000000E+00 0. -1.
</event>
<event>
 7    1  0.3221417E-010  0.4778727E+02  0.7816164E-02  0.1312668E+00
        -11   -1    0    0    0    0  0.00000000000E+00  0.00000000000E+00  0.45593999997E+02  0.45594000000E+02  0.51100000000E-03 0. -1.
         11   -1    0    0    0    0 -0.00000000000E+00 -0.00000000000E+00 -0.45593999997E+02  0.45594000000E+02  0.51100000000E-03 0.  1.
    9900012    2    1    2    0    0 -0.37096188579E+02 -0.50848975710E-02 -0.22527665449E+02  0.47787274850E+02  0.20000017352E+02 0.  0.
         12    1    1    2    0    0  0.37096188579E+02  0.50848975710E-02  0.22527665449E+02  0.43400725150E+02  0.00000000000E+00 0. -1.
         11    1    3    3    0    0 -0.17106519272E+01  0.33122816002E+01  0.86718654551E+00  0.38274733416E+01  0.51100000000E-03 0. -1.
        -11    1    3    3    0    0 -0.11271024430E+02 -0.62654020359E+01 -0.89304062066E+01  0.15685770930E+02  0.51100000000E-03 0.  1.
         12    1    3    3    0    0 -0.24114512222E+02  0.29480355380E+01 -0.14464445788E+02  0.28274030579E+02  0.00000000000E+00 0. -1.
</event>
<event>
 7    1  0.3221417E-010  0.4778727E+02  0.7816164E-02  0.1312668E+00
        -11   -1    0    0    0    0  0.00000000000E+00  0.00000000000E+00  0.45593999997E+02  0.45594000000E+02  0.51100000000E-03 0. -1.
         11   -1    0    0    0    0 -0.00000000000E+00 -0.00000000000E+00 -0.45593999997E+02  0.45594000000E+02  0.51100000000E-03 0.  1.
    9900012    2    1    2    0    0 -0.12977194948E+02  0.18866708223E+02  0.36868187876E+02  0.47787267919E+02  0.19999985752E+02 0.  0.
        -12    1    1    2    0    0  0.12977194948E+02 -0.18866708223E+02 -0.36868187876E+02  0.43400732081E+02  0.00000000000E+00 0.  1.
         11    1    3    3    0    0 -0.16036124732E+02  0.13747726243E+02  0.26174404891E+02  0.33634160386E+02  0.51100000000E-03 0. -1.
        -11    1    3    3    0    0  0.25802680391E+00 -0.17730411050E+01  0.26242786563E+01  0.31775920630E+01  0.51100000000E-03 0.  1.
         12    1    3    3    0    0  0.28009029806E+01  0.68920230852E+01  0.80695043291E+01  0.10975515470E+02  0.00000000000E+00 0. -1.
</event>
<event>
 7    1  0.3221417E-010  0.4778727E+02  0.7816164E-02  0.1312668E+00
        -11   -1    0    0    0    0  0.00000000000E+00  0.00000000000E+00  0.45593999997E+02  0.45594000000E+02  0.51100000000E-03 0. -1.
         11   -1    0    0    0    0 -0.00000000000E+00 -0.00000000000E+00 -0.45593999997E+02  0.45594000000E+02  0.51100000000E-03 0.  1.
    9900012    2    1    2    0    0 -0.35209325065E+02  0.20300680820E+02  0.15225268993E+02  0.47787273863E+02  0.20000012852E+02 0.  0.
        -12    1    1    2    0    0  0.35209325065E+02 -0.20300680820E+02 -0.15225268993E+02  0.43400726137E+02  0.00000000000E+00 0.  1.
         11    1    3    3    0    0 -0.15906521412E+02  0.13264861870E+02  0.35828655717E+01  0.21019298509E+02  0.51100000000E-03 0. -1.
        -11    1    3    3    0    0 -0.10161639606E+02  0.50116335080E+01 -0.61138681387E+00  0.11346769761E+02  0.51100000000E-03 0.  1.
        -12    1    3    3    0    0 -0.91411640465E+01  0.20241854429E+01  0.12253790235E+02  0.15421205593E+02  0.00000000000E+00 0.  1.
</event>
<event>
 7    1  0.3221417E-010  0.4778726E+02  0.7816164E-02  0.1312668E+00
        -11   -1    0    0    0    0  0.00000000000E+00  0.00000000000E+00  0.45593999997E+02  0.45594000000E+02  0.51100000000E-03 0. -1.
         11   -1    0    0    0    0 -0.00000000000E+00 -0.00000000000E+00 -0.45593999997E+02  0.45594000000E+02  0.51100000000E-03 0.  1.
    9900012    2    1    2    0    0  0.28140975654E+02 -0.19326018211E+02 -0.26799531218E+02  0.47787258484E+02  0.19999942731E+02 0.  0.
         12    1    1    2    0    0 -0.28140975654E+02  0.19326018211E+02  0.26799531218E+02  0.43400741516E+02  0.00000000000E+00 0. -1.
         11    1    3    3    0    0  0.46469120567E+01 -0.29331861932E+01 -0.10100596293E+02  0.11498670299E+02  0.51100000000E-03 0. -1.
        -11    1    3    3    0    0  0.54129140124E+01 -0.88483409759E+01  0.26033885354E+00  0.10375960327E+02  0.51100000000E-03 0.  1.
        -12    1    3    3    0    0  0.18081149585E+02 -0.75444910423E+01 -0.16959273778E+02  0.25912627858E+02  0.00000000000E+00 0.  1.
</event>
<event>
 7    1  0.3221417E-010  0.4778727E+02  0.7816164E-02  0.1312668E+00
        -11   -1    0    0    0    0  0.00000000000E+00  0.00000000000E+00  0.45593999997E+02  0.45594000000E+02  0.51100000000E-03 0. -1.
         11   -1    0    0    0    0 -0.00000000000E+00 -0.00000000000E+00 -0.45593999997E+02  0.45594000000E+02  0.51100000000E-03 0.  1.
    9900012    2    1    2    0    0  0.15856978924E+02 -0.12496149345E+02  0.38419080927E+02  0.47787270648E+02  0.19999998191E+02 0.  0.
        -12    1    1    2    0    0 -0.15856978924E+02  0.12496149345E+02 -0.38419080927E+02  0.43400729352E+02  0.00000000000E+00 0.  1.
         11    1    3    3    0    0  0.64510095922E+01 -0.73256825245E+01  0.73952999161E+01  0.12246289655E+02  0.51100000000E-03 0. -1.
        -11    1    3    3    0    0  0.13282685764E+01 -0.81979340003E+01  0.11394562241E+02  0.14099874758E+02  0.51100000000E-03 0.  1.
        -12    1    3    3    0    0  0.80777007550E+01  0.30274671800E+01  0.19629218770E+02  0.21441106234E+02  0.00000000000E+00 0.  1.
</event>
<event>
 7    1  0.3221417E-010  0.4778727E+02  0.7816164E-02  0.1312668E+00
        -11   -1    0    0    0    0  0.00000000000E+00  0.00000000000E+00  0.45593999997E+02  0.45594000000E+02  0.51100000000E-03 0. -1.
         11   -1    0    0    0    0 -0.00000000000E+00 -0.00000000000E+00 -0.45593999997E+02  0.45594000000E+02  0.51100000000E-03 0.  1.
    9900012    2    1    2    0    0 -0.17781280559E+02 -0.31268489527E+02  0.24284375153E+02  0.47787271294E+02  0.20000001138E+02 0.  0.
        -12    1    1    2    0    0  0.17781280559E+02  0.31268489527E+02 -0.24284375153E+02  0.43400728706E+02  0.00000000000E+00 0.  1.
         11    1    3    3    0    0 -0.99114320824E+01 -0.56771457349E+01  0.69203986868E+01  0.13355088463E+02  0.51100000000E-03 0. -1.
        -11    1    3    3    0    0 -0.71474522063E+00 -0.10244475824E+02  0.12794699147E+00  0.10270176062E+02  0.51100000000E-03 0.  1.
         12    1    3    3    0    0 -0.71551032556E+01 -0.15346867968E+02  0.17236029475E+02  0.24162006769E+02  0.00000000000E+00 0. -1.
</event>
<event>
 7    1  0.3221417E-010  0.4778727E+02  0.7816164E-02  0.1312668E+00
        -11   -1    0    0    0    0  0.00000000000E+00  0.00000000000E+00  0.45593999997E+02  0.45594000000E+02  0.51100000000E-03 0. -1.
         11   -1    0    0    0    0 -0.00000000000E+00 -0.00000000000E+00 -0.45593999997E+02  0.45594000000E+02  0.51100000000E-03 0.  1.
    9900012    2    1    2    0    0  0.37894100823E+02 -0.18624066752E+02  0.10040135705E+02  0.47787273456E+02  0.20000010996E+02 0.  0.
        -12    1    1    2    0    0 -0.37894100823E+02  0.18624066752E+02 -0.10040135705E+02  0.43400726544E+02  0.00000000000E+00 0.  1.
         11    1    3    3    0    0  0.12309248407E+02 -0.13847389693E+02 -0.14377801970E+01  0.18583191594E+02  0.51100000000E-03 0. -1.
        -11    1    3    3    0    0  0.65565166336E+01  0.16022957770E+01  0.22452887669E+01  0.71131275843E+01  0.51100000000E-03 0.  1.
         12    1    3    3    0    0  0.19028335782E+02 -0.63789728353E+01  0.92326271347E+01  0.22090954277E+02  0.00000000000E+00 0. -1.
</event>
<event>
 7    1  0.3221417E-010  0.4778727E+02  0.7816164E-02  0.1312668E+00
        -11   -1    0    0    0    0  0.00000000000E+00  0.00000000000E+00  0.45593999997E+02  0.45594000000E+02  0.51100000000E-03 0. -1.
         11   -1    0    0    0    0 -0.00000000000E+00 -0.00000000000E+00 -0.45593999997E+02  0.45594000000E+02  0.51100000000E-03 0.  1.
    9900012    2    1    2    0    0 -0.31521717773E+01 -0.63275748063E+01  0.42821122990E+02  0.47787274615E+02  0.20000016281E+02 0.  0.
        -12    1    1    2    0    0  0.31521717773E+01  0.63275748063E+01 -0.42821122990E+02  0.43400725385E+02  0.00000000000E+00 0.  1.
         11    1    3    3    0    0  0.18209437623E+01  0.36791009664E+01  0.85668341617E+01  0.94995930398E+01  0.51100000000E-03 0. -1.
        -11    1    3    3    0    0 -0.45914338748E+01 -0.42953208943E+01  0.39007147250E+01  0.73990960420E+01  0.51100000000E-03 0.  1.
        -12    1    3    3    0    0 -0.38168166481E+00 -0.57113548784E+01  0.30353574103E+02  0.30888585533E+02  0.00000000000E+00 0.  1.
</event>
<event>
 7    1  0.3221417E-010  0.4778727E+02  0.7816164E-02  0.1312668E+00
        -11   -1    0    0    0    0  0.00000000000E+00  0.00000000000E+00  0.45593999997E+02  0.45594000000E+02  0.51100000000E-03 0. -1.
         11   -1    0    0    0    0 -0.00000000000E+00 -0.00000000000E+00 -0.45593999997E+02  0.45594000000E+02  0.51100000000E-03 0.  1.
    9900012    2    1    2    0    0 -0.36471448789E+02  0.23054100600E+02  0.46867029143E+01  0.47787270565E+02  0.19999997816E+02 0.  0.
        -12    1    1    2    0    0  0.36471448789E+02 -0.23054100600E+02 -0.46867029143E+01  0.43400729435E+02  0.00000000000E+00 0.  1.
         11    1    3    3    0    0 -0.21777305456E+02  0.10895577876E+02  0.87598411236E+01  0.25878552257E+02  0.51100000000E-03 0. -1.
        -11    1    3    3    0    0  0.12949099413E+01  0.30149222767E+00 -0.12107391164E+01  0.17982154456E+01  0.51100000000E-03 0.  1.
        -12    1    3    3    0    0 -0.15989053275E+02  0.11857030497E+02 -0.28623990929E+01  0.20110502862E+02  0.00000000000E+00 0.  1.
</event>
<event>
 7    1  0.3221417E-010  0.4778727E+02  0.7816164E-02  0.1312668E+00
        -11   -1    0    0    0    0  0.00000000000E+00  0.00000000000E+00  0.45593999997E+02  0.45594000000E+02  0.51100000000E-03 0. -1.
         11   -1    0    0    0    0 -0.00000000000E+00 -0.00000000000E+00 -0.45593999997E+02  0.45594000000E+02  0.51100000000E-03 0.  1.
    9900012    2    1    2    0    0 -0.18657158063E+02  0.32165589851E+02  0.22380994560E+02  0.47787266885E+02  0.19999981033E+02 0.  0.
        -12    1    1    2    0    0  0.18657158063E+02 -0.32165589851E+02 -0.22380994560E+02  0.43400733115E+02  0.00000000000E+00 0.  1.
         11    1    3    3    0    0 -0.80928715465E+01  0.22561640784E+01  0.10301895053E+02  0.13293377605E+02  0.51100000000E-03 0. -1.
        -11    1    3    3    0    0 -0.20786337768E+01  0.12451424427E+02  0.25861251856E+01  0.12885912167E+02  0.51100000000E-03 0.  1.
         12    1    3    3    0    0 -0.84856527394E+01  0.17458001346E+02  0.94929743218E+01  0.21607977112E+02  0.00000000000E+00 0. -1.
</event>
<event>
 7    1  0.3221417E-010  0.4778728E+02  0.7816164E-02  0.1312668E+00
        -11   -1    0    0    0    0  0.00000000000E+00  0.00000000000E+00  0.45593999997E+02  0.45594000000E+02  0.51100000000E-03 0. -1.
         11   -1    0    0    0    0 -0.00000000000E+00 -0.00000000000E+00 -0.45593999997E+02  0.45594000000E+02  0.51100000000E-03 0.  1.
    9900012    2    1    2    0    0  0.43944129568E+01  0.24470745809E+02  0.35573786604E+02  0.47787279280E+02  0.20000037550E+02 0.  0.
        -12    1    1    2    0    0 -0.43944129568E+01 -0.24470745809E+02 -0.35573786604E+02  0.43400720720E+02  0.00000000000E+00 0.  1.
         11    1    3    3    0    0  0.27193986615E+01  0.49271723285E+01 -0.17454434967E+00  0.56305081676E+01  0.51100000000E-03 0.  1.
        -11    1    3    3    0    0  0.18058262117E+01  0.18373295351E+01  0.13393143197E+02  0.13638660972E+02  0.51100000000E-03 0. -1.
        -12    1    3    3    0    0 -0.13081191638E+00  0.17706243945E+02  0.22355187756E+02  0.28518110141E+02  0.00000000000E+00 0.  1.
</event>
<event>
 7    1  0.3221417E-010  0.4778727E+02  0.7816164E-02  0.1312668E+00
        -11   -1    0    0    0    0  0.00000000000E+00  0.00000000000E+00  0.45593999997E+02  0.45594000000E+02  0.51100000000E-03 0. -1.
         11   -1    0    0    0    0 -0.00000000000E+00 -0.00000000000E+00 -0.45593999997E+02  0.45594000000E+02  0.51100000000E-03 0.  1.
    9900012    2    1    2    0    0 -0.20904496990E+02  0.30115623860E+02  0.23230900854E+02  0.47787267871E+02  0.19999985529E+02 0.  0.
        -12    1    1    2    0    0  0.20904496990E+02 -0.30115623860E+02 -0.23230900854E+02  0.43400732129E+02  0.00000000000E+00 0.  1.
         11    1    3    3    0    0 -0.42466562827E+00  0.37627702183E+01  0.52028595529E+00  0.38222347322E+01  0.51100000000E-03 0. -1.
        -11    1    3    3    0    0 -0.56771830136E+01  0.20697600533E+02  0.10132819523E+02  0.23733838850E+02  0.51100000000E-03 0.  1.
         12    1    3    3    0    0 -0.14802648348E+02  0.56552531085E+01  0.12577795376E+02  0.20231194289E+02  0.00000000000E+00 0. -1.
</event>
<event>
 7    1  0.3221417E-010  0.4778727E+02  0.7816164E-02  0.1312668E+00
        -11   -1    0    0    0    0  0.00000000000E+00  0.00000000000E+00  0.45593999997E+02  0.45594000000E+02  0.51100000000E-03 0. -1.
         11   -1    0    0    0    0 -0.00000000000E+00 -0.00000000000E+00 -0.45593999997E+02  0.45594000000E+02  0.51100000000E-03 0.  1.
    9900012    2    1    2    0    0 -0.31365570885E+02 -0.15921901895E+01  0.29954783941E+02  0.47787272039E+02  0.20000004536E+02 0.  0.
        -12    1    1    2    0    0  0.31365570885E+02  0.15921901895E+01 -0.29954783941E+02  0.43400727961E+02  0.00000000000E+00 0.  1.
         11    1    3    3    0    0 -0.24799158907E+02  0.73361907305E+01  0.21271817447E+02  0.33485940254E+02  0.51100000000E-03 0.  1.
        -11    1    3    3    0    0 -0.53993375507E+01 -0.54910475599E+01  0.53859737586E+01  0.93975083337E+01  0.51100000000E-03 0. -1.
        -12    1    3    3    0    0 -0.11670744278E+01 -0.34373333601E+01  0.32969927357E+01  0.49038234519E+01  0.00000000000E+00 0.  1.
</event>
<event>
 7    1  0.3221417E-010  0.4778727E+02  0.7816164E-02  0.1312668E+00
        -11   -1    0    0    0    0  0.00000000000E+00  0.00000000000E+00  0.45593999997E+02  0.45594000000E+02  0.51100000000E-03 0. -1.
         11   -1    0    0    0    0 -0.00000000000E+00 -0.00000000000E+00 -0.45593999997E+02  0.45594000000E+02  0.51100000000E-03 0.  1.
    9900012    2    1    2    0    0  0.16225084717E+02  0.12680096599E+02 -0.38204518165E+02  0.47787269222E+02  0.19999991689E+02 0.  0.
         12    1    1    2    0    0 -0.16225084717E+02 -0.12680096599E+02  0.38204518165E+02  0.43400730778E+02  0.00000000000E+00 0. -1.
         11    1    3    3    0    0  0.18295357217E+01 -0.21379254129E+01 -0.31316946165E+01  0.42101588403E+01  0.51100000000E-03 0. -1.
        -11    1    3    3    0    0  0.17275892876E+02  0.14405556526E+02 -0.27911927179E+02  0.35847624923E+02  0.51100000000E-03 0.  1.
        -12    1    3    3    0    0 -0.28803438800E+01  0.41246548626E+00 -0.71608963694E+01  0.77294854588E+01  0.00000000000E+00 0.  1.
</event>
<event>
 7    1  0.3221417E-010  0.4778727E+02  0.7816164E-02  0.1312668E+00
        -11   -1    0    0    0    0  0.00000000000E+00  0.00000000000E+00  0.45593999997E+02  0.45594000000E+02  0.51100000000E-03 0. -1.
         11   -1    0    0    0    0 -0.00000000000E+00 -0.00000000000E+00 -0.45593999997E+02  0.45594000000E+02  0.51100000000E-03 0.  1.
    9900012    2    1    2    0    0 -0.31848413767E+02  0.85018167317E+01 -0.28231565647E+02  0.47787266757E+02  0.19999980451E+02 0.  0.
         12    1    1    2    0    0  0.31848413767E+02 -0.85018167317E+01  0.28231565647E+02  0.43400733243E+02  0.00000000000E+00 0. -1.
         11    1    3    3    0    0  0.10362243510E+01 -0.21340384083E+00  0.46226379206E-01  0.10589802851E+01  0.51100000000E-03 0. -1.
        -11    1    3    3    0    0 -0.12781459752E+02 -0.38863789566E+01 -0.84461855810E+01  0.15805306258E+02  0.51100000000E-03 0.  1.
         12    1    3    3    0    0 -0.20103178366E+02  0.12601599529E+02 -0.19831606445E+02  0.30922980213E+02  0.00000000000E+00 0. -1.
</event>
<event>
 7    1  0.3221417E-010  0.4778725E+02  0.7816164E-02  0.1312668E+00
        -11   -1    0    0    0    0  0.00000000000E+00  0.00000000000E+00  0.45593999997E+02  0.45594000000E+02  0.51100000000E-03 0. -1.
         11   -1    0    0    0    0 -0.00000000000E+00 -0.00000000000E+00 -0.45593999997E+02  0.45594000000E+02  0.51100000000E-03 0.  1.
    9900012    2    1    2    0    0  0.29620504047E+02  0.57575199556E+01 -0.31194575758E+02  0.47787252855E+02  0.19999917065E+02 0.  0.
         12    1    1    2    0    0 -0.29620504047E+02 -0.57575199556E+01  0.31194575758E+02  0.43400747145E+02  0.00000000000E+00 0. -1.
         11    1    3    3    0    0  0.47894616590E+01 -0.25947400908E+01 -0.41946740786E+00  0.54632931725E+01  0.51100000000E-03 0. -1.
        -11    1    3    3    0    0  0.30574782474E+01  0.54929268187E+01 -0.11491224045E+02  0.13098421607E+02  0.51100000000E-03 0.  1.
         12    1    3    3    0    0  0.21773564141E+02  0.28593332278E+01 -0.19283884305E+02  0.29225538075E+02  0.00000000000E+00 0. -1.
</event>
<event>
 7    1  0.3221417E-010  0.4778727E+02  0.7816164E-02  0.1312668E+00
        -11   -1    0    0    0    0  0.00000000000E+00  0.00000000000E+00  0.45593999997E+02  0.45594000000E+02  0.51100000000E-03 0. -1.
         11   -1    0    0    0    0 -0.00000000000E+00 -0.00000000000E+00 -0.45593999997E+02  0.45594000000E+02  0.51100000000E-03 0.  1.
    9900012    2    1    2    0    0  0.13819169869E+02  0.11197693016E+02  0.39588704701E+02  0.47787270459E+02  0.19999997332E+02 0.  0.
        -12    1    1    2    0    0 -0.13819169869E+02 -0.11197693016E+02 -0.39588704701E+02  0.43400729541E+02  0.00000000000E+00 0.  1.
         11    1    3    3    0    0  0.62395616042E+01  0.88130493421E+01  0.30355608632E+02  0.32219015245E+02  0.51100000000E-03 0. -1.
        -11    1    3    3    0    0  0.54191097268E+01  0.60758452329E+01  0.50199763651E+01  0.95646645781E+01  0.51100000000E-03 0.  1.
        -12    1    3    3    0    0  0.21604985377E+01 -0.36912015586E+01  0.42131197045E+01  0.60035906358E+01  0.00000000000E+00 0.  1.
</event>
<event>
 7    1  0.3221417E-010  0.4778727E+02  0.7816164E-02  0.1312668E+00
        -11   -1    0    0    0    0  0.00000000000E+00  0.00000000000E+00  0.45593999997E+02  0.45594000000E+02  0.51100000000E-03 0. -1.
         11   -1    0    0    0    0 -0.00000000000E+00 -0.00000000000E+00 -0.45593999997E+02  0.45594000000E+02  0.51100000000E-03 0.  1.
    9900012    2    1    2    0    0  0.13896972979E+02  0.16661624220E+02  0.37588398227E+02  0.47787271194E+02  0.20000000681E+02 0.  0.
        -12    1    1    2    0    0 -0.13896972979E+02 -0.16661624220E+02 -0.37588398227E+02  0.43400728806E+02  0.00000000000E+00 0.  1.
         11    1    3    3    0    0  0.22924962352E+01  0.18688708115E+01  0.14842521816E+02  0.15134354007E+02  0.51100000000E-03 0. -1.
        -11    1    3    3    0    0 -0.25303726532E-01  0.96469540288E+01  0.51299154453E+01  0.10926133582E+02  0.51100000000E-03 0.  1.
         12    1    3    3    0    0  0.11629780470E+02  0.51457993794E+01  0.17615960966E+02  0.21726783604E+02  0.00000000000E+00 0. -1.
</event>
<event>
 7    1  0.3221417E-010  0.4778730E+02  0.7816164E-02  0.1312668E+00
        -11   -1    0    0    0    0  0.00000000000E+00  0.00000000000E+00  0.45593999997E+02  0.45594000000E+02  0.51100000000E-03 0. -1.
         11   -1    0    0    0    0 -0.00000000000E+00 -0.00000000000E+00 -0.45593999997E+02  0.45594000000E+02  0.51100000000E-03 0.  1.
    9900012    2    1    2    0    0  0.24572288457E+02 -0.75784678484E+01 -0.34962701124E+02  0.47787297185E+02  0.20000119184E+02 0.  0.
         12    1    1    2    0    0 -0.24572288457E+02  0.75784678484E+01  0.34962701124E+02  0.43400702815E+02  0.00000000000E+00 0. -1.
         11    1    3    3    0    0  0.16745386016E+02  0.31631746984E-01 -0.13665966155E+02  0.21614059883E+02  0.51100000000E-03 0. -1.
        -11    1    3    3    0    0  0.89530228067E+01 -0.94195007505E+01 -0.17224249089E+02  0.21576801633E+02  0.51100000000E-03 0.  1.
         12    1    3    3    0    0 -0.11261203656E+01  0.18094011551E+01 -0.40724858803E+01  0.45964356695E+01  0.00000000000E+00 0. -1.
</event>
<event>
 7    1  0.3221417E-010  0.4778727E+02  0.7816164E-02  0.1312668E+00
        -11   -1    0    0    0    0  0.00000000000E+00  0.00000000000E+00  0.45593999997E+02  0.45594000000E+02  0.51100000000E-03 0. -1.
         11   -1    0    0    0    0 -0.00000000000E+00 -0.00000000000E+00 -0.45593999997E+02  0.45594000000E+02  0.51100000000E-03 0.  1.
    9900012    2    1    2    0    0  0.27813548759E+02  0.32956300338E+02  0.48900373298E+01  0.47787266232E+02  0.19999978057E+02 0.  0.
         12    1    1    2    0    0 -0.27813548759E+02 -0.32956300338E+02 -0.48900373298E+01  0.43400733768E+02  0.00000000000E+00 0. -1.
         11    1    3    3    0    0  0.37458869631E+01 -0.45904115334E+00 -0.72195770631E+00  0.38423444811E+01  0.51100000000E-03 0. -1.
        -11    1    3    3    0    0  0.15207873333E+02  0.20558084187E+02  0.10410981446E+02  0.27609831070E+02  0.51100000000E-03 0.  1.
         12    1    3    3    0    0  0.88597884622E+01  0.12857257304E+02 -0.47989864101E+01  0.16335090681E+02  0.00000000000E+00 0. -1.
</event>
<event>
 7    1  0.3221417E-010  0.4778728E+02  0.7816164E-02  0.1312668E+00
        -11   -1    0    0    0    0  0.00000000000E+00  0.00000000000E+00  0.45593999997E+02  0.45594000000E+02  0.51100000000E-03 0. -1.
         11   -1    0    0    0    0 -0.00000000000E+00 -0.00000000000E+00 -0.45593999997E+02  0.45594000000E+02  0.51100000000E-03 0.  1.
    9900012    2    1    2    0    0 -0.33505195082E+02 -0.84448166735E+01  0.26262324431E+02  0.47787277533E+02  0.20000029584E+02 0.  0.
        -12    1    1    2    0    0  0.33505195082E+02  0.84448166735E+01 -0.26262324431E+02  0.43400722467E+02  0.00000000000E+00 0.  1.
         11    1    3    3    0    0 -0.20267908242E+02 -0.57929112424E-01  0.24631837418E+02  0.31898571679E+02  0.51100000000E-03 0. -1.
        -11    1    3    3    0    0 -0.40075942680E+01 -0.17664208384E+01 -0.19693039259E+00  0.43840433661E+01  0.51100000000E-03 0.  1.
         12    1    3    3    0    0 -0.92296925717E+01 -0.66204667227E+01  0.18274174062E+01  0.11504662488E+02  0.00000000000E+00 0. -1.
</event>
<event>
 7    1  0.3221417E-010  0.4778727E+02  0.7816164E-02  0.1312668E+00
        -11   -1    0    0    0    0  0.00000000000E+00  0.00000000000E+00  0.45593999997E+02  0.45594000000E+02  0.51100000000E-03 0. -1.
         11   -1    0    0    0    0 -0.00000000000E+00 -0.00000000000E+00 -0.45593999997E+02  0.45594000000E+02  0.51100000000E-03 0.  1.
    9900012    2    1    2    0    0  0.32551871655E+01  0.36193214391E+02  0.23729277412E+02  0.47787267080E+02  0.19999981926E+02 0.  0.
        -12    1    1    2    0    0 -0.32551871655E+01 -0.36193214391E+02 -0.23729277412E+02  0.43400732920E+02  0.00000000000E+00 0.  1.
         11    1    3    3    0    0  0.17600569859E+01  0.17256865104E+02  0.18380402789E+01  0.17443496958E+02  0.51100000000E-03 0. -1.
        -11    1    3    3    0    0 -0.28161499229E+01  0.27393985591E+01  0.22664301450E+01  0.45356047796E+01  0.51100000000E-03 0.  1.
        -12    1    3    3    0    0  0.43112801024E+01  0.16196950728E+02  0.19624806989E+02  0.25808165343E+02  0.00000000000E+00 0.  1.
</event>
<event>
 7    1  0.3221417E-010  0.4778724E+02  0.7816164E-02  0.1312668E+00
        -11   -1    0    0    0    0  0.00000000000E+00  0.00000000000E+00  0.45593999997E+02  0.45594000000E+02  0.51100000000E-03 0. -1.
         11   -1    0    0    0    0 -0.00000000000E+00 -0.00000000000E+00 -0.45593999997E+02  0.45594000000E+02  0.51100000000E-03 0.  1.
    9900012    2    1    2    0    0  0.43111216962E+01  0.12466210114E+02  0.41347713197E+02  0.47787244805E+02  0.19999880365E+02 0.  0.
        -12    1    1    2    0    0 -0.43111216962E+01 -0.12466210114E+02 -0.41347713197E+02  0.43400755195E+02  0.00000000000E+00 0.  1.
         11    1    3    3    0    0  0.13209378091E+01 -0.17285067304E+01  0.16325449150E+02  0.16469757206E+02  0.51100000000E-03 0. -1.
        -11    1    3    3    0    0 -0.46315627257E+01  0.59707072953E+01  0.11350596543E+02  0.13635863047E+02  0.51100000000E-03 0.  1.
         12    1    3    3    0    0  0.76217466128E+01  0.82240095489E+01  0.13671667504E+02  0.17681624553E+02  0.00000000000E+00 0. -1.
</event>
<event>
 7    1  0.3221417E-010  0.4778727E+02  0.7816164E-02  0.1312668E+00
        -11   -1    0    0    0    0  0.00000000000E+00  0.00000000000E+00  0.45593999997E+02  0.45594000000E+02  0.51100000000E-03 0. -1.
         11   -1    0    0    0    0 -0.00000000000E+00 -0.00000000000E+00 -0.45593999997E+02  0.45594000000E+02  0.51100000000E-03 0.  1.
    9900012    2    1    2    0    0 -0.28264773004E+02  0.95087425223E+01 -0.31532684407E+02  0.47787265407E+02  0.19999974297E+02 0.  0.
         12    1    1    2    0    0  0.28264773004E+02 -0.95087425223E+01  0.31532684407E+02  0.43400734593E+02  0.00000000000E+00 0. -1.
         11    1    3    3    0    0 -0.53755733970E+01  0.24045267947E+01 -0.12969256535E+02  0.14243600450E+02  0.51100000000E-03 0. -1.
        -11    1    3    3    0    0 -0.15845291538E+02  0.78603295468E+01 -0.19580533480E+02  0.26386650719E+02  0.51100000000E-03 0.  1.
         12    1    3    3    0    0 -0.70439080688E+01 -0.75611381919E+00  0.10171056085E+01  0.71570142384E+01  0.00000000000E+00 0. -1.
</event>
<event>
 7    1  0.3221417E-010  0.4778727E+02  0.7816164E-02  0.1312668E+00
        -11   -1    0    0    0    0  0.00000000000E+00  0.00000000000E+00  0.45593999997E+02  0.45594000000E+02  0.51100000000E-03 0. -1.
         11   -1    0    0    0    0 -0.00000000000E+00 -0.00000000000E+00 -0.45593999997E+02  0.45594000000E+02  0.51100000000E-03 0.  1.
    9900012    2    1    2    0    0  0.28627555422E+02 -0.11576584551E+02  0.30497034437E+02  0.47787270182E+02  0.19999996069E+02 0.  0.
        -12    1    1    2    0    0 -0.28627555422E+02  0.11576584551E+02 -0.30497034437E+02  0.43400729818E+02  0.00000000000E+00 0.  1.
         11    1    3    3    0    0  0.16708755876E+02 -0.86779246007E+01  0.17135094846E+02  0.25457815577E+02  0.51100000000E-03 0. -1.
        -11    1    3    3    0    0  0.12076088820E+02  0.22747746960E+01  0.70515647976E+01  0.14167959890E+02  0.51100000000E-03 0.  1.
        -12    1    3    3    0    0 -0.15728927421E+00 -0.51734346460E+01  0.63103747928E+01  0.81614947147E+01  0.00000000000E+00 0.  1.
</event>
<event>
 7    1  0.3221417E-010  0.4778727E+02  0.7816164E-02  0.1312668E+00
        -11   -1    0    0    0    0  0.00000000000E+00  0.00000000000E+00  0.45593999997E+02  0.45594000000E+02  0.51100000000E-03 0. -1.
         11   -1    0    0    0    0 -0.00000000000E+00 -0.00000000000E+00 -0.45593999997E+02  0.45594000000E+02  0.51100000000E-03 0.  1.
    9900012    2    1    2    0    0 -0.38258642667E+02 -0.11321294117E+02 -0.17080040356E+02  0.47787271691E+02  0.20000002947E+02 0.  0.
         12    1    1    2    0    0  0.38258642667E+02  0.11321294117E+02  0.17080040356E+02  0.43400728309E+02  0.00000000000E+00 0. -1.
         11    1    3    3    0    0 -0.45203207032E+01 -0.31196790655E+01 -0.73157975236E+01  0.91480375162E+01  0.51100000000E-03 0. -1.
        -11    1    3    3    0    0 -0.46924313157E+01 -0.56063068739E+01  0.13442861388E+01  0.74334846405E+01  0.51100000000E-03 0.  1.
        -12    1    3    3    0    0 -0.29045890648E+02 -0.25953081777E+01 -0.11108528971E+02  0.31205749534E+02  0.00000000000E+00 0.  1.
</event>
<event>
 7    1  0.3221417E-010  0.4778727E+02  0.7816164E-02  0.1312668E+00
        -11   -1    0    0    0    0  0.00000000000E+00  0.00000000000E+00  0.45593999997E+02  0.45594000000E+02  0.51100000000E-03 0. -1.
         11   -1    0    0    0    0 -0.00000000000E+00 -0.00000000000E+00 -0.45593999997E+02  0.45594000000E+02  0.51100000000E-03 0.  1.
    9900012    2    1    2    0    0 -0.43285471716E+02 -0.29143404097E+01 -0.12239275608E+01  0.47787269126E+02  0.19999991255E+02 0.  0.
         12    1    1    2    0    0  0.43285471716E+02  0.29143404097E+01  0.12239275608E+01  0.43400730874E+02  0.00000000000E+00 0. -1.
         11    1    3    3    0    0 -0.18142415698E+02 -0.16136138444E+01 -0.39941834334E+01  0.18646836154E+02  0.51100000000E-03 0. -1.
        -11    1    3    3    0    0 -0.19829151715E+02  0.30208770993E+00 -0.41584281048E+01  0.20262750043E+02  0.51100000000E-03 0.  1.
         12    1    3    3    0    0 -0.53139043028E+01 -0.16028142752E+01  0.69286839774E+01  0.88776829296E+01  0.00000000000E+00 0. -1.
</event>
<event>
 7    1  0.3221417E-010  0.4778727E+02  0.7816164E-02  0.1312668E+00
        -11   -1    0    0    0    0  0.00000000000E+00  0.00000000000E+00  0.45593999997E+02  0.45594000000E+02  0.51100000000E-03 0. -1.
         11   -1    0    0    0    0 -0.00000000000E+00 -0.00000000000E+00 -0.45593999997E+02  0.45594000000E+02  0.51100000000E-03 0.  1.
    9900012    2    1    2    0    0  0.17815060167E+02  0.17537463443E+02 -0.35477940747E+02  0.47787271061E+02  0.20000000074E+02 0.  0.
         12    1    1    2    0    0 -0.17815060167E+02 -0.17537463443E+02  0.35477940747E+02  0.43400728939E+02  0.00000000000E+00 0. -1.
         11    1    3    3    0    0  0.55682978523E+01  0.38017837979E+01 -0.20993821962E+02  0.22049944713E+02  0.51100000000E-03 0. -1.
        -11    1    3    3    0    0  0.38450930272E+01  0.69027093160E+01 -0.12408640369E+02  0.14710761107E+02  0.51100000000E-03 0.  1.
        -12    1    3    3    0    0  0.84016692876E+01  0.68329703293E+01 -0.20754784164E+01  0.11026565240E+02  0.00000000000E+00 0.  1.
</event>
<event>
 7    1  0.3221417E-010  0.4778727E+02  0.7816164E-02  0.1312668E+00
        -11   -1    0    0    0    0  0.00000000000E+00  0.00000000000E+00  0.45593999997E+02  0.45594000000E+02  0.51100000000E-03 0. -1.
         11   -1    0    0    0    0 -0.00000000000E+00 -0.00000000000E+00 -0.45593999997E+02  0.45594000000E+02  0.51100000000E-03 0.  1.
    9900012    2    1    2    0    0  0.23528255253E+02  0.20474126490E+02 -0.30180372593E+02  0.47787267971E+02  0.19999985986E+02 0.  0.
         12    1    1    2    0    0 -0.23528255253E+02 -0.20474126490E+02  0.30180372593E+02  0.43400732029E+02  0.00000000000E+00 0. -1.
         11    1    3    3    0    0  0.14094401549E+02  0.44660885173E+01 -0.56409196655E+01  0.15824603521E+02  0.51100000000E-03 0. -1.
        -11    1    3    3    0    0  0.78271297718E+01  0.13289800142E+02 -0.13555093409E+02  0.20533467945E+02  0.51100000000E-03 0.  1.
        -12    1    3    3    0    0  0.16067239327E+01  0.27182378308E+01 -0.10984359519E+02  0.11429196505E+02  0.00000000000E+00 0.  1.
</event>
<event>
 7    1  0.3221417E-010  0.4778729E+02  0.7816164E-02  0.1312668E+00
        -11   -1    0    0    0    0  0.00000000000E+00  0.00000000000E+00  0.45593999997E+02  0.45594000000E+02  0.51100000000E-03 0. -1.
         11   -1    0    0    0    0 -0.00000000000E+00 -0.00000000000E+00 -0.45593999997E+02  0.45594000000E+02  0.51100000000E-03 0.  1.
    9900012    2    1    2    0    0 -0.86893917437E+01 -0.36325307030E+02  0.22104026505E+02  0.47787292086E+02  0.20000095936E+02 0.  0.
        -12    1    1    2    0    0  0.86893917437E+01  0.36325307030E+02 -0.22104026505E+02  0.43400707914E+02  0.00000000000E+00 0.  1.
         11    1    3    3    0    0 -0.64397364624E+01 -0.33811728586E+02  0.17105540758E+02  0.38435695916E+02  0.51100000000E-03 0. -1.
        -11    1    3    3    0    0  0.13692036174E+01 -0.16039574833E+01 -0.96320412359E+00  0.23184392593E+01  0.51100000000E-03 0.  1.
         12    1    3    3    0    0 -0.36188588988E+01 -0.90962096112E+00  0.59616898697E+01  0.70331569103E+01  0.00000000000E+00 0. -1.
</event>
<event>
 7    1  0.3221417E-010  0.4778727E+02  0.7816164E-02  0.1312668E+00
        -11   -1    0    0    0    0  0.00000000000E+00  0.00000000000E+00  0.45593999997E+02  0.45594000000E+02  0.51100000000E-03 0.  1.
         11   -1    0    0    0    0 -0.00000000000E+00 -0.00000000000E+00 -0.45593999997E+02  0.45594000000E+02  0.51100000000E-03 0. -1.
    9900012    2    1    2    0    0 -0.18014232099E+02  0.28512124542E+02 -0.27316103429E+02  0.47787270622E+02  0.19999998072E+02 0.  0.
         12    1    1    2    0    0  0.18014232099E+02 -0.28512124542E+02  0.27316103429E+02  0.43400729378E+02  0.00000000000E+00 0. -1.
         11    1    3    3    0    0 -0.39686255153E+01  0.33569722804E+01  0.27214263598E+01  0.58673173653E+01  0.51100000000E-03 0. -1.
        -11    1    3    3    0    0 -0.39736118243E+01  0.11712388112E+02 -0.11262905245E+02  0.16727900676E+02  0.51100000000E-03 0.  1.
         12    1    3    3    0    0 -0.10071994759E+02  0.13442764150E+02 -0.18774624544E+02  0.25192052580E+02  0.00000000000E+00 0. -1.
</event>
<event>
 7    1  0.3221417E-010  0.4778727E+02  0.7816164E-02  0.1312668E+00
        -11   -1    0    0    0    0  0.00000000000E+00  0.00000000000E+00  0.45593999997E+02  0.45594000000E+02  0.51100000000E-03 0. -1.
         11   -1    0    0    0    0 -0.00000000000E+00 -0.00000000000E+00 -0.45593999997E+02  0.45594000000E+02  0.51100000000E-03 0.  1.
    9900012    2    1    2    0    0  0.36864322227E+02 -0.85375076479E+01  0.21254553253E+02  0.47787270466E+02  0.19999997361E+02 0.  0.
        -12    1    1    2    0    0 -0.36864322227E+02  0.85375076479E+01 -0.21254553253E+02  0.43400729534E+02  0.00000000000E+00 0.  1.
         11    1    3    3    0    0  0.81392715612E+01 -0.88660732438E+01  0.12192947490E+02  0.17132511931E+02  0.51100000000E-03 0. -1.
        -11    1    3    3    0    0  0.12420835251E+02 -0.20435964125E+01  0.20704374505E+01  0.12756964613E+02  0.51100000000E-03 0.  1.
        -12    1    3    3    0    0  0.16304215415E+02  0.23721620084E+01  0.69911683121E+01  0.17897793922E+02  0.00000000000E+00 0.  1.
</event>
<event>
 7    1  0.3221417E-010  0.4778727E+02  0.7816164E-02  0.1312668E+00
        -11   -1    0    0    0    0  0.00000000000E+00  0.00000000000E+00  0.45593999997E+02  0.45594000000E+02  0.51100000000E-03 0. -1.
         11   -1    0    0    0    0 -0.00000000000E+00 -0.00000000000E+00 -0.45593999997E+02  0.45594000000E+02  0.51100000000E-03 0.  1.
    9900012    2    1    2    0    0 -0.20608236847E+02 -0.34919148189E+02  0.15478266258E+02  0.47787273479E+02  0.20000011100E+02 0.  0.
        -12    1    1    2    0    0  0.20608236847E+02  0.34919148189E+02 -0.15478266258E+02  0.43400726521E+02  0.00000000000E+00 0.  1.
         11    1    3    3    0    0 -0.14120627213E+02 -0.80147069446E+01  0.34597480000E+01  0.16601129383E+02  0.51100000000E-03 0. -1.
        -11    1    3    3    0    0 -0.17660650107E+01 -0.60965117509E+00 -0.55305300092E-01  0.18691493024E+01  0.51100000000E-03 0.  1.
        -12    1    3    3    0    0 -0.47215446235E+01 -0.26294790069E+02  0.12073823558E+02  0.29316994794E+02  0.00000000000E+00 0.  1.
</event>
<event>
 7    1  0.3221417E-010  0.4778726E+02  0.7816164E-02  0.1312668E+00
        -11   -1    0    0    0    0  0.00000000000E+00  0.00000000000E+00  0.45593999997E+02  0.45594000000E+02  0.51100000000E-03 0. -1.
         11   -1    0    0    0    0 -0.00000000000E+00 -0.00000000000E+00 -0.45593999997E+02  0.45594000000E+02  0.51100000000E-03 0.  1.
    9900012    2    1    2    0    0  0.14389134553E+02 -0.15423937489E+02 -0.37929920919E+02  0.47787263350E+02  0.19999964920E+02 0.  0.
         12    1    1    2    0    0 -0.14389134553E+02  0.15423937489E+02  0.37929920919E+02  0.43400736650E+02  0.00000000000E+00 0. -1.
         11    1    3    3    0    0  0.68937716933E+01 -0.15784127703E+01 -0.12009339732E+02  0.13936990927E+02  0.51100000000E-03 0. -1.
        -11    1    3    3    0    0  0.12487875957E+01 -0.13714049567E+02 -0.23320608481E+02  0.27082935701E+02  0.51100000000E-03 0.  1.
        -12    1    3    3    0    0  0.62465752641E+01 -0.13147515106E+00 -0.25999727050E+01  0.67673367222E+01  0.00000000000E+00 0.  1.
</event>
<event>
 7    1  0.3221417E-010  0.4778727E+02  0.7816164E-02  0.1312668E+00
        -11   -1    0    0    0    0  0.00000000000E+00  0.00000000000E+00  0.45593999997E+02  0.45594000000E+02  0.51100000000E-03 0. -1.
         11   -1    0    0    0    0 -0.00000000000E+00 -0.00000000000E+00 -0.45593999997E+02  0.45594000000E+02  0.51100000000E-03 0.  1.
    9900012    2    1    2    0    0 -0.62975365026E+01  0.10932420978E+02 -0.41526454143E+02  0.47787272032E+02  0.20000004503E+02 0.  0.
         12    1    1    2    0    0  0.62975365026E+01 -0.10932420978E+02  0.41526454143E+02  0.43400727968E+02  0.00000000000E+00 0. -1.
         11    1    3    3    0    0 -0.37933968840E+01  0.10065263466E+01 -0.59475352072E+00  0.39694693874E+01  0.51100000000E-03 0. -1.
        -11    1    3    3    0    0 -0.11068467759E+01 -0.12372915725E+01 -0.19873993415E+02  0.19943209741E+02  0.51100000000E-03 0.  1.
         12    1    3    3    0    0 -0.13972928427E+01  0.11163186204E+02 -0.21057707207E+02  0.23874592904E+02  0.00000000000E+00 0. -1.
</event>
<event>
 7    1  0.3221417E-010  0.4778727E+02  0.7816164E-02  0.1312668E+00
        -11   -1    0    0    0    0  0.00000000000E+00  0.00000000000E+00  0.45593999997E+02  0.45594000000E+02  0.51100000000E-03 0. -1.
         11   -1    0    0    0    0 -0.00000000000E+00 -0.00000000000E+00 -0.45593999997E+02  0.45594000000E+02  0.51100000000E-03 0.  1.
    9900012    2    1    2    0    0 -0.13008353420E+02 -0.41137338959E+02  0.47037706133E+01  0.47787269899E+02  0.19999994776E+02 0.  0.
         12    1    1    2    0    0  0.13008353420E+02  0.41137338959E+02 -0.47037706133E+01  0.43400730101E+02  0.00000000000E+00 0. -1.
         11    1    3    3    0    0  0.36036426786E+00 -0.64799752727E+01  0.20529301035E+01  0.68069423540E+01  0.51100000000E-03 0. -1.
        -11    1    3    3    0    0  0.12685074496E+01 -0.19948273194E+02  0.30822013335E+01  0.20224803581E+02  0.51100000000E-03 0.  1.
         12    1    3    3    0    0 -0.14637225137E+02 -0.14709090493E+02 -0.43136082365E+00  0.20755523964E+02  0.00000000000E+00 0. -1.
</event>
<event>
 7    1  0.3221417E-010  0.4778727E+02  0.7816164E-02  0.1312668E+00
        -11   -1    0    0    0    0  0.00000000000E+00  0.00000000000E+00  0.45593999997E+02  0.45594000000E+02  0.51100000000E-03 0. -1.
         11   -1    0    0    0    0 -0.00000000000E+00 -0.00000000000E+00 -0.45593999997E+02  0.45594000000E+02  0.51100000000E-03 0.  1.
    9900012    2    1    2    0    0 -0.23932354837E+02  0.36185321698E+02  0.12200332712E+01  0.47787267338E+02  0.19999983099E+02 0.  0.
         12    1    1    2    0    0  0.23932354837E+02 -0.36185321698E+02 -0.12200332712E+01  0.43400732662E+02  0.00000000000E+00 0. -1.
         11    1    3    3    0    0  0.33050940964E+00 -0.16590689886E+01 -0.10995560231E+01  0.20176149503E+01  0.51100000000E-03 0. -1.
        -11    1    3    3    0    0 -0.29075406694E+00  0.51506722334E+01 -0.60593640946E-01  0.51592280657E+01  0.51100000000E-03 0.  1.
        -12    1    3    3    0    0 -0.23972110180E+02  0.32693718453E+02  0.23801829353E+01  0.40610424322E+02  0.00000000000E+00 0.  1.
</event>
<event>
 7    1  0.3221417E-010  0.4778727E+02  0.7816164E-02  0.1312668E+00
        -11   -1    0    0    0    0  0.00000000000E+00  0.00000000000E+00  0.45593999997E+02  0.45594000000E+02  0.51100000000E-03 0. -1.
         11   -1    0    0    0    0 -0.00000000000E+00 -0.00000000000E+00 -0.45593999997E+02  0.45594000000E+02  0.51100000000E-03 0.  1.
    9900012    2    1    2    0    0 -0.11292691588E+02 -0.13266738233E+02  0.39750368733E+02  0.47787273726E+02  0.20000012229E+02 0.  0.
        -12    1    1    2    0    0  0.11292691588E+02  0.13266738233E+02 -0.39750368733E+02  0.43400726274E+02  0.00000000000E+00 0.  1.
         11    1    3    3    0    0 -0.90152371067E+01 -0.64615895203E+00  0.16367301440E+02  0.18697074053E+02  0.51100000000E-03 0. -1.
        -11    1    3    3    0    0 -0.32300039694E+01  0.11734408795E+01  0.38804584020E+01  0.51834203776E+01  0.51100000000E-03 0.  1.
        -12    1    3    3    0    0  0.95254948770E+00 -0.13794020160E+02  0.19502608892E+02  0.23906779296E+02  0.00000000000E+00 0.  1.
</event>
<event>
 7    1  0.3221417E-010  0.4778727E+02  0.7816164E-02  0.1312668E+00
        -11   -1    0    0    0    0  0.00000000000E+00  0.00000000000E+00  0.45593999997E+02  0.45594000000E+02  0.51100000000E-03 0. -1.
         11   -1    0    0    0    0 -0.00000000000E+00 -0.00000000000E+00 -0.45593999997E+02  0.45594000000E+02  0.51100000000E-03 0.  1.
    9900012    2    1    2    0    0  0.37364721932E+02 -0.21645552118E+01 -0.21973061495E+02  0.47787272174E+02  0.20000005152E+02 0.  0.
         12    1    1    2    0    0 -0.37364721932E+02  0.21645552118E+01  0.21973061495E+02  0.43400727826E+02  0.00000000000E+00 0. -1.
         11    1    3    3    0    0  0.39295020849E+00 -0.32144321428E+01 -0.22010851399E+01  0.39155791298E+01  0.51100000000E-03 0. -1.
        -11    1    3    3    0    0  0.15268118276E+02  0.54662849852E+01 -0.40642001500E+01  0.16718655160E+02  0.51100000000E-03 0.  1.
        -12    1    3    3    0    0  0.21703653447E+02 -0.44164080542E+01 -0.15707776205E+02  0.27153037885E+02  0.00000000000E+00 0.  1.
</event>
<event>
 7    1  0.3221417E-010  0.4778727E+02  0.7816164E-02  0.1312668E+00
        -11   -1    0    0    0    0  0.00000000000E+00  0.00000000000E+00  0.45593999997E+02  0.45594000000E+02  0.51100000000E-03 0. -1.
         11   -1    0    0    0    0 -0.00000000000E+00 -0.00000000000E+00 -0.45593999997E+02  0.45594000000E+02  0.51100000000E-03 0.  1.
    9900012    2    1    2    0    0 -0.80821776835E+01 -0.31570046774E+02  0.28664156742E+02  0.47787270385E+02  0.19999996992E+02 0.  0.
        -12    1    1    2    0    0  0.80821776835E+01  0.31570046774E+02 -0.28664156742E+02  0.43400729615E+02  0.00000000000E+00 0.  1.
         11    1    3    3    0    0 -0.28336585613E+01 -0.21858730641E+02  0.15719880208E+02  0.27073019043E+02  0.51100000000E-03 0. -1.
        -11    1    3    3    0    0 -0.75893107214E+00 -0.42530100064E+01 -0.15490795006E+01  0.45895226382E+01  0.51100000000E-03 0.  1.
         12    1    3    3    0    0 -0.44895880500E+01 -0.54583061266E+01  0.14493356034E+02  0.16124728704E+02  0.00000000000E+00 0. -1.
</event>
<event>
 7    1  0.3221417E-010  0.4778726E+02  0.7816164E-02  0.1312668E+00
        -11   -1    0    0    0    0  0.00000000000E+00  0.00000000000E+00  0.45593999997E+02  0.45594000000E+02  0.51100000000E-03 0.  1.
         11   -1    0    0    0    0 -0.00000000000E+00 -0.00000000000E+00 -0.45593999997E+02  0.45594000000E+02  0.51100000000E-03 0. -1.
    9900012    2    1    2    0    0  0.29424645700E+02  0.30655222578E+02  0.88358158723E+01  0.47787261665E+02  0.19999957236E+02 0.  0.
        -12    1    1    2    0    0 -0.29424645700E+02 -0.30655222578E+02 -0.88358158723E+01  0.43400738335E+02  0.00000000000E+00 0.  1.
         11    1    3    3    0    0  0.23579273748E+02  0.13882933293E+02  0.57720225289E+01  0.27964874962E+02  0.51100000000E-03 0. -1.
        -11    1    3    3    0    0  0.22923082909E+01  0.43067783018E+01 -0.27675051835E+01  0.56091088279E+01  0.51100000000E-03 0.  1.
        -12    1    3    3    0    0  0.35530636613E+01  0.12465510983E+02  0.58312985270E+01  0.14213277875E+02  0.00000000000E+00 0.  1.
</event>
<event>
 7    1  0.3221417E-010  0.4778727E+02  0.7816164E-02  0.1312668E+00
        -11   -1    0    0    0    0  0.00000000000E+00  0.00000000000E+00  0.45593999997E+02  0.45594000000E+02  0.51100000000E-03 0.  1.
         11   -1    0    0    0    0 -0.00000000000E+00 -0.00000000000E+00 -0.45593999997E+02  0.45594000000E+02  0.51100000000E-03 0. -1.
    9900012    2    1    2    0    0  0.74443838356E+01  0.33335103405E+02 -0.26776397383E+02  0.47787269286E+02  0.19999991981E+02 0.  0.
         12    1    1    2    0    0 -0.74443838356E+01 -0.33335103405E+02  0.26776397383E+02  0.43400730714E+02  0.00000000000E+00 0. -1.
         11    1    3    3    0    0  0.57844351970E-01  0.13320221763E+02 -0.37216831625E+01  0.13830494554E+02  0.51100000000E-03 0.  1.
        -11    1    3    3    0    0  0.92595395693E+01  0.71805187324E+01 -0.85920297980E+01  0.14530034364E+02  0.51100000000E-03 0. -1.
         12    1    3    3    0    0 -0.18730000857E+01  0.12834362910E+02 -0.14462684422E+02  0.19426740368E+02  0.00000000000E+00 0. -1.
</event>
<event>
 7    1  0.3221417E-010  0.4778727E+02  0.7816164E-02  0.1312668E+00
        -11   -1    0    0    0    0  0.00000000000E+00  0.00000000000E+00  0.45593999997E+02  0.45594000000E+02  0.51100000000E-03 0. -1.
         11   -1    0    0    0    0 -0.00000000000E+00 -0.00000000000E+00 -0.45593999997E+02  0.45594000000E+02  0.51100000000E-03 0.  1.
    9900012    2    1    2    0    0  0.18056114113E+02  0.12397450835E+01  0.39446966036E+02  0.47787270119E+02  0.19999995780E+02 0.  0.
        -12    1    1    2    0    0 -0.18056114113E+02 -0.12397450835E+01 -0.39446966036E+02  0.43400729881E+02  0.00000000000E+00 0.  1.
         11    1    3    3    0    0  0.96377312141E+01 -0.80037065506E+01  0.20977377601E+02  0.24433492439E+02  0.51100000000E-03 0.  1.
        -11    1    3    3    0    0 -0.54229451250E+00  0.29710244055E+01  0.63292618127E+01  0.70128898973E+01  0.51100000000E-03 0. -1.
         12    1    3    3    0    0  0.89606774115E+01  0.62724272286E+01  0.12140326622E+02  0.16340887782E+02  0.00000000000E+00 0. -1.
</event>
<event>
 7    1  0.3221417E-010  0.4778728E+02  0.7816164E-02  0.1312668E+00
        -11   -1    0    0    0    0  0.00000000000E+00  0.00000000000E+00  0.45593999997E+02  0.45594000000E+02  0.51100000000E-03 0. -1.
         11   -1    0    0    0    0 -0.00000000000E+00 -0.00000000000E+00 -0.45593999997E+02  0.45594000000E+02  0.51100000000E-03 0.  1.
    9900012    2    1    2    0    0 -0.14563672199E+02 -0.36993790834E+02  0.17406350350E+02  0.47787284099E+02  0.20000059523E+02 0.  0.
        -12    1    1    2    0    0  0.14563672199E+02  0.36993790834E+02 -0.17406350350E+02  0.43400715901E+02  0.00000000000E+00 0.  1.
         11    1    3    3    0    0 -0.14264680656E+02 -0.14697935306E+02  0.10464918688E+02  0.23000542166E+02  0.51100000000E-03 0. -1.
        -11    1    3    3    0    0  0.67601723085E+00 -0.96733530859E+01  0.72745024833E+01  0.12122258282E+02  0.51100000000E-03 0.  1.
        -12    1    3    3    0    0 -0.97500877360E+00 -0.12622502441E+02 -0.33307082107E+00  0.12664483652E+02  0.00000000000E+00 0.  1.
</event>
<event>
 7    1  0.3221417E-010  0.4778727E+02  0.7816164E-02  0.1312668E+00
        -11   -1    0    0    0    0  0.00000000000E+00  0.00000000000E+00  0.45593999997E+02  0.45594000000E+02  0.51100000000E-03 0. -1.
         11   -1    0    0    0    0 -0.00000000000E+00 -0.00000000000E+00 -0.45593999997E+02  0.45594000000E+02  0.51100000000E-03 0.  1.
    9900012    2    1    2    0    0  0.23086086968E+02 -0.76784485204E+01  0.35940191658E+02  0.47787270057E+02  0.19999995496E+02 0.  0.
        -12    1    1    2    0    0 -0.23086086968E+02  0.76784485204E+01 -0.35940191658E+02  0.43400729943E+02  0.00000000000E+00 0.  1.
         11    1    3    3    0    0  0.16172190797E+02 -0.13151800064E+02  0.26346997226E+02  0.33595741742E+02  0.51100000000E-03 0. -1.
        -11    1    3    3    0    0  0.24934710000E+01  0.14821604904E+01  0.87966525124E-03  0.29007237687E+01  0.51100000000E-03 0.  1.
         12    1    3    3    0    0  0.44204251710E+01  0.39911910528E+01  0.95923147673E+01  0.11290804546E+02  0.00000000000E+00 0. -1.
</event>
<event>
 7    1  0.3221417E-010  0.4778728E+02  0.7816164E-02  0.1312668E+00
        -11   -1    0    0    0    0  0.00000000000E+00  0.00000000000E+00  0.45593999997E+02  0.45594000000E+02  0.51100000000E-03 0. -1.
         11   -1    0    0    0    0 -0.00000000000E+00 -0.00000000000E+00 -0.45593999997E+02  0.45594000000E+02  0.51100000000E-03 0.  1.
    9900012    2    1    2    0    0  0.37560963649E+01 -0.11946479195E+02  0.41554728948E+02  0.47787284303E+02  0.20000060452E+02 0.  0.
        -12    1    1    2    0    0 -0.37560963649E+01  0.11946479195E+02 -0.41554728948E+02  0.43400715697E+02  0.00000000000E+00 0.  1.
         11    1    3    3    0    0  0.50563818483E+01 -0.24197686771E+01  0.19140790018E+02  0.19944726637E+02  0.51100000000E-03 0. -1.
        -11    1    3    3    0    0  0.36806637625E+01 -0.43298662299E+01  0.17277743003E+01  0.59397164575E+01  0.51100000000E-03 0.  1.
         12    1    3    3    0    0 -0.49809492458E+01 -0.51968442879E+01  0.20686164629E+02  0.21902841209E+02  0.00000000000E+00 0. -1.
</event>
<event>
 7    1  0.3221417E-010  0.4778727E+02  0.7816164E-02  0.1312668E+00
        -11   -1    0    0    0    0  0.00000000000E+00  0.00000000000E+00  0.45593999997E+02  0.45594000000E+02  0.51100000000E-03 0. -1.
         11   -1    0    0    0    0 -0.00000000000E+00 -0.00000000000E+00 -0.45593999997E+02  0.45594000000E+02  0.51100000000E-03 0.  1.
    9900012    2    1    2    0    0  0.28708238002E+02  0.52682854351E+01 -0.32120178411E+02  0.47787267037E+02  0.19999981727E+02 0.  0.
         12    1    1    2    0    0 -0.28708238002E+02 -0.52682854351E+01  0.32120178411E+02  0.43400732963E+02  0.00000000000E+00 0. -1.
         11    1    3    3    0    0  0.62186820330E+01  0.28278122405E+01 -0.43332605690E+01  0.80898501664E+01  0.51100000000E-03 0. -1.
        -11    1    3    3    0    0  0.23227767710E+02  0.31260186764E+01 -0.17221402548E+02  0.29083979981E+02  0.51100000000E-03 0.  1.
         12    1    3    3    0    0 -0.73821174061E+00 -0.68554548179E+00 -0.10565515294E+02  0.10613436889E+02  0.00000000000E+00 0. -1.
</event>
<event>
 7    1  0.3221417E-010  0.4778727E+02  0.7816164E-02  0.1312668E+00
        -11   -1    0    0    0    0  0.00000000000E+00  0.00000000000E+00  0.45593999997E+02  0.45594000000E+02  0.51100000000E-03 0. -1.
         11   -1    0    0    0    0 -0.00000000000E+00 -0.00000000000E+00 -0.45593999997E+02  0.45594000000E+02  0.51100000000E-03 0.  1.
    9900012    2    1    2    0    0 -0.36375621176E+02  0.39279524855E+01 -0.23345429877E+02  0.47787265873E+02  0.19999976419E+02 0.  0.
         12    1    1    2    0    0  0.36375621176E+02 -0.39279524855E+01  0.23345429877E+02  0.43400734127E+02  0.00000000000E+00 0. -1.
         11    1    3    3    0    0 -0.35951140639E+01 -0.15180402233E+01  0.11180143370E+01  0.40594639512E+01  0.51100000000E-03 0. -1.
        -11    1    3    3    0    0 -0.24927469432E+02 -0.14110267476E+01 -0.21340008309E+02  0.32844568556E+02  0.51100000000E-03 0.  1.
        -12    1    3    3    0    0 -0.78530376794E+01  0.68570194563E+01 -0.31234359055E+01  0.10883233365E+02  0.00000000000E+00 0.  1.
</event>
<event>
 7    1  0.3221417E-010  0.4778728E+02  0.7816164E-02  0.1312668E+00
        -11   -1    0    0    0    0  0.00000000000E+00  0.00000000000E+00  0.45593999997E+02  0.45594000000E+02  0.51100000000E-03 0. -1.
         11   -1    0    0    0    0 -0.00000000000E+00 -0.00000000000E+00 -0.45593999997E+02  0.45594000000E+02  0.51100000000E-03 0.  1.
    9900012    2    1    2    0    0 -0.20121098264E+00  0.12572189490E+01  0.43382044802E+02  0.47787275392E+02  0.20000019822E+02 0.  0.
        -12    1    1    2    0    0  0.20121098264E+00 -0.12572189490E+01 -0.43382044802E+02  0.43400724608E+02  0.00000000000E+00 0.  1.
         11    1    3    3    0    0  0.29030665528E+01 -0.64289869107E+00  0.31722298032E+02  0.31861345025E+02  0.51100000000E-03 0. -1.
        -11    1    3    3    0    0  0.20080901436E+00  0.43404468963E+01  0.10918364200E+02  0.11751190603E+02  0.51100000000E-03 0.  1.
        -12    1    3    3    0    0 -0.33050865498E+01 -0.24403292563E+01  0.74138256978E+00  0.41747397638E+01  0.00000000000E+00 0.  1.
</event>
<event>
 7    1  0.3221417E-010  0.4778727E+02  0.7816164E-02  0.1312668E+00
        -11   -1    0    0    0    0  0.00000000000E+00  0.00000000000E+00  0.45593999997E+02  0.45594000000E+02  0.51100000000E-03 0. -1.
         11   -1    0    0    0    0 -0.00000000000E+00 -0.00000000000E+00 -0.45593999997E+02  0.45594000000E+02  0.51100000000E-03 0.  1.
    9900012    2    1    2    0    0  0.86740120279E+01 -0.30983073487E+02  0.29127888518E+02  0.47787271701E+02  0.20000002994E+02 0.  0.
        -12    1    1    2    0    0 -0.86740120279E+01  0.30983073487E+02 -0.29127888518E+02  0.43400728299E+02  0.00000000000E+00 0.  1.
         11    1    3    3    0    0 -0.23356266332E+01 -0.14455602694E+02  0.16877534511E+02  0.22344367802E+02  0.51100000000E-03 0. -1.
        -11    1    3    3    0    0  0.63993861536E+00  0.82036771889E+00 -0.86202222024E+00  0.13511503228E+01  0.51100000000E-03 0.  1.
        -12    1    3    3    0    0  0.10369700046E+02 -0.17347838512E+02  0.13112376227E+02  0.24091753577E+02  0.00000000000E+00 0.  1.
</event>
<event>
 7    1  0.3221417E-010  0.4778727E+02  0.7816164E-02  0.1312668E+00
        -11   -1    0    0    0    0  0.00000000000E+00  0.00000000000E+00  0.45593999997E+02  0.45594000000E+02  0.51100000000E-03 0. -1.
         11   -1    0    0    0    0 -0.00000000000E+00 -0.00000000000E+00 -0.45593999997E+02  0.45594000000E+02  0.51100000000E-03 0.  1.
    9900012    2    1    2    0    0 -0.66999354209E+01 -0.24907693833E+02 -0.34904740910E+02  0.47787270920E+02  0.19999999432E+02 0.  0.
         12    1    1    2    0    0  0.66999354209E+01  0.24907693833E+02  0.34904740910E+02  0.43400729080E+02  0.00000000000E+00 0. -1.
         11    1    3    3    0    0 -0.17873640047E+01  0.13771067771E+01 -0.32334373067E+01  0.39428682755E+01  0.51100000000E-03 0. -1.
        -11    1    3    3    0    0 -0.93140969474E+01 -0.18108446679E+02 -0.25760152373E+02  0.32836773496E+02  0.51100000000E-03 0.  1.
         12    1    3    3    0    0  0.44015255313E+01 -0.81763539308E+01 -0.59111512302E+01  0.11007629148E+02  0.00000000000E+00 0. -1.
</event>
<event>
 7    1  0.3221417E-010  0.4778727E+02  0.7816164E-02  0.1312668E+00
        -11   -1    0    0    0    0  0.00000000000E+00  0.00000000000E+00  0.45593999997E+02  0.45594000000E+02  0.51100000000E-03 0. -1.
         11   -1    0    0    0    0 -0.00000000000E+00 -0.00000000000E+00 -0.45593999997E+02  0.45594000000E+02  0.51100000000E-03 0.  1.
    9900012    2    1    2    0    0  0.37387818942E+02  0.19057990066E+02 -0.11071033984E+02  0.47787265167E+02  0.19999973202E+02 0.  0.
         12    1    1    2    0    0 -0.37387818942E+02 -0.19057990066E+02  0.11071033984E+02  0.43400734833E+02  0.00000000000E+00 0. -1.
         11    1    3    3    0    0  0.27620613212E+02  0.93142142450E+01 -0.51791464796E+00  0.29153406268E+02  0.51100000000E-03 0. -1.
        -11    1    3    3    0    0  0.24327981303E+01  0.56971557565E+01 -0.16527357522E+01  0.64115229224E+01  0.51100000000E-03 0.  1.
         12    1    3    3    0    0  0.73344075999E+01  0.40466200645E+01 -0.89003835836E+01  0.12222335976E+02  0.00000000000E+00 0. -1.
</event>
<event>
 7    1  0.3221417E-010  0.4778727E+02  0.7816164E-02  0.1312668E+00
        -11   -1    0    0    0    0  0.00000000000E+00  0.00000000000E+00  0.45593999997E+02  0.45594000000E+02  0.51100000000E-03 0. -1.
         11   -1    0    0    0    0 -0.00000000000E+00 -0.00000000000E+00 -0.45593999997E+02  0.45594000000E+02  0.51100000000E-03 0.  1.
    9900012    2    1    2    0    0 -0.56382873750E+00  0.35086135374E+02  0.25539552238E+02  0.47787268129E+02  0.19999986709E+02 0.  0.
        -12    1    1    2    0    0  0.56382873750E+00 -0.35086135374E+02 -0.25539552238E+02  0.43400731871E+02  0.00000000000E+00 0.  1.
         11    1    3    3    0    0  0.63124392031E+01  0.13815054442E+02  0.14898437453E+02  0.21275950196E+02  0.51100000000E-03 0. -1.
        -11    1    3    3    0    0 -0.32388316677E+01  0.12531381300E+01  0.35476124810E+01  0.49644677782E+01  0.51100000000E-03 0.  1.
        -12    1    3    3    0    0 -0.36374362729E+01  0.20017942803E+02  0.70935023046E+01  0.21546850156E+02  0.00000000000E+00 0.  1.
</event>
<event>
 7    1  0.3221417E-010  0.4778727E+02  0.7816164E-02  0.1312668E+00
        -11   -1    0    0    0    0  0.00000000000E+00  0.00000000000E+00  0.45593999997E+02  0.45594000000E+02  0.51100000000E-03 0. -1.
         11   -1    0    0    0    0 -0.00000000000E+00 -0.00000000000E+00 -0.45593999997E+02  0.45594000000E+02  0.51100000000E-03 0.  1.
    9900012    2    1    2    0    0 -0.23882234896E+02  0.88158301924E+01 -0.35150294154E+02  0.47787272072E+02  0.20000004684E+02 0.  0.
         12    1    1    2    0    0  0.23882234896E+02 -0.88158301924E+01  0.35150294154E+02  0.43400727928E+02  0.00000000000E+00 0. -1.
         11    1    3    3    0    0 -0.18274001014E+00  0.18547566638E+01  0.31483802138E+00  0.18901427020E+01  0.51100000000E-03 0. -1.
        -11    1    3    3    0    0 -0.12319602450E+02 -0.32920661620E+01 -0.22349919485E+02  0.25731871393E+02  0.51100000000E-03 0.  1.
        -12    1    3    3    0    0 -0.11379892435E+02  0.10253139691E+02 -0.13115212690E+02  0.20165257977E+02  0.00000000000E+00 0.  1.
</event>
<event>
 7    1  0.3221417E-010  0.4778727E+02  0.7816164E-02  0.1312668E+00
        -11   -1    0    0    0    0  0.00000000000E+00  0.00000000000E+00  0.45593999997E+02  0.45594000000E+02  0.51100000000E-03 0. -1.
         11   -1    0    0    0    0 -0.00000000000E+00 -0.00000000000E+00 -0.45593999997E+02  0.45594000000E+02  0.51100000000E-03 0.  1.
    9900012    2    1    2    0    0  0.11539356067E+02 -0.32241420018E+02 -0.26663786844E+02  0.47787269221E+02  0.19999991688E+02 0.  0.
         12    1    1    2    0    0 -0.11539356067E+02  0.32241420018E+02  0.26663786844E+02  0.43400730779E+02  0.00000000000E+00 0. -1.
         11    1    3    3    0    0  0.82621546083E+00  0.16501696752E+01  0.35402542327E-01  0.18457913062E+01  0.51100000000E-03 0. -1.
        -11    1    3    3    0    0  0.63278803127E+00 -0.19902668954E+02 -0.11750894199E+02  0.23121422252E+02  0.51100000000E-03 0.  1.
        -12    1    3    3    0    0  0.10080352575E+02 -0.13988920739E+02 -0.14948295187E+02  0.22820055664E+02  0.00000000000E+00 0.  1.
</event>
<event>
 7    1  0.3221417E-010  0.4778727E+02  0.7816164E-02  0.1312668E+00
        -11   -1    0    0    0    0  0.00000000000E+00  0.00000000000E+00  0.45593999997E+02  0.45594000000E+02  0.51100000000E-03 0. -1.
         11   -1    0    0    0    0 -0.00000000000E+00 -0.00000000000E+00 -0.45593999997E+02  0.45594000000E+02  0.51100000000E-03 0.  1.
    9900012    2    1    2    0    0 -0.82080243233E+01  0.21684403685E+02  0.36688393144E+02  0.47787271689E+02  0.20000002938E+02 0.  0.
        -12    1    1    2    0    0  0.82080243233E+01 -0.21684403685E+02 -0.36688393144E+02  0.43400728311E+02  0.00000000000E+00 0.  1.
         11    1    3    3    0    0 -0.38666972573E+01  0.17296101535E+02  0.19616577497E+02  0.26437030638E+02  0.51100000000E-03 0. -1.
        -11    1    3    3    0    0 -0.64415092686E+01  0.54002847299E+01  0.67845881976E+01  0.10802164324E+02  0.51100000000E-03 0.  1.
         12    1    3    3    0    0  0.21001822025E+01 -0.10119825802E+01  0.10287227450E+02  0.10548076726E+02  0.00000000000E+00 0. -1.
</event>
<event>
 7    1  0.3221417E-010  0.4778727E+02  0.7816164E-02  0.1312668E+00
        -11   -1    0    0    0    0  0.00000000000E+00  0.00000000000E+00  0.45593999997E+02  0.45594000000E+02  0.51100000000E-03 0. -1.
         11   -1    0    0    0    0 -0.00000000000E+00 -0.00000000000E+00 -0.45593999997E+02  0.45594000000E+02  0.51100000000E-03 0.  1.
    9900012    2    1    2    0    0  0.27057963341E+02  0.10011409412E+02  0.32423164054E+02  0.47787271137E+02  0.20000000421E+02 0.  0.
        -12    1    1    2    0    0 -0.27057963341E+02 -0.10011409412E+02 -0.32423164054E+02  0.43400728863E+02  0.00000000000E+00 0.  1.
         11    1    3    3    0    0  0.42379475464E+01 -0.28186666446E+00  0.15667117965E+02  0.16232628679E+02  0.51100000000E-03 0. -1.
        -11    1    3    3    0    0  0.49995273234E+01  0.69867767169E+01  0.59945074949E+01  0.10475898182E+02  0.51100000000E-03 0.  1.
         12    1    3    3    0    0  0.17820488471E+02  0.33064993591E+01  0.10761538594E+02  0.21078744276E+02  0.00000000000E+00 0. -1.
</event>
<event>
 7    1  0.3221417E-010  0.4778727E+02  0.7816164E-02  0.1312668E+00
        -11   -1    0    0    0    0  0.00000000000E+00  0.00000000000E+00  0.45593999997E+02  0.45594000000E+02  0.51100000000E-03 0. -1.
         11   -1    0    0    0    0 -0.00000000000E+00 -0.00000000000E+00 -0.45593999997E+02  0.45594000000E+02  0.51100000000E-03 0.  1.
    9900012    2    1    2    0    0  0.76126052760E+00  0.15112441338E+02 -0.40677487480E+02  0.47787269724E+02  0.19999993981E+02 0.  0.
         12    1    1    2    0    0 -0.76126052760E+00 -0.15112441338E+02  0.40677487480E+02  0.43400730276E+02  0.00000000000E+00 0. -1.
         11    1    3    3    0    0 -0.93132986342E+00  0.57377394311E+01 -0.10561636170E+02  0.12055587416E+02  0.51100000000E-03 0. -1.
        -11    1    3    3    0    0 -0.37087684496E+01  0.11771857715E+02 -0.25140473509E+02  0.28006695735E+02  0.51100000000E-03 0.  1.
         12    1    3    3    0    0  0.54013588407E+01 -0.23971558084E+01 -0.49753778005E+01  0.77249865730E+01  0.00000000000E+00 0. -1.
</event>
<event>
 7    1  0.3221417E-010  0.4778727E+02  0.7816164E-02  0.1312668E+00
        -11   -1    0    0    0    0  0.00000000000E+00  0.00000000000E+00  0.45593999997E+02  0.45594000000E+02  0.51100000000E-03 0.  1.
         11   -1    0    0    0    0 -0.00000000000E+00 -0.00000000000E+00 -0.45593999997E+02  0.45594000000E+02  0.51100000000E-03 0. -1.
    9900012    2    1    2    0    0  0.29093816957E+02 -0.27891233693E+02  0.16101309496E+02  0.47787271094E+02  0.20000000228E+02 0.  0.
        -12    1    1    2    0    0 -0.29093816957E+02  0.27891233693E+02 -0.16101309496E+02  0.43400728906E+02  0.00000000000E+00 0.  1.
         11    1    3    3    0    0  0.20312311100E+02 -0.27504920553E+02  0.17866035760E+02  0.38578567507E+02  0.51100000000E-03 0. -1.
        -11    1    3    3    0    0  0.33782204433E+01  0.40284149233E+00  0.19334319412E+00  0.34076438316E+01  0.51100000000E-03 0.  1.
         12    1    3    3    0    0  0.54032854134E+01 -0.78915463294E+00 -0.19580694578E+01  0.58010597562E+01  0.00000000000E+00 0. -1.
</event>
<event>
 7    1  0.3221417E-010  0.4778727E+02  0.7816164E-02  0.1312668E+00
        -11   -1    0    0    0    0  0.00000000000E+00  0.00000000000E+00  0.45593999997E+02  0.45594000000E+02  0.51100000000E-03 0. -1.
         11   -1    0    0    0    0 -0.00000000000E+00 -0.00000000000E+00 -0.45593999997E+02  0.45594000000E+02  0.51100000000E-03 0.  1.
    9900012    2    1    2    0    0  0.15139904121E+02 -0.17459255984E+02  0.36736643294E+02  0.47787271010E+02  0.19999999844E+02 0.  0.
        -12    1    1    2    0    0 -0.15139904121E+02  0.17459255984E+02 -0.36736643294E+02  0.43400728990E+02  0.00000000000E+00 0.  1.
         11    1    3    3    0    0  0.42346989526E+01 -0.64213953975E+01  0.17873461084E+02  0.19458355672E+02  0.51100000000E-03 0. -1.
        -11    1    3    3    0    0  0.20690526832E+00  0.29730884939E+01  0.79234763729E+00  0.30838093362E+01  0.51100000000E-03 0.  1.
        -12    1    3    3    0    0  0.10698299900E+02 -0.14010949080E+02  0.18070834573E+02  0.25245106002E+02  0.00000000000E+00 0.  1.
</event>
<event>
 7    1  0.3221417E-010  0.4778728E+02  0.7816164E-02  0.1312668E+00
        -11   -1    0    0    0    0  0.00000000000E+00  0.00000000000E+00  0.45593999997E+02  0.45594000000E+02  0.51100000000E-03 0. -1.
         11   -1    0    0    0    0 -0.00000000000E+00 -0.00000000000E+00 -0.45593999997E+02  0.45594000000E+02  0.51100000000E-03 0.  1.
    9900012    2    1    2    0    0  0.21360169125E+02 -0.10839260444E+02  0.36192211918E+02  0.47787278859E+02  0.20000035632E+02 0.  0.
        -12    1    1    2    0    0 -0.21360169125E+02  0.10839260444E+02 -0.36192211918E+02  0.43400721141E+02  0.00000000000E+00 0.  1.
         11    1    3    3    0    0  0.44034020466E+01 -0.66457419551E+01  0.16860013439E+02  0.18649822765E+02  0.51100000000E-03 0.  1.
        -11    1    3    3    0    0  0.99125030470E+01 -0.76362633014E+01  0.65021440415E+01  0.14101351398E+02  0.51100000000E-03 0. -1.
        -12    1    3    3    0    0  0.70442640310E+01  0.34427448123E+01  0.12830054437E+02  0.15036104696E+02  0.00000000000E+00 0.  1.
</event>
<event>
 7    1  0.3221417E-010  0.4778727E+02  0.7816164E-02  0.1312668E+00
        -11   -1    0    0    0    0  0.00000000000E+00  0.00000000000E+00  0.45593999997E+02  0.45594000000E+02  0.51100000000E-03 0. -1.
         11   -1    0    0    0    0 -0.00000000000E+00 -0.00000000000E+00 -0.45593999997E+02  0.45594000000E+02  0.51100000000E-03 0.  1.
    9900012    2    1    2    0    0 -0.11505017424E+02 -0.32732772141E+02  0.26073423620E+02  0.47787271697E+02  0.20000002976E+02 0.  0.
        -12    1    1    2    0    0  0.11505017424E+02  0.32732772141E+02 -0.26073423620E+02  0.43400728303E+02  0.00000000000E+00 0.  1.
         11    1    3    3    0    0 -0.39526960668E+00 -0.34865353228E+00 -0.22409179300E+00  0.57272571127E+00  0.51100000000E-03 0. -1.
        -11    1    3    3    0    0 -0.88634798302E+01 -0.21849570063E+02  0.61489207219E+01  0.24367482696E+02  0.51100000000E-03 0.  1.
         12    1    3    3    0    0 -0.22462679870E+01 -0.10534548545E+02  0.20148594692E+02  0.22847063290E+02  0.00000000000E+00 0. -1.
</event>
<event>
 7    1  0.3221417E-010  0.4778727E+02  0.7816164E-02  0.1312668E+00
        -11   -1    0    0    0    0  0.00000000000E+00  0.00000000000E+00  0.45593999997E+02  0.45594000000E+02  0.51100000000E-03 0.  1.
         11   -1    0    0    0    0 -0.00000000000E+00 -0.00000000000E+00 -0.45593999997E+02  0.45594000000E+02  0.51100000000E-03 0. -1.
    9900012    2    1    2    0    0 -0.30642961339E+01 -0.41560057195E+02 -0.12124149846E+02  0.47787271039E+02  0.19999999976E+02 0.  0.
         12    1    1    2    0    0  0.30642961339E+01  0.41560057195E+02  0.12124149846E+02  0.43400728961E+02  0.00000000000E+00 0. -1.
         11    1    3    3    0    0 -0.84826702225E+01 -0.77248277492E+01 -0.75650426251E+00  0.11497867490E+02  0.51100000000E-03 0. -1.
        -11    1    3    3    0    0  0.96095220431E+00 -0.29184645384E+01 -0.72309129979E-01  0.30734497348E+01  0.51100000000E-03 0.  1.
         12    1    3    3    0    0  0.44574218843E+01 -0.30916764907E+02 -0.11295336453E+02  0.33215953814E+02  0.00000000000E+00 0. -1.
</event>
<event>
 7    1  0.3221417E-010  0.4778727E+02  0.7816164E-02  0.1312668E+00
        -11   -1    0    0    0    0  0.00000000000E+00  0.00000000000E+00  0.45593999997E+02  0.45594000000E+02  0.51100000000E-03 0. -1.
         11   -1    0    0    0    0 -0.00000000000E+00 -0.00000000000E+00 -0.45593999997E+02  0.45594000000E+02  0.51100000000E-03 0.  1.
    9900012    2    1    2    0    0 -0.15053759805E+02  0.30959496236E+02 -0.26429482727E+02  0.47787266727E+02  0.19999980314E+02 0.  0.
         12    1    1    2    0    0  0.15053759805E+02 -0.30959496236E+02  0.26429482727E+02  0.43400733273E+02  0.00000000000E+00 0. -1.
         11    1    3    3    0    0 -0.76957504807E+01  0.27221339749E+02 -0.13531228722E+02  0.31357934629E+02  0.51100000000E-03 0. -1.
        -11    1    3    3    0    0 -0.56373263384E+01  0.51545579465E+01 -0.11475141548E+02  0.13785056753E+02  0.51100000000E-03 0.  1.
        -12    1    3    3    0    0 -0.17206829856E+01 -0.14164014601E+01 -0.14231124572E+01  0.26442753448E+01  0.00000000000E+00 0.  1.
</event>
<event>
 7    1  0.3221417E-010  0.4778727E+02  0.7816164E-02  0.1312668E+00
        -11   -1    0    0    0    0  0.00000000000E+00  0.00000000000E+00  0.45593999997E+02  0.45594000000E+02  0.51100000000E-03 0. -1.
         11   -1    0    0    0    0 -0.00000000000E+00 -0.00000000000E+00 -0.45593999997E+02  0.45594000000E+02  0.51100000000E-03 0.  1.
    9900012    2    1    2    0    0  0.14093470258E+02 -0.39307053792E+02  0.11830161822E+02  0.47787272927E+02  0.20000008583E+02 0.  0.
         12    1    1    2    0    0 -0.14093470258E+02  0.39307053792E+02 -0.11830161822E+02  0.43400727073E+02  0.00000000000E+00 0. -1.
         11    1    3    3    0    0  0.14178014473E+02 -0.25805212120E+02  0.68313302176E+01  0.30225686754E+02  0.51100000000E-03 0. -1.
        -11    1    3    3    0    0  0.37931590931E+01 -0.35093169079E+01 -0.10222378484E+01  0.52676685114E+01  0.51100000000E-03 0.  1.
         12    1    3    3    0    0 -0.38777033084E+01 -0.99925247641E+01  0.60210694527E+01  0.12293917661E+02  0.00000000000E+00 0. -1.
</event>
<event>
 7    1  0.3221417E-010  0.4778727E+02  0.7816164E-02  0.1312668E+00
        -11   -1    0    0    0    0  0.00000000000E+00  0.00000000000E+00  0.45593999997E+02  0.45594000000E+02  0.51100000000E-03 0. -1.
         11   -1    0    0    0    0 -0.00000000000E+00 -0.00000000000E+00 -0.45593999997E+02  0.45594000000E+02  0.51100000000E-03 0.  1.
    9900012    2    1    2    0    0  0.19928205954E+02  0.33016960721E+02 -0.19909046566E+02  0.47787271631E+02  0.20000002674E+02 0.  0.
         12    1    1    2    0    0 -0.19928205954E+02 -0.33016960721E+02  0.19909046566E+02  0.43400728369E+02  0.00000000000E+00 0. -1.
         11    1    3    3    0    0 -0.23834460535E+01  0.14909474278E+01 -0.34046136002E+01  0.44153293592E+01  0.51100000000E-03 0. -1.
        -11    1    3    3    0    0  0.97048606835E+01  0.21296591865E+02 -0.64514797828E+01  0.24276547069E+02  0.51100000000E-03 0.  1.
        -12    1    3    3    0    0  0.12606791324E+02  0.10229421428E+02 -0.10052953183E+02  0.19095395203E+02  0.00000000000E+00 0.  1.
</event>
<event>
 7    1  0.3221417E-010  0.4778726E+02  0.7816164E-02  0.1312668E+00
        -11   -1    0    0    0    0  0.00000000000E+00  0.00000000000E+00  0.45593999997E+02  0.45594000000E+02  0.51100000000E-03 0. -1.
         11   -1    0    0    0    0 -0.00000000000E+00 -0.00000000000E+00 -0.45593999997E+02  0.45594000000E+02  0.51100000000E-03 0.  1.
    9900012    2    1    2    0    0  0.14143426100E+02  0.12766995809E+02 -0.38994759683E+02  0.47787263064E+02  0.19999963616E+02 0.  0.
         12    1    1    2    0    0 -0.14143426100E+02 -0.12766995809E+02  0.38994759683E+02  0.43400736936E+02  0.00000000000E+00 0. -1.
         11    1    3    3    0    0  0.23854056338E+01  0.51362293102E+01 -0.88319620485E+01  0.10491642648E+02  0.51100000000E-03 0. -1.
        -11    1    3    3    0    0  0.55207366651E+01  0.38603996830E+01 -0.29172665693E+02  0.29940368116E+02  0.51100000000E-03 0.  1.
         12    1    3    3    0    0  0.62372838008E+01  0.37703668162E+01 -0.99013194151E+00  0.73552523004E+01  0.00000000000E+00 0. -1.
</event>
<event>
 7    1  0.3221417E-010  0.4778727E+02  0.7816164E-02  0.1312668E+00
        -11   -1    0    0    0    0  0.00000000000E+00  0.00000000000E+00  0.45593999997E+02  0.45594000000E+02  0.51100000000E-03 0. -1.
         11   -1    0    0    0    0 -0.00000000000E+00 -0.00000000000E+00 -0.45593999997E+02  0.45594000000E+02  0.51100000000E-03 0.  1.
    9900012    2    1    2    0    0  0.18964707355E+02  0.39037942071E+02 -0.50509313156E-01  0.47787267317E+02  0.19999983006E+02 0.  0.
        -12    1    1    2    0    0 -0.18964707355E+02 -0.39037942071E+02  0.50509313156E-01  0.43400732683E+02  0.00000000000E+00 0.  1.
         11    1    3    3    0    0  0.37358197203E+01  0.17473032524E+02 -0.31645269461E+01  0.18146003572E+02  0.51100000000E-03 0. -1.
        -11    1    3    3    0    0  0.99929923235E+01  0.75346794063E+01 -0.38942621896E+01  0.13107118966E+02  0.51100000000E-03 0.  1.
        -12    1    3    3    0    0  0.52358953108E+01  0.14030230141E+02  0.70082798225E+01  0.16534144779E+02  0.00000000000E+00 0.  1.
</event>
<event>
 7    1  0.3221417E-010  0.4778727E+02  0.7816164E-02  0.1312668E+00
        -11   -1    0    0    0    0  0.00000000000E+00  0.00000000000E+00  0.45593999997E+02  0.45594000000E+02  0.51100000000E-03 0. -1.
         11   -1    0    0    0    0 -0.00000000000E+00 -0.00000000000E+00 -0.45593999997E+02  0.45594000000E+02  0.51100000000E-03 0.  1.
    9900012    2    1    2    0    0 -0.20207962464E+02  0.12745790459E+01  0.38387980048E+02  0.47787270618E+02  0.19999998058E+02 0.  0.
        -12    1    1    2    0    0  0.20207962464E+02 -0.12745790459E+01 -0.38387980048E+02  0.43400729382E+02  0.00000000000E+00 0.  1.
         11    1    3    3    0    0 -0.16141335727E+02 -0.60807397072E+01  0.31031724110E+02  0.35503324013E+02  0.51100000000E-03 0. -1.
        -11    1    3    3    0    0  0.10312827535E+01  0.67148599153E+00  0.20513459967E+00  0.12476049133E+01  0.51100000000E-03 0.  1.
         12    1    3    3    0    0 -0.50979094900E+01  0.66838327616E+01  0.71511213379E+01  0.11036341692E+02  0.00000000000E+00 0. -1.
</event>
<event>
 7    1  0.3221417E-010  0.4778726E+02  0.7816164E-02  0.1312668E+00
        -11   -1    0    0    0    0  0.00000000000E+00  0.00000000000E+00  0.45593999997E+02  0.45594000000E+02  0.51100000000E-03 0. -1.
         11   -1    0    0    0    0 -0.00000000000E+00 -0.00000000000E+00 -0.45593999997E+02  0.45594000000E+02  0.51100000000E-03 0.  1.
    9900012    2    1    2    0    0  0.19756258712E+02  0.72805336554E+01  0.37951394408E+02  0.47787259613E+02  0.19999947881E+02 0.  0.
        -12    1    1    2    0    0 -0.19756258712E+02 -0.72805336554E+01 -0.37951394408E+02  0.43400740387E+02  0.00000000000E+00 0.  1.
         11    1    3    3    0    0  0.57214591046E+01  0.23436725414E+01  0.27112573629E+02  0.27808623560E+02  0.51100000000E-03 0. -1.
        -11    1    3    3    0    0  0.20513646111E+01 -0.16601385489E+01  0.19497009712E+00  0.26461614404E+01  0.51100000000E-03 0.  1.
         12    1    3    3    0    0  0.11983434997E+02  0.65969996629E+01  0.10643850682E+02  0.17332474613E+02  0.00000000000E+00 0. -1.
</event>
<event>
 7    1  0.3221417E-010  0.4778728E+02  0.7816164E-02  0.1312668E+00
        -11   -1    0    0    0    0  0.00000000000E+00  0.00000000000E+00  0.45593999997E+02  0.45594000000E+02  0.51100000000E-03 0. -1.
         11   -1    0    0    0    0 -0.00000000000E+00 -0.00000000000E+00 -0.45593999997E+02  0.45594000000E+02  0.51100000000E-03 0.  1.
    9900012    2    1    2    0    0 -0.20589604506E+02  0.92638884660E+01  0.37065768700E+02  0.47787278203E+02  0.20000032638E+02 0.  0.
        -12    1    1    2    0    0  0.20589604506E+02 -0.92638884660E+01 -0.37065768700E+02  0.43400721797E+02  0.00000000000E+00 0.  1.
         11    1    3    3    0    0 -0.90440108319E+01  0.35316472713E+01  0.12378819842E+02  0.15732191371E+02  0.51100000000E-03 0. -1.
        -11    1    3    3    0    0  0.40538477632E+00 -0.11165081890E+01  0.15392553606E+02  0.15438317076E+02  0.51100000000E-03 0.  1.
        -12    1    3    3    0    0 -0.11950978451E+02  0.68487493837E+01  0.92943952511E+01  0.16616769756E+02  0.00000000000E+00 0.  1.
</event>
<event>
 7    1  0.3221417E-010  0.4778728E+02  0.7816164E-02  0.1312668E+00
        -11   -1    0    0    0    0  0.00000000000E+00  0.00000000000E+00  0.45593999997E+02  0.45594000000E+02  0.51100000000E-03 0. -1.
         11   -1    0    0    0    0 -0.00000000000E+00 -0.00000000000E+00 -0.45593999997E+02  0.45594000000E+02  0.51100000000E-03 0.  1.
    9900012    2    1    2    0    0 -0.23699242997E+02  0.23454039948E+02  0.27782666604E+02  0.47787277976E+02  0.20000031605E+02 0.  0.
        -12    1    1    2    0    0  0.23699242997E+02 -0.23454039948E+02 -0.27782666604E+02  0.43400722024E+02  0.00000000000E+00 0.  1.
         11    1    3    3    0    0 -0.14580874782E+02  0.16454441314E+02  0.18548194627E+02  0.28764319435E+02  0.51100000000E-03 0. -1.
        -11    1    3    3    0    0 -0.82268293501E+01 -0.59231126196E-01  0.85657190620E+01  0.11876690313E+02  0.51100000000E-03 0.  1.
        -12    1    3    3    0    0 -0.89153886501E+00  0.70588297601E+01  0.66875291574E+00  0.71462682284E+01  0.00000000000E+00 0.  1.
</event>
<event>
 7    1  0.3221417E-010  0.4778727E+02  0.7816164E-02  0.1312668E+00
        -11   -1    0    0    0    0  0.00000000000E+00  0.00000000000E+00  0.45593999997E+02  0.45594000000E+02  0.51100000000E-03 0. -1.
         11   -1    0    0    0    0 -0.00000000000E+00 -0.00000000000E+00 -0.45593999997E+02  0.45594000000E+02  0.51100000000E-03 0.  1.
    9900012    2    1    2    0    0 -0.27760997139E+02 -0.31957885742E+02 -0.95730814057E+01  0.47787270618E+02  0.19999998058E+02 0.  0.
         12    1    1    2    0    0  0.27760997139E+02  0.31957885742E+02  0.95730814057E+01  0.43400729382E+02  0.00000000000E+00 0. -1.
         11    1    3    3    0    0 -0.65160969277E+01 -0.31632338903E+00 -0.48930718163E+01  0.81548593929E+01  0.51100000000E-03 0. -1.
        -11    1    3    3    0    0 -0.17954157455E+01 -0.10185210303E+02 -0.21428017654E+01  0.10561895014E+02  0.51100000000E-03 0.  1.
        -12    1    3    3    0    0 -0.19449484466E+02 -0.21456352050E+02 -0.25372078240E+01  0.29070516212E+02  0.00000000000E+00 0.  1.
</event>
<event>
 7    1  0.3221417E-010  0.4778727E+02  0.7816164E-02  0.1312668E+00
        -11   -1    0    0    0    0  0.00000000000E+00  0.00000000000E+00  0.45593999997E+02  0.45594000000E+02  0.51100000000E-03 0. -1.
         11   -1    0    0    0    0 -0.00000000000E+00 -0.00000000000E+00 -0.45593999997E+02  0.45594000000E+02  0.51100000000E-03 0.  1.
    9900012    2    1    2    0    0  0.23091835237E+02 -0.74244708779E+01  0.35989833121E+02  0.47787266014E+02  0.19999977064E+02 0.  0.
        -12    1    1    2    0    0 -0.23091835237E+02  0.74244708779E+01 -0.35989833121E+02  0.43400733986E+02  0.00000000000E+00 0.  1.
         11    1    3    3    0    0  0.10664094291E+02  0.52840429782E+01  0.20000614215E+02  0.23273774650E+02  0.51100000000E-03 0. -1.
        -11    1    3    3    0    0  0.75924110724E+01 -0.41559995583E+01  0.62215239691E+01  0.10659474611E+02  0.51100000000E-03 0.  1.
        -12    1    3    3    0    0  0.48353298736E+01 -0.85525142978E+01  0.97676949377E+01  0.13854016753E+02  0.00000000000E+00 0.  1.
</event>
<event>
 7    1  0.3221417E-010  0.4778727E+02  0.7816164E-02  0.1312668E+00
        -11   -1    0    0    0    0  0.00000000000E+00  0.00000000000E+00  0.45593999997E+02  0.45594000000E+02  0.51100000000E-03 0.  1.
         11   -1    0    0    0    0 -0.00000000000E+00 -0.00000000000E+00 -0.45593999997E+02  0.45594000000E+02  0.51100000000E-03 0. -1.
    9900012    2    1    2    0    0  0.30642009470E+02 -0.30496212262E+02  0.38303559726E+01  0.47787270357E+02  0.19999996865E+02 0.  0.
        -12    1    1    2    0    0 -0.30642009470E+02  0.30496212262E+02 -0.38303559726E+01  0.43400729643E+02  0.00000000000E+00 0.  1.
         11    1    3    3    0    0  0.11376228328E+02 -0.32221785740E+01 -0.13524286953E+01  0.11900843221E+02  0.51100000000E-03 0. -1.
        -11    1    3    3    0    0 -0.10695413978E+01 -0.59257148788E+01  0.11110881677E+01  0.61231146325E+01  0.51100000000E-03 0.  1.
        -12    1    3    3    0    0  0.20335322540E+02 -0.21348318809E+02  0.40716965002E+01  0.29763312503E+02  0.00000000000E+00 0.  1.
</event>
<event>
 7    1  0.3221417E-010  0.4778724E+02  0.7816164E-02  0.1312668E+00
        -11   -1    0    0    0    0  0.00000000000E+00  0.00000000000E+00  0.45593999997E+02  0.45594000000E+02  0.51100000000E-03 0. -1.
         11   -1    0    0    0    0 -0.00000000000E+00 -0.00000000000E+00 -0.45593999997E+02  0.45594000000E+02  0.51100000000E-03 0.  1.
    9900012    2    1    2    0    0  0.40783998579E+02  0.66116013153E+00  0.14827478936E+02  0.47787241891E+02  0.19999867077E+02 0.  0.
        -12    1    1    2    0    0 -0.40783998579E+02 -0.66116013153E+00 -0.14827478936E+02  0.43400758109E+02  0.00000000000E+00 0.  1.
         11    1    3    3    0    0  0.11828955601E+02 -0.56938499205E+01  0.52484937272E+01  0.14138274442E+02  0.51100000000E-03 0. -1.
        -11    1    3    3    0    0  0.97315707775E+00  0.40660816411E+01  0.11814527955E+01  0.43446387168E+01  0.51100000000E-03 0.  1.
         12    1    3    3    0    0  0.27981885901E+02  0.22889284109E+01  0.83975324134E+01  0.29304328732E+02  0.00000000000E+00 0. -1.
</event>
<event>
 7    1  0.3221417E-010  0.4778727E+02  0.7816164E-02  0.1312668E+00
        -11   -1    0    0    0    0  0.00000000000E+00  0.00000000000E+00  0.45593999997E+02  0.45594000000E+02  0.51100000000E-03 0.  1.
         11   -1    0    0    0    0 -0.00000000000E+00 -0.00000000000E+00 -0.45593999997E+02  0.45594000000E+02  0.51100000000E-03 0. -1.
    9900012    2    1    2    0    0 -0.18626926672E+02  0.66283934422E+01  0.38635802091E+02  0.47787271895E+02  0.20000003876E+02 0.  0.
        -12    1    1    2    0    0  0.18626926672E+02 -0.66283934422E+01 -0.38635802091E+02  0.43400728105E+02  0.00000000000E+00 0.  1.
         11    1    3    3    0    0 -0.12772010891E+02  0.69300285003E+00  0.11207481214E+02  0.17006238578E+02  0.51100000000E-03 0. -1.
        -11    1    3    3    0    0 -0.85737026201E+01  0.14166667234E+01  0.17518214742E+02  0.19555131532E+02  0.51100000000E-03 0.  1.
        -12    1    3    3    0    0  0.27187868386E+01  0.45187238687E+01  0.99101061345E+01  0.11225901784E+02  0.00000000000E+00 0.  1.
</event>
<event>
 7    1  0.3221417E-010  0.4778728E+02  0.7816164E-02  0.1312668E+00
        -11   -1    0    0    0    0  0.00000000000E+00  0.00000000000E+00  0.45593999997E+02  0.45594000000E+02  0.51100000000E-03 0. -1.
         11   -1    0    0    0    0 -0.00000000000E+00 -0.00000000000E+00 -0.45593999997E+02  0.45594000000E+02  0.51100000000E-03 0.  1.
    9900012    2    1    2    0    0  0.11965325455E+02 -0.43534983793E+01 -0.41490968518E+02  0.47787280767E+02  0.20000044329E+02 0.  0.
         12    1    1    2    0    0 -0.11965325455E+02  0.43534983793E+01  0.41490968518E+02  0.43400719233E+02  0.00000000000E+00 0. -1.
         11    1    3    3    0    0  0.54774581803E+01 -0.82527060005E+01 -0.15538720325E+02  0.18427195501E+02  0.51100000000E-03 0. -1.
        -11    1    3    3    0    0  0.67296530450E+00  0.65750729631E+00 -0.21102526169E+02  0.21123489511E+02  0.51100000000E-03 0.  1.
        -12    1    3    3    0    0  0.58149019703E+01  0.32417003249E+01 -0.48497220243E+01  0.82365957552E+01  0.00000000000E+00 0.  1.
</event>
<event>
 7    1  0.3221417E-010  0.4778727E+02  0.7816164E-02  0.1312668E+00
        -11   -1    0    0    0    0  0.00000000000E+00  0.00000000000E+00  0.45593999997E+02  0.45594000000E+02  0.51100000000E-03 0. -1.
         11   -1    0    0    0    0 -0.00000000000E+00 -0.00000000000E+00 -0.45593999997E+02  0.45594000000E+02  0.51100000000E-03 0.  1.
    9900012    2    1    2    0    0 -0.20651060702E+02  0.21658115416E+02  0.31433790005E+02  0.47787269297E+02  0.19999992032E+02 0.  0.
        -12    1    1    2    0    0  0.20651060702E+02 -0.21658115416E+02 -0.31433790005E+02  0.43400730703E+02  0.00000000000E+00 0.  1.
         11    1    3    3    0    0 -0.74891257226E+01  0.13365201302E+01  0.25546632514E+01  0.80249358088E+01  0.51100000000E-03 0. -1.
        -11    1    3    3    0    0 -0.15475563289E+02  0.15575528263E+02  0.21903436631E+02  0.31013717550E+02  0.51100000000E-03 0.  1.
        -12    1    3    3    0    0  0.23136283093E+01  0.47460670228E+01  0.69756901227E+01  0.87486159377E+01  0.00000000000E+00 0.  1.
</event>
<event>
 7    1  0.3221417E-010  0.4778726E+02  0.7816164E-02  0.1312668E+00
        -11   -1    0    0    0    0  0.00000000000E+00  0.00000000000E+00  0.45593999997E+02  0.45594000000E+02  0.51100000000E-03 0. -1.
         11   -1    0    0    0    0 -0.00000000000E+00 -0.00000000000E+00 -0.45593999997E+02  0.45594000000E+02  0.51100000000E-03 0.  1.
    9900012    2    1    2    0    0  0.93950464907E+01 -0.18371871590E+02  0.38181556376E+02  0.47787264850E+02  0.19999971758E+02 0.  0.
        -12    1    1    2    0    0 -0.93950464907E+01  0.18371871590E+02 -0.38181556376E+02  0.43400735150E+02  0.00000000000E+00 0.  1.
         11    1    3    3    0    0  0.32598443653E+01 -0.41578843543E+01  0.50841045113E+01  0.73323056764E+01  0.51100000000E-03 0. -1.
        -11    1    3    3    0    0  0.58996908534E+01  0.23212719822E+01  0.12713521267E+02  0.14206627997E+02  0.51100000000E-03 0.  1.
         12    1    3    3    0    0  0.23551127198E+00 -0.16535259218E+02  0.20383930598E+02  0.26248331177E+02  0.00000000000E+00 0. -1.
</event>
<event>
 7    1  0.3221417E-010  0.4778727E+02  0.7816164E-02  0.1312668E+00
        -11   -1    0    0    0    0  0.00000000000E+00  0.00000000000E+00  0.45593999997E+02  0.45594000000E+02  0.51100000000E-03 0.  1.
         11   -1    0    0    0    0 -0.00000000000E+00 -0.00000000000E+00 -0.45593999997E+02  0.45594000000E+02  0.51100000000E-03 0. -1.
    9900012    2    1    2    0    0 -0.66167557194E+01  0.40683014617E+02  0.13591710286E+02  0.47787265870E+02  0.19999976407E+02 0.  0.
        -12    1    1    2    0    0  0.66167557194E+01 -0.40683014617E+02 -0.13591710286E+02  0.43400734130E+02  0.00000000000E+00 0.  1.
         11    1    3    3    0    0 -0.11502066265E+00  0.43194546853E+00  0.20293747080E+01  0.20780203578E+01  0.51100000000E-03 0.  1.
        -11    1    3    3    0    0 -0.90592713719E+01  0.40609139087E+02  0.10464681289E+02  0.42903171560E+02  0.51100000000E-03 0. -1.
         12    1    3    3    0    0  0.25575363152E+01 -0.35806993924E+00  0.10976542890E+01  0.28060739518E+01  0.00000000000E+00 0. -1.
</event>
<event>
 7    1  0.3221417E-010  0.4778731E+02  0.7816164E-02  0.1312668E+00
        -11   -1    0    0    0    0  0.00000000000E+00  0.00000000000E+00  0.45593999997E+02  0.45594000000E+02  0.51100000000E-03 0.  1.
         11   -1    0    0    0    0 -0.00000000000E+00 -0.00000000000E+00 -0.45593999997E+02  0.45594000000E+02  0.51100000000E-03 0. -1.
    9900012    2    1    2    0    0  0.49952896760E+01  0.42182385315E+02  0.89058276891E+01  0.47787305114E+02  0.20000155334E+02 0.  0.
        -12    1    1    2    0    0 -0.49952896760E+01 -0.42182385315E+02 -0.89058276891E+01  0.43400694886E+02  0.00000000000E+00 0.  1.
         11    1    3    3    0    0  0.19126076608E+01  0.86989575083E+01  0.43453668538E+01  0.99102039914E+01  0.51100000000E-03 0. -1.
        -11    1    3    3    0    0  0.71961531351E+01  0.19998105014E+02  0.90222860353E+01  0.23089185123E+02  0.51100000000E-03 0.  1.
         12    1    3    3    0    0 -0.41134711198E+01  0.13485322792E+02 -0.44618252000E+01  0.14787915999E+02  0.00000000000E+00 0. -1.
</event>
<event>
 7    1  0.3221417E-010  0.4778727E+02  0.7816164E-02  0.1312668E+00
        -11   -1    0    0    0    0  0.00000000000E+00  0.00000000000E+00  0.45593999997E+02  0.45594000000E+02  0.51100000000E-03 0. -1.
         11   -1    0    0    0    0 -0.00000000000E+00 -0.00000000000E+00 -0.45593999997E+02  0.45594000000E+02  0.51100000000E-03 0.  1.
    9900012    2    1    2    0    0 -0.83084451528E+01 -0.21440556649E+02 -0.36808907335E+02  0.47787269712E+02  0.19999993927E+02 0.  0.
         12    1    1    2    0    0  0.83084451528E+01  0.21440556649E+02  0.36808907335E+02  0.43400730288E+02  0.00000000000E+00 0. -1.
         11    1    3    3    0    0  0.33514338412E+01 -0.89656856039E+00 -0.18944659512E+01  0.39528401785E+01  0.51100000000E-03 0. -1.
        -11    1    3    3    0    0 -0.69041881328E+01 -0.50510268825E+01 -0.20231667522E+02  0.21965906703E+02  0.51100000000E-03 0.  1.
        -12    1    3    3    0    0 -0.47556908611E+01 -0.15492961206E+02 -0.14682773863E+02  0.21868522831E+02  0.00000000000E+00 0.  1.
</event>
<event>
 7    1  0.3221417E-010  0.4778727E+02  0.7816164E-02  0.1312668E+00
        -11   -1    0    0    0    0  0.00000000000E+00  0.00000000000E+00  0.45593999997E+02  0.45594000000E+02  0.51100000000E-03 0. -1.
         11   -1    0    0    0    0 -0.00000000000E+00 -0.00000000000E+00 -0.45593999997E+02  0.45594000000E+02  0.51100000000E-03 0.  1.
    9900012    2    1    2    0    0  0.45377738149E+01  0.15311454265E+02  0.40355812698E+02  0.47787266810E+02  0.19999980693E+02 0.  0.
        -12    1    1    2    0    0 -0.45377738149E+01 -0.15311454265E+02 -0.40355812698E+02  0.43400733190E+02  0.00000000000E+00 0.  1.
         11    1    3    3    0    0 -0.24913726091E+01  0.66946590585E+01  0.14813642642E+02  0.16445954091E+02  0.51100000000E-03 0. -1.
        -11    1    3    3    0    0 -0.33153839150E+01  0.15507604506E+01  0.13415667660E+02  0.13905997537E+02  0.51100000000E-03 0.  1.
        -12    1    3    3    0    0  0.10344530339E+02  0.70660347563E+01  0.12126502396E+02  0.17435315182E+02  0.00000000000E+00 0.  1.
</event>
<event>
 7    1  0.3221417E-010  0.4778727E+02  0.7816164E-02  0.1312668E+00
        -11   -1    0    0    0    0  0.00000000000E+00  0.00000000000E+00  0.45593999997E+02  0.45594000000E+02  0.51100000000E-03 0. -1.
         11   -1    0    0    0    0 -0.00000000000E+00 -0.00000000000E+00 -0.45593999997E+02  0.45594000000E+02  0.51100000000E-03 0.  1.
    9900012    2    1    2    0    0 -0.42159560480E+02  0.80365649357E+01  0.64504490822E+01  0.47787271790E+02  0.20000003397E+02 0.  0.
        -12    1    1    2    0    0  0.42159560480E+02 -0.80365649357E+01 -0.64504490822E+01  0.43400728210E+02  0.00000000000E+00 0.  1.
         11    1    3    3    0    0 -0.19576497242E+02  0.47539410322E+01  0.49684213961E+01  0.20749082173E+02  0.51100000000E-03 0. -1.
        -11    1    3    3    0    0 -0.14330450812E+02 -0.44593393403E+01 -0.21331510274E+01  0.15159085111E+02  0.51100000000E-03 0.  1.
         12    1    3    3    0    0 -0.82526124260E+01  0.77419632438E+01  0.36151787134E+01  0.11879104506E+02  0.00000000000E+00 0. -1.
</event>
<event>
 7    1  0.3221417E-010  0.4778727E+02  0.7816164E-02  0.1312668E+00
        -11   -1    0    0    0    0  0.00000000000E+00  0.00000000000E+00  0.45593999997E+02  0.45594000000E+02  0.51100000000E-03 0. -1.
         11   -1    0    0    0    0 -0.00000000000E+00 -0.00000000000E+00 -0.45593999997E+02  0.45594000000E+02  0.51100000000E-03 0.  1.
    9900012    2    1    2    0    0 -0.36596553332E+02  0.21823840106E+02  0.82483591700E+01  0.47787272566E+02  0.20000006938E+02 0.  0.
        -12    1    1    2    0    0  0.36596553332E+02 -0.21823840106E+02 -0.82483591700E+01  0.43400727434E+02  0.00000000000E+00 0.  1.
         11    1    3    3    0    0 -0.11330936515E+02 -0.12311397929E+01  0.11456458587E+01  0.11455057057E+02  0.51100000000E-03 0. -1.
        -11    1    3    3    0    0 -0.22336910871E+02  0.14607820954E+02  0.51863350622E+01  0.27188675803E+02  0.51100000000E-03 0.  1.
        -12    1    3    3    0    0 -0.29287059471E+01  0.84471589448E+01  0.19163782490E+01  0.91435397061E+01  0.00000000000E+00 0.  1.
</event>
<event>
 7    1  0.3221417E-010  0.4778727E+02  0.7816164E-02  0.1312668E+00
        -11   -1    0    0    0    0  0.00000000000E+00  0.00000000000E+00  0.45593999997E+02  0.45594000000E+02  0.51100000000E-03 0. -1.
         11   -1    0    0    0    0 -0.00000000000E+00 -0.00000000000E+00 -0.45593999997E+02  0.45594000000E+02  0.51100000000E-03 0.  1.
    9900012    2    1    2    0    0 -0.42339637653E+02 -0.73417576177E+01 -0.60891204709E+01  0.47787266025E+02  0.19999977113E+02 0.  0.
         12    1    1    2    0    0  0.42339637653E+02  0.73417576177E+01  0.60891204709E+01  0.43400733975E+02  0.00000000000E+00 0. -1.
         11    1    3    3    0    0 -0.27364244757E+02 -0.11693684993E+02 -0.27076172473E+00  0.29759325799E+02  0.51100000000E-03 0. -1.
        -11    1    3    3    0    0 -0.30263604987E+01  0.27402842845E+01  0.96276626936E+00  0.41946316857E+01  0.51100000000E-03 0.  1.
         12    1    3    3    0    0 -0.11949032398E+02  0.16116430913E+01 -0.67811250155E+01  0.13833308540E+02  0.00000000000E+00 0. -1.
</event>
<event>
 7    1  0.3221417E-010  0.4778728E+02  0.7816164E-02  0.1312668E+00
        -11   -1    0    0    0    0  0.00000000000E+00  0.00000000000E+00  0.45593999997E+02  0.45594000000E+02  0.51100000000E-03 0. -1.
         11   -1    0    0    0    0 -0.00000000000E+00 -0.00000000000E+00 -0.45593999997E+02  0.45594000000E+02  0.51100000000E-03 0.  1.
    9900012    2    1    2    0    0  0.14417835998E+02  0.83767377704E+01  0.40069678252E+02  0.47787275977E+02  0.20000022489E+02 0.  0.
        -12    1    1    2    0    0 -0.14417835998E+02 -0.83767377704E+01 -0.40069678252E+02  0.43400724023E+02  0.00000000000E+00 0.  1.
         11    1    3    3    0    0  0.63821259292E+01 -0.32277849961E+01  0.60732422071E+01  0.93826647880E+01  0.51100000000E-03 0.  1.
        -11    1    3    3    0    0  0.40521975483E+01  0.15201295874E+01  0.21176849738E+02  0.21614579894E+02  0.51100000000E-03 0. -1.
        -12    1    3    3    0    0  0.39835125204E+01  0.10084393179E+02  0.12819586307E+02  0.16790031294E+02  0.00000000000E+00 0.  1.
</event>
<event>
 7    1  0.3221417E-010  0.4778729E+02  0.7816164E-02  0.1312668E+00
        -11   -1    0    0    0    0  0.00000000000E+00  0.00000000000E+00  0.45593999997E+02  0.45594000000E+02  0.51100000000E-03 0.  1.
         11   -1    0    0    0    0 -0.00000000000E+00 -0.00000000000E+00 -0.45593999997E+02  0.45594000000E+02  0.51100000000E-03 0. -1.
    9900012    2    1    2    0    0 -0.14603061616E+01  0.43371449135E+02  0.63767990986E+00  0.47787288833E+02  0.20000081104E+02 0.  0.
         12    1    1    2    0    0  0.14603061616E+01 -0.43371449135E+02 -0.63767990986E+00  0.43400711167E+02  0.00000000000E+00 0. -1.
         11    1    3    3    0    0 -0.53141226388E+01  0.71009641992E+01  0.88077207520E+00  0.89128756127E+01  0.51100000000E-03 0. -1.
        -11    1    3    3    0    0  0.64069789536E+00  0.32271229705E+02 -0.39877428043E+01  0.32522989614E+02  0.51100000000E-03 0.  1.
         12    1    3    3    0    0  0.32131185818E+01  0.39992552308E+01  0.37446506389E+01  0.63514236065E+01  0.00000000000E+00 0. -1.
</event>
<event>
 7    1  0.3221417E-010  0.4778730E+02  0.7816164E-02  0.1312668E+00
        -11   -1    0    0    0    0  0.00000000000E+00  0.00000000000E+00  0.45593999997E+02  0.45594000000E+02  0.51100000000E-03 0. -1.
         11   -1    0    0    0    0 -0.00000000000E+00 -0.00000000000E+00 -0.45593999997E+02  0.45594000000E+02  0.51100000000E-03 0.  1.
    9900012    2    1    2    0    0 -0.31109756512E+02 -0.10794509862E+02 -0.28271578031E+02  0.47787302797E+02  0.20000144771E+02 0.  0.
         12    1    1    2    0    0  0.31109756512E+02  0.10794509862E+02  0.28271578031E+02  0.43400697203E+02  0.00000000000E+00 0. -1.
         11    1    3    3    0    0 -0.10404039837E+02 -0.87677383861E+01 -0.13612158411E+02  0.19245990185E+02  0.51100000000E-03 0. -1.
        -11    1    3    3    0    0 -0.97915743377E+01 -0.68218422032E+01 -0.10560143261E+02  0.15935152494E+02  0.51100000000E-03 0.  1.
         12    1    3    3    0    0 -0.10914142338E+02  0.47950707273E+01 -0.40992763583E+01  0.12606160117E+02  0.00000000000E+00 0. -1.
</event>
<event>
 7    1  0.3221417E-010  0.4778726E+02  0.7816164E-02  0.1312668E+00
        -11   -1    0    0    0    0  0.00000000000E+00  0.00000000000E+00  0.45593999997E+02  0.45594000000E+02  0.51100000000E-03 0. -1.
         11   -1    0    0    0    0 -0.00000000000E+00 -0.00000000000E+00 -0.45593999997E+02  0.45594000000E+02  0.51100000000E-03 0.  1.
    9900012    2    1    2    0    0  0.21145291518E+02  0.24574380456E+02  0.28854824040E+02  0.47787258088E+02  0.19999940926E+02 0.  0.
        -12    1    1    2    0    0 -0.21145291518E+02 -0.24574380456E+02 -0.28854824040E+02  0.43400741912E+02  0.00000000000E+00 0.  1.
         11    1    3    3    0    0  0.57142686385E+01  0.11258914387E+02  0.94357640455E+01  0.15762286085E+02  0.51100000000E-03 0. -1.
        -11    1    3    3    0    0  0.32211982221E+01  0.22923048703E+01 -0.24566100795E+01  0.46546442343E+01  0.51100000000E-03 0.  1.
        -12    1    3    3    0    0  0.12209824657E+02  0.11023161198E+02  0.21875670074E+02  0.27370327768E+02  0.00000000000E+00 0.  1.
</event>
<event>
 7    1  0.3221417E-010  0.4778727E+02  0.7816164E-02  0.1312668E+00
        -11   -1    0    0    0    0  0.00000000000E+00  0.00000000000E+00  0.45593999997E+02  0.45594000000E+02  0.51100000000E-03 0. -1.
         11   -1    0    0    0    0 -0.00000000000E+00 -0.00000000000E+00 -0.45593999997E+02  0.45594000000E+02  0.51100000000E-03 0.  1.
    9900012    2    1    2    0    0  0.34413865936E+02  0.11937466252E+02 -0.23596740573E+02  0.47787269190E+02  0.19999991543E+02 0.  0.
         12    1    1    2    0    0 -0.34413865936E+02 -0.11937466252E+02  0.23596740573E+02  0.43400730810E+02  0.00000000000E+00 0. -1.
         11    1    3    3    0    0 -0.12738334327E-01  0.18056732433E+01 -0.48672697273E+00  0.18701661781E+01  0.51100000000E-03 0. -1.
        -11    1    3    3    0    0  0.35379737568E+02  0.72141335305E+01 -0.23067979231E+02  0.42847417880E+02  0.51100000000E-03 0.  1.
        -12    1    3    3    0    0 -0.95313329733E+00  0.29176594787E+01 -0.42034369642E-01  0.30696851311E+01  0.00000000000E+00 0.  1.
</event>
<event>
 7    1  0.3221417E-010  0.4778727E+02  0.7816164E-02  0.1312668E+00
        -11   -1    0    0    0    0  0.00000000000E+00  0.00000000000E+00  0.45593999997E+02  0.45594000000E+02  0.51100000000E-03 0. -1.
         11   -1    0    0    0    0 -0.00000000000E+00 -0.00000000000E+00 -0.45593999997E+02  0.45594000000E+02  0.51100000000E-03 0.  1.
    9900012    2    1    2    0    0 -0.33412326913E+02  0.10316389325E+02  0.25706259185E+02  0.47787271438E+02  0.20000001794E+02 0.  0.
        -12    1    1    2    0    0  0.33412326913E+02 -0.10316389325E+02 -0.25706259185E+02  0.43400728562E+02  0.00000000000E+00 0.  1.
         11    1    3    3    0    0 -0.25765887240E+02  0.12129110297E+02  0.25899068436E+02  0.38493609963E+02  0.51100000000E-03 0. -1.
        -11    1    3    3    0    0 -0.41987805064E+00 -0.17528485551E+01  0.84858713551E+00  0.19922038104E+01  0.51100000000E-03 0.  1.
        -12    1    3    3    0    0 -0.72265616226E+01 -0.59872417210E-01 -0.10413963868E+01  0.73014576645E+01  0.00000000000E+00 0.  1.
</event>
<event>
 7    1  0.3221417E-010  0.4778727E+02  0.7816164E-02  0.1312668E+00
        -11   -1    0    0    0    0  0.00000000000E+00  0.00000000000E+00  0.45593999997E+02  0.45594000000E+02  0.51100000000E-03 0. -1.
         11   -1    0    0    0    0 -0.00000000000E+00 -0.00000000000E+00 -0.45593999997E+02  0.45594000000E+02  0.51100000000E-03 0.  1.
    9900012    2    1    2    0    0 -0.14498856551E+02 -0.28499475080E+02  0.29345973094E+02  0.47787273532E+02  0.20000011343E+02 0.  0.
        -12    1    1    2    0    0  0.14498856551E+02  0.28499475080E+02 -0.29345973094E+02  0.43400726468E+02  0.00000000000E+00 0.  1.
         11    1    3    3    0    0 -0.44646333245E+01 -0.15430473214E+02  0.18257400818E+02  0.24318000313E+02  0.51100000000E-03 0. -1.
        -11    1    3    3    0    0 -0.12939515578E+02 -0.11774195314E+02  0.91275857651E+01  0.19732601472E+02  0.51100000000E-03 0.  1.
        -12    1    3    3    0    0  0.29052923512E+01 -0.12948065512E+01  0.19609865106E+01  0.37366717471E+01  0.00000000000E+00 0.  1.
</event>
<event>
 7    1  0.3221417E-010  0.4778727E+02  0.7816164E-02  0.1312668E+00
        -11   -1    0    0    0    0  0.00000000000E+00  0.00000000000E+00  0.45593999997E+02  0.45594000000E+02  0.51100000000E-03 0. -1.
         11   -1    0    0    0    0 -0.00000000000E+00 -0.00000000000E+00 -0.45593999997E+02  0.45594000000E+02  0.51100000000E-03 0.  1.
    9900012    2    1    2    0    0  0.17845614761E+01 -0.13314158114E+02  0.41269501700E+02  0.47787271475E+02  0.20000001964E+02 0.  0.
        -12    1    1    2    0    0 -0.17845614761E+01  0.13314158114E+02 -0.41269501700E+02  0.43400728525E+02  0.00000000000E+00 0.  1.
         11    1    3    3    0    0 -0.26342599791E+00 -0.10567672390E+02  0.19912024446E+02  0.22544041581E+02  0.51100000000E-03 0. -1.
        -11    1    3    3    0    0  0.91625330359E+00 -0.19774569617E+01 -0.13044914883E+01  0.25399910346E+01  0.51100000000E-03 0.  1.
         12    1    3    3    0    0  0.11317341704E+01 -0.76902876205E+00  0.22661968742E+02  0.22703238860E+02  0.00000000000E+00 0. -1.
</event>
<event>
 7    1  0.3221417E-010  0.4778728E+02  0.7816164E-02  0.1312668E+00
        -11   -1    0    0    0    0  0.00000000000E+00  0.00000000000E+00  0.45593999997E+02  0.45594000000E+02  0.51100000000E-03 0. -1.
         11   -1    0    0    0    0 -0.00000000000E+00 -0.00000000000E+00 -0.45593999997E+02  0.45594000000E+02  0.51100000000E-03 0.  1.
    9900012    2    1    2    0    0  0.14278193109E+02  0.23273591024E+02  0.33735674492E+02  0.47787279141E+02  0.20000036918E+02 0.  0.
        -12    1    1    2    0    0 -0.14278193109E+02 -0.23273591024E+02 -0.33735674492E+02  0.43400720859E+02  0.00000000000E+00 0.  1.
         11    1    3    3    0    0  0.33340025711E+01  0.15260131372E+02  0.20169481594E+02  0.25510687382E+02  0.51100000000E-03 0.  1.
        -11    1    3    3    0    0  0.11382249310E+02  0.10207640027E+02  0.10799924059E+02  0.18718703861E+02  0.51100000000E-03 0. -1.
        -12    1    3    3    0    0 -0.43805877284E+00 -0.21941803759E+01  0.27662688393E+01  0.35578878990E+01  0.00000000000E+00 0.  1.
</event>
<event>
 7    1  0.3221417E-010  0.4778727E+02  0.7816164E-02  0.1312668E+00
        -11   -1    0    0    0    0  0.00000000000E+00  0.00000000000E+00  0.45593999997E+02  0.45594000000E+02  0.51100000000E-03 0. -1.
         11   -1    0    0    0    0 -0.00000000000E+00 -0.00000000000E+00 -0.45593999997E+02  0.45594000000E+02  0.51100000000E-03 0.  1.
    9900012    2    1    2    0    0 -0.11394446441E+02 -0.75489800005E+01  0.41192262041E+02  0.47787274651E+02  0.20000016444E+02 0.  0.
        -12    1    1    2    0    0  0.11394446441E+02  0.75489800005E+01 -0.41192262041E+02  0.43400725349E+02  0.00000000000E+00 0.  1.
         11    1    3    3    0    0  0.39185034431E+01  0.25208336055E+00  0.11160979066E+02  0.11831553965E+02  0.51100000000E-03 0. -1.
        -11    1    3    3    0    0  0.77474631232E+00  0.97888607468E+00  0.34462433934E+01  0.36653845069E+01  0.51100000000E-03 0.  1.
        -12    1    3    3    0    0 -0.16087696196E+02 -0.87799494357E+01  0.26585039582E+02  0.32290336179E+02  0.00000000000E+00 0.  1.
</event>
<event>
 7    1  0.3221417E-010  0.4778727E+02  0.7816164E-02  0.1312668E+00
        -11   -1    0    0    0    0  0.00000000000E+00  0.00000000000E+00  0.45593999997E+02  0.45594000000E+02  0.51100000000E-03 0. -1.
         11   -1    0    0    0    0 -0.00000000000E+00 -0.00000000000E+00 -0.45593999997E+02  0.45594000000E+02  0.51100000000E-03 0.  1.
    9900012    2    1    2    0    0  0.39961492002E+02  0.12286304298E+02 -0.11651155085E+02  0.47787268080E+02  0.19999986484E+02 0.  0.
         12    1    1    2    0    0 -0.39961492002E+02 -0.12286304298E+02  0.11651155085E+02  0.43400731920E+02  0.00000000000E+00 0. -1.
         11    1    3    3    0    0  0.16858717299E+02  0.81395812425E+01 -0.70614990451E+01  0.20008345779E+02  0.51100000000E-03 0.  1.
        -11    1    3    3    0    0  0.14822799963E+02 -0.43654565196E+01 -0.16106865183E+01  0.15535987921E+02  0.51100000000E-03 0. -1.
         12    1    3    3    0    0  0.82799747403E+01  0.85121795755E+01 -0.29789695214E+01  0.12242934380E+02  0.00000000000E+00 0. -1.
</event>
<event>
 7    1  0.3221417E-010  0.4778727E+02  0.7816164E-02  0.1312668E+00
        -11   -1    0    0    0    0  0.00000000000E+00  0.00000000000E+00  0.45593999997E+02  0.45594000000E+02  0.51100000000E-03 0. -1.
         11   -1    0    0    0    0 -0.00000000000E+00 -0.00000000000E+00 -0.45593999997E+02  0.45594000000E+02  0.51100000000E-03 0.  1.
    9900012    2    1    2    0    0 -0.30963617383E+02 -0.24318639858E+02  0.18261483278E+02  0.47787267086E+02  0.19999981952E+02 0.  0.
        -12    1    1    2    0    0  0.30963617383E+02  0.24318639858E+02 -0.18261483278E+02  0.43400732914E+02  0.00000000000E+00 0.  1.
         11    1    3    3    0    0 -0.12335813202E+02 -0.13260918405E+00  0.59073219872E+01  0.13677950353E+02  0.51100000000E-03 0. -1.
        -11    1    3    3    0    0 -0.14161749350E+01 -0.56115071064E+01 -0.31085460257E+00  0.57957910846E+01  0.51100000000E-03 0.  1.
        -12    1    3    3    0    0 -0.17211629246E+02 -0.18574523568E+02  0.12665015893E+02  0.28313525648E+02  0.00000000000E+00 0.  1.
</event>
<event>
 7    1  0.3221417E-010  0.4778727E+02  0.7816164E-02  0.1312668E+00
        -11   -1    0    0    0    0  0.00000000000E+00  0.00000000000E+00  0.45593999997E+02  0.45594000000E+02  0.51100000000E-03 0. -1.
         11   -1    0    0    0    0 -0.00000000000E+00 -0.00000000000E+00 -0.45593999997E+02  0.45594000000E+02  0.51100000000E-03 0.  1.
    9900012    2    1    2    0    0 -0.46858597455E+01 -0.22826475633E+01  0.43086605465E+02  0.47787270375E+02  0.19999996949E+02 0.  0.
        -12    1    1    2    0    0  0.46858597455E+01  0.22826475633E+01 -0.43086605465E+02  0.43400729625E+02  0.00000000000E+00 0.  1.
         11    1    3    3    0    0 -0.12196206511E+00 -0.27171251304E+01  0.26480584377E+02  0.26619898439E+02  0.51100000000E-03 0. -1.
        -11    1    3    3    0    0 -0.23382175971E+01 -0.41636928517E+01  0.11820611654E+01  0.49194378291E+01  0.51100000000E-03 0.  1.
        -12    1    3    3    0    0 -0.22256800833E+01  0.45981704188E+01  0.15423959923E+02  0.16247934107E+02  0.00000000000E+00 0.  1.
</event>
<event>
 7    1  0.3221417E-010  0.4778728E+02  0.7816164E-02  0.1312668E+00
        -11   -1    0    0    0    0  0.00000000000E+00  0.00000000000E+00  0.45593999997E+02  0.45594000000E+02  0.51100000000E-03 0. -1.
         11   -1    0    0    0    0 -0.00000000000E+00 -0.00000000000E+00 -0.45593999997E+02  0.45594000000E+02  0.51100000000E-03 0.  1.
    9900012    2    1    2    0    0  0.18423929067E+02  0.36807073936E+01 -0.39123316264E+02  0.47787278293E+02  0.20000033049E+02 0.  0.
         12    1    1    2    0    0 -0.18423929067E+02 -0.36807073936E+01  0.39123316264E+02  0.43400721707E+02  0.00000000000E+00 0. -1.
         11    1    3    3    0    0 -0.85846068423E+00 -0.96617963957E+00 -0.15503008233E+02  0.15556790233E+02  0.51100000000E-03 0. -1.
        -11    1    3    3    0    0  0.65797786304E+01 -0.24102141225E+01 -0.49864267579E+01  0.86004110957E+01  0.51100000000E-03 0.  1.
        -12    1    3    3    0    0  0.12702611120E+02  0.70571011556E+01 -0.18633881274E+02  0.23630076964E+02  0.00000000000E+00 0.  1.
</event>
<event>
 7    1  0.3221417E-010  0.4778727E+02  0.7816164E-02  0.1312668E+00
        -11   -1    0    0    0    0  0.00000000000E+00  0.00000000000E+00  0.45593999997E+02  0.45594000000E+02  0.51100000000E-03 0. -1.
         11   -1    0    0    0    0 -0.00000000000E+00 -0.00000000000E+00 -0.45593999997E+02  0.45594000000E+02  0.51100000000E-03 0.  1.
    9900012    2    1    2    0    0  0.37335579675E+02 -0.22118124180E+02 -0.68311920969E+00  0.47787267532E+02  0.19999983986E+02 0.  0.
         12    1    1    2    0    0 -0.37335579675E+02  0.22118124180E+02  0.68311920969E+00  0.43400732468E+02  0.00000000000E+00 0. -1.
         11    1    3    3    0    0  0.80172072729E+00 -0.47891414417E+01 -0.29114616925E+01  0.56617348331E+01  0.51100000000E-03 0. -1.
        -11    1    3    3    0    0  0.12414053193E+02 -0.15357916195E+01  0.42840570511E+01  0.13221971020E+02  0.51100000000E-03 0.  1.
        -12    1    3    3    0    0  0.24119805754E+02 -0.15793191118E+02 -0.20557145683E+01  0.28903561679E+02  0.00000000000E+00 0.  1.
</event>
<event>
 7    1  0.3221417E-010  0.4778727E+02  0.7816164E-02  0.1312668E+00
        -11   -1    0    0    0    0  0.00000000000E+00  0.00000000000E+00  0.45593999997E+02  0.45594000000E+02  0.51100000000E-03 0. -1.
         11   -1    0    0    0    0 -0.00000000000E+00 -0.00000000000E+00 -0.45593999997E+02  0.45594000000E+02  0.51100000000E-03 0.  1.
    9900012    2    1    2    0    0 -0.14735587407E+02 -0.61865897747E+00 -0.40817926075E+02  0.47787270004E+02  0.19999995255E+02 0.  0.
         12    1    1    2    0    0  0.14735587407E+02  0.61865897747E+00  0.40817926075E+02  0.43400729996E+02  0.00000000000E+00 0. -1.
         11    1    3    3    0    0 -0.57271030006E+01  0.99379797070E+00 -0.27611719472E+02  0.28216916834E+02  0.51100000000E-03 0. -1.
        -11    1    3    3    0    0 -0.11420066052E+01  0.24897275778E+01 -0.96178732132E+01  0.10000320390E+02  0.51100000000E-03 0.  1.
        -12    1    3    3    0    0 -0.78664778010E+01 -0.41021845259E+01 -0.35883333901E+01  0.95700327793E+01  0.00000000000E+00 0.  1.
</event>
<event>
 7    1  0.3221417E-010  0.4778728E+02  0.7816164E-02  0.1312668E+00
        -11   -1    0    0    0    0  0.00000000000E+00  0.00000000000E+00  0.45593999997E+02  0.45594000000E+02  0.51100000000E-03 0. -1.
         11   -1    0    0    0    0 -0.00000000000E+00 -0.00000000000E+00 -0.45593999997E+02  0.45594000000E+02  0.51100000000E-03 0.  1.
    9900012    2    1    2    0    0 -0.10671714119E+02  0.11963037960E+02 -0.40331411917E+02  0.47787279422E+02  0.20000038195E+02 0.  0.
         12    1    1    2    0    0  0.10671714119E+02 -0.11963037960E+02  0.40331411917E+02  0.43400720578E+02  0.00000000000E+00 0. -1.
         11    1    3    3    0    0 -0.17489721040E+01 -0.14412179266E+01 -0.53753640618E+01  0.58335710839E+01  0.51100000000E-03 0.  1.
        -11    1    3    3    0    0 -0.77941358216E+01  0.16067419611E+01 -0.42108585163E+01  0.90034161650E+01  0.51100000000E-03 0. -1.
         12    1    3    3    0    0 -0.11286061939E+01  0.11797513925E+02 -0.30745189339E+02  0.32950292173E+02  0.00000000000E+00 0. -1.
</event>
<event>
 7    1  0.3221417E-010  0.4778727E+02  0.7816164E-02  0.1312668E+00
        -11   -1    0    0    0    0  0.00000000000E+00  0.00000000000E+00  0.45593999997E+02  0.45594000000E+02  0.51100000000E-03 0. -1.
         11   -1    0    0    0    0 -0.00000000000E+00 -0.00000000000E+00 -0.45593999997E+02  0.45594000000E+02  0.51100000000E-03 0.  1.
    9900012    2    1    2    0    0  0.19442745757E+02 -0.38898787703E+01 -0.38606628882E+02  0.47787270593E+02  0.19999997944E+02 0.  0.
         12    1    1    2    0    0 -0.19442745757E+02  0.38898787703E+01  0.38606628882E+02  0.43400729407E+02  0.00000000000E+00 0. -1.
         11    1    3    3    0    0  0.14166350543E+02  0.58981621264E+00 -0.17860334978E+02  0.22804055268E+02  0.51100000000E-03 0. -1.
        -11    1    3    3    0    0  0.84024417947E+01 -0.10089410262E+01 -0.90584313418E+01  0.12396538579E+02  0.51100000000E-03 0.  1.
         12    1    3    3    0    0 -0.31260465810E+01 -0.34707539567E+01 -0.11687862562E+02  0.12586676747E+02  0.00000000000E+00 0. -1.
</event>
<event>
 7    1  0.3221417E-010  0.4778728E+02  0.7816164E-02  0.1312668E+00
        -11   -1    0    0    0    0  0.00000000000E+00  0.00000000000E+00  0.45593999997E+02  0.45594000000E+02  0.51100000000E-03 0. -1.
         11   -1    0    0    0    0 -0.00000000000E+00 -0.00000000000E+00 -0.45593999997E+02  0.45594000000E+02  0.51100000000E-03 0.  1.
    9900012    2    1    2    0    0  0.27113649694E+02 -0.17362330874E+02  0.29103648052E+02  0.47787275778E+02  0.20000021580E+02 0.  0.
        -12    1    1    2    0    0 -0.27113649694E+02  0.17362330874E+02 -0.29103648052E+02  0.43400724222E+02  0.00000000000E+00 0.  1.
         11    1    3    3    0    0  0.52629205238E+01 -0.21683987651E+01  0.22610174064E+00  0.56966137225E+01  0.51100000000E-03 0. -1.
        -11    1    3    3    0    0  0.31630831668E+01 -0.41543508159E+01  0.16051475454E+02  0.16879383589E+02  0.51100000000E-03 0.  1.
         12    1    3    3    0    0  0.18687646004E+02 -0.11039581293E+02  0.12826070857E+02  0.25211278466E+02  0.00000000000E+00 0. -1.
</event>
<event>
 7    1  0.3221417E-010  0.4778727E+02  0.7816164E-02  0.1312668E+00
        -11   -1    0    0    0    0  0.00000000000E+00  0.00000000000E+00  0.45593999997E+02  0.45594000000E+02  0.51100000000E-03 0. -1.
         11   -1    0    0    0    0 -0.00000000000E+00 -0.00000000000E+00 -0.45593999997E+02  0.45594000000E+02  0.51100000000E-03 0.  1.
    9900012    2    1    2    0    0 -0.15156475418E+02 -0.85259179509E+01  0.39764473120E+02  0.47787270208E+02  0.19999996185E+02 0.  0.
        -12    1    1    2    0    0  0.15156475418E+02  0.85259179509E+01 -0.39764473120E+02  0.43400729792E+02  0.00000000000E+00 0.  1.
         11    1    3    3    0    0 -0.85794808049E+01 -0.11039124601E+02  0.10530502521E+02  0.17503178181E+02  0.51100000000E-03 0. -1.
        -11    1    3    3    0    0 -0.38564206123E+01  0.80326086420E+00  0.94078154647E+01  0.10199225462E+02  0.51100000000E-03 0.  1.
         12    1    3    3    0    0 -0.27205740005E+01  0.17099457859E+01  0.19826155135E+02  0.20084866564E+02  0.00000000000E+00 0. -1.
</event>
<event>
 7    1  0.3221417E-010  0.4778731E+02  0.7816164E-02  0.1312668E+00
        -11   -1    0    0    0    0  0.00000000000E+00  0.00000000000E+00  0.45593999997E+02  0.45594000000E+02  0.51100000000E-03 0. -1.
         11   -1    0    0    0    0 -0.00000000000E+00 -0.00000000000E+00 -0.45593999997E+02  0.45594000000E+02  0.51100000000E-03 0.  1.
    9900012    2    1    2    0    0  0.14411064538E+02 -0.34333614046E+01 -0.40794035047E+02  0.47787308219E+02  0.20000169491E+02 0.  0.
         12    1    1    2    0    0 -0.14411064538E+02  0.34333614046E+01  0.40794035047E+02  0.43400691781E+02  0.00000000000E+00 0. -1.
         11    1    3    3    0    0  0.95102148806E+01  0.28398415451E+01 -0.20503612253E+02  0.22779530346E+02  0.51100000000E-03 0.  1.
        -11    1    3    3    0    0  0.51867757649E+01 -0.52406338967E+01 -0.34627190678E+01  0.81459996365E+01  0.51100000000E-03 0. -1.
         12    1    3    3    0    0 -0.28592610755E+00 -0.10325690530E+01 -0.16827703726E+02  0.16861778236E+02  0.00000000000E+00 0. -1.
</event>
<event>
 7    1  0.3221417E-010  0.4778727E+02  0.7816164E-02  0.1312668E+00
        -11   -1    0    0    0    0  0.00000000000E+00  0.00000000000E+00  0.45593999997E+02  0.45594000000E+02  0.51100000000E-03 0. -1.
         11   -1    0    0    0    0 -0.00000000000E+00 -0.00000000000E+00 -0.45593999997E+02  0.45594000000E+02  0.51100000000E-03 0.  1.
    9900012    2    1    2    0    0 -0.67423540419E+01 -0.88448865972E+01  0.41951541712E+02  0.47787271792E+02  0.20000003411E+02 0.  0.
        -12    1    1    2    0    0  0.67423540419E+01  0.88448865972E+01 -0.41951541712E+02  0.43400728208E+02  0.00000000000E+00 0.  1.
         11    1    3    3    0    0  0.32689869741E+01 -0.11728701228E+02  0.24778192173E+02  0.27608105982E+02  0.51100000000E-03 0. -1.
        -11    1    3    3    0    0 -0.33820409670E+01  0.57377742458E+00  0.41504226383E+01  0.53845547609E+01  0.51100000000E-03 0.  1.
         12    1    3    3    0    0 -0.66293000490E+01  0.23100372059E+01  0.13022926901E+02  0.14794611049E+02  0.00000000000E+00 0. -1.
</event>
<event>
 7    1  0.3221417E-010  0.4778728E+02  0.7816164E-02  0.1312668E+00
        -11   -1    0    0    0    0  0.00000000000E+00  0.00000000000E+00  0.45593999997E+02  0.45594000000E+02  0.51100000000E-03 0. -1.
         11   -1    0    0    0    0 -0.00000000000E+00 -0.00000000000E+00 -0.45593999997E+02  0.45594000000E+02  0.51100000000E-03 0.  1.
    9900012    2    1    2    0    0  0.57403133901E+01 -0.19384368042E+02 -0.38404658607E+02  0.47787277369E+02  0.20000028836E+02 0.  0.
         12    1    1    2    0    0 -0.57403133901E+01  0.19384368042E+02  0.38404658607E+02  0.43400722631E+02  0.00000000000E+00 0. -1.
         11    1    3    3    0    0  0.53581017788E+01 -0.21170461410E+01 -0.26592629341E+01  0.63452989409E+01  0.51100000000E-03 0. -1.
        -11    1    3    3    0    0 -0.84028946637E+00 -0.63948229503E+00 -0.14003536692E+02  0.14043292496E+02  0.51100000000E-03 0.  1.
        -12    1    3    3    0    0  0.12225010776E+01 -0.16627839606E+02 -0.21741858981E+02  0.27398685932E+02  0.00000000000E+00 0.  1.
</event>
<event>
 7    1  0.3221417E-010  0.4778724E+02  0.7816164E-02  0.1312668E+00
        -11   -1    0    0    0    0  0.00000000000E+00  0.00000000000E+00  0.45593999997E+02  0.45594000000E+02  0.51100000000E-03 0. -1.
         11   -1    0    0    0    0 -0.00000000000E+00 -0.00000000000E+00 -0.45593999997E+02  0.45594000000E+02  0.51100000000E-03 0.  1.
    9900012    2    1    2    0    0 -0.28748641472E+02 -0.82184192788E+01  0.31457900425E+02  0.47787236169E+02  0.19999840989E+02 0.  0.
        -12    1    1    2    0    0  0.28748641472E+02  0.82184192788E+01 -0.31457900425E+02  0.43400763831E+02  0.00000000000E+00 0.  1.
         11    1    3    3    0    0  0.16979091742E+00 -0.18992299451E+00  0.10251768430E+00  0.27460851443E+00  0.51100000000E-03 0. -1.
        -11    1    3    3    0    0 -0.11546125619E+02 -0.44184400193E+01  0.10656264981E+01  0.12408512768E+02  0.51100000000E-03 0.  1.
         12    1    3    3    0    0 -0.17372306771E+02 -0.36100562650E+01  0.30289756242E+02  0.35104114887E+02  0.00000000000E+00 0. -1.
</event>
<event>
 7    1  0.3221417E-010  0.4778727E+02  0.7816164E-02  0.1312668E+00
        -11   -1    0    0    0    0  0.00000000000E+00  0.00000000000E+00  0.45593999997E+02  0.45594000000E+02  0.51100000000E-03 0.  1.
         11   -1    0    0    0    0 -0.00000000000E+00 -0.00000000000E+00 -0.45593999997E+02  0.45594000000E+02  0.51100000000E-03 0. -1.
    9900012    2    1    2    0    0 -0.41442576899E+02 -0.60321873536E+01 -0.11390736867E+02  0.47787270160E+02  0.19999995965E+02 0.  0.
        -12    1    1    2    0    0  0.41442576899E+02  0.60321873536E+01  0.11390736867E+02  0.43400729840E+02  0.00000000000E+00 0.  1.
         11    1    3    3    0    0 -0.21536269401E+01  0.77497503676E+00  0.20111287179E+01  0.30468564596E+01  0.51100000000E-03 0.  1.
        -11    1    3    3    0    0 -0.55614983214E+01  0.30304960415E+01 -0.62277661080E+01  0.88825244606E+01  0.51100000000E-03 0. -1.
         12    1    3    3    0    0 -0.33727451638E+02 -0.98376584319E+01 -0.71740994765E+01  0.35857889239E+02  0.00000000000E+00 0. -1.
</event>
<event>
 7    1  0.3221417E-010  0.4778728E+02  0.7816164E-02  0.1312668E+00
        -11   -1    0    0    0    0  0.00000000000E+00  0.00000000000E+00  0.45593999997E+02  0.45594000000E+02  0.51100000000E-03 0. -1.
         11   -1    0    0    0    0 -0.00000000000E+00 -0.00000000000E+00 -0.45593999997E+02  0.45594000000E+02  0.51100000000E-03 0.  1.
    9900012    2    1    2    0    0  0.13165858204E+02  0.13741019570E+02  0.39005983317E+02  0.47787283698E+02  0.20000057691E+02 0.  0.
        -12    1    1    2    0    0 -0.13165858204E+02 -0.13741019570E+02 -0.39005983317E+02  0.43400716302E+02  0.00000000000E+00 0.  1.
         11    1    3    3    0    0  0.12928743122E+02  0.77820591794E+01  0.21677785680E+02  0.26412861186E+02  0.51100000000E-03 0. -1.
        -11    1    3    3    0    0 -0.40610106711E+00  0.28779293805E+01 -0.76828222783E+00  0.30062690229E+01  0.51100000000E-03 0.  1.
         12    1    3    3    0    0  0.64321614942E+00  0.30810310100E+01  0.18096479864E+02  0.18368153488E+02  0.00000000000E+00 0. -1.
</event>
<event>
 7    1  0.3221417E-010  0.4778727E+02  0.7816164E-02  0.1312668E+00
        -11   -1    0    0    0    0  0.00000000000E+00  0.00000000000E+00  0.45593999997E+02  0.45594000000E+02  0.51100000000E-03 0. -1.
         11   -1    0    0    0    0 -0.00000000000E+00 -0.00000000000E+00 -0.45593999997E+02  0.45594000000E+02  0.51100000000E-03 0.  1.
    9900012    2    1    2    0    0  0.26495473296E+02  0.11533450037E+02  0.32381987522E+02  0.47787266241E+02  0.19999978100E+02 0.  0.
        -12    1    1    2    0    0 -0.26495473296E+02 -0.11533450037E+02 -0.32381987522E+02  0.43400733759E+02  0.00000000000E+00 0.  1.
         11    1    3    3    0    0  0.34238840436E+01  0.62340300243E+01  0.12236389402E+02  0.14153280119E+02  0.51100000000E-03 0. -1.
        -11    1    3    3    0    0  0.22328197327E+02  0.69876718281E+01  0.21145429267E+02  0.31535775439E+02  0.51100000000E-03 0.  1.
        -12    1    3    3    0    0  0.74339192541E+00 -0.16882518152E+01 -0.99983114628E+00  0.20982106823E+01  0.00000000000E+00 0.  1.
</event>
<event>
 7    1  0.3221417E-010  0.4778728E+02  0.7816164E-02  0.1312668E+00
        -11   -1    0    0    0    0  0.00000000000E+00  0.00000000000E+00  0.45593999997E+02  0.45594000000E+02  0.51100000000E-03 0.  1.
         11   -1    0    0    0    0 -0.00000000000E+00 -0.00000000000E+00 -0.45593999997E+02  0.45594000000E+02  0.51100000000E-03 0. -1.
    9900012    2    1    2    0    0 -0.23779029453E+02 -0.36241837175E+02 -0.21702363021E+01  0.47787275016E+02  0.20000018108E+02 0.  0.
         12    1    1    2    0    0  0.23779029453E+02  0.36241837175E+02  0.21702363021E+01  0.43400724984E+02  0.00000000000E+00 0. -1.
         11    1    3    3    0    0 -0.13090643743E+02 -0.14449972397E+02 -0.22553129144E+01  0.19627865205E+02  0.51100000000E-03 0.  1.
        -11    1    3    3    0    0  0.14812609508E+01 -0.10744346730E+02 -0.33829993556E+01  0.11361329392E+02  0.51100000000E-03 0. -1.
         12    1    3    3    0    0 -0.12169646661E+02 -0.11047518048E+02  0.34680759678E+01  0.16798080420E+02  0.00000000000E+00 0. -1.
</event>
<event>
 7    1  0.3221417E-010  0.4778728E+02  0.7816164E-02  0.1312668E+00
        -11   -1    0    0    0    0  0.00000000000E+00  0.00000000000E+00  0.45593999997E+02  0.45594000000E+02  0.51100000000E-03 0.  1.
         11   -1    0    0    0    0 -0.00000000000E+00 -0.00000000000E+00 -0.45593999997E+02  0.45594000000E+02  0.51100000000E-03 0. -1.
    9900012    2    1    2    0    0  0.31008010994E+02 -0.27771990403E+02  0.12281791521E+02  0.47787278811E+02  0.20000035411E+02 0.  0.
         12    1    1    2    0    0 -0.31008010994E+02  0.27771990403E+02 -0.12281791521E+02  0.43400721189E+02  0.00000000000E+00 0. -1.
         11    1    3    3    0    0  0.19154686870E+02 -0.10223418170E+02  0.55394190859E+01  0.22407710107E+02  0.51100000000E-03 0.  1.
        -11    1    3    3    0    0 -0.98677026619E+00 -0.23995001336E+01 -0.23847607902E+01  0.35239751329E+01  0.51100000000E-03 0. -1.
         12    1    3    3    0    0  0.12840094390E+02 -0.15149072100E+02  0.91271332256E+01  0.21855593571E+02  0.00000000000E+00 0. -1.
</event>
<event>
 7    1  0.3221417E-010  0.4778727E+02  0.7816164E-02  0.1312668E+00
        -11   -1    0    0    0    0  0.00000000000E+00  0.00000000000E+00  0.45593999997E+02  0.45594000000E+02  0.51100000000E-03 0. -1.
         11   -1    0    0    0    0 -0.00000000000E+00 -0.00000000000E+00 -0.45593999997E+02  0.45594000000E+02  0.51100000000E-03 0.  1.
    9900012    2    1    2    0    0 -0.13740754969E+02  0.14740672432E+02  0.38438619313E+02  0.47787271601E+02  0.20000002536E+02 0.  0.
        -12    1    1    2    0    0  0.13740754969E+02 -0.14740672432E+02 -0.38438619313E+02  0.43400728399E+02  0.00000000000E+00 0.  1.
         11    1    3    3    0    0 -0.47326506534E+01  0.97348621341E+00  0.14583815080E+01  0.50470322467E+01  0.51100000000E-03 0.  1.
        -11    1    3    3    0    0 -0.10354363698E+02  0.12861539093E+02  0.37550519765E+02  0.41020404317E+02  0.51100000000E-03 0. -1.
         12    1    3    3    0    0  0.13462593820E+01  0.90564712611E+00 -0.57028196018E+00  0.17198350371E+01  0.00000000000E+00 0. -1.
</event>
<event>
 7    1  0.3221417E-010  0.4778727E+02  0.7816164E-02  0.1312668E+00
        -11   -1    0    0    0    0  0.00000000000E+00  0.00000000000E+00  0.45593999997E+02  0.45594000000E+02  0.51100000000E-03 0. -1.
         11   -1    0    0    0    0 -0.00000000000E+00 -0.00000000000E+00 -0.45593999997E+02  0.45594000000E+02  0.51100000000E-03 0.  1.
    9900012    2    1    2    0    0  0.19614103404E+02 -0.29239813441E+01 -0.38605191024E+02  0.47787268517E+02  0.19999988477E+02 0.  0.
         12    1    1    2    0    0 -0.19614103404E+02  0.29239813441E+01  0.38605191024E+02  0.43400731483E+02  0.00000000000E+00 0. -1.
         11    1    3    3    0    0  0.34847746498E+01 -0.40551207950E+01 -0.16728858004E+01  0.56023393493E+01  0.51100000000E-03 0. -1.
        -11    1    3    3    0    0 -0.14147598570E+01  0.17154095421E+01 -0.16228476584E+01  0.27527822532E+01  0.51100000000E-03 0.  1.
        -12    1    3    3    0    0  0.17544088611E+02 -0.58427009117E+00 -0.35309457565E+02  0.39432146915E+02  0.00000000000E+00 0.  1.
</event>
<event>
 7    1  0.3221417E-010  0.4778726E+02  0.7816164E-02  0.1312668E+00
        -11   -1    0    0    0    0  0.00000000000E+00  0.00000000000E+00  0.45593999997E+02  0.45594000000E+02  0.51100000000E-03 0.  1.
         11   -1    0    0    0    0 -0.00000000000E+00 -0.00000000000E+00 -0.45593999997E+02  0.45594000000E+02  0.51100000000E-03 0. -1.
    9900012    2    1    2    0    0 -0.33411981727E+02 -0.27446150732E+02 -0.37379353841E+01  0.47787264132E+02  0.19999968482E+02 0.  0.
         12    1    1    2    0    0  0.33411981727E+02  0.27446150732E+02  0.37379353841E+01  0.43400735868E+02  0.00000000000E+00 0. -1.
         11    1    3    3    0    0 -0.14227886405E+02 -0.12984152431E+01 -0.27001108590E+01  0.14539918590E+02  0.51100000000E-03 0. -1.
        -11    1    3    3    0    0 -0.56281252266E+01 -0.84638206030E+01 -0.36786200123E+01  0.10809454113E+02  0.51100000000E-03 0.  1.
         12    1    3    3    0    0 -0.13555970096E+02 -0.17683914886E+02  0.26407954871E+01  0.22437891428E+02  0.00000000000E+00 0. -1.
</event>
<event>
 7    1  0.3221417E-010  0.4778727E+02  0.7816164E-02  0.1312668E+00
        -11   -1    0    0    0    0  0.00000000000E+00  0.00000000000E+00  0.45593999997E+02  0.45594000000E+02  0.51100000000E-03 0. -1.
         11   -1    0    0    0    0 -0.00000000000E+00 -0.00000000000E+00 -0.45593999997E+02  0.45594000000E+02  0.51100000000E-03 0.  1.
    9900012    2    1    2    0    0 -0.22769059242E+02 -0.98169663829E+01  0.35620503168E+02  0.47787272660E+02  0.20000007365E+02 0.  0.
        -12    1    1    2    0    0  0.22769059242E+02  0.98169663829E+01 -0.35620503168E+02  0.43400727340E+02  0.00000000000E+00 0.  1.
         11    1    3    3    0    0  0.15221088257E+01 -0.81892065453E+00  0.16204109504E+01  0.23692146853E+01  0.51100000000E-03 0. -1.
        -11    1    3    3    0    0  0.20048383323E+01  0.26568267282E+00  0.38784824471E+01  0.43740816607E+01  0.51100000000E-03 0.  1.
         12    1    3    3    0    0 -0.26296006400E+02 -0.92637284011E+01  0.30121609771E+02  0.41043976314E+02  0.00000000000E+00 0. -1.
</event>
<event>
 7    1  0.3221417E-010  0.4778727E+02  0.7816164E-02  0.1312668E+00
        -11   -1    0    0    0    0  0.00000000000E+00  0.00000000000E+00  0.45593999997E+02  0.45594000000E+02  0.51100000000E-03 0. -1.
         11   -1    0    0    0    0 -0.00000000000E+00 -0.00000000000E+00 -0.45593999997E+02  0.45594000000E+02  0.51100000000E-03 0.  1.
    9900012    2    1    2    0    0 -0.45818095889E+01 -0.14010681532E+02  0.40820719251E+02  0.47787270786E+02  0.19999998823E+02 0.  0.
        -12    1    1    2    0    0  0.45818095889E+01  0.14010681532E+02 -0.40820719251E+02  0.43400729214E+02  0.00000000000E+00 0.  1.
         11    1    3    3    0    0 -0.26555242354E+01 -0.55505088942E+01  0.36283024082E+02  0.36801056979E+02  0.51100000000E-03 0. -1.
        -11    1    3    3    0    0 -0.32733007429E+01 -0.54038470773E+01  0.42905770857E+01  0.76370879907E+01  0.51100000000E-03 0.  1.
        -12    1    3    3    0    0  0.13470153895E+01 -0.30563255604E+01  0.24711808366E+00  0.33491258170E+01  0.00000000000E+00 0.  1.
</event>
<event>
 7    1  0.3221417E-010  0.4778726E+02  0.7816164E-02  0.1312668E+00
        -11   -1    0    0    0    0  0.00000000000E+00  0.00000000000E+00  0.45593999997E+02  0.45594000000E+02  0.51100000000E-03 0. -1.
         11   -1    0    0    0    0 -0.00000000000E+00 -0.00000000000E+00 -0.45593999997E+02  0.45594000000E+02  0.51100000000E-03 0.  1.
    9900012    2    1    2    0    0  0.28822713022E+02  0.21979409215E+02  0.23870077738E+02  0.47787264677E+02  0.19999970967E+02 0.  0.
        -12    1    1    2    0    0 -0.28822713022E+02 -0.21979409215E+02 -0.23870077738E+02  0.43400735323E+02  0.00000000000E+00 0.  1.
         11    1    3    3    0    0  0.31251279146E+01  0.71458055524E+01  0.56542877462E+01  0.96332721156E+01  0.51100000000E-03 0. -1.
        -11    1    3    3    0    0  0.22362801131E+02  0.75352814773E+01  0.18708894747E+02  0.30114748618E+02  0.51100000000E-03 0.  1.
        -12    1    3    3    0    0  0.33347839759E+01  0.72983221851E+01 -0.49310475517E+00  0.80392439435E+01  0.00000000000E+00 0.  1.
</event>
<event>
 7    1  0.3221417E-010  0.4778727E+02  0.7816164E-02  0.1312668E+00
        -11   -1    0    0    0    0  0.00000000000E+00  0.00000000000E+00  0.45593999997E+02  0.45594000000E+02  0.51100000000E-03 0. -1.
         11   -1    0    0    0    0 -0.00000000000E+00 -0.00000000000E+00 -0.45593999997E+02  0.45594000000E+02  0.51100000000E-03 0.  1.
    9900012    2    1    2    0    0 -0.15091856965E+02 -0.39154468087E+02  0.11080926197E+02  0.47787269094E+02  0.19999991107E+02 0.  0.
        -12    1    1    2    0    0  0.15091856965E+02  0.39154468087E+02 -0.11080926197E+02  0.43400730906E+02  0.00000000000E+00 0.  1.
         11    1    3    3    0    0 -0.70826989944E+01 -0.10271262256E+02 -0.21639919963E+01  0.12662792544E+02  0.51100000000E-03 0.  1.
        -11    1    3    3    0    0 -0.56022987389E+01 -0.18825187350E+02  0.14896886078E+02  0.24651382213E+02  0.51100000000E-03 0. -1.
         12    1    3    3    0    0 -0.24068592319E+01 -0.10058018481E+02 -0.16519678842E+01  0.10473094338E+02  0.00000000000E+00 0. -1.
</event>
<event>
 7    1  0.3221417E-010  0.4778727E+02  0.7816164E-02  0.1312668E+00
        -11   -1    0    0    0    0  0.00000000000E+00  0.00000000000E+00  0.45593999997E+02  0.45594000000E+02  0.51100000000E-03 0. -1.
         11   -1    0    0    0    0 -0.00000000000E+00 -0.00000000000E+00 -0.45593999997E+02  0.45594000000E+02  0.51100000000E-03 0.  1.
    9900012    2    1    2    0    0 -0.51576234163E+01  0.43047523519E+01 -0.42877629415E+02  0.47787273320E+02  0.20000010374E+02 0.  0.
         12    1    1    2    0    0  0.51576234163E+01 -0.43047523519E+01  0.42877629415E+02  0.43400726680E+02  0.00000000000E+00 0. -1.
         11    1    3    3    0    0 -0.19427162251E+01 -0.52274137742E+01 -0.52770316731E+01  0.76776991761E+01  0.51100000000E-03 0. -1.
        -11    1    3    3    0    0  0.30366577250E+01  0.44872778369E+01 -0.10123616974E+02  0.11482359227E+02  0.51100000000E-03 0.  1.
         12    1    3    3    0    0 -0.62515649162E+01  0.50448882892E+01 -0.27476980768E+02  0.28627214916E+02  0.00000000000E+00 0. -1.
</event>
<event>
 7    1  0.3221417E-010  0.4778727E+02  0.7816164E-02  0.1312668E+00
        -11   -1    0    0    0    0  0.00000000000E+00  0.00000000000E+00  0.45593999997E+02  0.45594000000E+02  0.51100000000E-03 0. -1.
         11   -1    0    0    0    0 -0.00000000000E+00 -0.00000000000E+00 -0.45593999997E+02  0.45594000000E+02  0.51100000000E-03 0.  1.
    9900012    2    1    2    0    0 -0.22699127282E+02  0.10262946248E+02 -0.35539343713E+02  0.47787269631E+02  0.19999993555E+02 0.  0.
         12    1    1    2    0    0  0.22699127282E+02 -0.10262946248E+02  0.35539343713E+02  0.43400730369E+02  0.00000000000E+00 0. -1.
         11    1    3    3    0    0 -0.18075126474E+01 -0.28595387231E+01  0.14615710512E+00  0.33860634725E+01  0.51100000000E-03 0. -1.
        -11    1    3    3    0    0 -0.75135464718E+01  0.20457760218E+01 -0.18005077927E+02  0.19616865487E+02  0.51100000000E-03 0.  1.
        -12    1    3    3    0    0 -0.13378068163E+02  0.11076708949E+02 -0.17680422891E+02  0.24784340671E+02  0.00000000000E+00 0.  1.
</event>
<event>
 7    1  0.3221417E-010  0.4778728E+02  0.7816164E-02  0.1312668E+00
        -11   -1    0    0    0    0  0.00000000000E+00  0.00000000000E+00  0.45593999997E+02  0.45594000000E+02  0.51100000000E-03 0. -1.
         11   -1    0    0    0    0 -0.00000000000E+00 -0.00000000000E+00 -0.45593999997E+02  0.45594000000E+02  0.51100000000E-03 0.  1.
    9900012    2    1    2    0    0  0.18412929379E+02 -0.10111332097E+02  0.37978245839E+02  0.47787283853E+02  0.20000058398E+02 0.  0.
        -12    1    1    2    0    0 -0.18412929379E+02  0.10111332097E+02 -0.37978245839E+02  0.43400716147E+02  0.00000000000E+00 0.  1.
         11    1    3    3    0    0  0.82048128865E+01 -0.10856657658E+02  0.25601596362E+02  0.28993580437E+02  0.51100000000E-03 0. -1.
        -11    1    3    3    0    0  0.59578034968E+01 -0.23738123259E+01  0.13246546939E+01  0.65486729789E+01  0.51100000000E-03 0.  1.
        -12    1    3    3    0    0  0.42503129953E+01  0.31191378865E+01  0.11051994783E+02  0.12245030437E+02  0.00000000000E+00 0.  1.
</event>
<event>
 7    1  0.3221417E-010  0.4778727E+02  0.7816164E-02  0.1312668E+00
        -11   -1    0    0    0    0  0.00000000000E+00  0.00000000000E+00  0.45593999997E+02  0.45594000000E+02  0.51100000000E-03 0. -1.
         11   -1    0    0    0    0 -0.00000000000E+00 -0.00000000000E+00 -0.45593999997E+02  0.45594000000E+02  0.51100000000E-03 0.  1.
    9900012    2    1    2    0    0  0.35538920188E+02  0.16307932653E+02  0.18832410060E+02  0.47787272078E+02  0.20000004710E+02 0.  0.
        -12    1    1    2    0    0 -0.35538920188E+02 -0.16307932653E+02 -0.18832410060E+02  0.43400727922E+02  0.00000000000E+00 0.  1.
         11    1    3    3    0    0  0.11240944060E+02  0.10457681050E+02  0.14776271625E+01  0.15424179025E+02  0.51100000000E-03 0. -1.
        -11    1    3    3    0    0  0.44723496768E+01 -0.31529591891E+01  0.25821708310E+01  0.60506751475E+01  0.51100000000E-03 0.  1.
        -12    1    3    3    0    0  0.19825626451E+02  0.90032107925E+01  0.14772612066E+02  0.26312417905E+02  0.00000000000E+00 0.  1.
</event>
<event>
 7    1  0.3221417E-010  0.4778727E+02  0.7816164E-02  0.1312668E+00
        -11   -1    0    0    0    0  0.00000000000E+00  0.00000000000E+00  0.45593999997E+02  0.45594000000E+02  0.51100000000E-03 0. -1.
         11   -1    0    0    0    0 -0.00000000000E+00 -0.00000000000E+00 -0.45593999997E+02  0.45594000000E+02  0.51100000000E-03 0.  1.
    9900012    2    1    2    0    0  0.17467160923E+02 -0.19880044033E+02  0.34399208374E+02  0.47787269612E+02  0.19999993469E+02 0.  0.
        -12    1    1    2    0    0 -0.17467160923E+02  0.19880044033E+02 -0.34399208374E+02  0.43400730388E+02  0.00000000000E+00 0.  1.
         11    1    3    3    0    0  0.94374809553E+01 -0.35980298543E+01  0.11040699789E+02  0.14963586392E+02  0.51100000000E-03 0. -1.
        -11    1    3    3    0    0  0.13404304714E+01 -0.12390398468E+02  0.21521813836E+02  0.24869804967E+02  0.51100000000E-03 0.  1.
        -12    1    3    3    0    0  0.66892494965E+01 -0.38916157107E+01  0.18366947489E+01  0.79538782532E+01  0.00000000000E+00 0.  1.
</event>
<event>
 7    1  0.3221417E-010  0.4778727E+02  0.7816164E-02  0.1312668E+00
        -11   -1    0    0    0    0  0.00000000000E+00  0.00000000000E+00  0.45593999997E+02  0.45594000000E+02  0.51100000000E-03 0.  1.
         11   -1    0    0    0    0 -0.00000000000E+00 -0.00000000000E+00 -0.45593999997E+02  0.45594000000E+02  0.51100000000E-03 0. -1.
    9900012    2    1    2    0    0 -0.14058859076E+02  0.34967547369E+02 -0.21523068106E+02  0.47787270188E+02  0.19999996095E+02 0.  0.
         12    1    1    2    0    0  0.14058859076E+02 -0.34967547369E+02  0.21523068106E+02  0.43400729812E+02  0.00000000000E+00 0. -1.
         11    1    3    3    0    0 -0.15042051268E+02  0.34275343674E+02 -0.24179966912E+02  0.44561567415E+02  0.51100000000E-03 0.  1.
        -11    1    3    3    0    0  0.87545896717E+00  0.73474605792E+00  0.87338140748E+00  0.14384281410E+01  0.51100000000E-03 0. -1.
        -12    1    3    3    0    0  0.10773322488E+00 -0.42542363119E-01  0.17835173986E+01  0.17872746323E+01  0.00000000000E+00 0.  1.
</event>
<event>
 7    1  0.3221417E-010  0.4778727E+02  0.7816164E-02  0.1312668E+00
        -11   -1    0    0    0    0  0.00000000000E+00  0.00000000000E+00  0.45593999997E+02  0.45594000000E+02  0.51100000000E-03 0. -1.
         11   -1    0    0    0    0 -0.00000000000E+00 -0.00000000000E+00 -0.45593999997E+02  0.45594000000E+02  0.51100000000E-03 0.  1.
    9900012    2    1    2    0    0  0.83158450886E+01  0.30682332890E+02 -0.29547664938E+02  0.47787270347E+02  0.19999996821E+02 0.  0.
         12    1    1    2    0    0 -0.83158450886E+01 -0.30682332890E+02  0.29547664938E+02  0.43400729653E+02  0.00000000000E+00 0. -1.
         11    1    3    3    0    0  0.66531652031E+01  0.10956552287E+02 -0.10452482346E+02  0.16539801471E+02  0.51100000000E-03 0. -1.
        -11    1    3    3    0    0  0.40159263658E+01  0.14866875767E+02 -0.50599681285E+01  0.16209717375E+02  0.51100000000E-03 0.  1.
         12    1    3    3    0    0 -0.23532464804E+01  0.48589048360E+01 -0.14035214463E+02  0.15037751501E+02  0.00000000000E+00 0. -1.
</event>
<event>
 7    1  0.3221417E-010  0.4778727E+02  0.7816164E-02  0.1312668E+00
        -11   -1    0    0    0    0  0.00000000000E+00  0.00000000000E+00  0.45593999997E+02  0.45594000000E+02  0.51100000000E-03 0. -1.
         11   -1    0    0    0    0 -0.00000000000E+00 -0.00000000000E+00 -0.45593999997E+02  0.45594000000E+02  0.51100000000E-03 0.  1.
    9900012    2    1    2    0    0  0.28451514534E+02 -0.98667001944E+00  0.32759137565E+02  0.47787270848E+02  0.19999999102E+02 0.  0.
        -12    1    1    2    0    0 -0.28451514534E+02  0.98667001944E+00 -0.32759137565E+02  0.43400729152E+02  0.00000000000E+00 0.  1.
         11    1    3    3    0    0  0.62447981897E+01 -0.38667104490E+01  0.11302030439E+01  0.74314408635E+01  0.51100000000E-03 0. -1.
        -11    1    3    3    0    0  0.14881702450E+01  0.13435100842E+01  0.10626471465E+02  0.10813952380E+02  0.51100000000E-03 0.  1.
        -12    1    3    3    0    0  0.20718546099E+02  0.15365303454E+01  0.21002463056E+02  0.29541877604E+02  0.00000000000E+00 0.  1.
</event>
<event>
 7    1  0.3221417E-010  0.4778727E+02  0.7816164E-02  0.1312668E+00
        -11   -1    0    0    0    0  0.00000000000E+00  0.00000000000E+00  0.45593999997E+02  0.45594000000E+02  0.51100000000E-03 0. -1.
         11   -1    0    0    0    0 -0.00000000000E+00 -0.00000000000E+00 -0.45593999997E+02  0.45594000000E+02  0.51100000000E-03 0.  1.
    9900012    2    1    2    0    0  0.34001706987E+02 -0.19804076708E+02  0.18311355325E+02  0.47787271134E+02  0.20000000408E+02 0.  0.
        -12    1    1    2    0    0 -0.34001706987E+02  0.19804076708E+02 -0.18311355325E+02  0.43400728866E+02  0.00000000000E+00 0.  1.
         11    1    3    3    0    0  0.40498525984E+01 -0.74752089097E+01  0.19100845548E+01  0.87136948294E+01  0.51100000000E-03 0. -1.
        -11    1    3    3    0    0  0.65888580802E+00 -0.46747945805E+01  0.17760735804E+00  0.47243390556E+01  0.51100000000E-03 0.  1.
         12    1    3    3    0    0  0.29292968580E+02 -0.76540732175E+01  0.16223663412E+02  0.34349237249E+02  0.00000000000E+00 0. -1.
</event>
<event>
 7    1  0.3221417E-010  0.4778727E+02  0.7816164E-02  0.1312668E+00
        -11   -1    0    0    0    0  0.00000000000E+00  0.00000000000E+00  0.45593999997E+02  0.45594000000E+02  0.51100000000E-03 0. -1.
         11   -1    0    0    0    0 -0.00000000000E+00 -0.00000000000E+00 -0.45593999997E+02  0.45594000000E+02  0.51100000000E-03 0.  1.
    9900012    2    1    2    0    0 -0.11803296078E+02 -0.38848200270E+02 -0.15333725587E+02  0.47787267254E+02  0.19999982717E+02 0.  0.
         12    1    1    2    0    0  0.11803296078E+02  0.38848200270E+02  0.15333725587E+02  0.43400732746E+02  0.00000000000E+00 0. -1.
         11    1    3    3    0    0 -0.45327960174E+01 -0.41995272668E+01  0.23396160838E+01  0.66072742247E+01  0.51100000000E-03 0. -1.
        -11    1    3    3    0    0  0.29751159689E+01 -0.76561271144E+01 -0.52543590307E+01  0.97506864633E+01  0.51100000000E-03 0.  1.
        -12    1    3    3    0    0 -0.10245616029E+02 -0.26992545889E+02 -0.12418982640E+02  0.31429306566E+02  0.00000000000E+00 0.  1.
</event>
<event>
 7    1  0.3221417E-010  0.4778726E+02  0.7816164E-02  0.1312668E+00
        -11   -1    0    0    0    0  0.00000000000E+00  0.00000000000E+00  0.45593999997E+02  0.45594000000E+02  0.51100000000E-03 0.  1.
         11   -1    0    0    0    0 -0.00000000000E+00 -0.00000000000E+00 -0.45593999997E+02  0.45594000000E+02  0.51100000000E-03 0. -1.
    9900012    2    1    2    0    0 -0.40041374623E+01  0.42911247740E+02  0.51201457537E+01  0.47787260468E+02  0.19999951776E+02 0.  0.
        -12    1    1    2    0    0  0.40041374623E+01 -0.42911247740E+02 -0.51201457537E+01  0.43400739532E+02  0.00000000000E+00 0.  1.
         11    1    3    3    0    0  0.18633680269E+00  0.36264559064E+01  0.38438038409E+01  0.52877908501E+01  0.51100000000E-03 0. -1.
        -11    1    3    3    0    0  0.39697988974E+01  0.18635545747E+02 -0.44569263187E+01  0.19568011168E+02  0.51100000000E-03 0.  1.
        -12    1    3    3    0    0 -0.81602731625E+01  0.20649246086E+02  0.57332682315E+01  0.22931458450E+02  0.00000000000E+00 0.  1.
</event>
<event>
 7    1  0.3221417E-010  0.4778726E+02  0.7816164E-02  0.1312668E+00
        -11   -1    0    0    0    0  0.00000000000E+00  0.00000000000E+00  0.45593999997E+02  0.45594000000E+02  0.51100000000E-03 0. -1.
         11   -1    0    0    0    0 -0.00000000000E+00 -0.00000000000E+00 -0.45593999997E+02  0.45594000000E+02  0.51100000000E-03 0.  1.
    9900012    2    1    2    0    0  0.41636746009E+02  0.13699566754E+01  0.12170803043E+02  0.47787264450E+02  0.19999969935E+02 0.  0.
        -12    1    1    2    0    0 -0.41636746009E+02 -0.13699566754E+01 -0.12170803043E+02  0.43400735550E+02  0.00000000000E+00 0.  1.
         11    1    3    3    0    0  0.77294365674E+01 -0.27251752013E+01  0.15851694160E+00  0.81973103765E+01  0.51100000000E-03 0. -1.
        -11    1    3    3    0    0  0.19569697801E+02  0.94556179390E+01  0.10704051858E+02  0.24227226607E+02  0.51100000000E-03 0.  1.
        -12    1    3    3    0    0  0.14337611641E+02 -0.53604860624E+01  0.13082342435E+01  0.15362727467E+02  0.00000000000E+00 0.  1.
</event>
<event>
 7    1  0.3221417E-010  0.4778727E+02  0.7816164E-02  0.1312668E+00
        -11   -1    0    0    0    0  0.00000000000E+00  0.00000000000E+00  0.45593999997E+02  0.45594000000E+02  0.51100000000E-03 0. -1.
         11   -1    0    0    0    0 -0.00000000000E+00 -0.00000000000E+00 -0.45593999997E+02  0.45594000000E+02  0.51100000000E-03 0.  1.
    9900012    2    1    2    0    0  0.13952285668E+02 -0.13354149837E+02 -0.38866744304E+02  0.47787269522E+02  0.19999993058E+02 0.  0.
         12    1    1    2    0    0 -0.13952285668E+02  0.13354149837E+02  0.38866744304E+02  0.43400730478E+02  0.00000000000E+00 0. -1.
         11    1    3    3    0    0 -0.24772555764E+01 -0.45131564645E+01 -0.54718002831E+01  0.75130536444E+01  0.51100000000E-03 0. -1.
        -11    1    3    3    0    0  0.11502629634E+02 -0.12029064439E+02 -0.24677349791E+02  0.29765424115E+02  0.51100000000E-03 0.  1.
        -12    1    3    3    0    0  0.49269116109E+01  0.31880710670E+01 -0.87175942301E+01  0.10508791763E+02  0.00000000000E+00 0.  1.
</event>
<event>
 7    1  0.3221417E-010  0.4778727E+02  0.7816164E-02  0.1312668E+00
        -11   -1    0    0    0    0  0.00000000000E+00  0.00000000000E+00  0.45593999997E+02  0.45594000000E+02  0.51100000000E-03 0. -1.
         11   -1    0    0    0    0 -0.00000000000E+00 -0.00000000000E+00 -0.45593999997E+02  0.45594000000E+02  0.51100000000E-03 0.  1.
    9900012    2    1    2    0    0 -0.10884545852E+02 -0.22356568324E+02 -0.35571528262E+02  0.47787272949E+02  0.20000008685E+02 0.  0.
         12    1    1    2    0    0  0.10884545852E+02  0.22356568324E+02  0.35571528262E+02  0.43400727051E+02  0.00000000000E+00 0. -1.
         11    1    3    3    0    0 -0.10262315470E+02 -0.44117625656E+01 -0.21558578189E+02  0.24280672593E+02  0.51100000000E-03 0. -1.
        -11    1    3    3    0    0 -0.26773463209E+01 -0.76402528526E+01 -0.41595046296E+01  0.91018199279E+01  0.51100000000E-03 0.  1.
        -12    1    3    3    0    0  0.20551159385E+01 -0.10304552906E+02 -0.98534454427E+01  0.14404780429E+02  0.00000000000E+00 0.  1.
</event>
<event>
 7    1  0.3221417E-010  0.4778726E+02  0.7816164E-02  0.1312668E+00
        -11   -1    0    0    0    0  0.00000000000E+00  0.00000000000E+00  0.45593999997E+02  0.45594000000E+02  0.51100000000E-03 0. -1.
         11   -1    0    0    0    0 -0.00000000000E+00 -0.00000000000E+00 -0.45593999997E+02  0.45594000000E+02  0.51100000000E-03 0.  1.
    9900012    2    1    2    0    0 -0.14358159465E+02 -0.17134652140E+02 -0.37200415990E+02  0.47787262713E+02  0.19999962015E+02 0.  0.
         12    1    1    2    0    0  0.14358159465E+02  0.17134652140E+02  0.37200415990E+02  0.43400737287E+02  0.00000000000E+00 0. -1.
         11    1    3    3    0    0 -0.53143265867E+01 -0.68227889160E+00 -0.52302667759E+01  0.74875404750E+01  0.51100000000E-03 0. -1.
        -11    1    3    3    0    0 -0.78682466874E+01 -0.65841971861E+01 -0.47187734628E+01  0.11292819921E+02  0.51100000000E-03 0.  1.
        -12    1    3    3    0    0 -0.11755861913E+01 -0.98681760619E+01 -0.27251375752E+02  0.29006902317E+02  0.00000000000E+00 0.  1.
</event>
<event>
 7    1  0.3221417E-010  0.4778727E+02  0.7816164E-02  0.1312668E+00
        -11   -1    0    0    0    0  0.00000000000E+00  0.00000000000E+00  0.45593999997E+02  0.45594000000E+02  0.51100000000E-03 0.  1.
         11   -1    0    0    0    0 -0.00000000000E+00 -0.00000000000E+00 -0.45593999997E+02  0.45594000000E+02  0.51100000000E-03 0. -1.
    9900012    2    1    2    0    0  0.38534540751E+02 -0.73059716302E+01  0.18583200747E+02  0.47787269564E+02  0.19999993251E+02 0.  0.
        -12    1    1    2    0    0 -0.38534540751E+02  0.73059716302E+01 -0.18583200747E+02  0.43400730436E+02  0.00000000000E+00 0.  1.
         11    1    3    3    0    0  0.34602096193E+02 -0.51217405372E+01  0.10783495401E+02  0.36603566225E+02  0.51100000000E-03 0. -1.
        -11    1    3    3    0    0  0.32004820083E+01 -0.43032917836E+01  0.37143744650E+01  0.65236479969E+01  0.51100000000E-03 0.  1.
         12    1    3    3    0    0  0.73196254993E+00  0.21190606907E+01  0.40853308814E+01  0.46600553426E+01  0.00000000000E+00 0. -1.
</event>
<event>
 7    1  0.3221417E-010  0.4778727E+02  0.7816164E-02  0.1312668E+00
        -11   -1    0    0    0    0  0.00000000000E+00  0.00000000000E+00  0.45593999997E+02  0.45594000000E+02  0.51100000000E-03 0. -1.
         11   -1    0    0    0    0 -0.00000000000E+00 -0.00000000000E+00 -0.45593999997E+02  0.45594000000E+02  0.51100000000E-03 0.  1.
    9900012    2    1    2    0    0 -0.24167533171E+02  0.21060700095E+02 -0.29257487742E+02  0.47787270316E+02  0.19999996680E+02 0.  0.
         12    1    1    2    0    0  0.24167533171E+02 -0.21060700095E+02  0.29257487742E+02  0.43400729684E+02  0.00000000000E+00 0. -1.
         11    1    3    3    0    0  0.93061661902E-02  0.38589239624E+01 -0.38971793038E+00  0.38785643064E+01  0.51100000000E-03 0. -1.
        -11    1    3    3    0    0 -0.18528034454E+02  0.18001055523E+02 -0.28070626708E+02  0.38148212864E+02  0.51100000000E-03 0.  1.
        -12    1    3    3    0    0 -0.56488048839E+01 -0.79927939022E+00 -0.79714310401E+00  0.57604931463E+01  0.00000000000E+00 0.  1.
</event>
<event>
 7    1  0.3221417E-010  0.4778721E+02  0.7816164E-02  0.1312668E+00
        -11   -1    0    0    0    0  0.00000000000E+00  0.00000000000E+00  0.45593999997E+02  0.45594000000E+02  0.51100000000E-03 0. -1.
         11   -1    0    0    0    0 -0.00000000000E+00 -0.00000000000E+00 -0.45593999997E+02  0.45594000000E+02  0.51100000000E-03 0.  1.
    9900012    2    1    2    0    0 -0.55715048154E+01 -0.14295435302E+01 -0.43017937988E+02  0.47787213725E+02  0.19999738654E+02 0.  0.
         12    1    1    2    0    0  0.55715048154E+01  0.14295435302E+01  0.43017937988E+02  0.43400786275E+02  0.00000000000E+00 0. -1.
         11    1    3    3    0    0 -0.59023958353E+01 -0.46564511689E+01 -0.64147194109E+01  0.98827850056E+01  0.51100000000E-03 0. -1.
        -11    1    3    3    0    0  0.30629777857E+00 -0.26465052747E+01 -0.22054809461E+02  0.22215139637E+02  0.51100000000E-03 0.  1.
        -12    1    3    3    0    0  0.24593241327E-01  0.58734129134E+01 -0.14548409116E+02  0.15689289082E+02  0.00000000000E+00 0.  1.
</event>
<event>
 7    1  0.3221417E-010  0.4778725E+02  0.7816164E-02  0.1312668E+00
        -11   -1    0    0    0    0  0.00000000000E+00  0.00000000000E+00  0.45593999997E+02  0.45594000000E+02  0.51100000000E-03 0. -1.
         11   -1    0    0    0    0 -0.00000000000E+00 -0.00000000000E+00 -0.45593999997E+02  0.45594000000E+02  0.51100000000E-03 0.  1.
    9900012    2    1    2    0    0  0.10372099198E+02 -0.15119643557E+02  0.39337523038E+02  0.47787253672E+02  0.19999920793E+02 0.  0.
        -12    1    1    2    0    0 -0.10372099198E+02  0.15119643557E+02 -0.39337523038E+02  0.43400746328E+02  0.00000000000E+00 0.  1.
         11    1    3    3    0    0 -0.10513289540E+01 -0.67276724002E-01  0.12676318036E+02  0.12720018000E+02  0.51100000000E-03 0. -1.
        -11    1    3    3    0    0  0.10698416339E+02 -0.79012487287E+01  0.23930941323E+02  0.27378381919E+02  0.51100000000E-03 0.  1.
        -12    1    3    3    0    0  0.72501181334E+00 -0.71511181046E+01  0.27302636788E+01  0.76888537528E+01  0.00000000000E+00 0.  1.
</event>
<event>
 7    1  0.3221417E-010  0.4778727E+02  0.7816164E-02  0.1312668E+00
        -11   -1    0    0    0    0  0.00000000000E+00  0.00000000000E+00  0.45593999997E+02  0.45594000000E+02  0.51100000000E-03 0. -1.
         11   -1    0    0    0    0 -0.00000000000E+00 -0.00000000000E+00 -0.45593999997E+02  0.45594000000E+02  0.51100000000E-03 0.  1.
    9900012    2    1    2    0    0  0.20043902539E+02 -0.25043868936E+01  0.38413450738E+02  0.47787272122E+02  0.20000004912E+02 0.  0.
        -12    1    1    2    0    0 -0.20043902539E+02  0.25043868936E+01 -0.38413450738E+02  0.43400727878E+02  0.00000000000E+00 0.  1.
         11    1    3    3    0    0  0.13841265914E+02  0.68966188528E+01  0.22400435324E+02  0.27219909931E+02  0.51100000000E-03 0. -1.
        -11    1    3    3    0    0  0.16281882620E+01  0.26479332886E+00  0.47871282897E+01  0.50633694361E+01  0.51100000000E-03 0.  1.
        -12    1    3    3    0    0  0.45744483638E+01 -0.96657990753E+01  0.11225887125E+02  0.15503992755E+02  0.00000000000E+00 0.  1.
</event>
<event>
 7    1  0.3221417E-010  0.4778727E+02  0.7816164E-02  0.1312668E+00
        -11   -1    0    0    0    0  0.00000000000E+00  0.00000000000E+00  0.45593999997E+02  0.45594000000E+02  0.51100000000E-03 0. -1.
         11   -1    0    0    0    0 -0.00000000000E+00 -0.00000000000E+00 -0.45593999997E+02  0.45594000000E+02  0.51100000000E-03 0.  1.
    9900012    2    1    2    0    0  0.21356972541E+01  0.90478085204E+01 -0.42393384483E+02  0.47787273166E+02  0.20000009673E+02 0.  0.
         12    1    1    2    0    0 -0.21356972541E+01 -0.90478085204E+01  0.42393384483E+02  0.43400726834E+02  0.00000000000E+00 0. -1.
         11    1    3    3    0    0 -0.22473854809E+01  0.60836015269E+01 -0.34075547196E+01  0.73261434920E+01  0.51100000000E-03 0. -1.
        -11    1    3    3    0    0  0.15552158400E+01 -0.59409887577E+00 -0.54387782999E+00  0.17514146106E+01  0.51100000000E-03 0.  1.
        -12    1    3    3    0    0  0.28278668951E+01  0.35583058693E+01 -0.38441951934E+02  0.38709715063E+02  0.00000000000E+00 0.  1.
</event>
<event>
 7    1  0.3221417E-010  0.4778727E+02  0.7816164E-02  0.1312668E+00
        -11   -1    0    0    0    0  0.00000000000E+00  0.00000000000E+00  0.45593999997E+02  0.45594000000E+02  0.51100000000E-03 0. -1.
         11   -1    0    0    0    0 -0.00000000000E+00 -0.00000000000E+00 -0.45593999997E+02  0.45594000000E+02  0.51100000000E-03 0.  1.
    9900012    2    1    2    0    0  0.31090978715E+02 -0.22207487981E+02  0.20586444938E+02  0.47787271952E+02  0.20000004137E+02 0.  0.
        -12    1    1    2    0    0 -0.31090978715E+02  0.22207487981E+02 -0.20586444938E+02  0.43400728048E+02  0.00000000000E+00 0.  1.
         11    1    3    3    0    0  0.61142442793E+01 -0.73593048141E+01  0.12503186714E+01  0.96491785918E+01  0.51100000000E-03 0. -1.
        -11    1    3    3    0    0  0.20932326135E+02 -0.10768224954E+02  0.21614596271E+02  0.31957905411E+02  0.51100000000E-03 0.  1.
        -12    1    3    3    0    0  0.40444083009E+01 -0.40799582130E+01 -0.22784700036E+01  0.61801879487E+01  0.00000000000E+00 0.  1.
</event>
<event>
 7    1  0.3221417E-010  0.4778727E+02  0.7816164E-02  0.1312668E+00
        -11   -1    0    0    0    0  0.00000000000E+00  0.00000000000E+00  0.45593999997E+02  0.45594000000E+02  0.51100000000E-03 0. -1.
         11   -1    0    0    0    0 -0.00000000000E+00 -0.00000000000E+00 -0.45593999997E+02  0.45594000000E+02  0.51100000000E-03 0.  1.
    9900012    2    1    2    0    0  0.20736102977E+02 -0.22639532119E+01 -0.38059319700E+02  0.47787271126E+02  0.20000000371E+02 0.  0.
         12    1    1    2    0    0 -0.20736102977E+02  0.22639532119E+01  0.38059319700E+02  0.43400728874E+02  0.00000000000E+00 0. -1.
         11    1    3    3    0    0  0.53156086365E+01 -0.49148678789E+01 -0.68200384258E+01  0.99460819338E+01  0.51100000000E-03 0. -1.
        -11    1    3    3    0    0  0.16722639032E+02  0.30715364453E+01 -0.32028417093E+02  0.36261556697E+02  0.51100000000E-03 0.  1.
         12    1    3    3    0    0 -0.13021446918E+01 -0.42062177842E+00  0.78913581902E+00  0.15796324952E+01  0.00000000000E+00 0. -1.
</event>
<event>
 7    1  0.3221417E-010  0.4778728E+02  0.7816164E-02  0.1312668E+00
        -11   -1    0    0    0    0  0.00000000000E+00  0.00000000000E+00  0.45593999997E+02  0.45594000000E+02  0.51100000000E-03 0. -1.
         11   -1    0    0    0    0 -0.00000000000E+00 -0.00000000000E+00 -0.45593999997E+02  0.45594000000E+02  0.51100000000E-03 0.  1.
    9900012    2    1    2    0    0  0.15625439621E+02 -0.36566767426E+01 -0.40324896001E+02  0.47787275517E+02  0.20000020394E+02 0.  0.
         12    1    1    2    0    0 -0.15625439621E+02  0.36566767426E+01  0.40324896001E+02  0.43400724483E+02  0.00000000000E+00 0. -1.
         11    1    3    3    0    0  0.29810562175E+01 -0.80604987392E+01 -0.57015635552E+01  0.10313397274E+02  0.51100000000E-03 0. -1.
        -11    1    3    3    0    0  0.31541575550E+01 -0.23364864348E+00 -0.13388869555E+02  0.13757366383E+02  0.51100000000E-03 0.  1.
         12    1    3    3    0    0  0.94902258482E+01  0.46374706401E+01 -0.21234462891E+02  0.23716511861E+02  0.00000000000E+00 0. -1.
</event>
<event>
 7    1  0.3221417E-010  0.4778727E+02  0.7816164E-02  0.1312668E+00
        -11   -1    0    0    0    0  0.00000000000E+00  0.00000000000E+00  0.45593999997E+02  0.45594000000E+02  0.51100000000E-03 0. -1.
         11   -1    0    0    0    0 -0.00000000000E+00 -0.00000000000E+00 -0.45593999997E+02  0.45594000000E+02  0.51100000000E-03 0.  1.
    9900012    2    1    2    0    0  0.34764910436E+01 -0.11484270622E+02  0.41709100400E+02  0.47787268234E+02  0.19999987184E+02 0.  0.
        -12    1    1    2    0    0 -0.34764910436E+01  0.11484270622E+02 -0.41709100400E+02  0.43400731766E+02  0.00000000000E+00 0.  1.
         11    1    3    3    0    0 -0.10184545630E+01 -0.65812468762E+00  0.14029387918E+01  0.18543503757E+01  0.51100000000E-03 0. -1.
        -11    1    3    3    0    0  0.99001401899E+01  0.12966579922E-01  0.17258060818E+02  0.19896070149E+02  0.51100000000E-03 0.  1.
         12    1    3    3    0    0 -0.54051945833E+01 -0.10839112515E+02  0.23048100790E+02  0.26036847709E+02  0.00000000000E+00 0. -1.
</event>
<event>
 7    1  0.3221417E-010  0.4778727E+02  0.7816164E-02  0.1312668E+00
        -11   -1    0    0    0    0  0.00000000000E+00  0.00000000000E+00  0.45593999997E+02  0.45594000000E+02  0.51100000000E-03 0. -1.
         11   -1    0    0    0    0 -0.00000000000E+00 -0.00000000000E+00 -0.45593999997E+02  0.45594000000E+02  0.51100000000E-03 0.  1.
    9900012    2    1    2    0    0  0.28248441708E+02 -0.14097622567E+02 -0.29780964853E+02  0.47787270876E+02  0.19999999231E+02 0.  0.
         12    1    1    2    0    0 -0.28248441708E+02  0.14097622567E+02  0.29780964853E+02  0.43400729124E+02  0.00000000000E+00 0. -1.
         11    1    3    3    0    0  0.89818321782E+00  0.11617246867E+01 -0.43942791079E+01  0.46331443405E+01  0.51100000000E-03 0. -1.
        -11    1    3    3    0    0  0.27932401739E+02 -0.13728721919E+02 -0.26737278427E+02  0.41031438317E+02  0.51100000000E-03 0.  1.
        -12    1    3    3    0    0 -0.58214324956E+00 -0.15306253348E+01  0.13505926819E+01  0.21226882180E+01  0.00000000000E+00 0.  1.
</event>
<event>
 7    1  0.3221417E-010  0.4778727E+02  0.7816164E-02  0.1312668E+00
        -11   -1    0    0    0    0  0.00000000000E+00  0.00000000000E+00  0.45593999997E+02  0.45594000000E+02  0.51100000000E-03 0.  1.
         11   -1    0    0    0    0 -0.00000000000E+00 -0.00000000000E+00 -0.45593999997E+02  0.45594000000E+02  0.51100000000E-03 0. -1.
    9900012    2    1    2    0    0 -0.16385167390E+02  0.38079260383E+02 -0.12849892172E+02  0.47787268318E+02  0.19999987567E+02 0.  0.
         12    1    1    2    0    0  0.16385167390E+02 -0.38079260383E+02  0.12849892172E+02  0.43400731682E+02  0.00000000000E+00 0. -1.
         11    1    3    3    0    0 -0.13616217622E+01  0.47598532885E+01 -0.24921852078E+01  0.55426712443E+01  0.51100000000E-03 0.  1.
        -11    1    3    3    0    0 -0.15262883734E+02  0.17978065411E+02  0.26208720804E+00  0.23584637919E+02  0.51100000000E-03 0. -1.
         12    1    3    3    0    0  0.23933810633E+00  0.15341341684E+02 -0.10619794172E+02  0.18659959155E+02  0.00000000000E+00 0. -1.
</event>
<event>
 7    1  0.3221417E-010  0.4778727E+02  0.7816164E-02  0.1312668E+00
        -11   -1    0    0    0    0  0.00000000000E+00  0.00000000000E+00  0.45593999997E+02  0.45594000000E+02  0.51100000000E-03 0. -1.
         11   -1    0    0    0    0 -0.00000000000E+00 -0.00000000000E+00 -0.45593999997E+02  0.45594000000E+02  0.51100000000E-03 0.  1.
    9900012    2    1    2    0    0 -0.38807870759E+02 -0.19415851217E+02 -0.77290424352E+00  0.47787268528E+02  0.19999988524E+02 0.  0.
         12    1    1    2    0    0  0.38807870759E+02  0.19415851217E+02  0.77290424352E+00  0.43400731472E+02  0.00000000000E+00 0. -1.
         11    1    3    3    0    0 -0.85816114197E+01  0.83694095210E+00  0.11477917565E+01  0.86983878330E+01  0.51100000000E-03 0. -1.
        -11    1    3    3    0    0 -0.54338292492E+01 -0.25145213267E+01  0.50323756822E+01  0.78213888204E+01  0.51100000000E-03 0.  1.
        -12    1    3    3    0    0 -0.24792430091E+02 -0.17738270843E+02 -0.69530716821E+01  0.31267491874E+02  0.00000000000E+00 0.  1.
</event>
<event>
 7    1  0.3221417E-010  0.4778727E+02  0.7816164E-02  0.1312668E+00
        -11   -1    0    0    0    0  0.00000000000E+00  0.00000000000E+00  0.45593999997E+02  0.45594000000E+02  0.51100000000E-03 0. -1.
         11   -1    0    0    0    0 -0.00000000000E+00 -0.00000000000E+00 -0.45593999997E+02  0.45594000000E+02  0.51100000000E-03 0.  1.
    9900012    2    1    2    0    0 -0.25768384420E+02 -0.48626200607E+01  0.34582775563E+02  0.47787273334E+02  0.20000010440E+02 0.  0.
        -12    1    1    2    0    0  0.25768384420E+02  0.48626200607E+01 -0.34582775563E+02  0.43400726666E+02  0.00000000000E+00 0.  1.
         11    1    3    3    0    0 -0.12896506576E+02 -0.19725498669E+01  0.84429924375E+01  0.15540107992E+02  0.51100000000E-03 0. -1.
        -11    1    3    3    0    0  0.56389458132E+00 -0.52167717660E+01  0.73906458584E+01  0.90639026486E+01  0.51100000000E-03 0.  1.
         12    1    3    3    0    0 -0.13435772426E+02  0.23267015722E+01  0.18749137267E+02  0.23183262694E+02  0.00000000000E+00 0. -1.
</event>
<event>
 7    1  0.3221417E-010  0.4778728E+02  0.7816164E-02  0.1312668E+00
        -11   -1    0    0    0    0  0.00000000000E+00  0.00000000000E+00  0.45593999997E+02  0.45594000000E+02  0.51100000000E-03 0.  1.
         11   -1    0    0    0    0 -0.00000000000E+00 -0.00000000000E+00 -0.45593999997E+02  0.45594000000E+02  0.51100000000E-03 0. -1.
    9900012    2    1    2    0    0  0.90726943680E+01 -0.42380774946E+02  0.22757252870E+01  0.47787276576E+02  0.20000025222E+02 0.  0.
         12    1    1    2    0    0 -0.90726943680E+01  0.42380774946E+02 -0.22757252870E+01  0.43400723424E+02  0.00000000000E+00 0. -1.
         11    1    3    3    0    0  0.26147004021E+01 -0.63568542601E+01  0.42682475691E+01  0.80909944907E+01  0.51100000000E-03 0. -1.
        -11    1    3    3    0    0  0.93787172675E+01 -0.34332570877E+02 -0.39263080156E+01  0.35806447122E+02  0.51100000000E-03 0.  1.
        -12    1    3    3    0    0 -0.29207233016E+01 -0.16913498086E+01  0.19337857335E+01  0.38898349634E+01  0.00000000000E+00 0.  1.
</event>
<event>
 7    1  0.3221417E-010  0.4778727E+02  0.7816164E-02  0.1312668E+00
        -11   -1    0    0    0    0  0.00000000000E+00  0.00000000000E+00  0.45593999997E+02  0.45594000000E+02  0.51100000000E-03 0. -1.
         11   -1    0    0    0    0 -0.00000000000E+00 -0.00000000000E+00 -0.45593999997E+02  0.45594000000E+02  0.51100000000E-03 0.  1.
    9900012    2    1    2    0    0 -0.29520593233E+02 -0.41766022930E+01  0.31539087970E+02  0.47787268422E+02  0.19999988041E+02 0.  0.
        -12    1    1    2    0    0  0.29520593233E+02  0.41766022930E+01 -0.31539087970E+02  0.43400731578E+02  0.00000000000E+00 0.  1.
         11    1    3    3    0    0 -0.14380414319E+02 -0.39272330527E+01  0.22092100560E+02  0.26651085960E+02  0.51100000000E-03 0. -1.
        -11    1    3    3    0    0 -0.11113860779E+02  0.44661037408E+01  0.88788306604E+01  0.14909648493E+02  0.51100000000E-03 0.  1.
        -12    1    3    3    0    0 -0.40263181357E+01 -0.47154729811E+01  0.56815674938E+00  0.62265339682E+01  0.00000000000E+00 0.  1.
</event>
<event>
 7    1  0.3221417E-010  0.4778728E+02  0.7816164E-02  0.1312668E+00
        -11   -1    0    0    0    0  0.00000000000E+00  0.00000000000E+00  0.45593999997E+02  0.45594000000E+02  0.51100000000E-03 0. -1.
         11   -1    0    0    0    0 -0.00000000000E+00 -0.00000000000E+00 -0.45593999997E+02  0.45594000000E+02  0.51100000000E-03 0.  1.
    9900012    2    1    2    0    0  0.95812484138E+01 -0.38159211238E+02 -0.18322028921E+02  0.47787280337E+02  0.20000042369E+02 0.  0.
         12    1    1    2    0    0 -0.95812484138E+01  0.38159211238E+02  0.18322028921E+02  0.43400719663E+02  0.00000000000E+00 0. -1.
         11    1    3    3    0    0  0.25307297601E+01  0.24076372748E+00 -0.53682905541E+01  0.59397898974E+01  0.51100000000E-03 0. -1.
        -11    1    3    3    0    0  0.84278283976E+01 -0.35945951001E+02 -0.12598494754E+02  0.39011046579E+02  0.51100000000E-03 0.  1.
        -12    1    3    3    0    0 -0.13773097440E+01 -0.24540239644E+01 -0.35524361241E+00  0.28364438603E+01  0.00000000000E+00 0.  1.
</event>
<event>
 7    1  0.3221417E-010  0.4778727E+02  0.7816164E-02  0.1312668E+00
        -11   -1    0    0    0    0  0.00000000000E+00  0.00000000000E+00  0.45593999997E+02  0.45594000000E+02  0.51100000000E-03 0. -1.
         11   -1    0    0    0    0 -0.00000000000E+00 -0.00000000000E+00 -0.45593999997E+02  0.45594000000E+02  0.51100000000E-03 0.  1.
    9900012    2    1    2    0    0 -0.13397704072E+02  0.27048639984E+02 -0.31184863005E+02  0.47787273278E+02  0.20000010182E+02 0.  0.
         12    1    1    2    0    0  0.13397704072E+02 -0.27048639984E+02  0.31184863005E+02  0.43400726722E+02  0.00000000000E+00 0. -1.
         11    1    3    3    0    0 -0.51557372344E+01  0.30192112109E+01 -0.12182460778E+02  0.13568699777E+02  0.51100000000E-03 0. -1.
        -11    1    3    3    0    0 -0.75943129697E+01  0.25565588297E+02 -0.17062408298E+02  0.31660680215E+02  0.51100000000E-03 0.  1.
        -12    1    3    3    0    0 -0.64765386819E+00 -0.15361595244E+01 -0.19399939292E+01  0.25578932861E+01  0.00000000000E+00 0.  1.
</event>
<event>
 7    1  0.3221417E-010  0.4778727E+02  0.7816164E-02  0.1312668E+00
        -11   -1    0    0    0    0  0.00000000000E+00  0.00000000000E+00  0.45593999997E+02  0.45594000000E+02  0.51100000000E-03 0. -1.
         11   -1    0    0    0    0 -0.00000000000E+00 -0.00000000000E+00 -0.45593999997E+02  0.45594000000E+02  0.51100000000E-03 0.  1.
    9900012    2    1    2    0    0  0.37968170606E+02  0.15420220024E+02  0.14291888319E+02  0.47787271475E+02  0.20000001964E+02 0.  0.
        -12    1    1    2    0    0 -0.37968170606E+02 -0.15420220024E+02 -0.14291888319E+02  0.43400728525E+02  0.00000000000E+00 0.  1.
         11    1    3    3    0    0  0.19874495242E+02  0.97597029801E+01  0.14793877605E+02  0.26629047641E+02  0.51100000000E-03 0. -1.
        -11    1    3    3    0    0 -0.54597066693E+00  0.19981954219E+01 -0.61861321475E+00  0.21618398376E+01  0.51100000000E-03 0.  1.
         12    1    3    3    0    0  0.18639646031E+02  0.36623216223E+01  0.11662392876E+00  0.18996383997E+02  0.00000000000E+00 0. -1.
</event>
<event>
 7    1  0.3221417E-010  0.4778726E+02  0.7816164E-02  0.1312668E+00
        -11   -1    0    0    0    0  0.00000000000E+00  0.00000000000E+00  0.45593999997E+02  0.45594000000E+02  0.51100000000E-03 0. -1.
         11   -1    0    0    0    0 -0.00000000000E+00 -0.00000000000E+00 -0.45593999997E+02  0.45594000000E+02  0.51100000000E-03 0.  1.
    9900012    2    1    2    0    0 -0.28006695933E+02 -0.31957663474E+02  0.88293256677E+01  0.47787259643E+02  0.19999948017E+02 0.  0.
        -12    1    1    2    0    0  0.28006695933E+02  0.31957663474E+02 -0.88293256677E+01  0.43400740357E+02  0.00000000000E+00 0.  1.
         11    1    3    3    0    0 -0.69637262379E+01 -0.59729244776E+01  0.70599117996E+01  0.11576340735E+02  0.51100000000E-03 0. -1.
        -11    1    3    3    0    0 -0.55194801568E+01 -0.15504036909E+02  0.50088245804E+01  0.17202562182E+02  0.51100000000E-03 0.  1.
        -12    1    3    3    0    0 -0.15523489538E+02 -0.10480702087E+02 -0.32394107124E+01  0.19008356726E+02  0.00000000000E+00 0.  1.
</event>
<event>
 7    1  0.3221417E-010  0.4778727E+02  0.7816164E-02  0.1312668E+00
        -11   -1    0    0    0    0  0.00000000000E+00  0.00000000000E+00  0.45593999997E+02  0.45594000000E+02  0.51100000000E-03 0. -1.
         11   -1    0    0    0    0 -0.00000000000E+00 -0.00000000000E+00 -0.45593999997E+02  0.45594000000E+02  0.51100000000E-03 0.  1.
    9900012    2    1    2    0    0 -0.28322480348E+02 -0.17518624379E+02  0.27830889403E+02  0.47787268460E+02  0.19999988218E+02 0.  0.
        -12    1    1    2    0    0  0.28322480348E+02  0.17518624379E+02 -0.27830889403E+02  0.43400731540E+02  0.00000000000E+00 0.  1.
         11    1    3    3    0    0 -0.49052619236E+01 -0.31810850028E+01  0.24939886579E+01  0.63561683443E+01  0.51100000000E-03 0. -1.
        -11    1    3    3    0    0 -0.37908840476E+01  0.14293774195E+01 -0.17838351166E+01  0.44267357786E+01  0.51100000000E-03 0.  1.
        -12    1    3    3    0    0 -0.19626334377E+02 -0.15766916796E+02  0.27120735862E+02  0.37004364337E+02  0.00000000000E+00 0.  1.
</event>
<event>
 7    1  0.3221417E-010  0.4778727E+02  0.7816164E-02  0.1312668E+00
        -11   -1    0    0    0    0  0.00000000000E+00  0.00000000000E+00  0.45593999997E+02  0.45594000000E+02  0.51100000000E-03 0. -1.
         11   -1    0    0    0    0 -0.00000000000E+00 -0.00000000000E+00 -0.45593999997E+02  0.45594000000E+02  0.51100000000E-03 0.  1.
    9900012    2    1    2    0    0 -0.31978383301E+02  0.11402104715E+02 -0.27036983394E+02  0.47787268883E+02  0.19999990144E+02 0.  0.
         12    1    1    2    0    0  0.31978383301E+02 -0.11402104715E+02  0.27036983394E+02  0.43400731117E+02  0.00000000000E+00 0. -1.
         11    1    3    3    0    0 -0.15789177946E+02  0.63643641375E+01 -0.16107802074E+02  0.23436393899E+02  0.51100000000E-03 0. -1.
        -11    1    3    3    0    0 -0.15030216297E+02 -0.46062718476E+00 -0.42580246633E+01  0.15628510922E+02  0.51100000000E-03 0.  1.
         12    1    3    3    0    0 -0.11589890581E+01  0.54983677625E+01 -0.66711566565E+01  0.87223640616E+01  0.00000000000E+00 0. -1.
</event>
<event>
 7    1  0.3221417E-010  0.4778727E+02  0.7816164E-02  0.1312668E+00
        -11   -1    0    0    0    0  0.00000000000E+00  0.00000000000E+00  0.45593999997E+02  0.45594000000E+02  0.51100000000E-03 0.  1.
         11   -1    0    0    0    0 -0.00000000000E+00 -0.00000000000E+00 -0.45593999997E+02  0.45594000000E+02  0.51100000000E-03 0. -1.
    9900012    2    1    2    0    0 -0.36766975937E+02 -0.14268922717E+02 -0.18116584069E+02  0.47787270820E+02  0.19999998975E+02 0.  0.
        -12    1    1    2    0    0  0.36766975937E+02  0.14268922717E+02  0.18116584069E+02  0.43400729180E+02  0.00000000000E+00 0.  1.
         11    1    3    3    0    0 -0.12450930807E+02 -0.84586008210E+00 -0.29048539668E+00  0.12483010025E+02  0.51100000000E-03 0. -1.
        -11    1    3    3    0    0 -0.29224330789E+01 -0.71709111923E+01 -0.20902856894E+01  0.80207154888E+01  0.51100000000E-03 0.  1.
        -12    1    3    3    0    0 -0.21393612051E+02 -0.62521514429E+01 -0.15735812982E+02  0.27283545306E+02  0.00000000000E+00 0.  1.
</event>
<event>
 7    1  0.3221417E-010  0.4778728E+02  0.7816164E-02  0.1312668E+00
        -11   -1    0    0    0    0  0.00000000000E+00  0.00000000000E+00  0.45593999997E+02  0.45594000000E+02  0.51100000000E-03 0. -1.
         11   -1    0    0    0    0 -0.00000000000E+00 -0.00000000000E+00 -0.45593999997E+02  0.45594000000E+02  0.51100000000E-03 0.  1.
    9900012    2    1    2    0    0  0.81573973363E+01 -0.23573155441E+02  0.35515994413E+02  0.47787278256E+02  0.20000032882E+02 0.  0.
        -12    1    1    2    0    0 -0.81573973363E+01  0.23573155441E+02 -0.35515994413E+02  0.43400721744E+02  0.00000000000E+00 0.  1.
         11    1    3    3    0    0  0.12504557336E+02 -0.18039580178E+02  0.33098129977E+02  0.39714941966E+02  0.51100000000E-03 0. -1.
        -11    1    3    3    0    0 -0.66916543162E+00 -0.14782878152E+01 -0.70535325553E+00  0.17693616690E+01  0.51100000000E-03 0.  1.
         12    1    3    3    0    0 -0.36779945681E+01 -0.40552874476E+01  0.31232176916E+01  0.63029746211E+01  0.00000000000E+00 0. -1.
</event>
<event>
 7    1  0.3221417E-010  0.4778727E+02  0.7816164E-02  0.1312668E+00
        -11   -1    0    0    0    0  0.00000000000E+00  0.00000000000E+00  0.45593999997E+02  0.45594000000E+02  0.51100000000E-03 0. -1.
         11   -1    0    0    0    0 -0.00000000000E+00 -0.00000000000E+00 -0.45593999997E+02  0.45594000000E+02  0.51100000000E-03 0.  1.
    9900012    2    1    2    0    0  0.15275368193E+02  0.19712013464E+02 -0.35520741704E+02  0.47787269138E+02  0.19999991306E+02 0.  0.
         12    1    1    2    0    0 -0.15275368193E+02 -0.19712013464E+02  0.35520741704E+02  0.43400730862E+02  0.00000000000E+00 0. -1.
         11    1    3    3    0    0  0.11925268128E+02  0.27415475299E+01 -0.63237648008E+01  0.13773819525E+02  0.51100000000E-03 0. -1.
        -11    1    3    3    0    0  0.11500871715E+01  0.73987745532E+01 -0.10533683050E+02  0.12923739561E+02  0.51100000000E-03 0.  1.
         12    1    3    3    0    0  0.22000128932E+01  0.95716913806E+01 -0.18663293853E+02  0.21089710052E+02  0.00000000000E+00 0. -1.
</event>
<event>
 7    1  0.3221417E-010  0.4778727E+02  0.7816164E-02  0.1312668E+00
        -11   -1    0    0    0    0  0.00000000000E+00  0.00000000000E+00  0.45593999997E+02  0.45594000000E+02  0.51100000000E-03 0. -1.
         11   -1    0    0    0    0 -0.00000000000E+00 -0.00000000000E+00 -0.45593999997E+02  0.45594000000E+02  0.51100000000E-03 0.  1.
    9900012    2    1    2    0    0  0.16964523511E+02  0.54985568351E+01 -0.39567586199E+02  0.47787273476E+02  0.20000011086E+02 0.  0.
         12    1    1    2    0    0 -0.16964523511E+02 -0.54985568351E+01  0.39567586199E+02  0.43400726524E+02  0.00000000000E+00 0. -1.
         11    1    3    3    0    0  0.55373427353E+01  0.31845456976E+01 -0.21940706593E+02  0.22851654250E+02  0.51100000000E-03 0.  1.
        -11    1    3    3    0    0  0.67775064941E-01 -0.26727225429E+01  0.73767165260E+00  0.27734813825E+01  0.51100000000E-03 0. -1.
         12    1    3    3    0    0  0.11359405711E+02  0.49867336803E+01 -0.18364551258E+02  0.22162137844E+02  0.00000000000E+00 0. -1.
</event>
<event>
 7    1  0.3221417E-010  0.4778727E+02  0.7816164E-02  0.1312668E+00
        -11   -1    0    0    0    0  0.00000000000E+00  0.00000000000E+00  0.45593999997E+02  0.45594000000E+02  0.51100000000E-03 0. -1.
         11   -1    0    0    0    0 -0.00000000000E+00 -0.00000000000E+00 -0.45593999997E+02  0.45594000000E+02  0.51100000000E-03 0.  1.
    9900012    2    1    2    0    0 -0.40247385169E+02  0.30734979418E+01  0.15947566144E+02  0.47787271107E+02  0.20000000284E+02 0.  0.
        -12    1    1    2    0    0  0.40247385169E+02 -0.30734979418E+01 -0.15947566144E+02  0.43400728893E+02  0.00000000000E+00 0.  1.
         11    1    3    3    0    0 -0.16515139133E+02  0.42039423758E+01  0.10151758976E+02  0.19836359612E+02  0.51100000000E-03 0. -1.
        -11    1    3    3    0    0 -0.18022286519E+02 -0.58124999310E+00 -0.21408190618E+01  0.18158297537E+02  0.51100000000E-03 0.  1.
         12    1    3    3    0    0 -0.57099595172E+01 -0.54919444088E+00  0.79366262293E+01  0.97926139578E+01  0.00000000000E+00 0. -1.
</event>
<event>
 7    1  0.3221417E-010  0.4778727E+02  0.7816164E-02  0.1312668E+00
        -11   -1    0    0    0    0  0.00000000000E+00  0.00000000000E+00  0.45593999997E+02  0.45594000000E+02  0.51100000000E-03 0.  1.
         11   -1    0    0    0    0 -0.00000000000E+00 -0.00000000000E+00 -0.45593999997E+02  0.45594000000E+02  0.51100000000E-03 0. -1.
    9900012    2    1    2    0    0  0.34180883025E+02  0.21239293746E+02  0.16253704339E+02  0.47787271113E+02  0.20000000311E+02 0.  0.
        -12    1    1    2    0    0 -0.34180883025E+02 -0.21239293746E+02 -0.16253704339E+02  0.43400728887E+02  0.00000000000E+00 0.  1.
         11    1    3    3    0    0  0.83164097694E+01  0.10983076711E+02  0.34022059646E+01  0.14190336542E+02  0.51100000000E-03 0. -1.
        -11    1    3    3    0    0  0.25933396071E+02  0.12044373587E+02  0.10120820505E+02  0.30332144251E+02  0.51100000000E-03 0.  1.
        -12    1    3    3    0    0 -0.68922815167E-01 -0.17881565519E+01  0.27306778693E+01  0.32647903202E+01  0.00000000000E+00 0.  1.
</event>
<event>
 7    1  0.3221417E-010  0.4778728E+02  0.7816164E-02  0.1312668E+00
        -11   -1    0    0    0    0  0.00000000000E+00  0.00000000000E+00  0.45593999997E+02  0.45594000000E+02  0.51100000000E-03 0.  1.
         11   -1    0    0    0    0 -0.00000000000E+00 -0.00000000000E+00 -0.45593999997E+02  0.45594000000E+02  0.51100000000E-03 0. -1.
    9900012    2    1    2    0    0 -0.29005009133E+02 -0.35451812648E+01 -0.32089936860E+02  0.47787275205E+02  0.20000018970E+02 0.  0.
         12    1    1    2    0    0  0.29005009133E+02  0.35451812648E+01  0.32089936860E+02  0.43400724795E+02  0.00000000000E+00 0. -1.
         11    1    3    3    0    0 -0.14110576693E+02 -0.72458271927E+01 -0.14839591234E+02  0.21721506728E+02  0.51100000000E-03 0. -1.
        -11    1    3    3    0    0 -0.60323964849E+01 -0.33988544618E+01 -0.23082177179E+01  0.72986223562E+01  0.51100000000E-03 0.  1.
        -12    1    3    3    0    0 -0.88620359554E+01  0.70995003897E+01 -0.14942127909E+02  0.18767146120E+02  0.00000000000E+00 0.  1.
</event>
<event>
 7    1  0.3221417E-010  0.4778727E+02  0.7816164E-02  0.1312668E+00
        -11   -1    0    0    0    0  0.00000000000E+00  0.00000000000E+00  0.45593999997E+02  0.45594000000E+02  0.51100000000E-03 0. -1.
         11   -1    0    0    0    0 -0.00000000000E+00 -0.00000000000E+00 -0.45593999997E+02  0.45594000000E+02  0.51100000000E-03 0.  1.
    9900012    2    1    2    0    0  0.28716327679E+02  0.12284880877E+02  0.30134326561E+02  0.47787269467E+02  0.19999992807E+02 0.  0.
        -12    1    1    2    0    0 -0.28716327679E+02 -0.12284880877E+02 -0.30134326561E+02  0.43400730533E+02  0.00000000000E+00 0.  1.
         11    1    3    3    0    0  0.14335319302E+02 -0.85498376392E+00  0.16073377460E+02  0.21554253408E+02  0.51100000000E-03 0. -1.
        -11    1    3    3    0    0 -0.11630113897E+01  0.19667346702E+01 -0.29663348770E+00  0.23040469706E+01  0.51100000000E-03 0.  1.
        -12    1    3    3    0    0  0.15544019766E+02  0.11173129971E+02  0.14357582589E+02  0.23928969089E+02  0.00000000000E+00 0.  1.
</event>
<event>
 7    1  0.3221417E-010  0.4778727E+02  0.7816164E-02  0.1312668E+00
        -11   -1    0    0    0    0  0.00000000000E+00  0.00000000000E+00  0.45593999997E+02  0.45594000000E+02  0.51100000000E-03 0. -1.
         11   -1    0    0    0    0 -0.00000000000E+00 -0.00000000000E+00 -0.45593999997E+02  0.45594000000E+02  0.51100000000E-03 0.  1.
    9900012    2    1    2    0    0 -0.39587060940E+02  0.55674388392E+01  0.16896497833E+02  0.47787269498E+02  0.19999992947E+02 0.  0.
        -12    1    1    2    0    0  0.39587060940E+02 -0.55674388392E+01 -0.16896497833E+02  0.43400730502E+02  0.00000000000E+00 0.  1.
         11    1    3    3    0    0 -0.29598986334E+02 -0.27099202467E+01  0.10742867298E+02  0.31604633486E+02  0.51100000000E-03 0. -1.
        -11    1    3    3    0    0 -0.10330209453E+02  0.70206343755E+01  0.31091650549E+01  0.12871264195E+02  0.51100000000E-03 0.  1.
        -12    1    3    3    0    0  0.34213484640E+00  0.12567247105E+01  0.30444654797E+01  0.33113718166E+01  0.00000000000E+00 0.  1.
</event>
<event>
 7    1  0.3221417E-010  0.4778727E+02  0.7816164E-02  0.1312668E+00
        -11   -1    0    0    0    0  0.00000000000E+00  0.00000000000E+00  0.45593999997E+02  0.45594000000E+02  0.51100000000E-03 0. -1.
         11   -1    0    0    0    0 -0.00000000000E+00 -0.00000000000E+00 -0.45593999997E+02  0.45594000000E+02  0.51100000000E-03 0.  1.
    9900012    2    1    2    0    0  0.39040060989E+01  0.38221143432E+02  0.20187281057E+02  0.47787269760E+02  0.19999994145E+02 0.  0.
        -12    1    1    2    0    0 -0.39040060989E+01 -0.38221143432E+02 -0.20187281057E+02  0.43400730240E+02  0.00000000000E+00 0.  1.
         11    1    3    3    0    0  0.59858851324E+01  0.20178492354E+02  0.74853808853E+01  0.22339053287E+02  0.51100000000E-03 0. -1.
        -11    1    3    3    0    0  0.52042774558E+01  0.92570536441E+01  0.56068608557E+01  0.12008931465E+02  0.51100000000E-03 0.  1.
         12    1    3    3    0    0 -0.72861564892E+01  0.87855974342E+01  0.70950393156E+01  0.13439285009E+02  0.00000000000E+00 0. -1.
</event>
<event>
 7    1  0.3221417E-010  0.4778727E+02  0.7816164E-02  0.1312668E+00
        -11   -1    0    0    0    0  0.00000000000E+00  0.00000000000E+00  0.45593999997E+02  0.45594000000E+02  0.51100000000E-03 0. -1.
         11   -1    0    0    0    0 -0.00000000000E+00 -0.00000000000E+00 -0.45593999997E+02  0.45594000000E+02  0.51100000000E-03 0.  1.
    9900012    2    1    2    0    0  0.20619893022E+02  0.16755610581E+02  0.34317533135E+02  0.47787267810E+02  0.19999985253E+02 0.  0.
        -12    1    1    2    0    0 -0.20619893022E+02 -0.16755610581E+02 -0.34317533135E+02  0.43400732190E+02  0.00000000000E+00 0.  1.
         11    1    3    3    0    0  0.59265042931E+01  0.70396786413E+01  0.44192964541E+01  0.10208364703E+02  0.51100000000E-03 0. -1.
        -11    1    3    3    0    0  0.13855914862E+02  0.14006330606E+01  0.22256475188E+02  0.26254501285E+02  0.51100000000E-03 0.  1.
         12    1    3    3    0    0  0.83747386704E+00  0.83152988788E+01  0.76417614922E+01  0.11324401822E+02  0.00000000000E+00 0. -1.
</event>
<event>
 7    1  0.3221417E-010  0.4778727E+02  0.7816164E-02  0.1312668E+00
        -11   -1    0    0    0    0  0.00000000000E+00  0.00000000000E+00  0.45593999997E+02  0.45594000000E+02  0.51100000000E-03 0. -1.
         11   -1    0    0    0    0 -0.00000000000E+00 -0.00000000000E+00 -0.45593999997E+02  0.45594000000E+02  0.51100000000E-03 0.  1.
    9900012    2    1    2    0    0 -0.63191972643E+01  0.38109814877E+01 -0.42768767860E+02  0.47787270303E+02  0.19999996622E+02 0.  0.
         12    1    1    2    0    0  0.63191972643E+01 -0.38109814877E+01  0.42768767860E+02  0.43400729697E+02  0.00000000000E+00 0. -1.
         11    1    3    3    0    0  0.45845051230E+00  0.33443126553E+01 -0.25298409509E+01  0.42183764065E+01  0.51100000000E-03 0. -1.
        -11    1    3    3    0    0 -0.11101338682E+02  0.29309326624E+01 -0.31277263623E+02  0.33318122799E+02  0.51100000000E-03 0.  1.
         12    1    3    3    0    0  0.43236909054E+01 -0.24642638301E+01 -0.89616632854E+01  0.10250771098E+02  0.00000000000E+00 0. -1.
</event>
<event>
 7    1  0.3221417E-010  0.4778727E+02  0.7816164E-02  0.1312668E+00
        -11   -1    0    0    0    0  0.00000000000E+00  0.00000000000E+00  0.45593999997E+02  0.45594000000E+02  0.51100000000E-03 0. -1.
         11   -1    0    0    0    0 -0.00000000000E+00 -0.00000000000E+00 -0.45593999997E+02  0.45594000000E+02  0.51100000000E-03 0.  1.
    9900012    2    1    2    0    0 -0.34905892622E+01 -0.23291592232E+02  0.36454639315E+02  0.47787271784E+02  0.20000003370E+02 0.  0.
        -12    1    1    2    0    0  0.34905892622E+01  0.23291592232E+02 -0.36454639315E+02  0.43400728216E+02  0.00000000000E+00 0.  1.
         11    1    3    3    0    0 -0.10883957815E+02 -0.11272283267E+02  0.19904283069E+02  0.25331904636E+02  0.51100000000E-03 0. -1.
        -11    1    3    3    0    0  0.31541758059E+01 -0.74224016883E+01  0.12903430305E+02  0.15216418296E+02  0.51100000000E-03 0.  1.
        -12    1    3    3    0    0  0.42391927467E+01 -0.45969072772E+01  0.36469259414E+01  0.72389488520E+01  0.00000000000E+00 0.  1.
</event>
<event>
 7    1  0.3221417E-010  0.4778727E+02  0.7816164E-02  0.1312668E+00
        -11   -1    0    0    0    0  0.00000000000E+00  0.00000000000E+00  0.45593999997E+02  0.45594000000E+02  0.51100000000E-03 0. -1.
         11   -1    0    0    0    0 -0.00000000000E+00 -0.00000000000E+00 -0.45593999997E+02  0.45594000000E+02  0.51100000000E-03 0.  1.
    9900012    2    1    2    0    0  0.28624648416E+01  0.25259376781E+02  0.35176603692E+02  0.47787271117E+02  0.20000000329E+02 0.  0.
        -12    1    1    2    0    0 -0.28624648416E+01 -0.25259376781E+02 -0.35176603692E+02  0.43400728883E+02  0.00000000000E+00 0.  1.
         11    1    3    3    0    0  0.25468845190E+01  0.18136727890E+02  0.15557478619E+02  0.24030452774E+02  0.51100000000E-03 0. -1.
        -11    1    3    3    0    0  0.55004532658E+01  0.45793148075E+01  0.13871119201E+02  0.15608749418E+02  0.51100000000E-03 0.  1.
        -12    1    3    3    0    0 -0.51848729432E+01  0.25433340836E+01  0.57480058718E+01  0.81480689246E+01  0.00000000000E+00 0.  1.
</event>
<event>
 7    1  0.3221417E-010  0.4778727E+02  0.7816164E-02  0.1312668E+00
        -11   -1    0    0    0    0  0.00000000000E+00  0.00000000000E+00  0.45593999997E+02  0.45594000000E+02  0.51100000000E-03 0. -1.
         11   -1    0    0    0    0 -0.00000000000E+00 -0.00000000000E+00 -0.45593999997E+02  0.45594000000E+02  0.51100000000E-03 0.  1.
    9900012    2    1    2    0    0  0.16775913493E+02  0.37635203212E+02  0.13630237359E+02  0.47787272301E+02  0.20000005730E+02 0.  0.
        -12    1    1    2    0    0 -0.16775913493E+02 -0.37635203212E+02 -0.13630237359E+02  0.43400727699E+02  0.00000000000E+00 0.  1.
         11    1    3    3    0    0  0.76524180534E+01  0.86300915989E+01  0.98803971837E+01  0.15187502489E+02  0.51100000000E-03 0. -1.
        -11    1    3    3    0    0  0.10384063578E+00  0.22156397805E+01 -0.28115212367E+01  0.35811303300E+01  0.51100000000E-03 0.  1.
        -12    1    3    3    0    0  0.90196548035E+01  0.26789471833E+02  0.65613614122E+01  0.29018639483E+02  0.00000000000E+00 0.  1.
</event>
<event>
 7    1  0.3221417E-010  0.4778727E+02  0.7816164E-02  0.1312668E+00
        -11   -1    0    0    0    0  0.00000000000E+00  0.00000000000E+00  0.45593999997E+02  0.45594000000E+02  0.51100000000E-03 0. -1.
         11   -1    0    0    0    0 -0.00000000000E+00 -0.00000000000E+00 -0.45593999997E+02  0.45594000000E+02  0.51100000000E-03 0.  1.
    9900012    2    1    2    0    0 -0.20218241482E+02  0.28874271197E+02 -0.25320390022E+02  0.47787274469E+02  0.20000015613E+02 0.  0.
         12    1    1    2    0    0  0.20218241482E+02 -0.28874271197E+02  0.25320390022E+02  0.43400725531E+02  0.00000000000E+00 0. -1.
         11    1    3    3    0    0 -0.60672128862E+01  0.15317053683E+02 -0.65719165370E+01  0.17737341767E+02  0.51100000000E-03 0. -1.
        -11    1    3    3    0    0 -0.70758743531E+01  0.96814578685E+01 -0.30088050844E+01  0.12363313982E+02  0.51100000000E-03 0.  1.
        -12    1    3    3    0    0 -0.70751542429E+01  0.38757596456E+01 -0.15739668400E+02  0.17686618720E+02  0.00000000000E+00 0.  1.
</event>
<event>
 7    1  0.3221417E-010  0.4778728E+02  0.7816164E-02  0.1312668E+00
        -11   -1    0    0    0    0  0.00000000000E+00  0.00000000000E+00  0.45593999997E+02  0.45594000000E+02  0.51100000000E-03 0. -1.
         11   -1    0    0    0    0 -0.00000000000E+00 -0.00000000000E+00 -0.45593999997E+02  0.45594000000E+02  0.51100000000E-03 0.  1.
    9900012    2    1    2    0    0  0.35079724296E+02 -0.73185897524E+01  0.24484151428E+02  0.47787280147E+02  0.20000041502E+02 0.  0.
        -12    1    1    2    0    0 -0.35079724296E+02  0.73185897524E+01 -0.24484151428E+02  0.43400719853E+02  0.00000000000E+00 0.  1.
         11    1    3    3    0    0 -0.85046143274E+00 -0.25213069811E+01  0.19241149621E+01  0.32836705362E+01  0.51100000000E-03 0.  1.
        -11    1    3    3    0    0  0.31873360756E+02 -0.49803368814E+01  0.14275995455E+02  0.35277739834E+02  0.51100000000E-03 0. -1.
         12    1    3    3    0    0  0.40568249726E+01  0.18305411011E+00  0.82840410110E+01  0.92258697767E+01  0.00000000000E+00 0. -1.
</event>
<event>
 7    1  0.3221417E-010  0.4778727E+02  0.7816164E-02  0.1312668E+00
        -11   -1    0    0    0    0  0.00000000000E+00  0.00000000000E+00  0.45593999997E+02  0.45594000000E+02  0.51100000000E-03 0. -1.
         11   -1    0    0    0    0 -0.00000000000E+00 -0.00000000000E+00 -0.45593999997E+02  0.45594000000E+02  0.51100000000E-03 0.  1.
    9900012    2    1    2    0    0  0.13186950674E+02 -0.27037851910E+02 -0.31283898261E+02  0.47787269656E+02  0.19999993668E+02 0.  0.
         12    1    1    2    0    0 -0.13186950674E+02  0.27037851910E+02  0.31283898261E+02  0.43400730344E+02  0.00000000000E+00 0. -1.
         11    1    3    3    0    0  0.31303967971E+01 -0.98239783172E+01 -0.32454477624E+01  0.10809387842E+02  0.51100000000E-03 0. -1.
        -11    1    3    3    0    0  0.46227662327E+01 -0.15055026588E+02 -0.11684031121E+02  0.19609701087E+02  0.51100000000E-03 0.  1.
        -12    1    3    3    0    0  0.54337876440E+01 -0.21588470048E+01 -0.16354419378E+02  0.17368180727E+02  0.00000000000E+00 0.  1.
</event>
<event>
 7    1  0.5781632E-010  0.4778727E+02  0.7816164E-02  0.1312668E+00
        -11   -1    0    0    0    0  0.00000000000E+00  0.00000000000E+00  0.45593999997E+02  0.45594000000E+02  0.51100000000E-03 0. -1.
         11   -1    0    0    0    0 -0.00000000000E+00 -0.00000000000E+00 -0.45593999997E+02  0.45594000000E+02  0.51100000000E-03 0.  1.
    9900012    2    1    2    0    0 -0.13400737827E+02 -0.31782328581E+02 -0.26342492969E+02  0.47787272815E+02  0.20000008073E+02 0.  0.
         12    1    1    2    0    0  0.13400737827E+02  0.31782328581E+02  0.26342492969E+02  0.43400727185E+02  0.00000000000E+00 0. -1.
         11    1    3    3    0    0 -0.46089533516E+01 -0.73384703614E+01 -0.15051971260E+02  0.17368288267E+02  0.51100000000E-03 0. -1.
        -11    1    3    3    0    0 -0.30528088139E+01 -0.19556051121E+02 -0.11474436155E+02  0.22878406030E+02  0.51100000000E-03 0.  1.
         12    1    3    3    0    0 -0.57389756616E+01 -0.48878070983E+01  0.18391444576E+00  0.75405785187E+01  0.00000000000E+00 0. -1.
</event>
<event>
 7    1  0.3221417E-010  0.4778728E+02  0.7816164E-02  0.1312668E+00
        -11   -1    0    0    0    0  0.00000000000E+00  0.00000000000E+00  0.45593999997E+02  0.45594000000E+02  0.51100000000E-03 0. -1.
         11   -1    0    0    0    0 -0.00000000000E+00 -0.00000000000E+00 -0.45593999997E+02  0.45594000000E+02  0.51100000000E-03 0.  1.
    9900012    2    1    2    0    0  0.66575805904E+01  0.40526287996E+02  0.14032789072E+02  0.47787279186E+02  0.20000037119E+02 0.  0.
        -12    1    1    2    0    0 -0.66575805904E+01 -0.40526287996E+02 -0.14032789072E+02  0.43400720814E+02  0.00000000000E+00 0.  1.
         11    1    3    3    0    0  0.19096096669E+01  0.14349915198E+02  0.25082520384E+01  0.14692106854E+02  0.51100000000E-03 0.  1.
        -11    1    3    3    0    0  0.89435348010E+01  0.10065401745E+02  0.91473692272E+01  0.16278006361E+02  0.51100000000E-03 0. -1.
         12    1    3    3    0    0 -0.41955638775E+01  0.16110971053E+02  0.23771678064E+01  0.16817165971E+02  0.00000000000E+00 0. -1.
</event>
<event>
 7    1  0.3221417E-010  0.4778727E+02  0.7816164E-02  0.1312668E+00
        -11   -1    0    0    0    0  0.00000000000E+00  0.00000000000E+00  0.45593999997E+02  0.45594000000E+02  0.51100000000E-03 0. -1.
         11   -1    0    0    0    0 -0.00000000000E+00 -0.00000000000E+00 -0.45593999997E+02  0.45594000000E+02  0.51100000000E-03 0.  1.
    9900012    2    1    2    0    0 -0.25725223675E+02 -0.33092536981E+02  0.11257022963E+02  0.47787266101E+02  0.19999977461E+02 0.  0.
        -12    1    1    2    0    0  0.25725223675E+02  0.33092536981E+02 -0.11257022963E+02  0.43400733899E+02  0.00000000000E+00 0.  1.
         11    1    3    3    0    0 -0.15956122038E+02 -0.16044730819E+02  0.39972950695E+00  0.22631637181E+02  0.51100000000E-03 0. -1.
        -11    1    3    3    0    0  0.16547340967E+01 -0.38598974703E+01 -0.65738627412E+00  0.42507776214E+01  0.51100000000E-03 0.  1.
        -12    1    3    3    0    0 -0.11423835733E+02 -0.13187908692E+02  0.11514679730E+02  0.20904851298E+02  0.00000000000E+00 0.  1.
</event>
<event>
 7    1  0.3221417E-010  0.4778727E+02  0.7816164E-02  0.1312668E+00
        -11   -1    0    0    0    0  0.00000000000E+00  0.00000000000E+00  0.45593999997E+02  0.45594000000E+02  0.51100000000E-03 0.  1.
         11   -1    0    0    0    0 -0.00000000000E+00 -0.00000000000E+00 -0.45593999997E+02  0.45594000000E+02  0.51100000000E-03 0. -1.
    9900012    2    1    2    0    0 -0.34217786917E+02  0.20751185091E+02 -0.16797466085E+02  0.47787268543E+02  0.19999988594E+02 0.  0.
         12    1    1    2    0    0  0.34217786917E+02 -0.20751185091E+02  0.16797466085E+02  0.43400731457E+02  0.00000000000E+00 0. -1.
         11    1    3    3    0    0 -0.61572496515E+01 -0.26636011245E+01 -0.61363513063E+01  0.90918261002E+01  0.51100000000E-03 0. -1.
        -11    1    3    3    0    0 -0.13027353196E+02  0.10198727786E+02 -0.12928632008E+01  0.16595103954E+02  0.51100000000E-03 0.  1.
        -12    1    3    3    0    0 -0.15033184069E+02  0.13216058429E+02 -0.93682515777E+01  0.22100338488E+02  0.00000000000E+00 0.  1.
</event>
<event>
 7    1  0.3221417E-010  0.4778727E+02  0.7816164E-02  0.1312668E+00
        -11   -1    0    0    0    0  0.00000000000E+00  0.00000000000E+00  0.45593999997E+02  0.45594000000E+02  0.51100000000E-03 0. -1.
         11   -1    0    0    0    0 -0.00000000000E+00 -0.00000000000E+00 -0.45593999997E+02  0.45594000000E+02  0.51100000000E-03 0.  1.
    9900012    2    1    2    0    0  0.63160620539E+01  0.68066577285E+01  0.42395753822E+02  0.47787272225E+02  0.20000005382E+02 0.  0.
        -12    1    1    2    0    0 -0.63160620539E+01 -0.68066577285E+01 -0.42395753822E+02  0.43400727775E+02  0.00000000000E+00 0.  1.
         11    1    3    3    0    0  0.74471150902E+01  0.32042673062E+01  0.13934722276E+02  0.16121517835E+02  0.51100000000E-03 0. -1.
        -11    1    3    3    0    0 -0.82633261496E+00  0.31662907991E+01  0.29927445060E+02  0.30105816566E+02  0.51100000000E-03 0.  1.
        -12    1    3    3    0    0 -0.30472042125E+00  0.43609962312E+00 -0.14664135148E+01  0.15599378234E+01  0.00000000000E+00 0.  1.
</event>
<event>
 7    1  0.3221417E-010  0.4778727E+02  0.7816164E-02  0.1312668E+00
        -11   -1    0    0    0    0  0.00000000000E+00  0.00000000000E+00  0.45593999997E+02  0.45594000000E+02  0.51100000000E-03 0.  1.
         11   -1    0    0    0    0 -0.00000000000E+00 -0.00000000000E+00 -0.45593999997E+02  0.45594000000E+02  0.51100000000E-03 0. -1.
    9900012    2    1    2    0    0 -0.37011333675E+02  0.22536784488E+02  0.24244878539E+01  0.47787267094E+02  0.19999981989E+02 0.  0.
        -12    1    1    2    0    0  0.37011333675E+02 -0.22536784488E+02 -0.24244878539E+01  0.43400732906E+02  0.00000000000E+00 0.  1.
         11    1    3    3    0    0 -0.14903754011E+02  0.14005102717E+02  0.29669322896E+01  0.20665610884E+02  0.51100000000E-03 0. -1.
        -11    1    3    3    0    0 -0.17231818697E+02  0.83257693550E+01 -0.57519057278E+01  0.19983453924E+02  0.51100000000E-03 0.  1.
         12    1    3    3    0    0 -0.48757609666E+01  0.20591241517E+00  0.52094612921E+01  0.71382022863E+01  0.00000000000E+00 0. -1.
</event>
<event>
 7    1  0.3221417E-010  0.4778727E+02  0.7816164E-02  0.1312668E+00
        -11   -1    0    0    0    0  0.00000000000E+00  0.00000000000E+00  0.45593999997E+02  0.45594000000E+02  0.51100000000E-03 0. -1.
         11   -1    0    0    0    0 -0.00000000000E+00 -0.00000000000E+00 -0.45593999997E+02  0.45594000000E+02  0.51100000000E-03 0.  1.
    9900012    2    1    2    0    0 -0.19047972951E+01 -0.19253431106E+01  0.43316137092E+02  0.47787274990E+02  0.20000017987E+02 0.  0.
        -12    1    1    2    0    0  0.19047972951E+01  0.19253431106E+01 -0.43316137092E+02  0.43400725010E+02  0.00000000000E+00 0.  1.
         11    1    3    3    0    0 -0.80114753089E+01  0.60485617335E+01  0.23435533261E+02  0.25494961368E+02  0.51100000000E-03 0. -1.
        -11    1    3    3    0    0  0.18609332340E+01 -0.25479056349E+01  0.53499125504E+01  0.62109951042E+01  0.51100000000E-03 0.  1.
         12    1    3    3    0    0  0.42457447798E+01 -0.54259992093E+01  0.14530691281E+02  0.16081318517E+02  0.00000000000E+00 0. -1.
</event>
<event>
 7    1  0.3221417E-010  0.4778727E+02  0.7816164E-02  0.1312668E+00
        -11   -1    0    0    0    0  0.00000000000E+00  0.00000000000E+00  0.45593999997E+02  0.45594000000E+02  0.51100000000E-03 0. -1.
         11   -1    0    0    0    0 -0.00000000000E+00 -0.00000000000E+00 -0.45593999997E+02  0.45594000000E+02  0.51100000000E-03 0.  1.
    9900012    2    1    2    0    0 -0.91185382057E+01  0.31939976305E+02  0.27934097432E+02  0.47787267003E+02  0.19999981572E+02 0.  0.
        -12    1    1    2    0    0  0.91185382057E+01 -0.31939976305E+02 -0.27934097432E+02  0.43400732997E+02  0.00000000000E+00 0.  1.
         11    1    3    3    0    0  0.23619262136E+01  0.12922001523E+02  0.12727503759E+02  0.18290603352E+02  0.51100000000E-03 0. -1.
        -11    1    3    3    0    0 -0.25838656344E+01  0.12951921932E+02  0.12946196633E+02  0.18494124766E+02  0.51100000000E-03 0.  1.
        -12    1    3    3    0    0 -0.88965987849E+01  0.60660528493E+01  0.22603970407E+01  0.11002538884E+02  0.00000000000E+00 0.  1.
</event>
<event>
 7    1  0.3221417E-010  0.4778727E+02  0.7816164E-02  0.1312668E+00
        -11   -1    0    0    0    0  0.00000000000E+00  0.00000000000E+00  0.45593999997E+02  0.45594000000E+02  0.51100000000E-03 0. -1.
         11   -1    0    0    0    0 -0.00000000000E+00 -0.00000000000E+00 -0.45593999997E+02  0.45594000000E+02  0.51100000000E-03 0.  1.
    9900012    2    1    2    0    0 -0.11950948076E+02 -0.93014253924E+01 -0.40672862268E+02  0.47787269599E+02  0.19999993410E+02 0.  0.
         12    1    1    2    0    0  0.11950948076E+02  0.93014253924E+01  0.40672862268E+02  0.43400730401E+02  0.00000000000E+00 0. -1.
         11    1    3    3    0    0  0.38537295154E+00 -0.78505342173E+01 -0.15355505400E+02  0.17250244814E+02  0.51100000000E-03 0. -1.
        -11    1    3    3    0    0 -0.11676308023E+02 -0.51307428165E+01 -0.15757451471E+02  0.20272098264E+02  0.51100000000E-03 0.  1.
         12    1    3    3    0    0 -0.66001300407E+00  0.36798516414E+01 -0.95599053970E+01  0.10264926520E+02  0.00000000000E+00 0. -1.
</event>
<event>
 7    1  0.3221417E-010  0.4778727E+02  0.7816164E-02  0.1312668E+00
        -11   -1    0    0    0    0  0.00000000000E+00  0.00000000000E+00  0.45593999997E+02  0.45594000000E+02  0.51100000000E-03 0. -1.
         11   -1    0    0    0    0 -0.00000000000E+00 -0.00000000000E+00 -0.45593999997E+02  0.45594000000E+02  0.51100000000E-03 0.  1.
    9900012    2    1    2    0    0  0.15241587382E+02  0.16506423498E+02 -0.37132939377E+02  0.47787272018E+02  0.20000004438E+02 0.  0.
         12    1    1    2    0    0 -0.15241587382E+02 -0.16506423498E+02  0.37132939377E+02  0.43400727982E+02  0.00000000000E+00 0. -1.
         11    1    3    3    0    0  0.32363997659E+01 -0.10323601306E+00 -0.76731762429E+00  0.33277195970E+01  0.51100000000E-03 0. -1.
        -11    1    3    3    0    0  0.70938375265E+01  0.84188384044E+01 -0.32218645134E+02  0.34047620555E+02  0.51100000000E-03 0.  1.
        -12    1    3    3    0    0  0.49113500897E+01  0.81908211067E+01 -0.41469766188E+01  0.10411931866E+02  0.00000000000E+00 0.  1.
</event>
<event>
 7    1  0.3221417E-010  0.4778727E+02  0.7816164E-02  0.1312668E+00
        -11   -1    0    0    0    0  0.00000000000E+00  0.00000000000E+00  0.45593999997E+02  0.45594000000E+02  0.51100000000E-03 0. -1.
         11   -1    0    0    0    0 -0.00000000000E+00 -0.00000000000E+00 -0.45593999997E+02  0.45594000000E+02  0.51100000000E-03 0.  1.
    9900012    2    1    2    0    0 -0.28583406674E+02 -0.41152224429E+01  0.32398723676E+02  0.47787268570E+02  0.19999988717E+02 0.  0.
        -12    1    1    2    0    0  0.28583406674E+02  0.41152224429E+01 -0.32398723676E+02  0.43400731430E+02  0.00000000000E+00 0.  1.
         11    1    3    3    0    0 -0.21604976429E+02 -0.10975263504E+02  0.18901148731E+02  0.30732472063E+02  0.51100000000E-03 0. -1.
        -11    1    3    3    0    0 -0.97090943932E+00  0.20120222318E+01  0.12024180962E+01  0.25370668379E+01  0.51100000000E-03 0.  1.
         12    1    3    3    0    0 -0.60075208057E+01  0.48480188296E+01  0.12295156849E+02  0.14517729669E+02  0.00000000000E+00 0. -1.
</event>
<event>
 7    1  0.3221417E-010  0.4778728E+02  0.7816164E-02  0.1312668E+00
        -11   -1    0    0    0    0  0.00000000000E+00  0.00000000000E+00  0.45593999997E+02  0.45594000000E+02  0.51100000000E-03 0. -1.
         11   -1    0    0    0    0 -0.00000000000E+00 -0.00000000000E+00 -0.45593999997E+02  0.45594000000E+02  0.51100000000E-03 0.  1.
    9900012    2    1    2    0    0 -0.24564131565E+02 -0.31990331359E+01 -0.35636951690E+02  0.47787277675E+02  0.20000030233E+02 0.  0.
         12    1    1    2    0    0  0.24564131565E+02  0.31990331359E+01  0.35636951690E+02  0.43400722325E+02  0.00000000000E+00 0. -1.
         11    1    3    3    0    0 -0.75216838491E+01 -0.16414669359E+01 -0.16259723240E+02  0.17990240180E+02  0.51100000000E-03 0. -1.
        -11    1    3    3    0    0 -0.11471898140E+01 -0.41859781213E+01 -0.10591005377E+02  0.11445866173E+02  0.51100000000E-03 0.  1.
         12    1    3    3    0    0 -0.15895257902E+02  0.26284119213E+01 -0.87862230727E+01  0.18351171322E+02  0.00000000000E+00 0. -1.
</event>
<event>
 7    1  0.3221417E-010  0.4778727E+02  0.7816164E-02  0.1312668E+00
        -11   -1    0    0    0    0  0.00000000000E+00  0.00000000000E+00  0.45593999997E+02  0.45594000000E+02  0.51100000000E-03 0. -1.
         11   -1    0    0    0    0 -0.00000000000E+00 -0.00000000000E+00 -0.45593999997E+02  0.45594000000E+02  0.51100000000E-03 0.  1.
    9900012    2    1    2    0    0 -0.31003085949E+02 -0.64009419213E+01  0.29689390889E+02  0.47787270430E+02  0.19999997200E+02 0.  0.
        -12    1    1    2    0    0  0.31003085949E+02  0.64009419213E+01 -0.29689390889E+02  0.43400729570E+02  0.00000000000E+00 0.  1.
         11    1    3    3    0    0 -0.19833877833E+02  0.40889620129E+01  0.18823763066E+02  0.27648442568E+02  0.51100000000E-03 0. -1.
        -11    1    3    3    0    0 -0.24197521561E+01 -0.18500605795E+01 -0.84216167125E+00  0.31602470135E+01  0.51100000000E-03 0.  1.
         12    1    3    3    0    0 -0.87494559602E+01 -0.86398433548E+01  0.11707789494E+02  0.16978580849E+02  0.00000000000E+00 0. -1.
</event>
<event>
 7    1  0.3221417E-010  0.4778727E+02  0.7816164E-02  0.1312668E+00
        -11   -1    0    0    0    0  0.00000000000E+00  0.00000000000E+00  0.45593999997E+02  0.45594000000E+02  0.51100000000E-03 0. -1.
         11   -1    0    0    0    0 -0.00000000000E+00 -0.00000000000E+00 -0.45593999997E+02  0.45594000000E+02  0.51100000000E-03 0.  1.
    9900012    2    1    2    0    0 -0.45986740083E+01 -0.15408877781E+02 -0.40311807752E+02  0.47787272341E+02  0.20000005912E+02 0.  0.
         12    1    1    2    0    0  0.45986740083E+01  0.15408877781E+02  0.40311807752E+02  0.43400727659E+02  0.00000000000E+00 0. -1.
         11    1    3    3    0    0 -0.57937311594E+01 -0.79251218910E+01 -0.48545524433E+01  0.10951783299E+02  0.51100000000E-03 0. -1.
        -11    1    3    3    0    0 -0.26969649793E+01 -0.34106574228E+01 -0.15403876116E+02  0.16005799068E+02  0.51100000000E-03 0.  1.
         12    1    3    3    0    0  0.38920221304E+01 -0.40730984676E+01 -0.20053379193E+02  0.20829689975E+02  0.00000000000E+00 0. -1.
</event>
<event>
 7    1  0.3221417E-010  0.4778725E+02  0.7816164E-02  0.1312668E+00
        -11   -1    0    0    0    0  0.00000000000E+00  0.00000000000E+00  0.45593999997E+02  0.45594000000E+02  0.51100000000E-03 0. -1.
         11   -1    0    0    0    0 -0.00000000000E+00 -0.00000000000E+00 -0.45593999997E+02  0.45594000000E+02  0.51100000000E-03 0.  1.
    9900012    2    1    2    0    0  0.27070648834E+02 -0.25675529354E+02  0.22171422671E+02  0.47787253242E+02  0.19999918832E+02 0.  0.
        -12    1    1    2    0    0 -0.27070648834E+02  0.25675529354E+02 -0.22171422671E+02  0.43400746758E+02  0.00000000000E+00 0.  1.
         11    1    3    3    0    0  0.99560668208E+01 -0.72667654060E+01  0.11711456905E+02  0.17002569485E+02  0.51100000000E-03 0. -1.
        -11    1    3    3    0    0  0.13581867910E+02 -0.81256203615E+01  0.18980637140E+00  0.15828103768E+02  0.51100000000E-03 0.  1.
         12    1    3    3    0    0  0.35327141028E+01 -0.10283143586E+02  0.10270159395E+02  0.14956579989E+02  0.00000000000E+00 0. -1.
</event>
<event>
 7    1  0.3221417E-010  0.4778727E+02  0.7816164E-02  0.1312668E+00
        -11   -1    0    0    0    0  0.00000000000E+00  0.00000000000E+00  0.45593999997E+02  0.45594000000E+02  0.51100000000E-03 0. -1.
         11   -1    0    0    0    0 -0.00000000000E+00 -0.00000000000E+00 -0.45593999997E+02  0.45594000000E+02  0.51100000000E-03 0.  1.
    9900012    2    1    2    0    0 -0.28489939422E+02 -0.22121530992E+02 -0.24136785143E+02  0.47787272140E+02  0.20000004996E+02 0.  0.
         12    1    1    2    0    0  0.28489939422E+02  0.22121530992E+02  0.24136785143E+02  0.43400727860E+02  0.00000000000E+00 0. -1.
         11    1    3    3    0    0  0.12481092677E+01  0.55277009581E+00 -0.27263678697E+01  0.30490020572E+01  0.51100000000E-03 0. -1.
        -11    1    3    3    0    0 -0.13982582725E+02 -0.16338780606E+02 -0.16362836712E+02  0.27022412862E+02  0.51100000000E-03 0.  1.
        -12    1    3    3    0    0 -0.15755465965E+02 -0.63355204818E+01 -0.50475805612E+01  0.17715857221E+02  0.00000000000E+00 0.  1.
</event>
<event>
 7    1  0.3221417E-010  0.4778729E+02  0.7816164E-02  0.1312668E+00
        -11   -1    0    0    0    0  0.00000000000E+00  0.00000000000E+00  0.45593999997E+02  0.45594000000E+02  0.51100000000E-03 0. -1.
         11   -1    0    0    0    0 -0.00000000000E+00 -0.00000000000E+00 -0.45593999997E+02  0.45594000000E+02  0.51100000000E-03 0.  1.
    9900012    2    1    2    0    0 -0.33422070836E+02  0.98597607742E+01  0.25872222281E+02  0.47787290475E+02  0.20000088594E+02 0.  0.
        -12    1    1    2    0    0  0.33422070836E+02 -0.98597607742E+01 -0.25872222281E+02  0.43400709525E+02  0.00000000000E+00 0.  1.
         11    1    3    3    0    0 -0.28500947185E+01  0.40186134312E+01  0.77474432950E+01  0.91812402041E+01  0.51100000000E-03 0. -1.
        -11    1    3    3    0    0 -0.38339987933E+01  0.62051775682E+01  0.47789642551E+01  0.87202221883E+01  0.51100000000E-03 0.  1.
        -12    1    3    3    0    0 -0.26737977324E+02 -0.36403022533E+00  0.13345814731E+02  0.29885828083E+02  0.00000000000E+00 0.  1.
</event>
<event>
 7    1  0.3221417E-010  0.4778727E+02  0.7816164E-02  0.1312668E+00
        -11   -1    0    0    0    0  0.00000000000E+00  0.00000000000E+00  0.45593999997E+02  0.45594000000E+02  0.51100000000E-03 0. -1.
         11   -1    0    0    0    0 -0.00000000000E+00 -0.00000000000E+00 -0.45593999997E+02  0.45594000000E+02  0.51100000000E-03 0.  1.
    9900012    2    1    2    0    0 -0.72756900858E+01  0.56242222195E+01  0.42415277078E+02  0.47787271073E+02  0.20000000129E+02 0.  0.
        -12    1    1    2    0    0  0.72756900858E+01 -0.56242222195E+01 -0.42415277078E+02  0.43400728927E+02  0.00000000000E+00 0.  1.
         11    1    3    3    0    0 -0.55965064491E+01  0.39125754349E+01  0.27868536018E+02  0.28692933469E+02  0.51100000000E-03 0. -1.
        -11    1    3    3    0    0  0.46434710520E+01  0.66311905574E+00  0.10538282167E+02  0.11535031062E+02  0.51100000000E-03 0.  1.
         12    1    3    3    0    0 -0.63226546887E+01  0.10485277289E+01  0.40084588925E+01  0.75593065425E+01  0.00000000000E+00 0. -1.
</event>
<event>
 7    1  0.3221417E-010  0.4778727E+02  0.7816164E-02  0.1312668E+00
        -11   -1    0    0    0    0  0.00000000000E+00  0.00000000000E+00  0.45593999997E+02  0.45594000000E+02  0.51100000000E-03 0. -1.
         11   -1    0    0    0    0 -0.00000000000E+00 -0.00000000000E+00 -0.45593999997E+02  0.45594000000E+02  0.51100000000E-03 0.  1.
    9900012    2    1    2    0    0  0.20589530747E+02  0.31867500014E+02 -0.21075042919E+02  0.47787265357E+02  0.19999974070E+02 0.  0.
         12    1    1    2    0    0 -0.20589530747E+02 -0.31867500014E+02  0.21075042919E+02  0.43400734643E+02  0.00000000000E+00 0. -1.
         11    1    3    3    0    0  0.96542939149E+01  0.18504844462E+02 -0.96431692763E+01  0.22991854503E+02  0.51100000000E-03 0. -1.
        -11    1    3    3    0    0  0.32281951394E+01 -0.31805444392E+00  0.22669936599E+01  0.39574819017E+01  0.51100000000E-03 0.  1.
        -12    1    3    3    0    0  0.77070416927E+01  0.13680709996E+02 -0.13698867303E+02  0.20837928952E+02  0.00000000000E+00 0.  1.
</event>
<event>
 7    1  0.3221417E-010  0.4778727E+02  0.7816164E-02  0.1312668E+00
        -11   -1    0    0    0    0  0.00000000000E+00  0.00000000000E+00  0.45593999997E+02  0.45594000000E+02  0.51100000000E-03 0.  1.
         11   -1    0    0    0    0 -0.00000000000E+00 -0.00000000000E+00 -0.45593999997E+02  0.45594000000E+02  0.51100000000E-03 0. -1.
    9900012    2    1    2    0    0  0.38919141956E+02  0.20028418405E+01  0.19102679926E+02  0.47787269979E+02  0.19999995142E+02 0.  0.
        -12    1    1    2    0    0 -0.38919141956E+02 -0.20028418405E+01 -0.19102679926E+02  0.43400730021E+02  0.00000000000E+00 0.  1.
         11    1    3    3    0    0  0.20072086740E+01 -0.21943257494E+01  0.21415602973E+01  0.36647282196E+01  0.51100000000E-03 0. -1.
        -11    1    3    3    0    0  0.33318947503E+02  0.89824847346E+01  0.16090583182E+02  0.38075506065E+02  0.51100000000E-03 0.  1.
        -12    1    3    3    0    0  0.35929857787E+01 -0.47853171448E+01  0.87053644655E+00  0.60470356942E+01  0.00000000000E+00 0.  1.
</event>
<event>
 7    1  0.3221417E-010  0.4778728E+02  0.7816164E-02  0.1312668E+00
        -11   -1    0    0    0    0  0.00000000000E+00  0.00000000000E+00  0.45593999997E+02  0.45594000000E+02  0.51100000000E-03 0.  1.
         11   -1    0    0    0    0 -0.00000000000E+00 -0.00000000000E+00 -0.45593999997E+02  0.45594000000E+02  0.51100000000E-03 0. -1.
    9900012    2    1    2    0    0 -0.36222926334E+02  0.23580166524E+02  0.39367678115E+01  0.47787276661E+02  0.20000025610E+02 0.  0.
         12    1    1    2    0    0  0.36222926334E+02 -0.23580166524E+02 -0.39367678115E+01  0.43400723339E+02  0.00000000000E+00 0. -1.
         11    1    3    3    0    0 -0.84154474885E+01  0.93421780063E+01  0.95208540668E-01  0.12573985496E+02  0.51100000000E-03 0. -1.
        -11    1    3    3    0    0 -0.19706715719E+02  0.52123517186E+01  0.86805639651E+01  0.22155709103E+02  0.51100000000E-03 0.  1.
         12    1    3    3    0    0 -0.81007631266E+01  0.90256367993E+01 -0.48390046943E+01  0.13057582062E+02  0.00000000000E+00 0. -1.
</event>
<event>
 7    1  0.3221417E-010  0.4778727E+02  0.7816164E-02  0.1312668E+00
        -11   -1    0    0    0    0  0.00000000000E+00  0.00000000000E+00  0.45593999997E+02  0.45594000000E+02  0.51100000000E-03 0. -1.
         11   -1    0    0    0    0 -0.00000000000E+00 -0.00000000000E+00 -0.45593999997E+02  0.45594000000E+02  0.51100000000E-03 0.  1.
    9900012    2    1    2    0    0  0.35032544811E+02 -0.96145611133E+01 -0.23746676626E+02  0.47787266917E+02  0.19999981181E+02 0.  0.
         12    1    1    2    0    0 -0.35032544811E+02  0.96145611133E+01  0.23746676626E+02  0.43400733083E+02  0.00000000000E+00 0. -1.
         11    1    3    3    0    0  0.63672124445E+01  0.12542157275E+01  0.23075504001E+01  0.68876150092E+01  0.51100000000E-03 0. -1.
        -11    1    3    3    0    0  0.14415828738E+02 -0.19677010003E+01 -0.99466362040E+01  0.17624515241E+02  0.51100000000E-03 0.  1.
         12    1    3    3    0    0  0.14249503629E+02 -0.89010758405E+01 -0.16107590822E+02  0.23275136667E+02  0.00000000000E+00 0. -1.
</event>
<event>
 7    1  0.3221417E-010  0.4778727E+02  0.7816164E-02  0.1312668E+00
        -11   -1    0    0    0    0  0.00000000000E+00  0.00000000000E+00  0.45593999997E+02  0.45594000000E+02  0.51100000000E-03 0. -1.
         11   -1    0    0    0    0 -0.00000000000E+00 -0.00000000000E+00 -0.45593999997E+02  0.45594000000E+02  0.51100000000E-03 0.  1.
    9900012    2    1    2    0    0 -0.11220340515E+02 -0.28275626902E+02  0.30955066980E+02  0.47787270862E+02  0.19999999167E+02 0.  0.
        -12    1    1    2    0    0  0.11220340515E+02  0.28275626902E+02 -0.30955066980E+02  0.43400729138E+02  0.00000000000E+00 0.  1.
         11    1    3    3    0    0 -0.30146468896E+01 -0.82026178940E+01  0.13549247261E+02  0.16123062295E+02  0.51100000000E-03 0. -1.
        -11    1    3    3    0    0 -0.88241170382E+01 -0.12574857365E+02  0.33523711575E+01  0.15723564223E+02  0.51100000000E-03 0.  1.
        -12    1    3    3    0    0  0.61842341250E+00 -0.74981516433E+01  0.14053448562E+02  0.15940644343E+02  0.00000000000E+00 0.  1.
</event>
<event>
 7    1  0.3221417E-010  0.4778727E+02  0.7816164E-02  0.1312668E+00
        -11   -1    0    0    0    0  0.00000000000E+00  0.00000000000E+00  0.45593999997E+02  0.45594000000E+02  0.51100000000E-03 0. -1.
         11   -1    0    0    0    0 -0.00000000000E+00 -0.00000000000E+00 -0.45593999997E+02  0.45594000000E+02  0.51100000000E-03 0.  1.
    9900012    2    1    2    0    0 -0.12819497894E+02  0.72283986810E+01  0.40829329223E+02  0.47787269608E+02  0.19999993452E+02 0.  0.
        -12    1    1    2    0    0  0.12819497894E+02 -0.72283986810E+01 -0.40829329223E+02  0.43400730392E+02  0.00000000000E+00 0.  1.
         11    1    3    3    0    0 -0.12772017905E+02 -0.39305124271E+01  0.25682420806E+02  0.28950994941E+02  0.51100000000E-03 0. -1.
        -11    1    3    3    0    0  0.36425097682E+00  0.81410488537E+01  0.10860383001E+02  0.13577822889E+02  0.51100000000E-03 0.  1.
         12    1    3    3    0    0 -0.41173096580E+00  0.30178622544E+01  0.42865254154E+01  0.52584517790E+01  0.00000000000E+00 0. -1.
</event>
<event>
 7    1  0.3221417E-010  0.4778727E+02  0.7816164E-02  0.1312668E+00
        -11   -1    0    0    0    0  0.00000000000E+00  0.00000000000E+00  0.45593999997E+02  0.45594000000E+02  0.51100000000E-03 0. -1.
         11   -1    0    0    0    0 -0.00000000000E+00 -0.00000000000E+00 -0.45593999997E+02  0.45594000000E+02  0.51100000000E-03 0.  1.
    9900012    2    1    2    0    0 -0.16930452785E+02  0.42481804784E+01 -0.39735825865E+02  0.47787272747E+02  0.20000007764E+02 0.  0.
         12    1    1    2    0    0  0.16930452785E+02 -0.42481804784E+01  0.39735825865E+02  0.43400727253E+02  0.00000000000E+00 0. -1.
         11    1    3    3    0    0 -0.14665700716E+01  0.24439216698E+01 -0.97228608542E+00  0.30114649916E+01  0.51100000000E-03 0. -1.
        -11    1    3    3    0    0 -0.84157086936E+01 -0.22914041304E+01 -0.34482089227E+02  0.35568091928E+02  0.51100000000E-03 0.  1.
         12    1    3    3    0    0 -0.70481740198E+01  0.40956629390E+01 -0.42814505530E+01  0.92077158275E+01  0.00000000000E+00 0. -1.
</event>
<event>
 7    1  0.3221417E-010  0.4778727E+02  0.7816164E-02  0.1312668E+00
        -11   -1    0    0    0    0  0.00000000000E+00  0.00000000000E+00  0.45593999997E+02  0.45594000000E+02  0.51100000000E-03 0. -1.
         11   -1    0    0    0    0 -0.00000000000E+00 -0.00000000000E+00 -0.45593999997E+02  0.45594000000E+02  0.51100000000E-03 0.  1.
    9900012    2    1    2    0    0  0.28947600816E+02 -0.28550723998E+01 -0.32210374572E+02  0.47787271188E+02  0.20000000653E+02 0.  0.
         12    1    1    2    0    0 -0.28947600816E+02  0.28550723998E+01  0.32210374572E+02  0.43400728812E+02  0.00000000000E+00 0. -1.
         11    1    3    3    0    0  0.56080595987E+01 -0.42010843807E+01  0.70296868667E+00  0.70422729052E+01  0.51100000000E-03 0. -1.
        -11    1    3    3    0    0  0.12522556426E+02 -0.13536957150E+01 -0.14375140045E+02  0.19112602206E+02  0.51100000000E-03 0.  1.
         12    1    3    3    0    0  0.10816984792E+02  0.26997076959E+01 -0.18538203213E+02  0.21632396076E+02  0.00000000000E+00 0. -1.
</event>
<event>
 7    1  0.3221417E-010  0.4778727E+02  0.7816164E-02  0.1312668E+00
        -11   -1    0    0    0    0  0.00000000000E+00  0.00000000000E+00  0.45593999997E+02  0.45594000000E+02  0.51100000000E-03 0. -1.
         11   -1    0    0    0    0 -0.00000000000E+00 -0.00000000000E+00 -0.45593999997E+02  0.45594000000E+02  0.51100000000E-03 0.  1.
    9900012    2    1    2    0    0  0.14133564807E+02  0.65810191975E+01  0.40503775650E+02  0.47787270631E+02  0.19999998116E+02 0.  0.
        -12    1    1    2    0    0 -0.14133564807E+02 -0.65810191975E+01 -0.40503775650E+02  0.43400729369E+02  0.00000000000E+00 0.  1.
         11    1    3    3    0    0  0.76933454090E+00 -0.20699492080E+01 -0.74740092919E+00  0.23313459138E+01  0.51100000000E-03 0. -1.
        -11    1    3    3    0    0  0.48968437367E+01 -0.83107433877E+00  0.20726041883E+02  0.21312873470E+02  0.51100000000E-03 0.  1.
         12    1    3    3    0    0  0.84673865290E+01  0.94820427443E+01  0.20525134696E+02  0.24143051247E+02  0.00000000000E+00 0. -1.
</event>
<event>
 7    1  0.3221417E-010  0.4778727E+02  0.7816164E-02  0.1312668E+00
        -11   -1    0    0    0    0  0.00000000000E+00  0.00000000000E+00  0.45593999997E+02  0.45594000000E+02  0.51100000000E-03 0. -1.
         11   -1    0    0    0    0 -0.00000000000E+00 -0.00000000000E+00 -0.45593999997E+02  0.45594000000E+02  0.51100000000E-03 0.  1.
    9900012    2    1    2    0    0  0.17268916100E+02 -0.55416705002E+00 -0.39813328179E+02  0.47787266537E+02  0.19999979449E+02 0.  0.
         12    1    1    2    0    0 -0.17268916100E+02  0.55416705002E+00  0.39813328179E+02  0.43400733463E+02  0.00000000000E+00 0. -1.
         11    1    3    3    0    0  0.16713032957E+01  0.18136792477E+01 -0.92116763801E+01  0.95361244283E+01  0.51100000000E-03 0. -1.
        -11    1    3    3    0    0  0.14109859720E+02 -0.40241206674E+01 -0.32283236303E+02  0.35461091846E+02  0.51100000000E-03 0.  1.
         12    1    3    3    0    0  0.14877530839E+01  0.16562743698E+01  0.16815845033E+01  0.27900502627E+01  0.00000000000E+00 0. -1.
</event>
<event>
 7    1  0.3221417E-010  0.4778727E+02  0.7816164E-02  0.1312668E+00
        -11   -1    0    0    0    0  0.00000000000E+00  0.00000000000E+00  0.45593999997E+02  0.45594000000E+02  0.51100000000E-03 0. -1.
         11   -1    0    0    0    0 -0.00000000000E+00 -0.00000000000E+00 -0.45593999997E+02  0.45594000000E+02  0.51100000000E-03 0.  1.
    9900012    2    1    2    0    0  0.21704507764E+01 -0.14533673010E+02  0.40837297071E+02  0.47787270285E+02  0.19999996538E+02 0.  0.
        -12    1    1    2    0    0 -0.21704507764E+01  0.14533673010E+02 -0.40837297071E+02  0.43400729715E+02  0.00000000000E+00 0.  1.
         11    1    3    3    0    0  0.14510270963E+01 -0.26693829179E+01  0.66405434950E+01  0.73025956322E+01  0.51100000000E-03 0. -1.
        -11    1    3    3    0    0 -0.65740848427E+01 -0.12713840881E+02  0.21898612648E+02  0.26161222786E+02  0.51100000000E-03 0.  1.
        -12    1    3    3    0    0  0.72935085228E+01  0.84955078906E+00  0.12298140927E+02  0.14323451867E+02  0.00000000000E+00 0.  1.
</event>
<event>
 7    1  0.3221417E-010  0.4778727E+02  0.7816164E-02  0.1312668E+00
        -11   -1    0    0    0    0  0.00000000000E+00  0.00000000000E+00  0.45593999997E+02  0.45594000000E+02  0.51100000000E-03 0. -1.
         11   -1    0    0    0    0 -0.00000000000E+00 -0.00000000000E+00 -0.45593999997E+02  0.45594000000E+02  0.51100000000E-03 0.  1.
    9900012    2    1    2    0    0  0.15606722885E+01 -0.30502912315E+02  0.30834392880E+02  0.47787272564E+02  0.20000006929E+02 0.  0.
        -12    1    1    2    0    0 -0.15606722885E+01  0.30502912315E+02 -0.30834392880E+02  0.43400727436E+02  0.00000000000E+00 0.  1.
         11    1    3    3    0    0 -0.16217868146E+01 -0.20722170143E+01  0.63741216016E+01  0.68959192484E+01  0.51100000000E-03 0. -1.
        -11    1    3    3    0    0  0.29077052042E+00  0.19613814897E+01  0.29134970858E+01  0.35242063466E+01  0.51100000000E-03 0.  1.
         12    1    3    3    0    0  0.28916885826E+01 -0.30392076791E+02  0.21546774192E+02  0.37367146969E+02  0.00000000000E+00 0. -1.
</event>
<event>
 7    1  0.3221417E-010  0.4778728E+02  0.7816164E-02  0.1312668E+00
        -11   -1    0    0    0    0  0.00000000000E+00  0.00000000000E+00  0.45593999997E+02  0.45594000000E+02  0.51100000000E-03 0. -1.
         11   -1    0    0    0    0 -0.00000000000E+00 -0.00000000000E+00 -0.45593999997E+02  0.45594000000E+02  0.51100000000E-03 0.  1.
    9900012    2    1    2    0    0 -0.30172129877E+02 -0.62626798382E+01 -0.30562127260E+02  0.47787283384E+02  0.20000056263E+02 0.  0.
         12    1    1    2    0    0  0.30172129877E+02  0.62626798382E+01  0.30562127260E+02  0.43400716616E+02  0.00000000000E+00 0. -1.
         11    1    3    3    0    0 -0.41527895525E+01 -0.11829167370E+01 -0.16053114303E+02  0.16623700916E+02  0.51100000000E-03 0. -1.
        -11    1    3    3    0    0 -0.66994313720E+01 -0.35641847636E+01 -0.12704938940E+01  0.76941502931E+01  0.51100000000E-03 0.  1.
        -12    1    3    3    0    0 -0.19319908952E+02 -0.15155783376E+01 -0.13238519064E+02  0.23469432175E+02  0.00000000000E+00 0.  1.
</event>
<event>
 7    1  0.3221417E-010  0.4778725E+02  0.7816164E-02  0.1312668E+00
        -11   -1    0    0    0    0  0.00000000000E+00  0.00000000000E+00  0.45593999997E+02  0.45594000000E+02  0.51100000000E-03 0. -1.
         11   -1    0    0    0    0 -0.00000000000E+00 -0.00000000000E+00 -0.45593999997E+02  0.45594000000E+02  0.51100000000E-03 0.  1.
    9900012    2    1    2    0    0 -0.33131905480E+02 -0.20173368929E+02  0.19466296601E+02  0.47787254868E+02  0.19999926244E+02 0.  0.
        -12    1    1    2    0    0  0.33131905480E+02  0.20173368929E+02 -0.19466296601E+02  0.43400745132E+02  0.00000000000E+00 0.  1.
         11    1    3    3    0    0 -0.10574456418E+02 -0.91553432264E+01  0.60771851661E+01  0.15250298946E+02  0.51100000000E-03 0. -1.
        -11    1    3    3    0    0 -0.14164451808E+02 -0.28952928355E+00  0.11318352613E+01  0.14212549861E+02  0.51100000000E-03 0.  1.
         12    1    3    3    0    0 -0.83929972546E+01 -0.10728496419E+02  0.12257276173E+02  0.18324406061E+02  0.00000000000E+00 0. -1.
</event>
<event>
 7    1  0.3221417E-010  0.4778727E+02  0.7816164E-02  0.1312668E+00
        -11   -1    0    0    0    0  0.00000000000E+00  0.00000000000E+00  0.45593999997E+02  0.45594000000E+02  0.51100000000E-03 0. -1.
         11   -1    0    0    0    0 -0.00000000000E+00 -0.00000000000E+00 -0.45593999997E+02  0.45594000000E+02  0.51100000000E-03 0.  1.
    9900012    2    1    2    0    0 -0.52110177849E+01 -0.32808784676E+02  0.27929410969E+02  0.47787273562E+02  0.20000011480E+02 0.  0.
        -12    1    1    2    0    0  0.52110177849E+01  0.32808784676E+02 -0.27929410969E+02  0.43400726438E+02  0.00000000000E+00 0.  1.
         11    1    3    3    0    0  0.37176748463E+01 -0.35495023739E+01  0.19834101600E+01  0.55094454793E+01  0.51100000000E-03 0. -1.
        -11    1    3    3    0    0 -0.12407396260E+01 -0.12900952611E+02  0.34341769161E+01  0.13407743451E+02  0.51100000000E-03 0.  1.
         12    1    3    3    0    0 -0.76879530052E+01 -0.16358329690E+02  0.22511823893E+02  0.28870084632E+02  0.00000000000E+00 0. -1.
</event>
<event>
 7    1  0.3221417E-010  0.4778727E+02  0.7816164E-02  0.1312668E+00
        -11   -1    0    0    0    0  0.00000000000E+00  0.00000000000E+00  0.45593999997E+02  0.45594000000E+02  0.51100000000E-03 0. -1.
         11   -1    0    0    0    0 -0.00000000000E+00 -0.00000000000E+00 -0.45593999997E+02  0.45594000000E+02  0.51100000000E-03 0.  1.
    9900012    2    1    2    0    0  0.11513712623E+02  0.21308277597E+02  0.36014093748E+02  0.47787271654E+02  0.20000002778E+02 0.  0.
        -12    1    1    2    0    0 -0.11513712623E+02 -0.21308277597E+02 -0.36014093748E+02  0.43400728346E+02  0.00000000000E+00 0.  1.
         11    1    3    3    0    0 -0.48842842714E+00  0.82469263506E+01  0.71476609738E+01  0.10924258063E+02  0.51100000000E-03 0. -1.
        -11    1    3    3    0    0  0.81305932046E+01  0.14592741162E+01  0.40581447795E+01  0.92035083592E+01  0.51100000000E-03 0.  1.
         12    1    3    3    0    0  0.38715478454E+01  0.11602077130E+02  0.24808287995E+02  0.27659505232E+02  0.00000000000E+00 0. -1.
</event>
<event>
 7    1  0.3221417E-010  0.4778727E+02  0.7816164E-02  0.1312668E+00
        -11   -1    0    0    0    0  0.00000000000E+00  0.00000000000E+00  0.45593999997E+02  0.45594000000E+02  0.51100000000E-03 0. -1.
         11   -1    0    0    0    0 -0.00000000000E+00 -0.00000000000E+00 -0.45593999997E+02  0.45594000000E+02  0.51100000000E-03 0.  1.
    9900012    2    1    2    0    0 -0.17022032175E+02 -0.87135508539E+01 -0.38960849832E+02  0.47787269966E+02  0.19999995081E+02 0.  0.
         12    1    1    2    0    0  0.17022032175E+02  0.87135508539E+01  0.38960849832E+02  0.43400730034E+02  0.00000000000E+00 0. -1.
         11    1    3    3    0    0 -0.46234284306E-01  0.20836130615E+01 -0.18234429857E+02  0.18353147236E+02  0.51100000000E-03 0. -1.
        -11    1    3    3    0    0 -0.53429542422E+01 -0.22158018814E+01 -0.28615077688E+01  0.64533065155E+01  0.51100000000E-03 0.  1.
        -12    1    3    3    0    0 -0.11632843649E+02 -0.85813620340E+01 -0.17864912207E+02  0.22980816214E+02  0.00000000000E+00 0.  1.
</event>
<event>
 7    1  0.3221417E-010  0.4778727E+02  0.7816164E-02  0.1312668E+00
        -11   -1    0    0    0    0  0.00000000000E+00  0.00000000000E+00  0.45593999997E+02  0.45594000000E+02  0.51100000000E-03 0. -1.
         11   -1    0    0    0    0 -0.00000000000E+00 -0.00000000000E+00 -0.45593999997E+02  0.45594000000E+02  0.51100000000E-03 0.  1.
    9900012    2    1    2    0    0  0.92628923242E+01  0.40862932023E+02 -0.11315598941E+02  0.47787272274E+02  0.20000005606E+02 0.  0.
         12    1    1    2    0    0 -0.92628923242E+01 -0.40862932023E+02  0.11315598941E+02  0.43400727726E+02  0.00000000000E+00 0. -1.
         11    1    3    3    0    0  0.75697915380E+00  0.10513478450E+01  0.27724602894E+01  0.30602101314E+01  0.51100000000E-03 0. -1.
        -11    1    3    3    0    0 -0.29405414858E+00  0.24052596289E+02 -0.52095014344E+01  0.24612045050E+02  0.51100000000E-03 0.  1.
        -12    1    3    3    0    0  0.87999673190E+01  0.15758987889E+02 -0.88785577956E+01  0.20115017093E+02  0.00000000000E+00 0.  1.
</event>
<event>
 7    1  0.3221417E-010  0.4778727E+02  0.7816164E-02  0.1312668E+00
        -11   -1    0    0    0    0  0.00000000000E+00  0.00000000000E+00  0.45593999997E+02  0.45594000000E+02  0.51100000000E-03 0. -1.
         11   -1    0    0    0    0 -0.00000000000E+00 -0.00000000000E+00 -0.45593999997E+02  0.45594000000E+02  0.51100000000E-03 0.  1.
    9900012    2    1    2    0    0 -0.21723027817E+02 -0.25380304997E+02  0.27705114165E+02  0.47787272239E+02  0.20000005447E+02 0.  0.
        -12    1    1    2    0    0  0.21723027817E+02  0.25380304997E+02 -0.27705114165E+02  0.43400727761E+02  0.00000000000E+00 0.  1.
         11    1    3    3    0    0 -0.12371016680E+02 -0.13114312564E+02  0.89794867834E+01  0.20140964001E+02  0.51100000000E-03 0. -1.
        -11    1    3    3    0    0 -0.34521353938E+00 -0.11267115007E+02  0.10092993139E+02  0.15130616766E+02  0.51100000000E-03 0.  1.
         12    1    3    3    0    0 -0.90067975970E+01 -0.99887742717E+00  0.86326342427E+01  0.12515691473E+02  0.00000000000E+00 0. -1.
</event>
<event>
 7    1  0.3221417E-010  0.4778727E+02  0.7816164E-02  0.1312668E+00
        -11   -1    0    0    0    0  0.00000000000E+00  0.00000000000E+00  0.45593999997E+02  0.45594000000E+02  0.51100000000E-03 0. -1.
         11   -1    0    0    0    0 -0.00000000000E+00 -0.00000000000E+00 -0.45593999997E+02  0.45594000000E+02  0.51100000000E-03 0.  1.
    9900012    2    1    2    0    0  0.19279341752E+02  0.32999413368E+02  0.20566211870E+02  0.47787269918E+02  0.19999994863E+02 0.  0.
        -12    1    1    2    0    0 -0.19279341752E+02 -0.32999413368E+02 -0.20566211870E+02  0.43400730082E+02  0.00000000000E+00 0.  1.
         11    1    3    3    0    0  0.16884849006E+02  0.18169368650E+02  0.15818252922E+02  0.29418382159E+02  0.51100000000E-03 0. -1.
        -11    1    3    3    0    0  0.39157085442E+01  0.49160885715E+01 -0.16171753419E+01  0.64896807775E+01  0.51100000000E-03 0.  1.
        -12    1    3    3    0    0 -0.15212157981E+01  0.99139561466E+01  0.63651342899E+01  0.11879206981E+02  0.00000000000E+00 0.  1.
</event>
<event>
 7    1  0.3221417E-010  0.4778727E+02  0.7816164E-02  0.1312668E+00
        -11   -1    0    0    0    0  0.00000000000E+00  0.00000000000E+00  0.45593999997E+02  0.45594000000E+02  0.51100000000E-03 0. -1.
         11   -1    0    0    0    0 -0.00000000000E+00 -0.00000000000E+00 -0.45593999997E+02  0.45594000000E+02  0.51100000000E-03 0.  1.
    9900012    2    1    2    0    0 -0.22126435801E+01  0.25990595010E+02  0.34687408153E+02  0.47787272991E+02  0.20000008873E+02 0.  0.
        -12    1    1    2    0    0  0.22126435801E+01 -0.25990595010E+02 -0.34687408153E+02  0.43400727009E+02  0.00000000000E+00 0.  1.
         11    1    3    3    0    0  0.10336398628E+01 -0.35849903809E+00  0.85352438347E+01  0.86050752760E+01  0.51100000000E-03 0. -1.
        -11    1    3    3    0    0 -0.59530391989E+01  0.11225090633E+02  0.66070659672E+01  0.14321126226E+02  0.51100000000E-03 0.  1.
         12    1    3    3    0    0  0.27067557560E+01  0.15124003415E+02  0.19545098351E+02  0.24861071489E+02  0.00000000000E+00 0. -1.
</event>
<event>
 7    1  0.3221417E-010  0.4778731E+02  0.7816164E-02  0.1312668E+00
        -11   -1    0    0    0    0  0.00000000000E+00  0.00000000000E+00  0.45593999997E+02  0.45594000000E+02  0.51100000000E-03 0. -1.
         11   -1    0    0    0    0 -0.00000000000E+00 -0.00000000000E+00 -0.45593999997E+02  0.45594000000E+02  0.51100000000E-03 0.  1.
    9900012    2    1    2    0    0  0.75961568002E+01 -0.15854730589E+02  0.39680544767E+02  0.47787312065E+02  0.20000187030E+02 0.  0.
        -12    1    1    2    0    0 -0.75961568002E+01  0.15854730589E+02 -0.39680544767E+02  0.43400687935E+02  0.00000000000E+00 0.  1.
         11    1    3    3    0    0  0.58680471906E+01 -0.28615754284E+01  0.24026945605E+02  0.24898126579E+02  0.51100000000E-03 0. -1.
        -11    1    3    3    0    0  0.28621224006E+01 -0.29961800513E+01 -0.15965002945E+00  0.41466043854E+01  0.51100000000E-03 0.  1.
        -12    1    3    3    0    0 -0.11340127910E+01 -0.99969751090E+01  0.15813249191E+02  0.18742581101E+02  0.00000000000E+00 0.  1.
</event>
<event>
 7    1  0.4977962E-010  0.4778727E+02  0.7816164E-02  0.1312668E+00
        -11   -1    0    0    0    0  0.00000000000E+00  0.00000000000E+00  0.45593999997E+02  0.45594000000E+02  0.51100000000E-03 0. -1.
         11   -1    0    0    0    0 -0.00000000000E+00 -0.00000000000E+00 -0.45593999997E+02  0.45594000000E+02  0.51100000000E-03 0.  1.
    9900012    2    1    2    0    0 -0.92343811299E+01  0.29571991928E+01 -0.42303715657E+02  0.47787272122E+02  0.20000004913E+02 0.  0.
         12    1    1    2    0    0  0.92343811299E+01 -0.29571991928E+01  0.42303715657E+02  0.43400727878E+02  0.00000000000E+00 0. -1.
         11    1    3    3    0    0 -0.12169515394E+01  0.38079779217E+01 -0.15237060179E+01  0.42782411329E+01  0.51100000000E-03 0. -1.
        -11    1    3    3    0    0 -0.99698370108E+01  0.30469507020E+01 -0.32787201325E+02  0.34404681797E+02  0.51100000000E-03 0.  1.
         12    1    3    3    0    0  0.19524074203E+01 -0.38977294309E+01 -0.79928083149E+01  0.91043491920E+01  0.00000000000E+00 0. -1.
</event>
<event>
 7    1  0.3221417E-010  0.4778726E+02  0.7816164E-02  0.1312668E+00
        -11   -1    0    0    0    0  0.00000000000E+00  0.00000000000E+00  0.45593999997E+02  0.45594000000E+02  0.51100000000E-03 0. -1.
         11   -1    0    0    0    0 -0.00000000000E+00 -0.00000000000E+00 -0.45593999997E+02  0.45594000000E+02  0.51100000000E-03 0.  1.
    9900012    2    1    2    0    0  0.78201981594E+01  0.29996475636E+02 -0.30375644019E+02  0.47787264990E+02  0.19999972395E+02 0.  0.
         12    1    1    2    0    0 -0.78201981594E+01 -0.29996475636E+02  0.30375644019E+02  0.43400735010E+02  0.00000000000E+00 0. -1.
         11    1    3    3    0    0  0.20654194190E+01  0.80985074426E+01  0.16060552364E+01  0.85106517881E+01  0.51100000000E-03 0. -1.
        -11    1    3    3    0    0  0.31641793706E+01  0.71391386659E+01 -0.10523501255E+02  0.13104327946E+02  0.51100000000E-03 0.  1.
        -12    1    3    3    0    0  0.25905993698E+01  0.14758829528E+02 -0.21458198000E+02  0.26172285256E+02  0.00000000000E+00 0.  1.
</event>
<event>
 7    1  0.3221417E-010  0.4778727E+02  0.7816164E-02  0.1312668E+00
        -11   -1    0    0    0    0  0.00000000000E+00  0.00000000000E+00  0.45593999997E+02  0.45594000000E+02  0.51100000000E-03 0. -1.
         11   -1    0    0    0    0 -0.00000000000E+00 -0.00000000000E+00 -0.45593999997E+02  0.45594000000E+02  0.51100000000E-03 0.  1.
    9900012    2    1    2    0    0 -0.20034280646E+01  0.38732478604E+02 -0.19478316192E+02  0.47787269309E+02  0.19999992088E+02 0.  0.
         12    1    1    2    0    0  0.20034280646E+01 -0.38732478604E+02  0.19478316192E+02  0.43400730691E+02  0.00000000000E+00 0. -1.
         11    1    3    3    0    0 -0.51979567800E+01  0.27631692362E+01 -0.53506196196E+01  0.79550606213E+01  0.51100000000E-03 0. -1.
        -11    1    3    3    0    0  0.54143653326E+01  0.13896621446E+02 -0.74090538773E+01  0.16653093382E+02  0.51100000000E-03 0.  1.
        -12    1    3    3    0    0 -0.22198366171E+01  0.22072687922E+02 -0.67186426953E+01  0.23179115306E+02  0.00000000000E+00 0.  1.
</event>
<event>
 7    1  0.3221417E-010  0.4778727E+02  0.7816164E-02  0.1312668E+00
        -11   -1    0    0    0    0  0.00000000000E+00  0.00000000000E+00  0.45593999997E+02  0.45594000000E+02  0.51100000000E-03 0. -1.
         11   -1    0    0    0    0 -0.00000000000E+00 -0.00000000000E+00 -0.45593999997E+02  0.45594000000E+02  0.51100000000E-03 0.  1.
    9900012    2    1    2    0    0  0.31829724799E+02  0.26263349228E+02 -0.13443535470E+02  0.47787267986E+02  0.19999986055E+02 0.  0.
         12    1    1    2    0    0 -0.31829724799E+02 -0.26263349228E+02  0.13443535470E+02  0.43400732014E+02  0.00000000000E+00 0. -1.
         11    1    3    3    0    0  0.96693063480E+01  0.12621887673E+02 -0.79572580120E+01  0.17779918138E+02  0.51100000000E-03 0. -1.
        -11    1    3    3    0    0  0.26593935997E+01  0.66722508738E+01 -0.58985567578E+01  0.92943142903E+01  0.51100000000E-03 0.  1.
         12    1    3    3    0    0  0.19501024851E+02  0.69692106812E+01  0.41227930004E+00  0.20713035557E+02  0.00000000000E+00 0. -1.
</event>
<event>
 7    1  0.3221417E-010  0.4778726E+02  0.7816164E-02  0.1312668E+00
        -11   -1    0    0    0    0  0.00000000000E+00  0.00000000000E+00  0.45593999997E+02  0.45594000000E+02  0.51100000000E-03 0. -1.
         11   -1    0    0    0    0 -0.00000000000E+00 -0.00000000000E+00 -0.45593999997E+02  0.45594000000E+02  0.51100000000E-03 0.  1.
    9900012    2    1    2    0    0 -0.26473305444E+02 -0.27070157235E+02 -0.21213075707E+02  0.47787263891E+02  0.19999967383E+02 0.  0.
         12    1    1    2    0    0  0.26473305444E+02  0.27070157235E+02  0.21213075707E+02  0.43400736109E+02  0.00000000000E+00 0. -1.
         11    1    3    3    0    0 -0.14763830176E+02 -0.65295385749E+01 -0.23813936836E+01  0.16317983687E+02  0.51100000000E-03 0.  1.
        -11    1    3    3    0    0 -0.11890103718E+02 -0.18485619459E+02 -0.13602841036E+02  0.25848210339E+02  0.51100000000E-03 0. -1.
        -12    1    3    3    0    0  0.18062845016E+00 -0.20549992011E+01 -0.52288409868E+01  0.56210698643E+01  0.00000000000E+00 0.  1.
</event>
<event>
 7    1  0.3221417E-010  0.4778727E+02  0.7816164E-02  0.1312668E+00
        -11   -1    0    0    0    0  0.00000000000E+00  0.00000000000E+00  0.45593999997E+02  0.45594000000E+02  0.51100000000E-03 0.  1.
         11   -1    0    0    0    0 -0.00000000000E+00 -0.00000000000E+00 -0.45593999997E+02  0.45594000000E+02  0.51100000000E-03 0. -1.
    9900012    2    1    2    0    0  0.12559790949E+02 -0.40444418231E+02 -0.94933467932E+01  0.47787274798E+02  0.20000017114E+02 0.  0.
         12    1    1    2    0    0 -0.12559790949E+02  0.40444418231E+02  0.94933467932E+01  0.43400725202E+02  0.00000000000E+00 0. -1.
         11    1    3    3    0    0  0.18750857788E+01 -0.14345706140E+02 -0.60004956116E+01  0.15662732174E+02  0.51100000000E-03 0. -1.
        -11    1    3    3    0    0  0.12605942069E+02 -0.21711548497E+02  0.15705389320E+01  0.25154874406E+02  0.51100000000E-03 0.  1.
        -12    1    3    3    0    0 -0.19212368986E+01 -0.43871635947E+01 -0.50633901136E+01  0.69696682180E+01  0.00000000000E+00 0.  1.
</event>
<event>
 7    1  0.3221417E-010  0.4778727E+02  0.7816164E-02  0.1312668E+00
        -11   -1    0    0    0    0  0.00000000000E+00  0.00000000000E+00  0.45593999997E+02  0.45594000000E+02  0.51100000000E-03 0. -1.
         11   -1    0    0    0    0 -0.00000000000E+00 -0.00000000000E+00 -0.45593999997E+02  0.45594000000E+02  0.51100000000E-03 0.  1.
    9900012    2    1    2    0    0  0.37224568490E+02  0.41788297278E+01 -0.21920137035E+02  0.47787268153E+02  0.19999986818E+02 0.  0.
         12    1    1    2    0    0 -0.37224568490E+02 -0.41788297278E+01  0.21920137035E+02  0.43400731847E+02  0.00000000000E+00 0. -1.
         11    1    3    3    0    0  0.74770632989E+01  0.13213099785E+01 -0.12852146001E+02  0.14927491173E+02  0.51100000000E-03 0. -1.
        -11    1    3    3    0    0  0.41845690679E+01 -0.34572964243E-01 -0.54642546249E+01  0.68825789092E+01  0.51100000000E-03 0.  1.
         12    1    3    3    0    0  0.25562936123E+02  0.28920927135E+01 -0.36037364098E+01  0.25977198071E+02  0.00000000000E+00 0. -1.
</event>
<event>
 7    1  0.3221417E-010  0.4778727E+02  0.7816164E-02  0.1312668E+00
        -11   -1    0    0    0    0  0.00000000000E+00  0.00000000000E+00  0.45593999997E+02  0.45594000000E+02  0.51100000000E-03 0. -1.
         11   -1    0    0    0    0 -0.00000000000E+00 -0.00000000000E+00 -0.45593999997E+02  0.45594000000E+02  0.51100000000E-03 0.  1.
    9900012    2    1    2    0    0 -0.24358516146E+02 -0.85359233617E+01 -0.34891610494E+02  0.47787265221E+02  0.19999973448E+02 0.  0.
         12    1    1    2    0    0  0.24358516146E+02  0.85359233617E+01  0.34891610494E+02  0.43400734779E+02  0.00000000000E+00 0. -1.
         11    1    3    3    0    0 -0.18157086132E+02 -0.43326611278E+01 -0.21128523746E+02  0.28193372363E+02  0.51100000000E-03 0. -1.
        -11    1    3    3    0    0 -0.31553130144E+01  0.31155396394E+01 -0.96271006601E+00  0.45375542306E+01  0.51100000000E-03 0.  1.
         12    1    3    3    0    0 -0.30461169995E+01 -0.73188018734E+01 -0.12800376682E+02  0.15056338627E+02  0.00000000000E+00 0. -1.
</event>
<event>
 7    1  0.3221417E-010  0.4778726E+02  0.7816164E-02  0.1312668E+00
        -11   -1    0    0    0    0  0.00000000000E+00  0.00000000000E+00  0.45593999997E+02  0.45594000000E+02  0.51100000000E-03 0. -1.
         11   -1    0    0    0    0 -0.00000000000E+00 -0.00000000000E+00 -0.45593999997E+02  0.45594000000E+02  0.51100000000E-03 0.  1.
    9900012    2    1    2    0    0 -0.15432115548E+02 -0.36679907314E+02 -0.17322195313E+02  0.47787259899E+02  0.19999949182E+02 0.  0.
         12    1    1    2    0    0  0.15432115548E+02  0.36679907314E+02  0.17322195313E+02  0.43400740101E+02  0.00000000000E+00 0. -1.
         11    1    3    3    0    0 -0.77280212864E+01 -0.17930566612E+02  0.19460275999E+01  0.19621787781E+02  0.51100000000E-03 0. -1.
        -11    1    3    3    0    0 -0.69052316456E+00 -0.15728202511E+01 -0.53370814361E+00  0.17987302262E+01  0.51100000000E-03 0.  1.
        -12    1    3    3    0    0 -0.70135710973E+01 -0.17176520451E+02 -0.18734514769E+02  0.26366741892E+02  0.00000000000E+00 0.  1.
</event>
<event>
 7    1  0.3221417E-010  0.4778727E+02  0.7816164E-02  0.1312668E+00
        -11   -1    0    0    0    0  0.00000000000E+00  0.00000000000E+00  0.45593999997E+02  0.45594000000E+02  0.51100000000E-03 0. -1.
         11   -1    0    0    0    0 -0.00000000000E+00 -0.00000000000E+00 -0.45593999997E+02  0.45594000000E+02  0.51100000000E-03 0.  1.
    9900012    2    1    2    0    0  0.12389593535E+02 -0.16559387465E+02  0.38156367637E+02  0.47787265762E+02  0.19999975914E+02 0.  0.
        -12    1    1    2    0    0 -0.12389593535E+02  0.16559387465E+02 -0.38156367637E+02  0.43400734238E+02  0.00000000000E+00 0.  1.
         11    1    3    3    0    0  0.34099761268E+01 -0.28462878437E+01  0.19691637489E+02  0.20186378549E+02  0.51100000000E-03 0. -1.
        -11    1    3    3    0    0  0.46373410848E+00 -0.85490967010E+01  0.27433684616E+01  0.89904490713E+01  0.51100000000E-03 0.  1.
         12    1    3    3    0    0  0.85158832996E+01 -0.51640029207E+01  0.15721361687E+02  0.18610438142E+02  0.00000000000E+00 0. -1.
</event>
<event>
 7    1  0.3221417E-010  0.4778729E+02  0.7816164E-02  0.1312668E+00
        -11   -1    0    0    0    0  0.00000000000E+00  0.00000000000E+00  0.45593999997E+02  0.45594000000E+02  0.51100000000E-03 0. -1.
         11   -1    0    0    0    0 -0.00000000000E+00 -0.00000000000E+00 -0.45593999997E+02  0.45594000000E+02  0.51100000000E-03 0.  1.
    9900012    2    1    2    0    0  0.95854538039E+01  0.23304726335E+01  0.42264757681E+02  0.47787288380E+02  0.20000079040E+02 0.  0.
        -12    1    1    2    0    0 -0.95854538039E+01 -0.23304726335E+01 -0.42264757681E+02  0.43400711620E+02  0.00000000000E+00 0.  1.
         11    1    3    3    0    0  0.89164313551E+01  0.10509154243E+01  0.35537491371E+02  0.36654064775E+02  0.51100000000E-03 0. -1.
        -11    1    3    3    0    0  0.44193880762E+01  0.14021505234E+01  0.18796749896E+01  0.50030186274E+01  0.51100000000E-03 0.  1.
        -12    1    3    3    0    0 -0.37503656274E+01 -0.12259331410E+00  0.48475913202E+01  0.61302049776E+01  0.00000000000E+00 0.  1.
</event>
<event>
 7    1  0.3221417E-010  0.4778728E+02  0.7816164E-02  0.1312668E+00
        -11   -1    0    0    0    0  0.00000000000E+00  0.00000000000E+00  0.45593999997E+02  0.45594000000E+02  0.51100000000E-03 0.  1.
         11   -1    0    0    0    0 -0.00000000000E+00 -0.00000000000E+00 -0.45593999997E+02  0.45594000000E+02  0.51100000000E-03 0. -1.
    9900012    2    1    2    0    0  0.38286264057E+02 -0.19930363942E+02 -0.45348685191E+01  0.47787280481E+02  0.20000043023E+02 0.  0.
         12    1    1    2    0    0 -0.38286264057E+02  0.19930363942E+02  0.45348685191E+01  0.43400719519E+02  0.00000000000E+00 0. -1.
         11    1    3    3    0    0  0.11188473861E+02 -0.96938057857E+01 -0.84978077084E+01  0.17069404033E+02  0.51100000000E-03 0. -1.
        -11    1    3    3    0    0  0.12261594670E+02  0.17068773916E+00  0.53770226926E+00  0.12274565660E+02  0.51100000000E-03 0.  1.
        -12    1    3    3    0    0  0.14836195527E+02 -0.10407245895E+02  0.34252369200E+01  0.18443310787E+02  0.00000000000E+00 0.  1.
</event>
<event>
 7    1  0.3221417E-010  0.4778727E+02  0.7816164E-02  0.1312668E+00
        -11   -1    0    0    0    0  0.00000000000E+00  0.00000000000E+00  0.45593999997E+02  0.45594000000E+02  0.51100000000E-03 0. -1.
         11   -1    0    0    0    0 -0.00000000000E+00 -0.00000000000E+00 -0.45593999997E+02  0.45594000000E+02  0.51100000000E-03 0.  1.
    9900012    2    1    2    0    0 -0.18490499733E+02  0.28900383345E+02  0.26579925676E+02  0.47787272048E+02  0.20000004574E+02 0.  0.
        -12    1    1    2    0    0  0.18490499733E+02 -0.28900383345E+02 -0.26579925676E+02  0.43400727952E+02  0.00000000000E+00 0.  1.
         11    1    3    3    0    0  0.97607926075E+00  0.53527864323E+01  0.50365345756E+01  0.74142925559E+01  0.51100000000E-03 0. -1.
        -11    1    3    3    0    0 -0.22049182544E+02  0.20123948366E+02  0.18624681462E+02  0.35185487186E+02  0.51100000000E-03 0.  1.
        -12    1    3    3    0    0  0.25826035504E+01  0.34236485463E+01  0.29187096383E+01  0.51874923055E+01  0.00000000000E+00 0.  1.
</event>
<event>
 7    1  0.3221417E-010  0.4778729E+02  0.7816164E-02  0.1312668E+00
        -11   -1    0    0    0    0  0.00000000000E+00  0.00000000000E+00  0.45593999997E+02  0.45594000000E+02  0.51100000000E-03 0.  1.
         11   -1    0    0    0    0 -0.00000000000E+00 -0.00000000000E+00 -0.45593999997E+02  0.45594000000E+02  0.51100000000E-03 0. -1.
    9900012    2    1    2    0    0 -0.36148193901E+02  0.22293772542E+02 -0.89396342375E+01  0.47787294053E+02  0.20000104904E+02 0.  0.
        -12    1    1    2    0    0  0.36148193901E+02 -0.22293772542E+02  0.89396342375E+01  0.43400705947E+02  0.00000000000E+00 0.  1.
         11    1    3    3    0    0 -0.24214876157E+02  0.19660461407E+02 -0.12413652579E+02  0.33570712543E+02  0.51100000000E-03 0.  1.
        -11    1    3    3    0    0 -0.46481594618E+01 -0.18693525213E+01  0.98169478086E-01  0.50109383092E+01  0.51100000000E-03 0. -1.
        -12    1    3    3    0    0 -0.72851582818E+01  0.45026636560E+01  0.33758488633E+01  0.92056432007E+01  0.00000000000E+00 0.  1.
</event>
<event>
 7    1  0.3221417E-010  0.4778727E+02  0.7816164E-02  0.1312668E+00
        -11   -1    0    0    0    0  0.00000000000E+00  0.00000000000E+00  0.45593999997E+02  0.45594000000E+02  0.51100000000E-03 0. -1.
         11   -1    0    0    0    0 -0.00000000000E+00 -0.00000000000E+00 -0.45593999997E+02  0.45594000000E+02  0.51100000000E-03 0.  1.
    9900012    2    1    2    0    0  0.61932612861E+01  0.54100901504E+01 -0.42614524727E+02  0.47787270991E+02  0.19999999757E+02 0.  0.
         12    1    1    2    0    0 -0.61932612861E+01 -0.54100901504E+01  0.42614524727E+02  0.43400729009E+02  0.00000000000E+00 0. -1.
         11    1    3    3    0    0  0.57464074718E+01 -0.25318720452E+01 -0.44513307610E+01  0.76971371750E+01  0.51100000000E-03 0. -1.
        -11    1    3    3    0    0  0.12445025295E+01  0.29147074848E+01 -0.24232649935E+01  0.39895513228E+01  0.51100000000E-03 0.  1.
        -12    1    3    3    0    0 -0.79764871516E+00  0.50272547109E+01 -0.35739928972E+02  0.36100582493E+02  0.00000000000E+00 0.  1.
</event>
<event>
 7    1  0.3221417E-010  0.4778726E+02  0.7816164E-02  0.1312668E+00
        -11   -1    0    0    0    0  0.00000000000E+00  0.00000000000E+00  0.45593999997E+02  0.45594000000E+02  0.51100000000E-03 0. -1.
         11   -1    0    0    0    0 -0.00000000000E+00 -0.00000000000E+00 -0.45593999997E+02  0.45594000000E+02  0.51100000000E-03 0.  1.
    9900012    2    1    2    0    0 -0.61080206581E+01 -0.25032145703E+02  0.34924312020E+02  0.47787264927E+02  0.19999972106E+02 0.  0.
        -12    1    1    2    0    0  0.61080206581E+01  0.25032145703E+02 -0.34924312020E+02  0.43400735073E+02  0.00000000000E+00 0.  1.
         11    1    3    3    0    0 -0.14625772135E+01 -0.18324654749E+02  0.21995346941E+02  0.28665787816E+02  0.51100000000E-03 0. -1.
        -11    1    3    3    0    0 -0.66025591982E+01 -0.76384181403E+01  0.57424608132E+01  0.11615294921E+02  0.51100000000E-03 0.  1.
        -12    1    3    3    0    0  0.19571157537E+01  0.93092718696E+00  0.71865042660E+01  0.75061821898E+01  0.00000000000E+00 0.  1.
</event>
<event>
 7    1  0.3221417E-010  0.4778727E+02  0.7816164E-02  0.1312668E+00
        -11   -1    0    0    0    0  0.00000000000E+00  0.00000000000E+00  0.45593999997E+02  0.45594000000E+02  0.51100000000E-03 0. -1.
         11   -1    0    0    0    0 -0.00000000000E+00 -0.00000000000E+00 -0.45593999997E+02  0.45594000000E+02  0.51100000000E-03 0.  1.
    9900012    2    1    2    0    0  0.23758128490E+02  0.87393496054E+01  0.35253342760E+02  0.47787273317E+02  0.20000010362E+02 0.  0.
        -12    1    1    2    0    0 -0.23758128490E+02 -0.87393496054E+01 -0.35253342760E+02  0.43400726683E+02  0.00000000000E+00 0.  1.
         11    1    3    3    0    0  0.14800526796E+02 -0.10501768965E+01  0.14034722488E+02  0.20423807200E+02  0.51100000000E-03 0. -1.
        -11    1    3    3    0    0  0.30720866918E+00  0.27861054252E+01 -0.60319865617E+00  0.28671605269E+01  0.51100000000E-03 0.  1.
        -12    1    3    3    0    0  0.86503930245E+01  0.70034210768E+01  0.21821818927E+02  0.24496305590E+02  0.00000000000E+00 0.  1.
</event>
<event>
 7    1  0.3221417E-010  0.4778727E+02  0.7816164E-02  0.1312668E+00
        -11   -1    0    0    0    0  0.00000000000E+00  0.00000000000E+00  0.45593999997E+02  0.45594000000E+02  0.51100000000E-03 0. -1.
         11   -1    0    0    0    0 -0.00000000000E+00 -0.00000000000E+00 -0.45593999997E+02  0.45594000000E+02  0.51100000000E-03 0.  1.
    9900012    2    1    2    0    0 -0.16260142356E+02  0.33277374621E+02 -0.22624041409E+02  0.47787272578E+02  0.20000006992E+02 0.  0.
         12    1    1    2    0    0  0.16260142356E+02 -0.33277374621E+02  0.22624041409E+02  0.43400727422E+02  0.00000000000E+00 0. -1.
         11    1    3    3    0    0 -0.52719964369E+01  0.35577237120E+01 -0.85352527660E+01  0.10644335793E+02  0.51100000000E-03 0. -1.
        -11    1    3    3    0    0 -0.59760619136E+01  0.28618192816E+02 -0.11975901717E+02  0.31593298312E+02  0.51100000000E-03 0.  1.
        -12    1    3    3    0    0 -0.50120840057E+01  0.11014580924E+01 -0.21128869260E+01  0.55496384721E+01  0.00000000000E+00 0.  1.
</event>
<event>
 7    1  0.3221417E-010  0.4778726E+02  0.7816164E-02  0.1312668E+00
        -11   -1    0    0    0    0  0.00000000000E+00  0.00000000000E+00  0.45593999997E+02  0.45594000000E+02  0.51100000000E-03 0. -1.
         11   -1    0    0    0    0 -0.00000000000E+00 -0.00000000000E+00 -0.45593999997E+02  0.45594000000E+02  0.51100000000E-03 0.  1.
    9900012    2    1    2    0    0 -0.25464478525E+02 -0.96879090399E+01 -0.33783555710E+02  0.47787264010E+02  0.19999967927E+02 0.  0.
         12    1    1    2    0    0  0.25464478525E+02  0.96879090399E+01  0.33783555710E+02  0.43400735990E+02  0.00000000000E+00 0. -1.
         11    1    3    3    0    0 -0.21086619833E+01  0.12634747787E+01 -0.76265073074E+01  0.80128919777E+01  0.51100000000E-03 0. -1.
        -11    1    3    3    0    0 -0.15767374120E+02 -0.14637137445E+02 -0.19315285445E+02  0.28912560096E+02  0.51100000000E-03 0.  1.
        -12    1    3    3    0    0 -0.75884424208E+01  0.36857536266E+01 -0.68417629572E+01  0.10861811936E+02  0.00000000000E+00 0.  1.
</event>
<event>
 7    1  0.3221417E-010  0.4778727E+02  0.7816164E-02  0.1312668E+00
        -11   -1    0    0    0    0  0.00000000000E+00  0.00000000000E+00  0.45593999997E+02  0.45594000000E+02  0.51100000000E-03 0. -1.
         11   -1    0    0    0    0 -0.00000000000E+00 -0.00000000000E+00 -0.45593999997E+02  0.45594000000E+02  0.51100000000E-03 0.  1.
    9900012    2    1    2    0    0 -0.10028839097E+02  0.85575425431E+01 -0.41349895524E+02  0.47787274109E+02  0.20000013972E+02 0.  0.
         12    1    1    2    0    0  0.10028839097E+02 -0.85575425431E+01  0.41349895524E+02  0.43400725891E+02  0.00000000000E+00 0. -1.
         11    1    3    3    0    0  0.28954547061E+00 -0.31539072237E+01 -0.36402210608E+01  0.48251608251E+01  0.51100000000E-03 0. -1.
        -11    1    3    3    0    0 -0.11525491544E+02  0.31678377406E+01 -0.21527492931E+02  0.24623263460E+02  0.51100000000E-03 0.  1.
        -12    1    3    3    0    0  0.12071069757E+01  0.85436120262E+01 -0.16182181533E+02  0.18338849824E+02  0.00000000000E+00 0.  1.
</event>
<event>
 7    1  0.3221417E-010  0.4778727E+02  0.7816164E-02  0.1312668E+00
        -11   -1    0    0    0    0  0.00000000000E+00  0.00000000000E+00  0.45593999997E+02  0.45594000000E+02  0.51100000000E-03 0. -1.
         11   -1    0    0    0    0 -0.00000000000E+00 -0.00000000000E+00 -0.45593999997E+02  0.45594000000E+02  0.51100000000E-03 0.  1.
    9900012    2    1    2    0    0 -0.12835408495E+02  0.29351882489E-01  0.41459313900E+02  0.47787270953E+02  0.19999999581E+02 0.  0.
        -12    1    1    2    0    0  0.12835408495E+02 -0.29351882489E-01 -0.41459313900E+02  0.43400729047E+02  0.00000000000E+00 0.  1.
         11    1    3    3    0    0 -0.93021776582E+01 -0.42438209941E+01  0.20800313342E+02  0.23177436467E+02  0.51100000000E-03 0. -1.
        -11    1    3    3    0    0 -0.51977625018E+01  0.35869698711E+01  0.32398150819E+01  0.70978510767E+01  0.51100000000E-03 0.  1.
         12    1    3    3    0    0  0.16645316653E+01  0.68620300548E+00  0.17419185477E+02  0.17511983409E+02  0.00000000000E+00 0. -1.
</event>
<event>
 7    1  0.3221417E-010  0.4778727E+02  0.7816164E-02  0.1312668E+00
        -11   -1    0    0    0    0  0.00000000000E+00  0.00000000000E+00  0.45593999997E+02  0.45594000000E+02  0.51100000000E-03 0. -1.
         11   -1    0    0    0    0 -0.00000000000E+00 -0.00000000000E+00 -0.45593999997E+02  0.45594000000E+02  0.51100000000E-03 0.  1.
    9900012    2    1    2    0    0 -0.19242897589E+02 -0.21701862867E+02 -0.32285655036E+02  0.47787268663E+02  0.19999989141E+02 0.  0.
         12    1    1    2    0    0  0.19242897589E+02  0.21701862867E+02  0.32285655036E+02  0.43400731337E+02  0.00000000000E+00 0. -1.
         11    1    3    3    0    0 -0.13771535792E+02 -0.36862258819E+01 -0.21017378124E+02  0.25396331286E+02  0.51100000000E-03 0. -1.
        -11    1    3    3    0    0  0.43275695808E+00 -0.53041845571E+01 -0.27608045078E+01  0.59953060132E+01  0.51100000000E-03 0.  1.
        -12    1    3    3    0    0 -0.59041187554E+01 -0.12711452428E+02 -0.85074724039E+01  0.16395631364E+02  0.00000000000E+00 0.  1.
</event>
<event>
 7    1  0.3221417E-010  0.4778725E+02  0.7816164E-02  0.1312668E+00
        -11   -1    0    0    0    0  0.00000000000E+00  0.00000000000E+00  0.45593999997E+02  0.45594000000E+02  0.51100000000E-03 0.  1.
         11   -1    0    0    0    0 -0.00000000000E+00 -0.00000000000E+00 -0.45593999997E+02  0.45594000000E+02  0.51100000000E-03 0. -1.
    9900012    2    1    2    0    0  0.42596348589E+02 -0.39092109550E+01 -0.73412610270E+01  0.47787251655E+02  0.19999911596E+02 0.  0.
         12    1    1    2    0    0 -0.42596348589E+02  0.39092109550E+01  0.73412610270E+01  0.43400748345E+02  0.00000000000E+00 0. -1.
         11    1    3    3    0    0  0.57688386965E+01  0.31914731889E+01 -0.79258118473E+00  0.66402700410E+01  0.51100000000E-03 0. -1.
        -11    1    3    3    0    0  0.21074257499E+02 -0.22297689906E+01  0.40086665442E+01  0.21567698223E+02  0.51100000000E-03 0.  1.
         12    1    3    3    0    0  0.15753252394E+02 -0.48709151534E+01 -0.10557346386E+02  0.19579283392E+02  0.00000000000E+00 0. -1.
</event>
<event>
 7    1  0.3221417E-010  0.4778727E+02  0.7816164E-02  0.1312668E+00
        -11   -1    0    0    0    0  0.00000000000E+00  0.00000000000E+00  0.45593999997E+02  0.45594000000E+02  0.51100000000E-03 0. -1.
         11   -1    0    0    0    0 -0.00000000000E+00 -0.00000000000E+00 -0.45593999997E+02  0.45594000000E+02  0.51100000000E-03 0.  1.
    9900012    2    1    2    0    0  0.33339890786E+02 -0.14156981358E+02 -0.23909300568E+02  0.47787273135E+02  0.20000009531E+02 0.  0.
         12    1    1    2    0    0 -0.33339890786E+02  0.14156981358E+02  0.23909300568E+02  0.43400726865E+02  0.00000000000E+00 0. -1.
         11    1    3    3    0    0  0.49609190096E+01  0.22950393093E+01 -0.32526972550E+01  0.63606573988E+01  0.51100000000E-03 0. -1.
        -11    1    3    3    0    0  0.21900404457E+02 -0.14807068546E+02 -0.88845245547E+01  0.27889276992E+02  0.51100000000E-03 0.  1.
        -12    1    3    3    0    0  0.64785673195E+01 -0.16449521212E+01 -0.11772078758E+02  0.13537338744E+02  0.00000000000E+00 0.  1.
</event>
<event>
 7    1  0.3221417E-010  0.4778727E+02  0.7816164E-02  0.1312668E+00
        -11   -1    0    0    0    0  0.00000000000E+00  0.00000000000E+00  0.45593999997E+02  0.45594000000E+02  0.51100000000E-03 0. -1.
         11   -1    0    0    0    0 -0.00000000000E+00 -0.00000000000E+00 -0.45593999997E+02  0.45594000000E+02  0.51100000000E-03 0.  1.
    9900012    2    1    2    0    0  0.10091006219E+02  0.22361184001E+02 -0.35801849704E+02  0.47787269606E+02  0.19999993444E+02 0.  0.
         12    1    1    2    0    0 -0.10091006219E+02 -0.22361184001E+02  0.35801849704E+02  0.43400730394E+02  0.00000000000E+00 0. -1.
         11    1    3    3    0    0  0.11218734560E+02  0.14159505695E+02 -0.13015807840E+02  0.22265732880E+02  0.51100000000E-03 0. -1.
        -11    1    3    3    0    0  0.28406646341E+01  0.17965451103E+01 -0.11261757170E+02  0.11752622036E+02  0.51100000000E-03 0.  1.
         12    1    3    3    0    0 -0.39683929758E+01  0.64051331958E+01 -0.11524284694E+02  0.13768914691E+02  0.00000000000E+00 0. -1.
</event>
<event>
 7    1  0.3221417E-010  0.4778727E+02  0.7816164E-02  0.1312668E+00
        -11   -1    0    0    0    0  0.00000000000E+00  0.00000000000E+00  0.45593999997E+02  0.45594000000E+02  0.51100000000E-03 0. -1.
         11   -1    0    0    0    0 -0.00000000000E+00 -0.00000000000E+00 -0.45593999997E+02  0.45594000000E+02  0.51100000000E-03 0.  1.
    9900012    2    1    2    0    0  0.42646961421E+02  0.63849875624E+01 -0.49083496402E+01  0.47787270965E+02  0.19999999636E+02 0.  0.
         12    1    1    2    0    0 -0.42646961421E+02 -0.63849875624E+01  0.49083496402E+01  0.43400729035E+02  0.00000000000E+00 0. -1.
         11    1    3    3    0    0  0.14090680577E+02  0.49016618415E+01  0.11173261489E+01  0.14960681332E+02  0.51100000000E-03 0. -1.
        -11    1    3    3    0    0  0.25452322778E+02 -0.39670703679E+01 -0.64013115181E+01  0.26543081424E+02  0.51100000000E-03 0.  1.
         12    1    3    3    0    0  0.31039580663E+01  0.54503960888E+01  0.37563572896E+00  0.62835082083E+01  0.00000000000E+00 0. -1.
</event>
<event>
 7    1  0.3221417E-010  0.4778724E+02  0.7816164E-02  0.1312668E+00
        -11   -1    0    0    0    0  0.00000000000E+00  0.00000000000E+00  0.45593999997E+02  0.45594000000E+02  0.51100000000E-03 0. -1.
         11   -1    0    0    0    0 -0.00000000000E+00 -0.00000000000E+00 -0.45593999997E+02  0.45594000000E+02  0.51100000000E-03 0.  1.
    9900012    2    1    2    0    0  0.19777833837E+02 -0.26200999293E+02  0.28389633793E+02  0.47787235235E+02  0.19999836732E+02 0.  0.
        -12    1    1    2    0    0 -0.19777833837E+02  0.26200999293E+02 -0.28389633793E+02  0.43400764765E+02  0.00000000000E+00 0.  1.
         11    1    3    3    0    0  0.20169156357E+01 -0.11870789533E+01 -0.57968075213E+00  0.24110444124E+01  0.51100000000E-03 0. -1.
        -11    1    3    3    0    0 -0.11722661216E+01  0.17229418594E+01  0.25230584059E+01  0.32723936944E+01  0.51100000000E-03 0.  1.
         12    1    3    3    0    0  0.18933184323E+02 -0.26736862199E+02  0.26446256139E+02  0.42103797129E+02  0.00000000000E+00 0. -1.
</event>
<event>
 7    1  0.3221417E-010  0.4778727E+02  0.7816164E-02  0.1312668E+00
        -11   -1    0    0    0    0  0.00000000000E+00  0.00000000000E+00  0.45593999997E+02  0.45594000000E+02  0.51100000000E-03 0. -1.
         11   -1    0    0    0    0 -0.00000000000E+00 -0.00000000000E+00 -0.45593999997E+02  0.45594000000E+02  0.51100000000E-03 0.  1.
    9900012    2    1    2    0    0 -0.48140519827E+00 -0.11615495573E+01 -0.43382512252E+02  0.47787270540E+02  0.19999997699E+02 0.  0.
         12    1    1    2    0    0  0.48140519827E+00  0.11615495573E+01  0.43382512252E+02  0.43400729460E+02  0.00000000000E+00 0. -1.
         11    1    3    3    0    0  0.36474275505E+01  0.27389185909E+01 -0.12030842359E+02  0.12866490233E+02  0.51100000000E-03 0. -1.
        -11    1    3    3    0    0 -0.25869827971E+01 -0.66714331442E+01 -0.30900069455E+02  0.31717736249E+02  0.51100000000E-03 0.  1.
        -12    1    3    3    0    0 -0.15418499516E+01  0.27709649960E+01 -0.45160043890E+00  0.32030440582E+01  0.00000000000E+00 0.  1.
</event>
<event>
 7    1  0.3221417E-010  0.4778727E+02  0.7816164E-02  0.1312668E+00
        -11   -1    0    0    0    0  0.00000000000E+00  0.00000000000E+00  0.45593999997E+02  0.45594000000E+02  0.51100000000E-03 0. -1.
         11   -1    0    0    0    0 -0.00000000000E+00 -0.00000000000E+00 -0.45593999997E+02  0.45594000000E+02  0.51100000000E-03 0.  1.
    9900012    2    1    2    0    0 -0.14284051734E+02 -0.24358429196E+02  0.32958398937E+02  0.47787271120E+02  0.20000000343E+02 0.  0.
        -12    1    1    2    0    0  0.14284051734E+02  0.24358429196E+02 -0.32958398937E+02  0.43400728880E+02  0.00000000000E+00 0.  1.
         11    1    3    3    0    0 -0.13640027588E+01 -0.86177966911E+01  0.18307559209E+02  0.20280375928E+02  0.51100000000E-03 0. -1.
        -11    1    3    3    0    0 -0.21283241852E+01 -0.10076766891E+02  0.32025084201E+01  0.10785502086E+02  0.51100000000E-03 0.  1.
         12    1    3    3    0    0 -0.10791724790E+02 -0.56638656138E+01  0.11448331309E+02  0.16721393105E+02  0.00000000000E+00 0. -1.
</event>
<event>
 7    1  0.3221417E-010  0.4778727E+02  0.7816164E-02  0.1312668E+00
        -11   -1    0    0    0    0  0.00000000000E+00  0.00000000000E+00  0.45593999997E+02  0.45594000000E+02  0.51100000000E-03 0. -1.
         11   -1    0    0    0    0 -0.00000000000E+00 -0.00000000000E+00 -0.45593999997E+02  0.45594000000E+02  0.51100000000E-03 0.  1.
    9900012    2    1    2    0    0  0.35531102501E+02 -0.33285742626E+00 -0.24920945835E+02  0.47787267514E+02  0.19999983903E+02 0.  0.
         12    1    1    2    0    0 -0.35531102501E+02  0.33285742626E+00  0.24920945835E+02  0.43400732486E+02  0.00000000000E+00 0. -1.
         11    1    3    3    0    0 -0.31563444199E+00  0.11836680196E+01 -0.35837700100E+01  0.37873609317E+01  0.51100000000E-03 0. -1.
        -11    1    3    3    0    0  0.46496943995E+01 -0.45052819955E+01 -0.70038033102E+01  0.95378448790E+01  0.51100000000E-03 0.  1.
         12    1    3    3    0    0  0.31197042544E+02  0.29887565496E+01 -0.14333372515E+02  0.34462061703E+02  0.00000000000E+00 0. -1.
</event>
<event>
 7    1  0.3221417E-010  0.4778727E+02  0.7816164E-02  0.1312668E+00
        -11   -1    0    0    0    0  0.00000000000E+00  0.00000000000E+00  0.45593999997E+02  0.45594000000E+02  0.51100000000E-03 0. -1.
         11   -1    0    0    0    0 -0.00000000000E+00 -0.00000000000E+00 -0.45593999997E+02  0.45594000000E+02  0.51100000000E-03 0.  1.
    9900012    2    1    2    0    0 -0.19493546471E+02 -0.23673245031E+01 -0.38704269405E+02  0.47787273629E+02  0.20000011785E+02 0.  0.
         12    1    1    2    0    0  0.19493546471E+02  0.23673245031E+01  0.38704269405E+02  0.43400726371E+02  0.00000000000E+00 0. -1.
         11    1    3    3    0    0 -0.30018642321E+01 -0.69478743060E+01 -0.99205651255E+01  0.12478051086E+02  0.51100000000E-03 0. -1.
        -11    1    3    3    0    0 -0.11074332338E+02  0.32670741738E+01 -0.27145732440E+02  0.29499244064E+02  0.51100000000E-03 0.  1.
         12    1    3    3    0    0 -0.54173499012E+01  0.13134756292E+01 -0.16379718401E+01  0.58099784792E+01  0.00000000000E+00 0. -1.
</event>
<event>
 7    1  0.3221417E-010  0.4778727E+02  0.7816164E-02  0.1312668E+00
        -11   -1    0    0    0    0  0.00000000000E+00  0.00000000000E+00  0.45593999997E+02  0.45594000000E+02  0.51100000000E-03 0. -1.
         11   -1    0    0    0    0 -0.00000000000E+00 -0.00000000000E+00 -0.45593999997E+02  0.45594000000E+02  0.51100000000E-03 0.  1.
    9900012    2    1    2    0    0  0.18240391112E+02 -0.23808808577E+02  0.31369600269E+02  0.47787273568E+02  0.20000011505E+02 0.  0.
        -12    1    1    2    0    0 -0.18240391112E+02  0.23808808577E+02 -0.31369600269E+02  0.43400726432E+02  0.00000000000E+00 0.  1.
         11    1    3    3    0    0  0.13110392618E+02 -0.18582076066E+02  0.24346717791E+02  0.33315741219E+02  0.51100000000E-03 0. -1.
        -11    1    3    3    0    0  0.35261376751E+01 -0.67484103969E+01  0.55280597219E+00  0.76341525065E+01  0.51100000000E-03 0.  1.
        -12    1    3    3    0    0  0.16038608195E+01  0.15216778858E+01  0.64700765054E+01  0.68373798419E+01  0.00000000000E+00 0.  1.
</event>
<event>
 7    1  0.3221417E-010  0.4778726E+02  0.7816164E-02  0.1312668E+00
        -11   -1    0    0    0    0  0.00000000000E+00  0.00000000000E+00  0.45593999997E+02  0.45594000000E+02  0.51100000000E-03 0. -1.
         11   -1    0    0    0    0 -0.00000000000E+00 -0.00000000000E+00 -0.45593999997E+02  0.45594000000E+02  0.51100000000E-03 0.  1.
    9900012    2    1    2    0    0  0.13818061159E+02 -0.16133532639E+02  0.37846989222E+02  0.47787259421E+02  0.19999947004E+02 0.  0.
        -12    1    1    2    0    0 -0.13818061159E+02  0.16133532639E+02 -0.37846989222E+02  0.43400740579E+02  0.00000000000E+00 0.  1.
         11    1    3    3    0    0  0.63674812456E+01 -0.22551538133E+01  0.59593748529E+01  0.90080344711E+01  0.51100000000E-03 0. -1.
        -11    1    3    3    0    0  0.35158604917E+01 -0.36843276859E+01  0.22614775047E-01  0.50927455447E+01  0.51100000000E-03 0.  1.
         12    1    3    3    0    0  0.39347194221E+01 -0.10194051140E+02  0.31864999594E+02  0.33686479405E+02  0.00000000000E+00 0. -1.
</event>
<event>
 7    1  0.3221417E-010  0.4778727E+02  0.7816164E-02  0.1312668E+00
        -11   -1    0    0    0    0  0.00000000000E+00  0.00000000000E+00  0.45593999997E+02  0.45594000000E+02  0.51100000000E-03 0. -1.
         11   -1    0    0    0    0 -0.00000000000E+00 -0.00000000000E+00 -0.45593999997E+02  0.45594000000E+02  0.51100000000E-03 0.  1.
    9900012    2    1    2    0    0  0.57753616504E+01  0.35078480392E+02 -0.24895155388E+02  0.47787270161E+02  0.19999995971E+02 0.  0.
         12    1    1    2    0    0 -0.57753616504E+01 -0.35078480392E+02  0.24895155388E+02  0.43400729839E+02  0.00000000000E+00 0. -1.
         11    1    3    3    0    0 -0.50340621845E+01  0.12808419868E+02 -0.11058010734E+02  0.17654376320E+02  0.51100000000E-03 0. -1.
        -11    1    3    3    0    0  0.66165100621E+01  0.34273441924E+01 -0.42758785208E+01  0.85911600497E+01  0.51100000000E-03 0.  1.
        -12    1    3    3    0    0  0.41929137729E+01  0.18842716331E+02 -0.95612661330E+01  0.21541733791E+02  0.00000000000E+00 0.  1.
</event>
<event>
 7    1  0.3221417E-010  0.4778727E+02  0.7816164E-02  0.1312668E+00
        -11   -1    0    0    0    0  0.00000000000E+00  0.00000000000E+00  0.45593999997E+02  0.45594000000E+02  0.51100000000E-03 0. -1.
         11   -1    0    0    0    0 -0.00000000000E+00 -0.00000000000E+00 -0.45593999997E+02  0.45594000000E+02  0.51100000000E-03 0.  1.
    9900012    2    1    2    0    0  0.27676005827E+02  0.45976776703E+01  0.33113795494E+02  0.47787269701E+02  0.19999993874E+02 0.  0.
        -12    1    1    2    0    0 -0.27676005827E+02 -0.45976776703E+01 -0.33113795494E+02  0.43400730299E+02  0.00000000000E+00 0.  1.
         11    1    3    3    0    0  0.30016821657E+01 -0.17799495592E+00  0.87089867958E+01  0.92134808460E+01  0.51100000000E-03 0. -1.
        -11    1    3    3    0    0  0.19595807484E+02 -0.28967534929E+00  0.89689219884E+01  0.21552752600E+02  0.51100000000E-03 0.  1.
        -12    1    3    3    0    0  0.50785161776E+01  0.50653479755E+01  0.15435886710E+02  0.17021036255E+02  0.00000000000E+00 0.  1.
</event>
<event>
 7    1  0.3221417E-010  0.4778727E+02  0.7816164E-02  0.1312668E+00
        -11   -1    0    0    0    0  0.00000000000E+00  0.00000000000E+00  0.45593999997E+02  0.45594000000E+02  0.51100000000E-03 0. -1.
         11   -1    0    0    0    0 -0.00000000000E+00 -0.00000000000E+00 -0.45593999997E+02  0.45594000000E+02  0.51100000000E-03 0.  1.
    9900012    2    1    2    0    0 -0.43109314270E+02  0.45984849498E+01  0.20159695355E+01  0.47787272197E+02  0.20000005256E+02 0.  0.
        -12    1    1    2    0    0  0.43109314270E+02 -0.45984849498E+01 -0.20159695355E+01  0.43400727803E+02  0.00000000000E+00 0.  1.
         11    1    3    3    0    0 -0.11972774258E+02 -0.44443863116E+01  0.46695242498E+00  0.12779590680E+02  0.51100000000E-03 0. -1.
        -11    1    3    3    0    0 -0.60379001716E+00  0.35350293144E+01 -0.13835187602E+01  0.38438417059E+01  0.51100000000E-03 0.  1.
         12    1    3    3    0    0 -0.30532749995E+02  0.55078419470E+01  0.29325358707E+01  0.31163839811E+02  0.00000000000E+00 0. -1.
</event>
<event>
 7    1  0.3221417E-010  0.4778726E+02  0.7816164E-02  0.1312668E+00
        -11   -1    0    0    0    0  0.00000000000E+00  0.00000000000E+00  0.45593999997E+02  0.45594000000E+02  0.51100000000E-03 0. -1.
         11   -1    0    0    0    0 -0.00000000000E+00 -0.00000000000E+00 -0.45593999997E+02  0.45594000000E+02  0.51100000000E-03 0.  1.
    9900012    2    1    2    0    0 -0.10188469764E+02  0.10852195333E+01 -0.42173941494E+02  0.47787263155E+02  0.19999964029E+02 0.  0.
         12    1    1    2    0    0  0.10188469764E+02 -0.10852195333E+01  0.42173941494E+02  0.43400736845E+02  0.00000000000E+00 0. -1.
         11    1    3    3    0    0  0.12869133796E+01 -0.41330088825E+01 -0.17087348259E+02  0.17627120560E+02  0.51100000000E-03 0. -1.
        -11    1    3    3    0    0 -0.36236273439E+01  0.86049966203E+00 -0.23035610278E+00  0.37315143027E+01  0.51100000000E-03 0.  1.
        -12    1    3    3    0    0 -0.78517557994E+01  0.43577287538E+01 -0.24856237132E+02  0.26428628292E+02  0.00000000000E+00 0.  1.
</event>
<event>
 7    1  0.3221417E-010  0.4778727E+02  0.7816164E-02  0.1312668E+00
        -11   -1    0    0    0    0  0.00000000000E+00  0.00000000000E+00  0.45593999997E+02  0.45594000000E+02  0.51100000000E-03 0. -1.
         11   -1    0    0    0    0 -0.00000000000E+00 -0.00000000000E+00 -0.45593999997E+02  0.45594000000E+02  0.51100000000E-03 0.  1.
    9900012    2    1    2    0    0 -0.22689759855E+02 -0.29120377950E+02 -0.22821076485E+02  0.47787272516E+02  0.20000006711E+02 0.  0.
         12    1    1    2    0    0  0.22689759855E+02  0.29120377950E+02  0.22821076485E+02  0.43400727484E+02  0.00000000000E+00 0. -1.
         11    1    3    3    0    0 -0.55014839040E+01 -0.17588679006E+01 -0.42974795267E+00  0.57917721815E+01  0.51100000000E-03 0. -1.
        -11    1    3    3    0    0 -0.18433788142E+02 -0.22243414057E+02 -0.22668058765E+02  0.36720769363E+02  0.51100000000E-03 0.  1.
        -12    1    3    3    0    0  0.12455121914E+01 -0.51180959919E+01  0.27673023320E+00  0.52747309716E+01  0.00000000000E+00 0.  1.
</event>
<event>
 7    1  0.3221417E-010  0.4778726E+02  0.7816164E-02  0.1312668E+00
        -11   -1    0    0    0    0  0.00000000000E+00  0.00000000000E+00  0.45593999997E+02  0.45594000000E+02  0.51100000000E-03 0. -1.
         11   -1    0    0    0    0 -0.00000000000E+00 -0.00000000000E+00 -0.45593999997E+02  0.45594000000E+02  0.51100000000E-03 0.  1.
    9900012    2    1    2    0    0 -0.23767380398E+02  0.22617771799E+02  0.28410779395E+02  0.47787258555E+02  0.19999943057E+02 0.  0.
        -12    1    1    2    0    0  0.23767380398E+02 -0.22617771799E+02 -0.28410779395E+02  0.43400741445E+02  0.00000000000E+00 0.  1.
         11    1    3    3    0    0 -0.42563391262E+01  0.47284898144E+01  0.10734580006E+02  0.12478230918E+02  0.51100000000E-03 0. -1.
        -11    1    3    3    0    0 -0.20565651012E+02  0.14645443541E+02  0.10462321428E+02  0.27329383235E+02  0.51100000000E-03 0.  1.
        -12    1    3    3    0    0  0.10546097408E+01  0.32438384440E+01  0.72138779611E+01  0.79796444027E+01  0.00000000000E+00 0.  1.
</event>
<event>
 7    1  0.3221417E-010  0.4778727E+02  0.7816164E-02  0.1312668E+00
        -11   -1    0    0    0    0  0.00000000000E+00  0.00000000000E+00  0.45593999997E+02  0.45594000000E+02  0.51100000000E-03 0. -1.
         11   -1    0    0    0    0 -0.00000000000E+00 -0.00000000000E+00 -0.45593999997E+02  0.45594000000E+02  0.51100000000E-03 0.  1.
    9900012    2    1    2    0    0 -0.78665480097E+01 -0.37114414714E+02  0.21077509655E+02  0.47787265324E+02  0.19999973919E+02 0.  0.
        -12    1    1    2    0    0  0.78665480097E+01  0.37114414714E+02 -0.21077509655E+02  0.43400734676E+02  0.00000000000E+00 0.  1.
         11    1    3    3    0    0 -0.10351160752E+02 -0.21901913202E+02  0.17627618437E+02  0.29959527079E+02  0.51100000000E-03 0. -1.
        -11    1    3    3    0    0 -0.15408428973E+01 -0.33115739175E+01 -0.19646167434E+01  0.41473410584E+01  0.51100000000E-03 0.  1.
        -12    1    3    3    0    0  0.40254556393E+01 -0.11900927594E+02  0.54145079617E+01  0.13680397186E+02  0.00000000000E+00 0.  1.
</event>
<event>
 7    1  0.3221417E-010  0.4778724E+02  0.7816164E-02  0.1312668E+00
        -11   -1    0    0    0    0  0.00000000000E+00  0.00000000000E+00  0.45593999997E+02  0.45594000000E+02  0.51100000000E-03 0. -1.
         11   -1    0    0    0    0 -0.00000000000E+00 -0.00000000000E+00 -0.45593999997E+02  0.45594000000E+02  0.51100000000E-03 0.  1.
    9900012    2    1    2    0    0 -0.14714485138E+02  0.11162355801E+02  0.39274820482E+02  0.47787242129E+02  0.19999868162E+02 0.  0.
        -12    1    1    2    0    0  0.14714485138E+02 -0.11162355801E+02 -0.39274820482E+02  0.43400757871E+02  0.00000000000E+00 0.  1.
         11    1    3    3    0    0 -0.59074368502E+01  0.10222679952E+01  0.54886833227E+01  0.81282523873E+01  0.51100000000E-03 0. -1.
        -11    1    3    3    0    0 -0.10968493117E+02  0.54353109329E+01  0.11557256905E+02  0.16835101235E+02  0.51100000000E-03 0.  1.
        -12    1    3    3    0    0  0.21614448286E+01  0.47047768726E+01  0.22228880255E+02  0.22823888506E+02  0.00000000000E+00 0.  1.
</event>
<event>
 7    1  0.3221417E-010  0.4778727E+02  0.7816164E-02  0.1312668E+00
        -11   -1    0    0    0    0  0.00000000000E+00  0.00000000000E+00  0.45593999997E+02  0.45594000000E+02  0.51100000000E-03 0. -1.
         11   -1    0    0    0    0 -0.00000000000E+00 -0.00000000000E+00 -0.45593999997E+02  0.45594000000E+02  0.51100000000E-03 0.  1.
    9900012    2    1    2    0    0 -0.23576817707E+02  0.45930099606E+01 -0.36147770656E+02  0.47787269625E+02  0.19999993527E+02 0.  0.
         12    1    1    2    0    0  0.23576817707E+02 -0.45930099606E+01  0.36147770656E+02  0.43400730375E+02  0.00000000000E+00 0. -1.
         11    1    3    3    0    0 -0.59188873238E+00 -0.29067620009E+01  0.24965558435E+00  0.29768986838E+01  0.51100000000E-03 0. -1.
        -11    1    3    3    0    0 -0.15950252169E+02  0.35866607943E+01 -0.15970638746E+02  0.22854670904E+02  0.51100000000E-03 0.  1.
        -12    1    3    3    0    0 -0.70346768057E+01  0.39131111672E+01 -0.20426787495E+02  0.21955700037E+02  0.00000000000E+00 0.  1.
</event>
<event>
 7    1 -0.3908154E-010  0.4778727E+02  0.7816164E-02  0.1312668E+00
        -11   -1    0    0    0    0  0.00000000000E+00  0.00000000000E+00  0.45593999997E+02  0.45594000000E+02  0.51100000000E-03 0. -1.
         11   -1    0    0    0    0 -0.00000000000E+00 -0.00000000000E+00 -0.45593999997E+02  0.45594000000E+02  0.51100000000E-03 0.  1.
    9900012    2    1    2    0    0  0.31889667219E+02 -0.27315322552E+02  0.10979320360E+02  0.47787271930E+02  0.20000004036E+02 0.  0.
        -12    1    1    2    0    0 -0.31889667219E+02  0.27315322552E+02 -0.10979320360E+02  0.43400728070E+02  0.00000000000E+00 0.  1.
         11    1    3    3    0    0  0.23037090880E+02 -0.84942353660E+01  0.78138563001E+01  0.25766566345E+02  0.51100000000E-03 0. -1.
        -11    1    3    3    0    0  0.49488387588E+01 -0.74514770013E+01  0.43399204886E+01  0.99423550867E+01  0.51100000000E-03 0.  1.
        -12    1    3    3    0    0  0.39037375805E+01 -0.11369610185E+02 -0.11744564290E+01  0.12078350498E+02  0.00000000000E+00 0.  1.
</event>
<event>
 7    1  0.3221417E-010  0.4778728E+02  0.7816164E-02  0.1312668E+00
        -11   -1    0    0    0    0  0.00000000000E+00  0.00000000000E+00  0.45593999997E+02  0.45594000000E+02  0.51100000000E-03 0. -1.
         11   -1    0    0    0    0 -0.00000000000E+00 -0.00000000000E+00 -0.45593999997E+02  0.45594000000E+02  0.51100000000E-03 0.  1.
    9900012    2    1    2    0    0 -0.42489766990E+01 -0.16710849818E+02 -0.39828587630E+02  0.47787277687E+02  0.20000030288E+02 0.  0.
         12    1    1    2    0    0  0.42489766990E+01  0.16710849818E+02  0.39828587630E+02  0.43400722313E+02  0.00000000000E+00 0. -1.
         11    1    3    3    0    0  0.15040186809E+01 -0.31160519931E+01 -0.28046054245E+02  0.28258680280E+02  0.51100000000E-03 0. -1.
        -11    1    3    3    0    0 -0.31222783160E+01 -0.40523781082E+01 -0.16785948943E+01  0.53840571407E+01  0.51100000000E-03 0.  1.
        -12    1    3    3    0    0 -0.26307170639E+01 -0.95424197168E+01 -0.10103938491E+02  0.14144540267E+02  0.00000000000E+00 0.  1.
</event>
<event>
 7    1  0.3221417E-010  0.4778727E+02  0.7816164E-02  0.1312668E+00
        -11   -1    0    0    0    0  0.00000000000E+00  0.00000000000E+00  0.45593999997E+02  0.45594000000E+02  0.51100000000E-03 0. -1.
         11   -1    0    0    0    0 -0.00000000000E+00 -0.00000000000E+00 -0.45593999997E+02  0.45594000000E+02  0.51100000000E-03 0.  1.
    9900012    2    1    2    0    0 -0.31675205705E+02 -0.15471834184E+02  0.25316538442E+02  0.47787269267E+02  0.19999991895E+02 0.  0.
        -12    1    1    2    0    0  0.31675205705E+02  0.15471834184E+02 -0.25316538442E+02  0.43400730733E+02  0.00000000000E+00 0.  1.
         11    1    3    3    0    0 -0.29750008908E+02 -0.66465880202E+01  0.15655934520E+02  0.34268767826E+02  0.51100000000E-03 0. -1.
        -11    1    3    3    0    0 -0.18375358496E+01 -0.32035003850E+01  0.49972115443E+01  0.62137811512E+01  0.51100000000E-03 0.  1.
        -12    1    3    3    0    0 -0.87660947239E-01 -0.56217457784E+01  0.46633923775E+01  0.73047202893E+01  0.00000000000E+00 0.  1.
</event>
<event>
 7    1  0.3221417E-010  0.4778727E+02  0.7816164E-02  0.1312668E+00
        -11   -1    0    0    0    0  0.00000000000E+00  0.00000000000E+00  0.45593999997E+02  0.45594000000E+02  0.51100000000E-03 0.  1.
         11   -1    0    0    0    0 -0.00000000000E+00 -0.00000000000E+00 -0.45593999997E+02  0.45594000000E+02  0.51100000000E-03 0. -1.
    9900012    2    1    2    0    0 -0.80956995171E+01  0.42043285773E+02 -0.71024612586E+01  0.47787272066E+02  0.20000004659E+02 0.  0.
         12    1    1    2    0    0  0.80956995171E+01 -0.42043285773E+02  0.71024612586E+01  0.43400727934E+02  0.00000000000E+00 0. -1.
         11    1    3    3    0    0  0.39002001735E+01  0.23885388194E+02 -0.89061130514E+01  0.25788411748E+02  0.51100000000E-03 0. -1.
        -11    1    3    3    0    0 -0.59797623823E+01  0.11170921200E+02  0.43973067501E+00  0.12678343817E+02  0.51100000000E-03 0.  1.
         12    1    3    3    0    0 -0.60161373084E+01  0.69869763789E+01  0.13639211177E+01  0.93205165011E+01  0.00000000000E+00 0. -1.
</event>
<event>
 7    1  0.3221417E-010  0.4778727E+02  0.7816164E-02  0.1312668E+00
        -11   -1    0    0    0    0  0.00000000000E+00  0.00000000000E+00  0.45593999997E+02  0.45594000000E+02  0.51100000000E-03 0. -1.
         11   -1    0    0    0    0 -0.00000000000E+00 -0.00000000000E+00 -0.45593999997E+02  0.45594000000E+02  0.51100000000E-03 0.  1.
    9900012    2    1    2    0    0  0.11811506027E+02 -0.25390895034E+02 -0.33157411350E+02  0.47787272440E+02  0.20000006364E+02 0.  0.
         12    1    1    2    0    0 -0.11811506027E+02  0.25390895034E+02  0.33157411350E+02  0.43400727560E+02  0.00000000000E+00 0. -1.
         11    1    3    3    0    0  0.12766248135E+02 -0.12243113532E+02 -0.13968377453E+02  0.22538555618E+02  0.51100000000E-03 0.  1.
        -11    1    3    3    0    0 -0.19624613594E+01 -0.10032214663E+00 -0.73284135804E+01  0.75872896997E+01  0.51100000000E-03 0. -1.
        -12    1    3    3    0    0  0.10077192518E+01 -0.13047459355E+02 -0.11860620317E+02  0.17661427122E+02  0.00000000000E+00 0.  1.
</event>
<event>
 7    1  0.3221417E-010  0.4778727E+02  0.7816164E-02  0.1312668E+00
        -11   -1    0    0    0    0  0.00000000000E+00  0.00000000000E+00  0.45593999997E+02  0.45594000000E+02  0.51100000000E-03 0.  1.
         11   -1    0    0    0    0 -0.00000000000E+00 -0.00000000000E+00 -0.45593999997E+02  0.45594000000E+02  0.51100000000E-03 0. -1.
    9900012    2    1    2    0    0  0.15600027358E+00  0.43399439539E+02  0.29634133514E+00  0.47787268363E+02  0.19999987776E+02 0.  0.
        -12    1    1    2    0    0 -0.15600027358E+00 -0.43399439539E+02 -0.29634133514E+00  0.43400731637E+02  0.00000000000E+00 0.  1.
         11    1    3    3    0    0 -0.49732552293E+01  0.53224127249E+01 -0.17139696666E+01  0.74832504347E+01  0.51100000000E-03 0. -1.
        -11    1    3    3    0    0  0.93141665217E+00  0.14684505239E+02  0.65535153952E+01  0.16107476381E+02  0.51100000000E-03 0.  1.
         12    1    3    3    0    0  0.41978388507E+01  0.23392521576E+02 -0.45432043934E+01  0.24196541547E+02  0.00000000000E+00 0. -1.
</event>
<event>
 7    1  0.3588465E-010  0.4778727E+02  0.7816164E-02  0.1312668E+00
        -11   -1    0    0    0    0  0.00000000000E+00  0.00000000000E+00  0.45593999997E+02  0.45594000000E+02  0.51100000000E-03 0. -1.
         11   -1    0    0    0    0 -0.00000000000E+00 -0.00000000000E+00 -0.45593999997E+02  0.45594000000E+02  0.51100000000E-03 0.  1.
    9900012    2    1    2    0    0 -0.15385974076E+02  0.39810929671E+00 -0.40580002390E+02  0.47787270937E+02  0.19999999509E+02 0.  0.
         12    1    1    2    0    0  0.15385974076E+02 -0.39810929671E+00  0.40580002390E+02  0.43400729063E+02  0.00000000000E+00 0. -1.
         11    1    3    3    0    0 -0.62011193865E+01  0.39479611308E+00 -0.28859415920E+02  0.29520766134E+02  0.51100000000E-03 0. -1.
        -11    1    3    3    0    0 -0.10856793671E+02  0.17880804962E+00 -0.12374218256E+02  0.16462782840E+02  0.51100000000E-03 0.  1.
         12    1    3    3    0    0  0.16719389813E+01 -0.17549486599E+00  0.65363178683E+00  0.18037219624E+01  0.00000000000E+00 0. -1.
</event>
<event>
 7    1  0.3221417E-010  0.4778727E+02  0.7816164E-02  0.1312668E+00
        -11   -1    0    0    0    0  0.00000000000E+00  0.00000000000E+00  0.45593999997E+02  0.45594000000E+02  0.51100000000E-03 0. -1.
         11   -1    0    0    0    0 -0.00000000000E+00 -0.00000000000E+00 -0.45593999997E+02  0.45594000000E+02  0.51100000000E-03 0.  1.
    9900012    2    1    2    0    0 -0.19742605482E+02 -0.21908357400E+02  0.31841433677E+02  0.47787268511E+02  0.19999988449E+02 0.  0.
        -12    1    1    2    0    0  0.19742605482E+02  0.21908357400E+02 -0.31841433677E+02  0.43400731489E+02  0.00000000000E+00 0.  1.
         11    1    3    3    0    0 -0.55917379253E+01 -0.93825390308E+01  0.30816192027E+00  0.10926780666E+02  0.51100000000E-03 0.  1.
        -11    1    3    3    0    0 -0.79088809077E+01 -0.59992801232E+01  0.14355483225E+02  0.17453413938E+02  0.51100000000E-03 0. -1.
        -12    1    3    3    0    0 -0.62419866492E+01 -0.65265382461E+01  0.17177788532E+02  0.19407073907E+02  0.00000000000E+00 0.  1.
</event>
<event>
 7    1  0.3221417E-010  0.4778728E+02  0.7816164E-02  0.1312668E+00
        -11   -1    0    0    0    0  0.00000000000E+00  0.00000000000E+00  0.45593999997E+02  0.45594000000E+02  0.51100000000E-03 0.  1.
         11   -1    0    0    0    0 -0.00000000000E+00 -0.00000000000E+00 -0.45593999997E+02  0.45594000000E+02  0.51100000000E-03 0. -1.
    9900012    2    1    2    0    0  0.29288255355E+02  0.27934455719E+02  0.15668029822E+02  0.47787275622E+02  0.20000020870E+02 0.  0.
         12    1    1    2    0    0 -0.29288255355E+02 -0.27934455719E+02 -0.15668029822E+02  0.43400724378E+02  0.00000000000E+00 0. -1.
         11    1    3    3    0    0  0.90604417054E+01  0.12179425863E+02  0.15234782483E+02  0.21506478461E+02  0.51100000000E-03 0. -1.
        -11    1    3    3    0    0  0.12394102822E+02  0.81750947759E+01  0.28427100193E+01  0.15117108185E+02  0.51100000000E-03 0.  1.
         12    1    3    3    0    0  0.78337108280E+01  0.75799350794E+01 -0.24094626796E+01  0.11163688976E+02  0.00000000000E+00 0. -1.
</event>
<event>
 7    1  0.3221417E-010  0.4778727E+02  0.7816164E-02  0.1312668E+00
        -11   -1    0    0    0    0  0.00000000000E+00  0.00000000000E+00  0.45593999997E+02  0.45594000000E+02  0.51100000000E-03 0. -1.
         11   -1    0    0    0    0 -0.00000000000E+00 -0.00000000000E+00 -0.45593999997E+02  0.45594000000E+02  0.51100000000E-03 0.  1.
    9900012    2    1    2    0    0  0.95646586468E+01  0.23983595310E+02 -0.34884494293E+02  0.47787268657E+02  0.19999989115E+02 0.  0.
         12    1    1    2    0    0 -0.95646586468E+01 -0.23983595310E+02  0.34884494293E+02  0.43400731343E+02  0.00000000000E+00 0. -1.
         11    1    3    3    0    0  0.40756115715E+01  0.37087895842E+01 -0.42474934059E+01  0.69575089189E+01  0.51100000000E-03 0. -1.
        -11    1    3    3    0    0  0.10696945314E+02  0.17556172585E+02 -0.20019746856E+02  0.28695541454E+02  0.51100000000E-03 0.  1.
         12    1    3    3    0    0 -0.52078982385E+01  0.27186331409E+01 -0.10617254031E+02  0.12134218284E+02  0.00000000000E+00 0. -1.
</event>
<event>
 7    1  0.3221417E-010  0.4778727E+02  0.7816164E-02  0.1312668E+00
        -11   -1    0    0    0    0  0.00000000000E+00  0.00000000000E+00  0.45593999997E+02  0.45594000000E+02  0.51100000000E-03 0. -1.
         11   -1    0    0    0    0 -0.00000000000E+00 -0.00000000000E+00 -0.45593999997E+02  0.45594000000E+02  0.51100000000E-03 0.  1.
    9900012    2    1    2    0    0  0.27884345954E+01 -0.73806113833E+00 -0.43304769484E+02  0.47787272335E+02  0.20000005886E+02 0.  0.
         12    1    1    2    0    0 -0.27884345954E+01  0.73806113833E+00  0.43304769484E+02  0.43400727665E+02  0.00000000000E+00 0. -1.
         11    1    3    3    0    0  0.18942689616E+01 -0.46991595929E+01 -0.18610630566E+01  0.53975838798E+01  0.51100000000E-03 0. -1.
        -11    1    3    3    0    0  0.37026578485E+01  0.36347835234E+01 -0.16764981608E+02  0.17549528056E+02  0.51100000000E-03 0.  1.
        -12    1    3    3    0    0 -0.28084922147E+01  0.32631493112E+00 -0.24678724819E+02  0.24840160399E+02  0.00000000000E+00 0.  1.
</event>
<event>
 7    1  0.3221417E-010  0.4778727E+02  0.7816164E-02  0.1312668E+00
        -11   -1    0    0    0    0  0.00000000000E+00  0.00000000000E+00  0.45593999997E+02  0.45594000000E+02  0.51100000000E-03 0. -1.
         11   -1    0    0    0    0 -0.00000000000E+00 -0.00000000000E+00 -0.45593999997E+02  0.45594000000E+02  0.51100000000E-03 0.  1.
    9900012    2    1    2    0    0 -0.10904764025E+02 -0.11816873718E+02 -0.40312167372E+02  0.47787271653E+02  0.20000002772E+02 0.  0.
         12    1    1    2    0    0  0.10904764025E+02  0.11816873718E+02  0.40312167372E+02  0.43400728347E+02  0.00000000000E+00 0. -1.
         11    1    3    3    0    0 -0.26099387510E+01  0.25910427858E+01 -0.57402475041E+01  0.68173106627E+01  0.51100000000E-03 0. -1.
        -11    1    3    3    0    0 -0.29054629678E+01 -0.41265545419E+01 -0.26139480691E+02  0.26622220390E+02  0.51100000000E-03 0.  1.
         12    1    3    3    0    0 -0.53893623063E+01 -0.10281361962E+02 -0.84324391765E+01  0.14347740600E+02  0.00000000000E+00 0. -1.
</event>
<event>
 7    1  0.3221417E-010  0.4778726E+02  0.7816164E-02  0.1312668E+00
        -11   -1    0    0    0    0  0.00000000000E+00  0.00000000000E+00  0.45593999997E+02  0.45594000000E+02  0.51100000000E-03 0. -1.
         11   -1    0    0    0    0 -0.00000000000E+00 -0.00000000000E+00 -0.45593999997E+02  0.45594000000E+02  0.51100000000E-03 0.  1.
    9900012    2    1    2    0    0 -0.21001758660E+02  0.24236005212E+02 -0.29243226507E+02  0.47787261388E+02  0.19999955974E+02 0.  0.
         12    1    1    2    0    0  0.21001758660E+02 -0.24236005212E+02  0.29243226507E+02  0.43400738612E+02  0.00000000000E+00 0. -1.
         11    1    3    3    0    0 -0.61266686461E+01  0.23691993522E+01 -0.12545107826E+02  0.14160822889E+02  0.51100000000E-03 0. -1.
        -11    1    3    3    0    0 -0.12650594378E+01  0.34106251323E+01  0.18972311136E+01  0.41027095113E+01  0.51100000000E-03 0.  1.
        -12    1    3    3    0    0 -0.13610030576E+02  0.18456180728E+02 -0.18595349795E+02  0.29523728988E+02  0.00000000000E+00 0.  1.
</event>
<event>
 7    1  0.3221417E-010  0.4778729E+02  0.7816164E-02  0.1312668E+00
        -11   -1    0    0    0    0  0.00000000000E+00  0.00000000000E+00  0.45593999997E+02  0.45594000000E+02  0.51100000000E-03 0. -1.
         11   -1    0    0    0    0 -0.00000000000E+00 -0.00000000000E+00 -0.45593999997E+02  0.45594000000E+02  0.51100000000E-03 0.  1.
    9900012    2    1    2    0    0 -0.15022641463E+02 -0.98433945323E+01 -0.39510121085E+02  0.47787287557E+02  0.20000075287E+02 0.  0.
         12    1    1    2    0    0  0.15022641463E+02  0.98433945323E+01  0.39510121085E+02  0.43400712443E+02  0.00000000000E+00 0. -1.
         11    1    3    3    0    0 -0.54608559980E+01  0.23242911196E+01 -0.85213957676E+01  0.10384481861E+02  0.51100000000E-03 0.  1.
        -11    1    3    3    0    0 -0.29928598590E+01 -0.91098452289E+01 -0.58314260676E+01  0.11222834779E+02  0.51100000000E-03 0. -1.
         12    1    3    3    0    0 -0.65689256063E+01 -0.30578404230E+01 -0.25157299249E+02  0.26179970917E+02  0.00000000000E+00 0. -1.
</event>
<event>
 7    1  0.3221417E-010  0.4778727E+02  0.7816164E-02  0.1312668E+00
        -11   -1    0    0    0    0  0.00000000000E+00  0.00000000000E+00  0.45593999997E+02  0.45594000000E+02  0.51100000000E-03 0. -1.
         11   -1    0    0    0    0 -0.00000000000E+00 -0.00000000000E+00 -0.45593999997E+02  0.45594000000E+02  0.51100000000E-03 0.  1.
    9900012    2    1    2    0    0 -0.11380144622E+02 -0.15007105545E+02 -0.39101182858E+02  0.47787269484E+02  0.19999992884E+02 0.  0.
         12    1    1    2    0    0  0.11380144622E+02  0.15007105545E+02  0.39101182858E+02  0.43400730516E+02  0.00000000000E+00 0. -1.
         11    1    3    3    0    0 -0.45599989143E+01 -0.75263154525E+01 -0.19577989928E+02  0.21464778226E+02  0.51100000000E-03 0. -1.
        -11    1    3    3    0    0 -0.10107840107E+02 -0.19520452156E+01 -0.76747287012E+01  0.12840575261E+02  0.51100000000E-03 0.  1.
         12    1    3    3    0    0  0.32876943987E+01 -0.55287448765E+01 -0.11848464229E+02  0.13481915997E+02  0.00000000000E+00 0. -1.
</event>
<event>
 7    1  0.3221417E-010  0.4778727E+02  0.7816164E-02  0.1312668E+00
        -11   -1    0    0    0    0  0.00000000000E+00  0.00000000000E+00  0.45593999997E+02  0.45594000000E+02  0.51100000000E-03 0. -1.
         11   -1    0    0    0    0 -0.00000000000E+00 -0.00000000000E+00 -0.45593999997E+02  0.45594000000E+02  0.51100000000E-03 0.  1.
    9900012    2    1    2    0    0 -0.30020258168E+02  0.28339044889E+02  0.13390521920E+02  0.47787269096E+02  0.19999991115E+02 0.  0.
         12    1    1    2    0    0  0.30020258168E+02 -0.28339044889E+02 -0.13390521920E+02  0.43400730904E+02  0.00000000000E+00 0. -1.
         11    1    3    3    0    0 -0.23606814141E+02  0.25722612617E+02  0.36811590199E+01  0.35106771508E+02  0.51100000000E-03 0.  1.
        -11    1    3    3    0    0 -0.19696266940E+01  0.31101157412E+01  0.45745096097E+01  0.58718300101E+01  0.51100000000E-03 0. -1.
        -12    1    3    3    0    0 -0.44438173334E+01 -0.49368346925E+00  0.51348532907E+01  0.68086675772E+01  0.00000000000E+00 0.  1.
</event>
<event>
 7    1  0.3221417E-010  0.4778727E+02  0.7816164E-02  0.1312668E+00
        -11   -1    0    0    0    0  0.00000000000E+00  0.00000000000E+00  0.45593999997E+02  0.45594000000E+02  0.51100000000E-03 0.  1.
         11   -1    0    0    0    0 -0.00000000000E+00 -0.00000000000E+00 -0.45593999997E+02  0.45594000000E+02  0.51100000000E-03 0. -1.
    9900012    2    1    2    0    0  0.41267248902E+02 -0.86734634067E+01  0.10266864153E+02  0.47787270755E+02  0.19999998681E+02 0.  0.
        -12    1    1    2    0    0 -0.41267248902E+02  0.86734634067E+01 -0.10266864153E+02  0.43400729245E+02  0.00000000000E+00 0.  1.
         11    1    3    3    0    0  0.25981573856E+02 -0.46198393420E+01  0.56002278357E+01  0.26976798321E+02  0.51100000000E-03 0. -1.
        -11    1    3    3    0    0 -0.20138221745E+01  0.61960742882E+00  0.15645779514E+01  0.26243661222E+01  0.51100000000E-03 0.  1.
        -12    1    3    3    0    0  0.17299497221E+02 -0.46732314935E+01  0.31020583661E+01  0.18186106312E+02  0.00000000000E+00 0.  1.
</event>
<event>
 7    1  0.3221417E-010  0.4778727E+02  0.7816164E-02  0.1312668E+00
        -11   -1    0    0    0    0  0.00000000000E+00  0.00000000000E+00  0.45593999997E+02  0.45594000000E+02  0.51100000000E-03 0. -1.
         11   -1    0    0    0    0 -0.00000000000E+00 -0.00000000000E+00 -0.45593999997E+02  0.45594000000E+02  0.51100000000E-03 0.  1.
    9900012    2    1    2    0    0 -0.16534474600E+02  0.23535125748E+02  0.32501266666E+02  0.47787270407E+02  0.19999997094E+02 0.  0.
        -12    1    1    2    0    0  0.16534474600E+02 -0.23535125748E+02 -0.32501266666E+02  0.43400729593E+02  0.00000000000E+00 0.  1.
         11    1    3    3    0    0 -0.85569461358E+01  0.65345762299E+01  0.90315753877E+01  0.14053162204E+02  0.51100000000E-03 0. -1.
        -11    1    3    3    0    0 -0.22254584956E+00  0.12737533697E+02  0.20973377684E+02  0.24539292229E+02  0.51100000000E-03 0.  1.
         12    1    3    3    0    0 -0.77549826148E+01  0.42630158211E+01  0.24963135946E+01  0.91948159748E+01  0.00000000000E+00 0. -1.
</event>
<event>
 7    1  0.3221417E-010  0.4778727E+02  0.7816164E-02  0.1312668E+00
        -11   -1    0    0    0    0  0.00000000000E+00  0.00000000000E+00  0.45593999997E+02  0.45594000000E+02  0.51100000000E-03 0. -1.
         11   -1    0    0    0    0 -0.00000000000E+00 -0.00000000000E+00 -0.45593999997E+02  0.45594000000E+02  0.51100000000E-03 0.  1.
    9900012    2    1    2    0    0 -0.52977725270E+01  0.26518651889E+02 -0.33945805538E+02  0.47787274138E+02  0.20000014104E+02 0.  0.
         12    1    1    2    0    0  0.52977725270E+01 -0.26518651889E+02  0.33945805538E+02  0.43400725862E+02  0.00000000000E+00 0. -1.
         11    1    3    3    0    0 -0.30597642100E+01  0.98239638495E+01 -0.16805377546E+02  0.19705155099E+02  0.51100000000E-03 0. -1.
        -11    1    3    3    0    0  0.61494069956E+01  0.85758620715E+01 -0.75689872086E+01  0.12986538580E+02  0.51100000000E-03 0.  1.
         12    1    3    3    0    0 -0.83874153126E+01  0.81188259676E+01 -0.95714407832E+01  0.15095580459E+02  0.00000000000E+00 0. -1.
</event>
<event>
 7    1  0.3221417E-010  0.4778727E+02  0.7816164E-02  0.1312668E+00
        -11   -1    0    0    0    0  0.00000000000E+00  0.00000000000E+00  0.45593999997E+02  0.45594000000E+02  0.51100000000E-03 0. -1.
         11   -1    0    0    0    0 -0.00000000000E+00 -0.00000000000E+00 -0.45593999997E+02  0.45594000000E+02  0.51100000000E-03 0.  1.
    9900012    2    1    2    0    0  0.36203448951E+02  0.12507047420E+02  0.20408510638E+02  0.47787271233E+02  0.20000000859E+02 0.  0.
        -12    1    1    2    0    0 -0.36203448951E+02 -0.12507047420E+02 -0.20408510638E+02  0.43400728767E+02  0.00000000000E+00 0.  1.
         11    1    3    3    0    0  0.12774009814E+02 -0.14198907380E+01  0.95558185994E+01  0.16015776154E+02  0.51100000000E-03 0. -1.
        -11    1    3    3    0    0  0.49793526273E+01  0.86694719216E+01  0.69980458489E+01  0.12203538092E+02  0.51100000000E-03 0.  1.
        -12    1    3    3    0    0  0.18450086509E+02  0.52574662364E+01  0.38546461893E+01  0.19567956987E+02  0.00000000000E+00 0.  1.
</event>
<event>
 7    1  0.3221417E-010  0.4778727E+02  0.7816164E-02  0.1312668E+00
        -11   -1    0    0    0    0  0.00000000000E+00  0.00000000000E+00  0.45593999997E+02  0.45594000000E+02  0.51100000000E-03 0. -1.
         11   -1    0    0    0    0 -0.00000000000E+00 -0.00000000000E+00 -0.45593999997E+02  0.45594000000E+02  0.51100000000E-03 0.  1.
    9900012    2    1    2    0    0 -0.81677659143E+01  0.19930104432E+02 -0.37678929200E+02  0.47787272260E+02  0.20000005542E+02 0.  0.
         12    1    1    2    0    0  0.81677659143E+01 -0.19930104432E+02  0.37678929200E+02  0.43400727740E+02  0.00000000000E+00 0. -1.
         11    1    3    3    0    0  0.25354916824E+00 -0.17993066188E+01 -0.68122144211E+01  0.70503941074E+01  0.51100000000E-03 0. -1.
        -11    1    3    3    0    0 -0.35976559107E+01  0.15006525328E+02 -0.28016549788E+02  0.31985402807E+02  0.51100000000E-03 0.  1.
        -12    1    3    3    0    0 -0.48236591718E+01  0.67228857223E+01 -0.28501649913E+01  0.87514753452E+01  0.00000000000E+00 0.  1.
</event>
<event>
 7    1  0.3221417E-010  0.4778726E+02  0.7816164E-02  0.1312668E+00
        -11   -1    0    0    0    0  0.00000000000E+00  0.00000000000E+00  0.45593999997E+02  0.45594000000E+02  0.51100000000E-03 0. -1.
         11   -1    0    0    0    0 -0.00000000000E+00 -0.00000000000E+00 -0.45593999997E+02  0.45594000000E+02  0.51100000000E-03 0.  1.
    9900012    2    1    2    0    0  0.12845159628E+02  0.61966024838E+01  0.40990585370E+02  0.47787261560E+02  0.19999956755E+02 0.  0.
        -12    1    1    2    0    0 -0.12845159628E+02 -0.61966024838E+01 -0.40990585370E+02  0.43400738440E+02  0.00000000000E+00 0.  1.
         11    1    3    3    0    0  0.16929007912E+00  0.56848537748E+01  0.16824400330E+02  0.17759692235E+02  0.51100000000E-03 0. -1.
        -11    1    3    3    0    0  0.19713965347E+01 -0.50112163427E+01  0.10573365207E+02  0.11865696170E+02  0.51100000000E-03 0.  1.
        -12    1    3    3    0    0  0.10704473014E+02  0.55229650517E+01  0.13592819832E+02  0.18161873154E+02  0.00000000000E+00 0.  1.
</event>
<event>
 7    1  0.3328367E-010  0.4778727E+02  0.7816164E-02  0.1312668E+00
        -11   -1    0    0    0    0  0.00000000000E+00  0.00000000000E+00  0.45593999997E+02  0.45594000000E+02  0.51100000000E-03 0. -1.
         11   -1    0    0    0    0 -0.00000000000E+00 -0.00000000000E+00 -0.45593999997E+02  0.45594000000E+02  0.51100000000E-03 0.  1.
    9900012    2    1    2    0    0  0.25227027398E+02  0.38493883767E+00 -0.35313912129E+02  0.47787268680E+02  0.19999989218E+02 0.  0.
         12    1    1    2    0    0 -0.25227027398E+02 -0.38493883767E+00  0.35313912129E+02  0.43400731320E+02  0.00000000000E+00 0. -1.
         11    1    3    3    0    0  0.14021843350E+02  0.12477870994E+01 -0.11785660319E+02  0.18359489453E+02  0.51100000000E-03 0. -1.
        -11    1    3    3    0    0  0.14209060361E+02  0.58739637577E+00 -0.20300457691E+02  0.24786105252E+02  0.51100000000E-03 0.  1.
         12    1    3    3    0    0 -0.30038763123E+01 -0.14502446375E+01 -0.32277941192E+01  0.46416739744E+01  0.00000000000E+00 0. -1.
</event>
<event>
 7    1  0.3221417E-010  0.4778727E+02  0.7816164E-02  0.1312668E+00
        -11   -1    0    0    0    0  0.00000000000E+00  0.00000000000E+00  0.45593999997E+02  0.45594000000E+02  0.51100000000E-03 0. -1.
         11   -1    0    0    0    0 -0.00000000000E+00 -0.00000000000E+00 -0.45593999997E+02  0.45594000000E+02  0.51100000000E-03 0.  1.
    9900012    2    1    2    0    0 -0.25905211335E+02  0.63575000008E+01  0.34236315474E+02  0.47787273303E+02  0.20000010299E+02 0.  0.
        -12    1    1    2    0    0  0.25905211335E+02 -0.63575000008E+01 -0.34236315474E+02  0.43400726697E+02  0.00000000000E+00 0.  1.
         11    1    3    3    0    0 -0.16336318020E+02  0.53657463644E+01  0.14791460998E+02  0.22681574884E+02  0.51100000000E-03 0. -1.
        -11    1    3    3    0    0 -0.26051522444E+01  0.39917363613E+01  0.16149233265E+02  0.16838007979E+02  0.51100000000E-03 0.  1.
         12    1    3    3    0    0 -0.69637410705E+01 -0.29999827250E+01  0.32956212112E+01  0.82676904402E+01  0.00000000000E+00 0. -1.
</event>
<event>
 7    1  0.3705616E-010  0.4778727E+02  0.7816164E-02  0.1312668E+00
        -11   -1    0    0    0    0  0.00000000000E+00  0.00000000000E+00  0.45593999997E+02  0.45594000000E+02  0.51100000000E-03 0.  1.
         11   -1    0    0    0    0 -0.00000000000E+00 -0.00000000000E+00 -0.45593999997E+02  0.45594000000E+02  0.51100000000E-03 0. -1.
    9900012    2    1    2    0    0 -0.20706003591E+02 -0.34467558785E+02 -0.16336230252E+02  0.47787267147E+02  0.19999982231E+02 0.  0.
         12    1    1    2    0    0  0.20706003591E+02  0.34467558785E+02  0.16336230252E+02  0.43400732853E+02  0.00000000000E+00 0. -1.
         11    1    3    3    0    0  0.59968649359E+00  0.21737302529E+01 -0.61047467989E+00  0.23361093080E+01  0.51100000000E-03 0. -1.
        -11    1    3    3    0    0 -0.76031075363E+01 -0.13830376204E+02 -0.34950524043E+01  0.16164836582E+02  0.51100000000E-03 0.  1.
         12    1    3    3    0    0 -0.13702582548E+02 -0.22810912834E+02 -0.12230703168E+02  0.29286321257E+02  0.00000000000E+00 0. -1.
</event>
<event>
 7    1  0.3221417E-010  0.4778727E+02  0.7816164E-02  0.1312668E+00
        -11   -1    0    0    0    0  0.00000000000E+00  0.00000000000E+00  0.45593999997E+02  0.45594000000E+02  0.51100000000E-03 0. -1.
         11   -1    0    0    0    0 -0.00000000000E+00 -0.00000000000E+00 -0.45593999997E+02  0.45594000000E+02  0.51100000000E-03 0.  1.
    9900012    2    1    2    0    0  0.12034502510E+02 -0.15535265599E+02 -0.38696893191E+02  0.47787271083E+02  0.20000000174E+02 0.  0.
         12    1    1    2    0    0 -0.12034502510E+02  0.15535265599E+02  0.38696893191E+02  0.43400728917E+02  0.00000000000E+00 0. -1.
         11    1    3    3    0    0 -0.19542989145E+01  0.14244035530E+01 -0.62814550525E+01  0.67308905478E+01  0.51100000000E-03 0. -1.
        -11    1    3    3    0    0  0.14587124542E+02 -0.95734075885E+01 -0.25651717924E+02  0.31023297180E+02  0.51100000000E-03 0.  1.
         12    1    3    3    0    0 -0.59832311726E+00 -0.73862615640E+01 -0.67637202152E+01  0.10033083354E+02  0.00000000000E+00 0. -1.
</event>
<event>
 7    1  0.3221417E-010  0.4778727E+02  0.7816164E-02  0.1312668E+00
        -11   -1    0    0    0    0  0.00000000000E+00  0.00000000000E+00  0.45593999997E+02  0.45594000000E+02  0.51100000000E-03 0. -1.
         11   -1    0    0    0    0 -0.00000000000E+00 -0.00000000000E+00 -0.45593999997E+02  0.45594000000E+02  0.51100000000E-03 0.  1.
    9900012    2    1    2    0    0  0.22991465612E+02 -0.25795146910E+02  0.26260735663E+02  0.47787270367E+02  0.19999996911E+02 0.  0.
        -12    1    1    2    0    0 -0.22991465612E+02  0.25795146910E+02 -0.26260735663E+02  0.43400729633E+02  0.00000000000E+00 0.  1.
         11    1    3    3    0    0 -0.11694338676E+01  0.24199219958E+00 -0.13901723143E+00  0.12022736158E+01  0.51100000000E-03 0.  1.
        -11    1    3    3    0    0  0.20978339513E+02 -0.15691109770E+02  0.23931584917E+02  0.35482705808E+02  0.51100000000E-03 0. -1.
        -12    1    3    3    0    0  0.31825599671E+01 -0.10346029339E+02  0.24681679782E+01  0.11102290944E+02  0.00000000000E+00 0.  1.
</event>
<event>
 7    1  0.3221417E-010  0.4778728E+02  0.7816164E-02  0.1312668E+00
        -11   -1    0    0    0    0  0.00000000000E+00  0.00000000000E+00  0.45593999997E+02  0.45594000000E+02  0.51100000000E-03 0. -1.
         11   -1    0    0    0    0 -0.00000000000E+00 -0.00000000000E+00 -0.45593999997E+02  0.45594000000E+02  0.51100000000E-03 0.  1.
    9900012    2    1    2    0    0 -0.28424953228E+02  0.30795470430E+02 -0.11282007808E+02  0.47787278057E+02  0.20000031974E+02 0.  0.
         12    1    1    2    0    0  0.28424953228E+02 -0.30795470430E+02  0.11282007808E+02  0.43400721943E+02  0.00000000000E+00 0. -1.
         11    1    3    3    0    0 -0.99047112309E+01  0.32269476962E+01 -0.19051777958E+01  0.10589910231E+02  0.51100000000E-03 0. -1.
        -11    1    3    3    0    0 -0.83297981413E+00 -0.15808493602E+01 -0.11438485099E+01  0.21216337444E+01  0.51100000000E-03 0.  1.
        -12    1    3    3    0    0 -0.17687262183E+02  0.29149372094E+02 -0.82329815027E+01  0.35075734082E+02  0.00000000000E+00 0.  1.
</event>
<event>
 7    1  0.3221417E-010  0.4778726E+02  0.7816164E-02  0.1312668E+00
        -11   -1    0    0    0    0  0.00000000000E+00  0.00000000000E+00  0.45593999997E+02  0.45594000000E+02  0.51100000000E-03 0. -1.
         11   -1    0    0    0    0 -0.00000000000E+00 -0.00000000000E+00 -0.45593999997E+02  0.45594000000E+02  0.51100000000E-03 0.  1.
    9900012    2    1    2    0    0  0.23919311923E+02  0.82293772065E+00  0.36205152868E+02  0.47787264942E+02  0.19999972176E+02 0.  0.
        -12    1    1    2    0    0 -0.23919311923E+02 -0.82293772065E+00 -0.36205152868E+02  0.43400735058E+02  0.00000000000E+00 0.  1.
         11    1    3    3    0    0  0.11505414277E+01 -0.72913303250E+00  0.13913559292E+02  0.13980075572E+02  0.51100000000E-03 0. -1.
        -11    1    3    3    0    0  0.12446191954E+02  0.59728990733E+01  0.15163555713E+02  0.20506502374E+02  0.51100000000E-03 0.  1.
        -12    1    3    3    0    0  0.10322578542E+02 -0.44208283201E+01  0.71280378629E+01  0.13300686996E+02  0.00000000000E+00 0.  1.
</event>
<event>
 7    1  0.3221417E-010  0.4778727E+02  0.7816164E-02  0.1312668E+00
        -11   -1    0    0    0    0  0.00000000000E+00  0.00000000000E+00  0.45593999997E+02  0.45594000000E+02  0.51100000000E-03 0. -1.
         11   -1    0    0    0    0 -0.00000000000E+00 -0.00000000000E+00 -0.45593999997E+02  0.45594000000E+02  0.51100000000E-03 0.  1.
    9900012    2    1    2    0    0  0.31985793474E+02 -0.15566842669E+02 -0.24863740721E+02  0.47787272155E+02  0.20000005064E+02 0.  0.
         12    1    1    2    0    0 -0.31985793474E+02  0.15566842669E+02  0.24863740721E+02  0.43400727845E+02  0.00000000000E+00 0. -1.
         11    1    3    3    0    0  0.21648010465E+00  0.15174277394E+01 -0.31377284219E+01  0.34921040206E+01  0.51100000000E-03 0. -1.
        -11    1    3    3    0    0  0.23770725332E+02 -0.52998160715E+01 -0.14020809940E+02  0.28101931336E+02  0.51100000000E-03 0.  1.
        -12    1    3    3    0    0  0.79985880371E+01 -0.11784454337E+02 -0.77052023593E+01  0.16193236798E+02  0.00000000000E+00 0.  1.
</event>
<event>
 7    1  0.3221417E-010  0.4778727E+02  0.7816164E-02  0.1312668E+00
        -11   -1    0    0    0    0  0.00000000000E+00  0.00000000000E+00  0.45593999997E+02  0.45594000000E+02  0.51100000000E-03 0. -1.
         11   -1    0    0    0    0 -0.00000000000E+00 -0.00000000000E+00 -0.45593999997E+02  0.45594000000E+02  0.51100000000E-03 0.  1.
    9900012    2    1    2    0    0  0.26802351426E+02  0.18781636902E+02 -0.28504511092E+02  0.47787273286E+02  0.20000010222E+02 0.  0.
         12    1    1    2    0    0 -0.26802351426E+02 -0.18781636902E+02  0.28504511092E+02  0.43400726714E+02  0.00000000000E+00 0. -1.
         11    1    3    3    0    0  0.19043491819E+02  0.18578786159E+02 -0.16770840123E+02  0.31449752852E+02  0.51100000000E-03 0. -1.
        -11    1    3    3    0    0 -0.77097185305E+00  0.90287400657E+00 -0.58073295481E+01  0.59274493512E+01  0.51100000000E-03 0.  1.
        -12    1    3    3    0    0  0.85298314603E+01 -0.70002326327E+00 -0.59263414209E+01  0.10410071083E+02  0.00000000000E+00 0.  1.
</event>
<event>
 7    1  0.3221417E-010  0.4778729E+02  0.7816164E-02  0.1312668E+00
        -11   -1    0    0    0    0  0.00000000000E+00  0.00000000000E+00  0.45593999997E+02  0.45594000000E+02  0.51100000000E-03 0.  1.
         11   -1    0    0    0    0 -0.00000000000E+00 -0.00000000000E+00 -0.45593999997E+02  0.45594000000E+02  0.51100000000E-03 0. -1.
    9900012    2    1    2    0    0  0.36902909304E+02  0.98466947803E-02  0.22842869131E+02  0.47787291685E+02  0.20000094110E+02 0.  0.
        -12    1    1    2    0    0 -0.36902909304E+02 -0.98466947803E-02 -0.22842869131E+02  0.43400708315E+02  0.00000000000E+00 0.  1.
         11    1    3    3    0    0  0.10836348762E+02 -0.43363876421E+00 -0.12446950281E+01  0.10916215601E+02  0.51100000000E-03 0.  1.
        -11    1    3    3    0    0  0.45887249908E+01 -0.34194091854E+01  0.76344873742E+01  0.95411819994E+01  0.51100000000E-03 0. -1.
         12    1    3    3    0    0  0.21477835551E+02  0.38628946444E+01  0.16453076785E+02  0.27329894085E+02  0.00000000000E+00 0. -1.
</event>
<event>
 7    1  0.3365573E-010  0.4778727E+02  0.7816164E-02  0.1312668E+00
        -11   -1    0    0    0    0  0.00000000000E+00  0.00000000000E+00  0.45593999997E+02  0.45594000000E+02  0.51100000000E-03 0. -1.
         11   -1    0    0    0    0 -0.00000000000E+00 -0.00000000000E+00 -0.45593999997E+02  0.45594000000E+02  0.51100000000E-03 0.  1.
    9900012    2    1    2    0    0 -0.26305043441E+02 -0.22418034721E+02 -0.26250706994E+02  0.47787271793E+02  0.20000003413E+02 0.  0.
         12    1    1    2    0    0  0.26305043441E+02  0.22418034721E+02  0.26250706994E+02  0.43400728207E+02  0.00000000000E+00 0. -1.
         11    1    3    3    0    0 -0.94776119102E+01 -0.80321589006E+01 -0.14837008607E+02  0.19351421880E+02  0.51100000000E-03 0. -1.
        -11    1    3    3    0    0 -0.14150319258E+02 -0.34281318129E+01 -0.46536689241E+01  0.15285295468E+02  0.51100000000E-03 0.  1.
         12    1    3    3    0    0 -0.26771122734E+01 -0.10957744008E+02 -0.67600294629E+01  0.13150554445E+02  0.00000000000E+00 0. -1.
</event>
<event>
 7    1  0.3221417E-010  0.4778727E+02  0.7816164E-02  0.1312668E+00
        -11   -1    0    0    0    0  0.00000000000E+00  0.00000000000E+00  0.45593999997E+02  0.45594000000E+02  0.51100000000E-03 0.  1.
         11   -1    0    0    0    0 -0.00000000000E+00 -0.00000000000E+00 -0.45593999997E+02  0.45594000000E+02  0.51100000000E-03 0. -1.
    9900012    2    1    2    0    0  0.23466639138E+02 -0.35390579517E+02  0.89692324567E+01  0.47787269570E+02  0.19999993279E+02 0.  0.
        -12    1    1    2    0    0 -0.23466639138E+02  0.35390579517E+02 -0.89692324567E+01  0.43400730430E+02  0.00000000000E+00 0.  1.
         11    1    3    3    0    0  0.13828039163E+02 -0.29464062696E+02  0.81728322163E+01  0.33558022057E+02  0.51100000000E-03 0. -1.
        -11    1    3    3    0    0 -0.10198200256E+01 -0.18103863347E+01 -0.15158388807E+01  0.25720224219E+01  0.51100000000E-03 0.  1.
         12    1    3    3    0    0  0.10658420001E+02 -0.41161304858E+01  0.23122391211E+01  0.11657225092E+02  0.00000000000E+00 0. -1.
</event>
<event>
 7    1  0.3221417E-010  0.4778727E+02  0.7816164E-02  0.1312668E+00
        -11   -1    0    0    0    0  0.00000000000E+00  0.00000000000E+00  0.45593999997E+02  0.45594000000E+02  0.51100000000E-03 0. -1.
         11   -1    0    0    0    0 -0.00000000000E+00 -0.00000000000E+00 -0.45593999997E+02  0.45594000000E+02  0.51100000000E-03 0.  1.
    9900012    2    1    2    0    0  0.25729310438E+02  0.28518738698E+02 -0.20206614765E+02  0.47787272440E+02  0.20000006361E+02 0.  0.
         12    1    1    2    0    0 -0.25729310438E+02 -0.28518738698E+02  0.20206614765E+02  0.43400727560E+02  0.00000000000E+00 0. -1.
         11    1    3    3    0    0  0.20290966462E+02  0.13695226641E+02 -0.10780155182E+02  0.26748725180E+02  0.51100000000E-03 0. -1.
        -11    1    3    3    0    0  0.50501444898E+01  0.11496425657E+02 -0.17693018817E+01  0.12680780404E+02  0.51100000000E-03 0.  1.
         12    1    3    3    0    0  0.38819948574E+00  0.33270863996E+01 -0.76571577012E+01  0.83577668556E+01  0.00000000000E+00 0. -1.
</event>
<event>
 7    1  0.3221417E-010  0.4778728E+02  0.7816164E-02  0.1312668E+00
        -11   -1    0    0    0    0  0.00000000000E+00  0.00000000000E+00  0.45593999997E+02  0.45594000000E+02  0.51100000000E-03 0. -1.
         11   -1    0    0    0    0 -0.00000000000E+00 -0.00000000000E+00 -0.45593999997E+02  0.45594000000E+02  0.51100000000E-03 0.  1.
    9900012    2    1    2    0    0  0.10028354309E+02 -0.23777856684E+02  0.34895105624E+02  0.47787277020E+02  0.20000027247E+02 0.  0.
        -12    1    1    2    0    0 -0.10028354309E+02  0.23777856684E+02 -0.34895105624E+02  0.43400722980E+02  0.00000000000E+00 0.  1.
         11    1    3    3    0    0  0.63738689449E+01 -0.13507849592E+02  0.25125738731E+02  0.29229966695E+02  0.51100000000E-03 0. -1.
        -11    1    3    3    0    0  0.18258842548E+01  0.22006396262E+01  0.33768268329E+01  0.44248873202E+01  0.51100000000E-03 0.  1.
        -12    1    3    3    0    0  0.18286011096E+01 -0.12470646718E+02  0.63925400598E+01  0.14132423005E+02  0.00000000000E+00 0.  1.
</event>
<event>
 7    1  0.3221417E-010  0.4778727E+02  0.7816164E-02  0.1312668E+00
        -11   -1    0    0    0    0  0.00000000000E+00  0.00000000000E+00  0.45593999997E+02  0.45594000000E+02  0.51100000000E-03 0.  1.
         11   -1    0    0    0    0 -0.00000000000E+00 -0.00000000000E+00 -0.45593999997E+02  0.45594000000E+02  0.51100000000E-03 0. -1.
    9900012    2    1    2    0    0 -0.42328804177E+02 -0.99934123315E+00  0.95339846956E+01  0.47787271779E+02  0.20000003348E+02 0.  0.
         12    1    1    2    0    0  0.42328804177E+02  0.99934123315E+00 -0.95339846956E+01  0.43400728221E+02  0.00000000000E+00 0. -1.
         11    1    3    3    0    0 -0.27899549330E-01  0.13121777726E+01  0.26478059767E+01  0.29552437536E+01  0.51100000000E-03 0. -1.
        -11    1    3    3    0    0 -0.39433220820E+02 -0.22643857223E+01  0.98498481114E+01  0.40707810738E+02  0.51100000000E-03 0.  1.
        -12    1    3    3    0    0 -0.28676838073E+01 -0.47133283395E-01 -0.29636693925E+01  0.41242172874E+01  0.00000000000E+00 0.  1.
</event>
<event>
 7    1  0.3221417E-010  0.4778727E+02  0.7816164E-02  0.1312668E+00
        -11   -1    0    0    0    0  0.00000000000E+00  0.00000000000E+00  0.45593999997E+02  0.45594000000E+02  0.51100000000E-03 0. -1.
         11   -1    0    0    0    0 -0.00000000000E+00 -0.00000000000E+00 -0.45593999997E+02  0.45594000000E+02  0.51100000000E-03 0.  1.
    9900012    2    1    2    0    0  0.95375523601E+01  0.11051840072E+02 -0.40871939534E+02  0.47787268264E+02  0.19999987321E+02 0.  0.
         12    1    1    2    0    0 -0.95375523601E+01 -0.11051840072E+02  0.40871939534E+02  0.43400731736E+02  0.00000000000E+00 0. -1.
         11    1    3    3    0    0  0.68158377140E+01  0.23451833403E+01 -0.81404190388E+01  0.10872991816E+02  0.51100000000E-03 0. -1.
        -11    1    3    3    0    0  0.25942521400E+01  0.10028148314E+02 -0.33709674583E+02  0.35265224564E+02  0.51100000000E-03 0.  1.
         12    1    3    3    0    0  0.12746250618E+00 -0.13214915827E+01  0.97815408834E+00  0.16490518834E+01  0.00000000000E+00 0. -1.
</event>
<event>
 7    1  0.3221417E-010  0.4778723E+02  0.7816164E-02  0.1312668E+00
        -11   -1    0    0    0    0  0.00000000000E+00  0.00000000000E+00  0.45593999997E+02  0.45594000000E+02  0.51100000000E-03 0. -1.
         11   -1    0    0    0    0 -0.00000000000E+00 -0.00000000000E+00 -0.45593999997E+02  0.45594000000E+02  0.51100000000E-03 0.  1.
    9900012    2    1    2    0    0 -0.67696652723E+01  0.11491992474E+02  0.41300519828E+02  0.47787225848E+02  0.19999793929E+02 0.  0.
        -12    1    1    2    0    0  0.67696652723E+01 -0.11491992474E+02 -0.41300519828E+02  0.43400774152E+02  0.00000000000E+00 0.  1.
         11    1    3    3    0    0 -0.32455947464E+01  0.39637697080E+00  0.21076902837E+02  0.21329013888E+02  0.51100000000E-03 0. -1.
        -11    1    3    3    0    0  0.42061756428E+01  0.19373328728E+01  0.31596499361E+01  0.56061181024E+01  0.51100000000E-03 0.  1.
        -12    1    3    3    0    0 -0.77302461687E+01  0.91582826307E+01  0.17063967055E+02  0.20852093857E+02  0.00000000000E+00 0.  1.
</event>
<event>
 7    1  0.3221417E-010  0.4778729E+02  0.7816164E-02  0.1312668E+00
        -11   -1    0    0    0    0  0.00000000000E+00  0.00000000000E+00  0.45593999997E+02  0.45594000000E+02  0.51100000000E-03 0. -1.
         11   -1    0    0    0    0 -0.00000000000E+00 -0.00000000000E+00 -0.45593999997E+02  0.45594000000E+02  0.51100000000E-03 0.  1.
    9900012    2    1    2    0    0 -0.75883650123E+01 -0.22311687605E+02 -0.36444848304E+02  0.47787289692E+02  0.20000085020E+02 0.  0.
         12    1    1    2    0    0  0.75883650123E+01  0.22311687605E+02  0.36444848304E+02  0.43400710308E+02  0.00000000000E+00 0. -1.
         11    1    3    3    0    0  0.31099496685E+01 -0.23029743821E+01 -0.64656883451E+01  0.75352905705E+01  0.51100000000E-03 0. -1.
        -11    1    3    3    0    0 -0.12374830940E+00 -0.12832666228E+02 -0.89560483118E+01  0.15649390972E+02  0.51100000000E-03 0.  1.
        -12    1    3    3    0    0 -0.10574566371E+02 -0.71760469955E+01 -0.21023111647E+02  0.24602608149E+02  0.00000000000E+00 0.  1.
</event>
<event>
 7    1  0.3221417E-010  0.4778726E+02  0.7816164E-02  0.1312668E+00
        -11   -1    0    0    0    0  0.00000000000E+00  0.00000000000E+00  0.45593999997E+02  0.45594000000E+02  0.51100000000E-03 0. -1.
         11   -1    0    0    0    0 -0.00000000000E+00 -0.00000000000E+00 -0.45593999997E+02  0.45594000000E+02  0.51100000000E-03 0.  1.
    9900012    2    1    2    0    0  0.32663899324E+02 -0.24325957086E+02  0.14998067923E+02  0.47787256359E+02  0.19999933043E+02 0.  0.
        -12    1    1    2    0    0 -0.32663899324E+02  0.24325957086E+02 -0.14998067923E+02  0.43400743641E+02  0.00000000000E+00 0.  1.
         11    1    3    3    0    0  0.17582166059E+02 -0.13579709772E+02  0.11595689168E+02  0.25059949887E+02  0.51100000000E-03 0. -1.
        -11    1    3    3    0    0  0.10571457395E+02  0.16529281495E+00  0.26309105375E+01  0.10895169741E+02  0.51100000000E-03 0.  1.
        -12    1    3    3    0    0  0.45102758697E+01 -0.10911540129E+02  0.77146821822E+00  0.11832136731E+02  0.00000000000E+00 0.  1.
</event>
<event>
 7    1  0.3221417E-010  0.4778727E+02  0.7816164E-02  0.1312668E+00
        -11   -1    0    0    0    0  0.00000000000E+00  0.00000000000E+00  0.45593999997E+02  0.45594000000E+02  0.51100000000E-03 0. -1.
         11   -1    0    0    0    0 -0.00000000000E+00 -0.00000000000E+00 -0.45593999997E+02  0.45594000000E+02  0.51100000000E-03 0.  1.
    9900012    2    1    2    0    0  0.39793500045E+02  0.21164785976E+01  0.17193645218E+02  0.47787267709E+02  0.19999984792E+02 0.  0.
        -12    1    1    2    0    0 -0.39793500045E+02 -0.21164785976E+01 -0.17193645218E+02  0.43400732291E+02  0.00000000000E+00 0.  1.
         11    1    3    3    0    0  0.91796840892E+01  0.82605200685E+01  0.56071928394E+01  0.13562573634E+02  0.51100000000E-03 0. -1.
        -11    1    3    3    0    0  0.49668404164E+01  0.18928249701E+01  0.22594905342E+01  0.57756028105E+01  0.51100000000E-03 0.  1.
        -12    1    3    3    0    0  0.25646975540E+02 -0.80368664410E+01  0.93269618444E+01  0.28449091264E+02  0.00000000000E+00 0.  1.
</event>
<event>
 7    1  0.3221417E-010  0.4778727E+02  0.7816164E-02  0.1312668E+00
        -11   -1    0    0    0    0  0.00000000000E+00  0.00000000000E+00  0.45593999997E+02  0.45594000000E+02  0.51100000000E-03 0. -1.
         11   -1    0    0    0    0 -0.00000000000E+00 -0.00000000000E+00 -0.45593999997E+02  0.45594000000E+02  0.51100000000E-03 0.  1.
    9900012    2    1    2    0    0 -0.29909149288E+02 -0.23616176460E+02 -0.20768785637E+02  0.47787268917E+02  0.19999990300E+02 0.  0.
         12    1    1    2    0    0  0.29909149288E+02  0.23616176460E+02  0.20768785637E+02  0.43400731083E+02  0.00000000000E+00 0. -1.
         11    1    3    3    0    0 -0.13274880941E+02 -0.21909712703E+01 -0.74529743060E+01  0.15380820699E+02  0.51100000000E-03 0. -1.
        -11    1    3    3    0    0 -0.15411603174E+02 -0.20373695626E+02 -0.15355726269E+02  0.29806095272E+02  0.51100000000E-03 0.  1.
         12    1    3    3    0    0 -0.12226651727E+01 -0.10515095633E+01  0.20399149381E+01  0.26003529454E+01  0.00000000000E+00 0. -1.
</event>
<event>
 7    1  0.3221417E-010  0.4778728E+02  0.7816164E-02  0.1312668E+00
        -11   -1    0    0    0    0  0.00000000000E+00  0.00000000000E+00  0.45593999997E+02  0.45594000000E+02  0.51100000000E-03 0. -1.
         11   -1    0    0    0    0 -0.00000000000E+00 -0.00000000000E+00 -0.45593999997E+02  0.45594000000E+02  0.51100000000E-03 0.  1.
    9900012    2    1    2    0    0 -0.66311563662E+01  0.67245924057E+01  0.42360713266E+02  0.47787281041E+02  0.20000045577E+02 0.  0.
        -12    1    1    2    0    0  0.66311563662E+01 -0.67245924057E+01 -0.42360713266E+02  0.43400718959E+02  0.00000000000E+00 0.  1.
         11    1    3    3    0    0  0.26895333551E+01  0.41226209988E+01  0.32868158758E+02  0.33234702555E+02  0.51100000000E-03 0. -1.
        -11    1    3    3    0    0 -0.24350390054E+01 -0.13463516528E+01  0.10749111918E+01  0.29828697696E+01  0.51100000000E-03 0.  1.
         12    1    3    3    0    0 -0.68856507159E+01  0.39483230597E+01  0.84176433165E+01  0.11569708716E+02  0.00000000000E+00 0. -1.
</event>
<event>
 7    1  0.3221417E-010  0.4778727E+02  0.7816164E-02  0.1312668E+00
        -11   -1    0    0    0    0  0.00000000000E+00  0.00000000000E+00  0.45593999997E+02  0.45594000000E+02  0.51100000000E-03 0. -1.
         11   -1    0    0    0    0 -0.00000000000E+00 -0.00000000000E+00 -0.45593999997E+02  0.45594000000E+02  0.51100000000E-03 0.  1.
    9900012    2    1    2    0    0 -0.33071021656E+02  0.25205290938E+02  0.12434790599E+02  0.47787272104E+02  0.20000004829E+02 0.  0.
        -12    1    1    2    0    0  0.33071021656E+02 -0.25205290938E+02 -0.12434790599E+02  0.43400727896E+02  0.00000000000E+00 0.  1.
         11    1    3    3    0    0 -0.61740910970E+01  0.82665756923E+00 -0.25246022348E+01  0.67213376880E+01  0.51100000000E-03 0. -1.
        -11    1    3    3    0    0 -0.84549680523E+01  0.57233362216E+01 -0.11620831360E+01  0.10275869781E+02  0.51100000000E-03 0.  1.
         12    1    3    3    0    0 -0.18441962507E+02  0.18655297148E+02  0.16121475970E+02  0.30790064635E+02  0.00000000000E+00 0. -1.
</event>
<event>
 7    1  0.3993915E-010  0.4778728E+02  0.7816164E-02  0.1312668E+00
        -11   -1    0    0    0    0  0.00000000000E+00  0.00000000000E+00  0.45593999997E+02  0.45594000000E+02  0.51100000000E-03 0.  1.
         11   -1    0    0    0    0 -0.00000000000E+00 -0.00000000000E+00 -0.45593999997E+02  0.45594000000E+02  0.51100000000E-03 0. -1.
    9900012    2    1    2    0    0 -0.16295197360E+02  0.30897976338E+02 -0.25756630227E+02  0.47787281118E+02  0.20000045930E+02 0.  0.
         12    1    1    2    0    0  0.16295197360E+02 -0.30897976338E+02  0.25756630227E+02  0.43400718882E+02  0.00000000000E+00 0. -1.
         11    1    3    3    0    0 -0.24859812322E+01  0.13775866283E+02 -0.15788189783E+02  0.21100273255E+02  0.51100000000E-03 0. -1.
        -11    1    3    3    0    0 -0.12761242040E+02  0.17644332356E+02 -0.11604907410E+02  0.24674797648E+02  0.51100000000E-03 0.  1.
         12    1    3    3    0    0 -0.10479740877E+01 -0.52222230086E+00  0.16364669662E+01  0.20122102156E+01  0.00000000000E+00 0. -1.
</event>
<event>
 7    1  0.3221417E-010  0.4778728E+02  0.7816164E-02  0.1312668E+00
        -11   -1    0    0    0    0  0.00000000000E+00  0.00000000000E+00  0.45593999997E+02  0.45594000000E+02  0.51100000000E-03 0. -1.
         11   -1    0    0    0    0 -0.00000000000E+00 -0.00000000000E+00 -0.45593999997E+02  0.45594000000E+02  0.51100000000E-03 0.  1.
    9900012    2    1    2    0    0 -0.14632387202E+02  0.20308926496E+02 -0.35455093238E+02  0.47787275499E+02  0.20000020310E+02 0.  0.
         12    1    1    2    0    0  0.14632387202E+02 -0.20308926496E+02  0.35455093238E+02  0.43400724501E+02  0.00000000000E+00 0. -1.
         11    1    3    3    0    0 -0.12019072339E+02  0.10090508350E+02 -0.12480796860E+02  0.20051103440E+02  0.51100000000E-03 0. -1.
        -11    1    3    3    0    0 -0.23056768229E+01  0.62985375071E+01 -0.29463171843E+01  0.73258791658E+01  0.51100000000E-03 0.  1.
        -12    1    3    3    0    0 -0.30763804055E+00  0.39198806394E+01 -0.20027979194E+02  0.20410292893E+02  0.00000000000E+00 0.  1.
</event>
<event>
 7    1  0.3221417E-010  0.4778727E+02  0.7816164E-02  0.1312668E+00
        -11   -1    0    0    0    0  0.00000000000E+00  0.00000000000E+00  0.45593999997E+02  0.45594000000E+02  0.51100000000E-03 0. -1.
         11   -1    0    0    0    0 -0.00000000000E+00 -0.00000000000E+00 -0.45593999997E+02  0.45594000000E+02  0.51100000000E-03 0.  1.
    9900012    2    1    2    0    0  0.19293106613E+02 -0.23909624344E+02 -0.30655002890E+02  0.47787270729E+02  0.19999998563E+02 0.  0.
         12    1    1    2    0    0 -0.19293106613E+02  0.23909624344E+02  0.30655002890E+02  0.43400729271E+02  0.00000000000E+00 0. -1.
         11    1    3    3    0    0  0.16133752482E+02 -0.21288780093E+02 -0.18121611206E+02  0.32278521031E+02  0.51100000000E-03 0. -1.
        -11    1    3    3    0    0  0.45073346812E+01 -0.26213238256E+01 -0.13059349797E+02  0.14061792984E+02  0.51100000000E-03 0.  1.
        -12    1    3    3    0    0 -0.13479805508E+01  0.47957435103E-03  0.52595811335E+00  0.14469567141E+01  0.00000000000E+00 0.  1.
</event>
<event>
 7    1  0.3221417E-010  0.4778727E+02  0.7816164E-02  0.1312668E+00
        -11   -1    0    0    0    0  0.00000000000E+00  0.00000000000E+00  0.45593999997E+02  0.45594000000E+02  0.51100000000E-03 0. -1.
         11   -1    0    0    0    0 -0.00000000000E+00 -0.00000000000E+00 -0.45593999997E+02  0.45594000000E+02  0.51100000000E-03 0.  1.
    9900012    2    1    2    0    0 -0.34645516733E+02 -0.14344158425E+00  0.26139831676E+02  0.47787271836E+02  0.20000003607E+02 0.  0.
        -12    1    1    2    0    0  0.34645516733E+02  0.14344158425E+00 -0.26139831676E+02  0.43400728164E+02  0.00000000000E+00 0.  1.
         11    1    3    3    0    0 -0.14731940168E+02 -0.59725079729E+01  0.14832980878E+02  0.21742084412E+02  0.51100000000E-03 0. -1.
        -11    1    3    3    0    0 -0.10441316885E+02  0.10027529983E+01  0.11294778773E+02  0.15414234968E+02  0.51100000000E-03 0.  1.
        -12    1    3    3    0    0 -0.94722596791E+01  0.48263133904E+01  0.12072025572E-01  0.10630952455E+02  0.00000000000E+00 0.  1.
</event>
<event>
 7    1  0.3221417E-010  0.4778731E+02  0.7816164E-02  0.1312668E+00
        -11   -1    0    0    0    0  0.00000000000E+00  0.00000000000E+00  0.45593999997E+02  0.45594000000E+02  0.51100000000E-03 0.  1.
         11   -1    0    0    0    0 -0.00000000000E+00 -0.00000000000E+00 -0.45593999997E+02  0.45594000000E+02  0.51100000000E-03 0. -1.
    9900012    2    1    2    0    0 -0.11485766921E+02 -0.27746453890E+02 -0.31334185385E+02  0.47787311999E+02  0.20000186728E+02 0.  0.
         12    1    1    2    0    0  0.11485766921E+02  0.27746453890E+02  0.31334185385E+02  0.43400688001E+02  0.00000000000E+00 0. -1.
         11    1    3    3    0    0 -0.81546982054E+01 -0.98994004023E+01 -0.97559402831E+01  0.16114453209E+02  0.51100000000E-03 0. -1.
        -11    1    3    3    0    0 -0.89372052749E+01 -0.12694651854E+02 -0.13527516403E+02  0.20591782927E+02  0.51100000000E-03 0.  1.
         12    1    3    3    0    0  0.56061365592E+01 -0.51524016336E+01 -0.80507286985E+01  0.11081075863E+02  0.00000000000E+00 0. -1.
</event>
<event>
 7    1  0.3221417E-010  0.4778727E+02  0.7816164E-02  0.1312668E+00
        -11   -1    0    0    0    0  0.00000000000E+00  0.00000000000E+00  0.45593999997E+02  0.45594000000E+02  0.51100000000E-03 0. -1.
         11   -1    0    0    0    0 -0.00000000000E+00 -0.00000000000E+00 -0.45593999997E+02  0.45594000000E+02  0.51100000000E-03 0.  1.
    9900012    2    1    2    0    0  0.37795896140E+02 -0.42079498853E+01 -0.20913790106E+02  0.47787271620E+02  0.20000002626E+02 0.  0.
         12    1    1    2    0    0 -0.37795896140E+02  0.42079498853E+01  0.20913790106E+02  0.43400728380E+02  0.00000000000E+00 0. -1.
         11    1    3    3    0    0  0.21611887551E+02 -0.39537708793E+01 -0.10100018461E+02  0.24180909016E+02  0.51100000000E-03 0. -1.
        -11    1    3    3    0    0  0.35756492252E+01 -0.59734761090E+01 -0.50939006863E+01  0.86264424110E+01  0.51100000000E-03 0.  1.
         12    1    3    3    0    0  0.12608359364E+02  0.57192971029E+01 -0.57198709587E+01  0.14979920193E+02  0.00000000000E+00 0. -1.
</event>
<event>
 7    1  0.3221417E-010  0.4778728E+02  0.7816164E-02  0.1312668E+00
        -11   -1    0    0    0    0  0.00000000000E+00  0.00000000000E+00  0.45593999997E+02  0.45594000000E+02  0.51100000000E-03 0. -1.
         11   -1    0    0    0    0 -0.00000000000E+00 -0.00000000000E+00 -0.45593999997E+02  0.45594000000E+02  0.51100000000E-03 0.  1.
    9900012    2    1    2    0    0  0.71774908314E+01 -0.34436262436E+02  0.25421452282E+02  0.47787276719E+02  0.20000025871E+02 0.  0.
        -12    1    1    2    0    0 -0.71774908314E+01  0.34436262436E+02 -0.25421452282E+02  0.43400723281E+02  0.00000000000E+00 0.  1.
         11    1    3    3    0    0  0.11107778154E+01 -0.26577616927E+02  0.23699016243E+02  0.35626491828E+02  0.51100000000E-03 0. -1.
        -11    1    3    3    0    0 -0.12519591764E+01 -0.72678930713E+00 -0.77371043839E+00  0.16414178566E+01  0.51100000000E-03 0.  1.
         12    1    3    3    0    0  0.73186721924E+01 -0.71318562026E+01  0.24961464773E+01  0.10519367034E+02  0.00000000000E+00 0. -1.
</event>
<event>
 7    1  0.3221417E-010  0.4778727E+02  0.7816164E-02  0.1312668E+00
        -11   -1    0    0    0    0  0.00000000000E+00  0.00000000000E+00  0.45593999997E+02  0.45594000000E+02  0.51100000000E-03 0. -1.
         11   -1    0    0    0    0 -0.00000000000E+00 -0.00000000000E+00 -0.45593999997E+02  0.45594000000E+02  0.51100000000E-03 0.  1.
    9900012    2    1    2    0    0 -0.82298415978E+00  0.54130427131E+01  0.43053979127E+02  0.47787268981E+02  0.19999990590E+02 0.  0.
        -12    1    1    2    0    0  0.82298415978E+00 -0.54130427131E+01 -0.43053979127E+02  0.43400731019E+02  0.00000000000E+00 0.  1.
         11    1    3    3    0    0 -0.35968996494E+01 -0.72232456583E+00  0.36013472099E+02  0.36199856530E+02  0.51100000000E-03 0. -1.
        -11    1    3    3    0    0 -0.11344531968E+00 -0.39224771633E+00 -0.85277434758E+00  0.94549059251E+00  0.51100000000E-03 0.  1.
         12    1    3    3    0    0  0.28873608093E+01  0.65276149953E+01  0.78932813753E+01  0.10641921858E+02  0.00000000000E+00 0. -1.
</event>
<event>
 7    1  0.3221417E-010  0.4778727E+02  0.7816164E-02  0.1312668E+00
        -11   -1    0    0    0    0  0.00000000000E+00  0.00000000000E+00  0.45593999997E+02  0.45594000000E+02  0.51100000000E-03 0. -1.
         11   -1    0    0    0    0 -0.00000000000E+00 -0.00000000000E+00 -0.45593999997E+02  0.45594000000E+02  0.51100000000E-03 0.  1.
    9900012    2    1    2    0    0 -0.20389198127E+02 -0.38227687123E+01  0.38122043508E+02  0.47787272331E+02  0.20000005868E+02 0.  0.
        -12    1    1    2    0    0  0.20389198127E+02  0.38227687123E+01 -0.38122043508E+02  0.43400727669E+02  0.00000000000E+00 0.  1.
         11    1    3    3    0    0 -0.15533087836E+02 -0.28122614206E+01  0.16166800730E+02  0.22595377361E+02  0.51100000000E-03 0. -1.
        -11    1    3    3    0    0 -0.57111587076E+01  0.36606471367E+01  0.17118633990E+02  0.18413725891E+02  0.51100000000E-03 0.  1.
        -12    1    3    3    0    0  0.85504841618E+00 -0.46711544284E+01  0.48366087889E+01  0.67781690791E+01  0.00000000000E+00 0.  1.
</event>
<event>
 7    1  0.3221417E-010  0.4778727E+02  0.7816164E-02  0.1312668E+00
        -11   -1    0    0    0    0  0.00000000000E+00  0.00000000000E+00  0.45593999997E+02  0.45594000000E+02  0.51100000000E-03 0. -1.
         11   -1    0    0    0    0 -0.00000000000E+00 -0.00000000000E+00 -0.45593999997E+02  0.45594000000E+02  0.51100000000E-03 0.  1.
    9900012    2    1    2    0    0  0.34917969074E+02 -0.23447866672E+01 -0.25668282857E+02  0.47787270356E+02  0.19999996863E+02 0.  0.
         12    1    1    2    0    0 -0.34917969074E+02  0.23447866672E+01  0.25668282857E+02  0.43400729644E+02  0.00000000000E+00 0. -1.
         11    1    3    3    0    0  0.68406428474E+01  0.20090226165E+01 -0.17765971700E+00  0.71317690425E+01  0.51100000000E-03 0. -1.
        -11    1    3    3    0    0  0.68976341291E+01  0.38865529679E+01 -0.24379796385E+01  0.82841049927E+01  0.51100000000E-03 0.  1.
        -12    1    3    3    0    0  0.21179692097E+02 -0.82403622516E+01 -0.23052643502E+02  0.32371396321E+02  0.00000000000E+00 0.  1.
</event>
<event>
 7    1  0.3221417E-010  0.4778727E+02  0.7816164E-02  0.1312668E+00
        -11   -1    0    0    0    0  0.00000000000E+00  0.00000000000E+00  0.45593999997E+02  0.45594000000E+02  0.51100000000E-03 0. -1.
         11   -1    0    0    0    0 -0.00000000000E+00 -0.00000000000E+00 -0.45593999997E+02  0.45594000000E+02  0.51100000000E-03 0.  1.
    9900012    2    1    2    0    0  0.38525848895E+02  0.19160385378E+02 -0.56799236883E+01  0.47787274960E+02  0.20000017851E+02 0.  0.
         12    1    1    2    0    0 -0.38525848895E+02 -0.19160385378E+02  0.56799236883E+01  0.43400725040E+02  0.00000000000E+00 0. -1.
         11    1    3    3    0    0  0.19668637769E+02  0.62989284994E+01  0.80787308162E+00  0.20668441430E+02  0.51100000000E-03 0. -1.
        -11    1    3    3    0    0  0.78456333310E+01  0.11549099804E+02  0.57055406451E+00  0.13973589405E+02  0.51100000000E-03 0.  1.
         12    1    3    3    0    0  0.11011577795E+02  0.13123570744E+01 -0.70583508345E+01  0.13145244126E+02  0.00000000000E+00 0. -1.
</event>
<event>
 7    1  0.3221417E-010  0.4778727E+02  0.7816164E-02  0.1312668E+00
        -11   -1    0    0    0    0  0.00000000000E+00  0.00000000000E+00  0.45593999997E+02  0.45594000000E+02  0.51100000000E-03 0. -1.
         11   -1    0    0    0    0 -0.00000000000E+00 -0.00000000000E+00 -0.45593999997E+02  0.45594000000E+02  0.51100000000E-03 0.  1.
    9900012    2    1    2    0    0  0.32090814177E+02 -0.14348898261E+02 -0.25454111055E+02  0.47787274137E+02  0.20000014101E+02 0.  0.
         12    1    1    2    0    0 -0.32090814177E+02  0.14348898261E+02  0.25454111055E+02  0.43400725863E+02  0.00000000000E+00 0. -1.
         11    1    3    3    0    0  0.29854051255E+01 -0.63877323275E+01 -0.18499273217E+01  0.72895815661E+01  0.51100000000E-03 0.  1.
        -11    1    3    3    0    0  0.13392775700E+02 -0.10462512692E+02 -0.12415672790E+02  0.21047079224E+02  0.51100000000E-03 0. -1.
        -12    1    3    3    0    0  0.15712633351E+02  0.25013467587E+01 -0.11188510943E+02  0.19450613347E+02  0.00000000000E+00 0.  1.
</event>
<event>
 7    1  0.3221417E-010  0.4778727E+02  0.7816164E-02  0.1312668E+00
        -11   -1    0    0    0    0  0.00000000000E+00  0.00000000000E+00  0.45593999997E+02  0.45594000000E+02  0.51100000000E-03 0. -1.
         11   -1    0    0    0    0 -0.00000000000E+00 -0.00000000000E+00 -0.45593999997E+02  0.45594000000E+02  0.51100000000E-03 0.  1.
    9900012    2    1    2    0    0  0.35423068097E+01 -0.94746636561E+01 -0.42205523174E+02  0.47787269875E+02  0.19999994669E+02 0.  0.
         12    1    1    2    0    0 -0.35423068097E+01  0.94746636561E+01  0.42205523174E+02  0.43400730125E+02  0.00000000000E+00 0. -1.
         11    1    3    3    0    0  0.87090891465E+01 -0.86007586980E+01 -0.38356780164E+02  0.40262437441E+02  0.51100000000E-03 0.  1.
        -11    1    3    3    0    0 -0.33268981731E+01 -0.23589721336E+01 -0.27402120908E+01  0.49134268637E+01  0.51100000000E-03 0. -1.
        -12    1    3    3    0    0 -0.18398841637E+01  0.14850671755E+01 -0.11085309201E+01  0.26114055702E+01  0.00000000000E+00 0.  1.
</event>
<event>
 7    1  0.3221417E-010  0.4778727E+02  0.7816164E-02  0.1312668E+00
        -11   -1    0    0    0    0  0.00000000000E+00  0.00000000000E+00  0.45593999997E+02  0.45594000000E+02  0.51100000000E-03 0. -1.
         11   -1    0    0    0    0 -0.00000000000E+00 -0.00000000000E+00 -0.45593999997E+02  0.45594000000E+02  0.51100000000E-03 0.  1.
    9900012    2    1    2    0    0  0.17768533479E+02 -0.99665911991E+01  0.38321918064E+02  0.47787272746E+02  0.20000007756E+02 0.  0.
        -12    1    1    2    0    0 -0.17768533479E+02  0.99665911991E+01 -0.38321918064E+02  0.43400727254E+02  0.00000000000E+00 0.  1.
         11    1    3    3    0    0  0.13470201513E+02 -0.23879999707E+01  0.18052245689E+02  0.22650219587E+02  0.51100000000E-03 0. -1.
        -11    1    3    3    0    0  0.19454386898E+01 -0.19983395934E+01  0.18664778792E+02  0.18871991428E+02  0.51100000000E-03 0.  1.
        -12    1    3    3    0    0  0.23528932756E+01 -0.55802516350E+01  0.16048935826E+01  0.62650617305E+01  0.00000000000E+00 0.  1.
</event>
<event>
 7    1  0.3221417E-010  0.4778727E+02  0.7816164E-02  0.1312668E+00
        -11   -1    0    0    0    0  0.00000000000E+00  0.00000000000E+00  0.45593999997E+02  0.45594000000E+02  0.51100000000E-03 0. -1.
         11   -1    0    0    0    0 -0.00000000000E+00 -0.00000000000E+00 -0.45593999997E+02  0.45594000000E+02  0.51100000000E-03 0.  1.
    9900012    2    1    2    0    0  0.78322558490E-01 -0.11071886187E+02 -0.41964635558E+02  0.47787269181E+02  0.19999991502E+02 0.  0.
         12    1    1    2    0    0 -0.78322558490E-01  0.11071886187E+02  0.41964635558E+02  0.43400730819E+02  0.00000000000E+00 0. -1.
         11    1    3    3    0    0 -0.86878018517E+00 -0.75723731215E+01 -0.95378584646E+01  0.12209273445E+02  0.51100000000E-03 0. -1.
        -11    1    3    3    0    0 -0.10072046176E+01 -0.88495973737E+01 -0.18538676101E+02  0.20567263957E+02  0.51100000000E-03 0.  1.
         12    1    3    3    0    0  0.19543073612E+01  0.53500843085E+01 -0.13888100992E+02  0.15010731779E+02  0.00000000000E+00 0. -1.
</event>
<event>
 7    1  0.3221417E-010  0.4778727E+02  0.7816164E-02  0.1312668E+00
        -11   -1    0    0    0    0  0.00000000000E+00  0.00000000000E+00  0.45593999997E+02  0.45594000000E+02  0.51100000000E-03 0. -1.
         11   -1    0    0    0    0 -0.00000000000E+00 -0.00000000000E+00 -0.45593999997E+02  0.45594000000E+02  0.51100000000E-03 0.  1.
    9900012    2    1    2    0    0 -0.79546950617E+01 -0.17115665008E+02 -0.39081967186E+02  0.47787270498E+02  0.19999997510E+02 0.  0.
         12    1    1    2    0    0  0.79546950617E+01  0.17115665008E+02  0.39081967186E+02  0.43400729502E+02  0.00000000000E+00 0. -1.
         11    1    3    3    0    0 -0.85242793418E+01 -0.13021489163E+02 -0.28196678220E+02  0.32206756764E+02  0.51100000000E-03 0. -1.
        -11    1    3    3    0    0  0.34195265249E+01 -0.45729853644E+01 -0.11300236522E+02  0.12660991371E+02  0.51100000000E-03 0.  1.
         12    1    3    3    0    0 -0.28499422448E+01  0.47880951946E+00  0.41494755629E+00  0.29195223632E+01  0.00000000000E+00 0. -1.
</event>
<event>
 7    1  0.3221417E-010  0.4778728E+02  0.7816164E-02  0.1312668E+00
        -11   -1    0    0    0    0  0.00000000000E+00  0.00000000000E+00  0.45593999997E+02  0.45594000000E+02  0.51100000000E-03 0. -1.
         11   -1    0    0    0    0 -0.00000000000E+00 -0.00000000000E+00 -0.45593999997E+02  0.45594000000E+02  0.51100000000E-03 0.  1.
    9900012    2    1    2    0    0  0.68953229277E+01 -0.14744780105E+02  0.40232684035E+02  0.47787275544E+02  0.20000020517E+02 0.  0.
        -12    1    1    2    0    0 -0.68953229277E+01  0.14744780105E+02 -0.40232684035E+02  0.43400724456E+02  0.00000000000E+00 0.  1.
         11    1    3    3    0    0  0.10976333402E+02 -0.77048926688E+01  0.28923919999E+02  0.31881631300E+02  0.51100000000E-03 0. -1.
        -11    1    3    3    0    0 -0.12939448182E+01 -0.18928032892E+01 -0.82270420509E+00  0.24359474449E+01  0.51100000000E-03 0.  1.
         12    1    3    3    0    0 -0.27870656557E+01 -0.51470841469E+01  0.12131468242E+02  0.13469696800E+02  0.00000000000E+00 0. -1.
</event>
<event>
 7    1  0.3221417E-010  0.4778727E+02  0.7816164E-02  0.1312668E+00
        -11   -1    0    0    0    0  0.00000000000E+00  0.00000000000E+00  0.45593999997E+02  0.45594000000E+02  0.51100000000E-03 0. -1.
         11   -1    0    0    0    0 -0.00000000000E+00 -0.00000000000E+00 -0.45593999997E+02  0.45594000000E+02  0.51100000000E-03 0.  1.
    9900012    2    1    2    0    0 -0.27857703298E+02  0.94733281193E+01  0.31903411523E+02  0.47787271371E+02  0.20000001491E+02 0.  0.
        -12    1    1    2    0    0  0.27857703298E+02 -0.94733281193E+01 -0.31903411523E+02  0.43400728629E+02  0.00000000000E+00 0.  1.
         11    1    3    3    0    0 -0.16701047926E+01  0.48248796381E+01  0.35311958814E+01  0.62079028789E+01  0.51100000000E-03 0. -1.
        -11    1    3    3    0    0 -0.13895487554E+02 -0.18646663460E+01  0.60332117966E+01  0.15263066526E+02  0.51100000000E-03 0.  1.
         12    1    3    3    0    0 -0.12292110951E+02  0.65131148272E+01  0.22339003845E+02  0.26316301967E+02  0.00000000000E+00 0. -1.
</event>
<event>
 7    1  0.3221417E-010  0.4778728E+02  0.7816164E-02  0.1312668E+00
        -11   -1    0    0    0    0  0.00000000000E+00  0.00000000000E+00  0.45593999997E+02  0.45594000000E+02  0.51100000000E-03 0. -1.
         11   -1    0    0    0    0 -0.00000000000E+00 -0.00000000000E+00 -0.45593999997E+02  0.45594000000E+02  0.51100000000E-03 0.  1.
    9900012    2    1    2    0    0  0.25671227805E+01 -0.29097716659E+02 -0.32099140827E+02  0.47787284846E+02  0.20000062925E+02 0.  0.
         12    1    1    2    0    0 -0.25671227805E+01  0.29097716659E+02  0.32099140827E+02  0.43400715154E+02  0.00000000000E+00 0. -1.
         11    1    3    3    0    0  0.10861276621E+01 -0.13496005745E+01 -0.10468579333E+02  0.10610949464E+02  0.51100000000E-03 0. -1.
        -11    1    3    3    0    0  0.12892973548E+01  0.41312958477E+00 -0.33191884056E+01  0.35846862702E+01  0.51100000000E-03 0.  1.
        -12    1    3    3    0    0  0.19169776364E+00 -0.28161245669E+02 -0.18311373088E+02  0.33591649111E+02  0.00000000000E+00 0.  1.
</event>
<event>
 7    1  0.3497374E-010  0.4778727E+02  0.7816164E-02  0.1312668E+00
        -11   -1    0    0    0    0  0.00000000000E+00  0.00000000000E+00  0.45593999997E+02  0.45594000000E+02  0.51100000000E-03 0. -1.
         11   -1    0    0    0    0 -0.00000000000E+00 -0.00000000000E+00 -0.45593999997E+02  0.45594000000E+02  0.51100000000E-03 0.  1.
    9900012    2    1    2    0    0  0.18848925040E+01  0.12930761093E+02 -0.41386785267E+02  0.47787269627E+02  0.19999993537E+02 0.  0.
         12    1    1    2    0    0 -0.18848925040E+01 -0.12930761093E+02  0.41386785267E+02  0.43400730373E+02  0.00000000000E+00 0. -1.
         11    1    3    3    0    0  0.22210575572E+01 -0.94126042437E+00 -0.15012140189E+02  0.15204717070E+02  0.51100000000E-03 0. -1.
        -11    1    3    3    0    0  0.35479655501E+01  0.14394767890E+02 -0.23229992192E+02  0.27557756433E+02  0.51100000000E-03 0.  1.
         12    1    3    3    0    0 -0.38841306033E+01 -0.52274637204E+00 -0.31446528863E+01  0.50247961241E+01  0.00000000000E+00 0. -1.
</event>
<event>
 7    1  0.3221417E-010  0.4778728E+02  0.7816164E-02  0.1312668E+00
        -11   -1    0    0    0    0  0.00000000000E+00  0.00000000000E+00  0.45593999997E+02  0.45594000000E+02  0.51100000000E-03 0. -1.
         11   -1    0    0    0    0 -0.00000000000E+00 -0.00000000000E+00 -0.45593999997E+02  0.45594000000E+02  0.51100000000E-03 0.  1.
    9900012    2    1    2    0    0  0.16980676189E+01 -0.10456196802E+02  0.42088084163E+02  0.47787282106E+02  0.20000050435E+02 0.  0.
        -12    1    1    2    0    0 -0.16980676189E+01  0.10456196802E+02 -0.42088084163E+02  0.43400717894E+02  0.00000000000E+00 0.  1.
         11    1    3    3    0    0 -0.42913859861E+00 -0.33049078772E+01  0.31475314774E+02  0.31651256158E+02  0.51100000000E-03 0. -1.
        -11    1    3    3    0    0 -0.49137839742E+00 -0.82721627410E+01  0.10374312573E+02  0.13277668876E+02  0.51100000000E-03 0.  1.
        -12    1    3    3    0    0  0.26185846149E+01  0.11208738165E+01  0.23845681547E+00  0.28583570720E+01  0.00000000000E+00 0.  1.
</event>
<event>
 7    1  0.3221417E-010  0.4778727E+02  0.7816164E-02  0.1312668E+00
        -11   -1    0    0    0    0  0.00000000000E+00  0.00000000000E+00  0.45593999997E+02  0.45594000000E+02  0.51100000000E-03 0. -1.
         11   -1    0    0    0    0 -0.00000000000E+00 -0.00000000000E+00 -0.45593999997E+02  0.45594000000E+02  0.51100000000E-03 0.  1.
    9900012    2    1    2    0    0 -0.19603688208E+02  0.65187521843E+01  0.38168368969E+02  0.47787272919E+02  0.20000008548E+02 0.  0.
        -12    1    1    2    0    0  0.19603688208E+02 -0.65187521843E+01 -0.38168368969E+02  0.43400727081E+02  0.00000000000E+00 0.  1.
         11    1    3    3    0    0 -0.16052209782E+02  0.60618922106E+01  0.16180011728E+02  0.23584163242E+02  0.51100000000E-03 0. -1.
        -11    1    3    3    0    0 -0.61703852560E+01  0.24917657520E+00  0.19932454372E+02  0.20867162738E+02  0.51100000000E-03 0.  1.
        -12    1    3    3    0    0  0.26189068295E+01  0.20768339846E+00  0.20559028689E+01  0.33359469394E+01  0.00000000000E+00 0.  1.
</event>
<event>
 7    1  0.3221417E-010  0.4778727E+02  0.7816164E-02  0.1312668E+00
        -11   -1    0    0    0    0  0.00000000000E+00  0.00000000000E+00  0.45593999997E+02  0.45594000000E+02  0.51100000000E-03 0. -1.
         11   -1    0    0    0    0 -0.00000000000E+00 -0.00000000000E+00 -0.45593999997E+02  0.45594000000E+02  0.51100000000E-03 0.  1.
    9900012    2    1    2    0    0  0.40343356056E+02 -0.15903757904E+02  0.17627570083E+01  0.47787271831E+02  0.20000003588E+02 0.  0.
         12    1    1    2    0    0 -0.40343356056E+02  0.15903757904E+02 -0.17627570083E+01  0.43400728169E+02  0.00000000000E+00 0. -1.
         11    1    3    3    0    0  0.51786787953E+01 -0.41324208407E+01 -0.62781337068E+01  0.91274629098E+01  0.51100000000E-03 0. -1.
        -11    1    3    3    0    0  0.10917304958E+02 -0.13918328911E+00  0.21015881988E+01  0.11118614696E+02  0.51100000000E-03 0.  1.
         12    1    3    3    0    0  0.24247372303E+02 -0.11632153774E+02  0.59393025163E+01  0.27541194226E+02  0.00000000000E+00 0. -1.
</event>
<event>
 7    1  0.3221417E-010  0.4778727E+02  0.7816164E-02  0.1312668E+00
        -11   -1    0    0    0    0  0.00000000000E+00  0.00000000000E+00  0.45593999997E+02  0.45594000000E+02  0.51100000000E-03 0. -1.
         11   -1    0    0    0    0 -0.00000000000E+00 -0.00000000000E+00 -0.45593999997E+02  0.45594000000E+02  0.51100000000E-03 0.  1.
    9900012    2    1    2    0    0 -0.12254826862E+02 -0.35967299277E+02 -0.20971312714E+02  0.47787270103E+02  0.19999995707E+02 0.  0.
         12    1    1    2    0    0  0.12254826862E+02  0.35967299277E+02  0.20971312714E+02  0.43400729897E+02  0.00000000000E+00 0. -1.
         11    1    3    3    0    0  0.44255840940E+01 -0.29729271955E+01 -0.20753874925E+01  0.57211296252E+01  0.51100000000E-03 0. -1.
        -11    1    3    3    0    0 -0.59953191475E+01 -0.18039903225E+02 -0.11738090736E+02  0.22341994862E+02  0.51100000000E-03 0.  1.
        -12    1    3    3    0    0 -0.10685091809E+02 -0.14954468856E+02 -0.71578344853E+01  0.19724145615E+02  0.00000000000E+00 0.  1.
</event>
<event>
 7    1  0.3221417E-010  0.4778727E+02  0.7816164E-02  0.1312668E+00
        -11   -1    0    0    0    0  0.00000000000E+00  0.00000000000E+00  0.45593999997E+02  0.45594000000E+02  0.51100000000E-03 0. -1.
         11   -1    0    0    0    0 -0.00000000000E+00 -0.00000000000E+00 -0.45593999997E+02  0.45594000000E+02  0.51100000000E-03 0.  1.
    9900012    2    1    2    0    0  0.10510758892E+02  0.23536531013E+02  0.34916742240E+02  0.47787271512E+02  0.20000002133E+02 0.  0.
        -12    1    1    2    0    0 -0.10510758892E+02 -0.23536531013E+02 -0.34916742240E+02  0.43400728488E+02  0.00000000000E+00 0.  1.
         11    1    3    3    0    0 -0.40454627373E+00  0.98422859210E+01  0.11486653334E+02  0.15132001022E+02  0.51100000000E-03 0. -1.
        -11    1    3    3    0    0  0.45034034392E+01  0.22750219667E+01 -0.80382401917E+00  0.51090606573E+01  0.51100000000E-03 0.  1.
         12    1    3    3    0    0  0.64119017263E+01  0.11419223125E+02  0.24233912925E+02  0.27546209833E+02  0.00000000000E+00 0. -1.
</event>
<event>
 7    1  0.3221417E-010  0.4778727E+02  0.7816164E-02  0.1312668E+00
        -11   -1    0    0    0    0  0.00000000000E+00  0.00000000000E+00  0.45593999997E+02  0.45594000000E+02  0.51100000000E-03 0. -1.
         11   -1    0    0    0    0 -0.00000000000E+00 -0.00000000000E+00 -0.45593999997E+02  0.45594000000E+02  0.51100000000E-03 0.  1.
    9900012    2    1    2    0    0 -0.12822752968E+02 -0.10295008212E+02 -0.40164823337E+02  0.47787271648E+02  0.20000002752E+02 0.  0.
         12    1    1    2    0    0  0.12822752968E+02  0.10295008212E+02  0.40164823337E+02  0.43400728352E+02  0.00000000000E+00 0. -1.
         11    1    3    3    0    0 -0.52894126796E+01  0.26741265713E+01 -0.20164383709E+02  0.21017402552E+02  0.51100000000E-03 0. -1.
        -11    1    3    3    0    0  0.72769366049E+00 -0.59705049401E+01 -0.11598172766E+02  0.13064994415E+02  0.51100000000E-03 0.  1.
         12    1    3    3    0    0 -0.82610339487E+01 -0.69986298430E+01 -0.84022668625E+01  0.13704874681E+02  0.00000000000E+00 0. -1.
</event>
<event>
 7    1  0.3221417E-010  0.4778727E+02  0.7816164E-02  0.1312668E+00
        -11   -1    0    0    0    0  0.00000000000E+00  0.00000000000E+00  0.45593999997E+02  0.45594000000E+02  0.51100000000E-03 0. -1.
         11   -1    0    0    0    0 -0.00000000000E+00 -0.00000000000E+00 -0.45593999997E+02  0.45594000000E+02  0.51100000000E-03 0.  1.
    9900012    2    1    2    0    0  0.12846320146E+02 -0.92133807180E+01  0.40419163418E+02  0.47787273082E+02  0.20000009292E+02 0.  0.
        -12    1    1    2    0    0 -0.12846320146E+02  0.92133807180E+01 -0.40419163418E+02  0.43400726918E+02  0.00000000000E+00 0.  1.
         11    1    3    3    0    0  0.71560802116E+01 -0.11238406691E+02  0.19936380611E+02  0.23978543347E+02  0.51100000000E-03 0. -1.
        -11    1    3    3    0    0  0.80562497135E+01  0.10363409579E+01  0.93546468412E+01  0.12388970087E+02  0.51100000000E-03 0.  1.
         12    1    3    3    0    0 -0.23660097789E+01  0.98868501530E+00  0.11128135967E+02  0.11419759648E+02  0.00000000000E+00 0. -1.
</event>
<event>
 7    1  0.3221417E-010  0.4778728E+02  0.7816164E-02  0.1312668E+00
        -11   -1    0    0    0    0  0.00000000000E+00  0.00000000000E+00  0.45593999997E+02  0.45594000000E+02  0.51100000000E-03 0. -1.
         11   -1    0    0    0    0 -0.00000000000E+00 -0.00000000000E+00 -0.45593999997E+02  0.45594000000E+02  0.51100000000E-03 0.  1.
    9900012    2    1    2    0    0  0.29284917531E+02 -0.13694463030E+01  0.32002204580E+02  0.47787275628E+02  0.20000020900E+02 0.  0.
        -12    1    1    2    0    0 -0.29284917531E+02  0.13694463030E+01 -0.32002204580E+02  0.43400724372E+02  0.00000000000E+00 0.  1.
         11    1    3    3    0    0  0.85092463921E+01 -0.14601721591E+01  0.28191539004E+01  0.90822357309E+01  0.51100000000E-03 0. -1.
        -11    1    3    3    0    0  0.66356518161E+00 -0.25471966300E+01  0.11492723207E+02  0.11790301794E+02  0.51100000000E-03 0.  1.
        -12    1    3    3    0    0  0.20112105957E+02  0.26379224861E+01  0.17690327473E+02  0.26914738104E+02  0.00000000000E+00 0.  1.
</event>
<event>
 7    1  0.3221417E-010  0.4778726E+02  0.7816164E-02  0.1312668E+00
        -11   -1    0    0    0    0  0.00000000000E+00  0.00000000000E+00  0.45593999997E+02  0.45594000000E+02  0.51100000000E-03 0. -1.
         11   -1    0    0    0    0 -0.00000000000E+00 -0.00000000000E+00 -0.45593999997E+02  0.45594000000E+02  0.51100000000E-03 0.  1.
    9900012    2    1    2    0    0 -0.16406701445E+02  0.25165621086E+02  0.31323083005E+02  0.47787264224E+02  0.19999968904E+02 0.  0.
        -12    1    1    2    0    0  0.16406701445E+02 -0.25165621086E+02 -0.31323083005E+02  0.43400735776E+02  0.00000000000E+00 0.  1.
         11    1    3    3    0    0 -0.18433264823E+01 -0.33259394859E+01  0.42415899696E+01  0.56965613940E+01  0.51100000000E-03 0. -1.
        -11    1    3    3    0    0 -0.61314298431E+01  0.13889533389E+02  0.10638851386E+02  0.18539113484E+02  0.51100000000E-03 0.  1.
         12    1    3    3    0    0 -0.84319451194E+01  0.14602027183E+02  0.16442641649E+02  0.23551589346E+02  0.00000000000E+00 0. -1.
</event>
<event>
 7    1  0.3221417E-010  0.4778727E+02  0.7816164E-02  0.1312668E+00
        -11   -1    0    0    0    0  0.00000000000E+00  0.00000000000E+00  0.45593999997E+02  0.45594000000E+02  0.51100000000E-03 0. -1.
         11   -1    0    0    0    0 -0.00000000000E+00 -0.00000000000E+00 -0.45593999997E+02  0.45594000000E+02  0.51100000000E-03 0.  1.
    9900012    2    1    2    0    0  0.11506402240E+02  0.13795952952E+02 -0.39508202928E+02  0.47787266032E+02  0.19999977148E+02 0.  0.
         12    1    1    2    0    0 -0.11506402240E+02 -0.13795952952E+02  0.39508202928E+02  0.43400733968E+02  0.00000000000E+00 0. -1.
         11    1    3    3    0    0  0.14440419935E+01 -0.11489173368E+01 -0.29831918842E+01  0.35078059246E+01  0.51100000000E-03 0. -1.
        -11    1    3    3    0    0 -0.41685874547E+01  0.44162696711E+01 -0.16337768679E+02  0.17429952520E+02  0.51100000000E-03 0.  1.
        -12    1    3    3    0    0  0.14230947701E+02  0.10528600618E+02 -0.20187242365E+02  0.26849507588E+02  0.00000000000E+00 0.  1.
</event>
<event>
 7    1  0.3221417E-010  0.4778727E+02  0.7816164E-02  0.1312668E+00
        -11   -1    0    0    0    0  0.00000000000E+00  0.00000000000E+00  0.45593999997E+02  0.45594000000E+02  0.51100000000E-03 0. -1.
         11   -1    0    0    0    0 -0.00000000000E+00 -0.00000000000E+00 -0.45593999997E+02  0.45594000000E+02  0.51100000000E-03 0.  1.
    9900012    2    1    2    0    0 -0.16339978667E+02 -0.21776403592E+02  0.33799649910E+02  0.47787274312E+02  0.20000014898E+02 0.  0.
        -12    1    1    2    0    0  0.16339978667E+02  0.21776403592E+02 -0.33799649910E+02  0.43400725688E+02  0.00000000000E+00 0.  1.
         11    1    3    3    0    0 -0.77602925567E+01 -0.17834803606E+02  0.23045323201E+02  0.30156082005E+02  0.51100000000E-03 0. -1.
        -11    1    3    3    0    0 -0.51099366722E+01 -0.19264379930E+00  0.11388418303E+02  0.12483774915E+02  0.51100000000E-03 0.  1.
         12    1    3    3    0    0 -0.34697494377E+01 -0.37489561867E+01 -0.63409159395E+00  0.51474173912E+01  0.00000000000E+00 0. -1.
</event>
<event>
 7    1  0.3221417E-010  0.4778727E+02  0.7816164E-02  0.1312668E+00
        -11   -1    0    0    0    0  0.00000000000E+00  0.00000000000E+00  0.45593999997E+02  0.45594000000E+02  0.51100000000E-03 0. -1.
         11   -1    0    0    0    0 -0.00000000000E+00 -0.00000000000E+00 -0.45593999997E+02  0.45594000000E+02  0.51100000000E-03 0.  1.
    9900012    2    1    2    0    0 -0.36287775004E+02  0.15872239603E+02 -0.17745214165E+02  0.47787271543E+02  0.20000002275E+02 0.  0.
         12    1    1    2    0    0  0.36287775004E+02 -0.15872239603E+02  0.17745214165E+02  0.43400728457E+02  0.00000000000E+00 0. -1.
         11    1    3    3    0    0  0.37012880321E+00 -0.91051811243E+00 -0.11996498858E+01  0.15508702956E+01  0.51100000000E-03 0. -1.
        -11    1    3    3    0    0 -0.33907096258E+02  0.93908933706E+01 -0.12248034996E+02  0.37254454988E+02  0.51100000000E-03 0.  1.
        -12    1    3    3    0    0 -0.27508075499E+01  0.73918643452E+01 -0.42975292834E+01  0.89819462599E+01  0.00000000000E+00 0.  1.
</event>
<event>
 7    1  0.3221417E-010  0.4778727E+02  0.7816164E-02  0.1312668E+00
        -11   -1    0    0    0    0  0.00000000000E+00  0.00000000000E+00  0.45593999997E+02  0.45594000000E+02  0.51100000000E-03 0. -1.
         11   -1    0    0    0    0 -0.00000000000E+00 -0.00000000000E+00 -0.45593999997E+02  0.45594000000E+02  0.51100000000E-03 0.  1.
    9900012    2    1    2    0    0 -0.36449639145E+02  0.14734335550E+02  0.18383318539E+02  0.47787271453E+02  0.20000001862E+02 0.  0.
        -12    1    1    2    0    0  0.36449639145E+02 -0.14734335550E+02 -0.18383318539E+02  0.43400728547E+02  0.00000000000E+00 0.  1.
         11    1    3    3    0    0 -0.58981844868E+01  0.29458852363E+01 -0.86924332812E+00  0.66499928038E+01  0.51100000000E-03 0. -1.
        -11    1    3    3    0    0 -0.60734267255E+01  0.16382181619E+01  0.12183361610E+02  0.13711475899E+02  0.51100000000E-03 0.  1.
         12    1    3    3    0    0 -0.24478027933E+02  0.10150232152E+02  0.70692002568E+01  0.27425802750E+02  0.00000000000E+00 0. -1.
</event>
<event>
 7    1  0.3221417E-010  0.4778727E+02  0.7816164E-02  0.1312668E+00
        -11   -1    0    0    0    0  0.00000000000E+00  0.00000000000E+00  0.45593999997E+02  0.45594000000E+02  0.51100000000E-03 0. -1.
         11   -1    0    0    0    0 -0.00000000000E+00 -0.00000000000E+00 -0.45593999997E+02  0.45594000000E+02  0.51100000000E-03 0.  1.
    9900012    2    1    2    0    0 -0.28476681207E+02  0.38830577454E+00 -0.32749821807E+02  0.47787274403E+02  0.20000015312E+02 0.  0.
         12    1    1    2    0    0  0.28476681207E+02 -0.38830577454E+00  0.32749821807E+02  0.43400725597E+02  0.00000000000E+00 0. -1.
         11    1    3    3    0    0 -0.47976990289E-02  0.66335330323E-01 -0.75756532930E+01  0.75759452526E+01  0.51100000000E-03 0. -1.
        -11    1    3    3    0    0 -0.82763741516E+01  0.61620892175E+01 -0.77110900380E+01  0.12881406075E+02  0.51100000000E-03 0.  1.
        -12    1    3    3    0    0 -0.20195509356E+02 -0.58401187733E+01 -0.17463078477E+02  0.27329923076E+02  0.00000000000E+00 0.  1.
</event>
<event>
 7    1  0.3221417E-010  0.4778727E+02  0.7816164E-02  0.1312668E+00
        -11   -1    0    0    0    0  0.00000000000E+00  0.00000000000E+00  0.45593999997E+02  0.45594000000E+02  0.51100000000E-03 0. -1.
         11   -1    0    0    0    0 -0.00000000000E+00 -0.00000000000E+00 -0.45593999997E+02  0.45594000000E+02  0.51100000000E-03 0.  1.
    9900012    2    1    2    0    0  0.37686896088E+02 -0.10298531988E+02 -0.18901358102E+02  0.47787271481E+02  0.20000001991E+02 0.  0.
         12    1    1    2    0    0 -0.37686896088E+02  0.10298531988E+02  0.18901358102E+02  0.43400728519E+02  0.00000000000E+00 0. -1.
         11    1    3    3    0    0  0.11256391753E+02 -0.66294422561E+00  0.11849587425E+01  0.11337988262E+02  0.51100000000E-03 0.  1.
        -11    1    3    3    0    0  0.29853579240E+01  0.87329495963E+00 -0.69037447291E+01  0.75720999443E+01  0.51100000000E-03 0. -1.
        -12    1    3    3    0    0  0.23445146411E+02 -0.10508882722E+02 -0.13182572116E+02  0.28877183275E+02  0.00000000000E+00 0.  1.
</event>
<event>
 7    1  0.3221417E-010  0.4778728E+02  0.7816164E-02  0.1312668E+00
        -11   -1    0    0    0    0  0.00000000000E+00  0.00000000000E+00  0.45593999997E+02  0.45594000000E+02  0.51100000000E-03 0.  1.
         11   -1    0    0    0    0 -0.00000000000E+00 -0.00000000000E+00 -0.45593999997E+02  0.45594000000E+02  0.51100000000E-03 0. -1.
    9900012    2    1    2    0    0 -0.31064556859E+02 -0.24686064491E+02  0.17584492401E+02  0.47787275976E+02  0.20000022483E+02 0.  0.
         12    1    1    2    0    0  0.31064556859E+02  0.24686064491E+02 -0.17584492401E+02  0.43400724024E+02  0.00000000000E+00 0. -1.
         11    1    3    3    0    0 -0.20395759868E+02 -0.23014864997E+02  0.16718657757E+02  0.35002636313E+02  0.51100000000E-03 0.  1.
        -11    1    3    3    0    0  0.28576221268E+00  0.62587597862E-01 -0.14291385864E+01  0.14587716099E+01  0.51100000000E-03 0. -1.
        -12    1    3    3    0    0 -0.10954559203E+02 -0.17337870914E+01  0.22949732304E+01  0.11325868052E+02  0.00000000000E+00 0.  1.
</event>
<event>
 7    1  0.3221417E-010  0.4778726E+02  0.7816164E-02  0.1312668E+00
        -11   -1    0    0    0    0  0.00000000000E+00  0.00000000000E+00  0.45593999997E+02  0.45594000000E+02  0.51100000000E-03 0. -1.
         11   -1    0    0    0    0 -0.00000000000E+00 -0.00000000000E+00 -0.45593999997E+02  0.45594000000E+02  0.51100000000E-03 0.  1.
    9900012    2    1    2    0    0 -0.20869506906E+01 -0.24668196223E+02 -0.35647562305E+02  0.47787263067E+02  0.19999963626E+02 0.  0.
         12    1    1    2    0    0  0.20869506906E+01  0.24668196223E+02  0.35647562305E+02  0.43400736933E+02  0.00000000000E+00 0. -1.
         11    1    3    3    0    0  0.44805280558E+01 -0.42618071422E+01 -0.19847603632E+01  0.64944134251E+01  0.51100000000E-03 0. -1.
        -11    1    3    3    0    0 -0.66382961275E+00 -0.12295376441E+02 -0.11008937454E+02  0.16517071645E+02  0.51100000000E-03 0.  1.
        -12    1    3    3    0    0 -0.59036491336E+01 -0.81110126400E+01 -0.22653864487E+02  0.24775777997E+02  0.00000000000E+00 0.  1.
</event>
<event>
 7    1  0.3221417E-010  0.4778726E+02  0.7816164E-02  0.1312668E+00
        -11   -1    0    0    0    0  0.00000000000E+00  0.00000000000E+00  0.45593999997E+02  0.45594000000E+02  0.51100000000E-03 0. -1.
         11   -1    0    0    0    0 -0.00000000000E+00 -0.00000000000E+00 -0.45593999997E+02  0.45594000000E+02  0.51100000000E-03 0.  1.
    9900012    2    1    2    0    0  0.11129993800E+02 -0.16089692968E+02 -0.38741049974E+02  0.47787263429E+02  0.19999965280E+02 0.  0.
         12    1    1    2    0    0 -0.11129993800E+02  0.16089692968E+02  0.38741049974E+02  0.43400736571E+02  0.00000000000E+00 0. -1.
         11    1    3    3    0    0  0.79597474561E+01 -0.12177752352E+02 -0.25200236477E+02  0.29098232776E+02  0.51100000000E-03 0. -1.
        -11    1    3    3    0    0  0.55329319454E+01 -0.69680984595E+01 -0.10566368705E+02  0.13813612125E+02  0.51100000000E-03 0.  1.
         12    1    3    3    0    0 -0.23626856017E+01  0.30561578433E+01 -0.29744447914E+01  0.48754185290E+01  0.00000000000E+00 0. -1.
</event>
<event>
 7    1  0.3221417E-010  0.4778727E+02  0.7816164E-02  0.1312668E+00
        -11   -1    0    0    0    0  0.00000000000E+00  0.00000000000E+00  0.45593999997E+02  0.45594000000E+02  0.51100000000E-03 0. -1.
         11   -1    0    0    0    0 -0.00000000000E+00 -0.00000000000E+00 -0.45593999997E+02  0.45594000000E+02  0.51100000000E-03 0.  1.
    9900012    2    1    2    0    0 -0.33842036813E+02 -0.10272980945E+01  0.27152985677E+02  0.47787269267E+02  0.19999991895E+02 0.  0.
        -12    1    1    2    0    0  0.33842036813E+02  0.10272980945E+01 -0.27152985677E+02  0.43400730733E+02  0.00000000000E+00 0.  1.
         11    1    3    3    0    0 -0.16069427922E+02 -0.71611932060E+01  0.15055667361E+02  0.23155611023E+02  0.51100000000E-03 0. -1.
        -11    1    3    3    0    0 -0.13017891804E+01  0.29038825863E+01  0.59671466428E+01  0.67626938761E+01  0.51100000000E-03 0.  1.
        -12    1    3    3    0    0 -0.16470819710E+02  0.32300125252E+01  0.61301716726E+01  0.17868964368E+02  0.00000000000E+00 0.  1.
</event>
<event>
 7    1  0.3221417E-010  0.4778727E+02  0.7816164E-02  0.1312668E+00
        -11   -1    0    0    0    0  0.00000000000E+00  0.00000000000E+00  0.45593999997E+02  0.45594000000E+02  0.51100000000E-03 0. -1.
         11   -1    0    0    0    0 -0.00000000000E+00 -0.00000000000E+00 -0.45593999997E+02  0.45594000000E+02  0.51100000000E-03 0.  1.
    9900012    2    1    2    0    0 -0.24405392687E+02 -0.12430860393E+02  0.33667105156E+02  0.47787268993E+02  0.19999990648E+02 0.  0.
        -12    1    1    2    0    0  0.24405392687E+02  0.12430860393E+02 -0.33667105156E+02  0.43400731007E+02  0.00000000000E+00 0.  1.
         11    1    3    3    0    0 -0.11643260566E+01  0.17062138989E+01 -0.93982776000E+00  0.22693826285E+01  0.51100000000E-03 0. -1.
        -11    1    3    3    0    0 -0.64073679312E+01 -0.10378366246E+02  0.16397661193E+02  0.20436441535E+02  0.51100000000E-03 0.  1.
         12    1    3    3    0    0 -0.16833698699E+02 -0.37587080451E+01  0.18209271723E+02  0.25081444830E+02  0.00000000000E+00 0. -1.
</event>
<event>
 7    1  0.3221417E-010  0.4778727E+02  0.7816164E-02  0.1312668E+00
        -11   -1    0    0    0    0  0.00000000000E+00  0.00000000000E+00  0.45593999997E+02  0.45594000000E+02  0.51100000000E-03 0. -1.
         11   -1    0    0    0    0 -0.00000000000E+00 -0.00000000000E+00 -0.45593999997E+02  0.45594000000E+02  0.51100000000E-03 0.  1.
    9900012    2    1    2    0    0  0.14331869442E+02 -0.10821559615E+02  0.39510941947E+02  0.47787272267E+02  0.20000005576E+02 0.  0.
        -12    1    1    2    0    0 -0.14331869442E+02  0.10821559615E+02 -0.39510941947E+02  0.43400727733E+02  0.00000000000E+00 0.  1.
         11    1    3    3    0    0  0.18994095839E+01 -0.99569626846E+00  0.65064611638E+01  0.68507813397E+01  0.51100000000E-03 0. -1.
        -11    1    3    3    0    0  0.97860050992E+01 -0.10685626124E+02  0.96320274793E+01  0.17398978565E+02  0.51100000000E-03 0.  1.
         12    1    3    3    0    0  0.26464547592E+01  0.85976277790E+00  0.23372453303E+02  0.23537512363E+02  0.00000000000E+00 0. -1.
</event>
<event>
 7    1  0.3221417E-010  0.4778727E+02  0.7816164E-02  0.1312668E+00
        -11   -1    0    0    0    0  0.00000000000E+00  0.00000000000E+00  0.45593999997E+02  0.45594000000E+02  0.51100000000E-03 0. -1.
         11   -1    0    0    0    0 -0.00000000000E+00 -0.00000000000E+00 -0.45593999997E+02  0.45594000000E+02  0.51100000000E-03 0.  1.
    9900012    2    1    2    0    0 -0.23261372042E+01 -0.43297086451E+02 -0.18907673325E+01  0.47787267166E+02  0.19999982315E+02 0.  0.
         12    1    1    2    0    0  0.23261372042E+01  0.43297086451E+02  0.18907673325E+01  0.43400732834E+02  0.00000000000E+00 0. -1.
         11    1    3    3    0    0  0.28952275020E+01 -0.10758374136E+02  0.23848041968E+01  0.11393517791E+02  0.51100000000E-03 0. -1.
        -11    1    3    3    0    0 -0.82242747085E+01 -0.31690111308E+02 -0.51745901496E+01  0.33146315521E+02  0.51100000000E-03 0.  1.
        -12    1    3    3    0    0  0.30029100023E+01 -0.84860100767E+00  0.89901862025E+00  0.32474338534E+01  0.00000000000E+00 0.  1.
</event>
<event>
 7    1  0.3221417E-010  0.4778727E+02  0.7816164E-02  0.1312668E+00
        -11   -1    0    0    0    0  0.00000000000E+00  0.00000000000E+00  0.45593999997E+02  0.45594000000E+02  0.51100000000E-03 0. -1.
         11   -1    0    0    0    0 -0.00000000000E+00 -0.00000000000E+00 -0.45593999997E+02  0.45594000000E+02  0.51100000000E-03 0.  1.
    9900012    2    1    2    0    0 -0.62843179085E+01 -0.10081245942E+02  0.41743251634E+02  0.47787271570E+02  0.20000002396E+02 0.  0.
        -12    1    1    2    0    0  0.62843179085E+01  0.10081245942E+02 -0.41743251634E+02  0.43400728430E+02  0.00000000000E+00 0.  1.
         11    1    3    3    0    0 -0.12542927163E+02 -0.37863160371E+01  0.25867209880E+02  0.28996099017E+02  0.51100000000E-03 0. -1.
        -11    1    3    3    0    0 -0.21031907336E+00  0.24175777603E+00 -0.11814856096E+00  0.34152639498E+00  0.51100000000E-03 0.  1.
         12    1    3    3    0    0  0.64689283281E+01 -0.65366876806E+01  0.15994190314E+02  0.18449646158E+02  0.00000000000E+00 0. -1.
</event>
<event>
 7    1  0.3221417E-010  0.4778727E+02  0.7816164E-02  0.1312668E+00
        -11   -1    0    0    0    0  0.00000000000E+00  0.00000000000E+00  0.45593999997E+02  0.45594000000E+02  0.51100000000E-03 0. -1.
         11   -1    0    0    0    0 -0.00000000000E+00 -0.00000000000E+00 -0.45593999997E+02  0.45594000000E+02  0.51100000000E-03 0.  1.
    9900012    2    1    2    0    0 -0.30260521930E+01 -0.20429916302E+02 -0.38171780800E+02  0.47787270497E+02  0.19999997502E+02 0.  0.
         12    1    1    2    0    0  0.30260521930E+01  0.20429916302E+02  0.38171780800E+02  0.43400729503E+02  0.00000000000E+00 0. -1.
         11    1    3    3    0    0 -0.12451050570E+01 -0.14375173115E+01 -0.17548026034E+02  0.17650777903E+02  0.51100000000E-03 0.  1.
        -11    1    3    3    0    0  0.40460993302E+01 -0.46332874667E+01 -0.36491495416E+01  0.71522419685E+01  0.51100000000E-03 0. -1.
         12    1    3    3    0    0 -0.58270464662E+01 -0.14359111524E+02 -0.16974605224E+02  0.22984250625E+02  0.00000000000E+00 0. -1.
</event>
<event>
 7    1  0.3221417E-010  0.4778727E+02  0.7816164E-02  0.1312668E+00
        -11   -1    0    0    0    0  0.00000000000E+00  0.00000000000E+00  0.45593999997E+02  0.45594000000E+02  0.51100000000E-03 0. -1.
         11   -1    0    0    0    0 -0.00000000000E+00 -0.00000000000E+00 -0.45593999997E+02  0.45594000000E+02  0.51100000000E-03 0.  1.
    9900012    2    1    2    0    0  0.19976676653E+02  0.19570131237E+02 -0.33189843487E+02  0.47787270082E+02  0.19999995612E+02 0.  0.
         12    1    1    2    0    0 -0.19976676653E+02 -0.19570131237E+02  0.33189843487E+02  0.43400729918E+02  0.00000000000E+00 0. -1.
         11    1    3    3    0    0  0.14030829587E+02  0.10706657904E+02 -0.31542712799E+02  0.36144701317E+02  0.51100000000E-03 0.  1.
        -11    1    3    3    0    0 -0.11493079796E+00  0.48695494792E+00  0.86797188481E+00  0.10018531148E+01  0.51100000000E-03 0. -1.
        -12    1    3    3    0    0  0.60607778646E+01  0.83765183857E+01 -0.25151025727E+01  0.10640715650E+02  0.00000000000E+00 0.  1.
</event>
<event>
 7    1  0.3221417E-010  0.4778727E+02  0.7816164E-02  0.1312668E+00
        -11   -1    0    0    0    0  0.00000000000E+00  0.00000000000E+00  0.45593999997E+02  0.45594000000E+02  0.51100000000E-03 0. -1.
         11   -1    0    0    0    0 -0.00000000000E+00 -0.00000000000E+00 -0.45593999997E+02  0.45594000000E+02  0.51100000000E-03 0.  1.
    9900012    2    1    2    0    0 -0.23160306446E+02 -0.43731613668E+01  0.36443088410E+02  0.47787273879E+02  0.20000012924E+02 0.  0.
        -12    1    1    2    0    0  0.23160306446E+02  0.43731613668E+01 -0.36443088410E+02  0.43400726121E+02  0.00000000000E+00 0.  1.
         11    1    3    3    0    0 -0.14956007650E+02  0.13352800524E+01  0.15901747618E+02  0.21870773082E+02  0.51100000000E-03 0. -1.
        -11    1    3    3    0    0 -0.85580126162E+01 -0.62142176493E+01  0.77536642847E+01  0.13113938807E+02  0.51100000000E-03 0.  1.
         12    1    3    3    0    0  0.35371382025E+00  0.50577623004E+00  0.12787676507E+02  0.12802561990E+02  0.00000000000E+00 0. -1.
</event>
<event>
 7    1  0.3221417E-010  0.4778727E+02  0.7816164E-02  0.1312668E+00
        -11   -1    0    0    0    0  0.00000000000E+00  0.00000000000E+00  0.45593999997E+02  0.45594000000E+02  0.51100000000E-03 0. -1.
         11   -1    0    0    0    0 -0.00000000000E+00 -0.00000000000E+00 -0.45593999997E+02  0.45594000000E+02  0.51100000000E-03 0.  1.
    9900012    2    1    2    0    0 -0.12276097197E+02 -0.43507790870E+01  0.41400379429E+02  0.47787271228E+02  0.20000000838E+02 0.  0.
        -12    1    1    2    0    0  0.12276097197E+02  0.43507790870E+01 -0.41400379429E+02  0.43400728772E+02  0.00000000000E+00 0.  1.
         11    1    3    3    0    0 -0.22429381579E+01  0.36945841112E+01  0.94737191983E+01  0.10413072507E+02  0.51100000000E-03 0. -1.
        -11    1    3    3    0    0 -0.13095005944E+02 -0.64698077329E+01  0.18820791745E+02  0.23823513488E+02  0.51100000000E-03 0.  1.
        -12    1    3    3    0    0  0.30618469051E+01 -0.15755554653E+01  0.13105868486E+02  0.13550685233E+02  0.00000000000E+00 0.  1.
</event>
<event>
 7    1  0.3221417E-010  0.4778727E+02  0.7816164E-02  0.1312668E+00
        -11   -1    0    0    0    0  0.00000000000E+00  0.00000000000E+00  0.45593999997E+02  0.45594000000E+02  0.51100000000E-03 0.  1.
         11   -1    0    0    0    0 -0.00000000000E+00 -0.00000000000E+00 -0.45593999997E+02  0.45594000000E+02  0.51100000000E-03 0. -1.
    9900012    2    1    2    0    0  0.30659248641E+02 -0.13419454898E+02  0.27632443423E+02  0.47787271589E+02  0.20000002485E+02 0.  0.
        -12    1    1    2    0    0 -0.30659248641E+02  0.13419454898E+02 -0.27632443423E+02  0.43400728411E+02  0.00000000000E+00 0.  1.
         11    1    3    3    0    0  0.48784770204E+01 -0.14739251393E+01  0.17450871708E+01  0.53867729533E+01  0.51100000000E-03 0. -1.
        -11    1    3    3    0    0 -0.42310045466E+00 -0.67656905802E+01  0.65341781799E+01  0.94153633902E+01  0.51100000000E-03 0.  1.
         12    1    3    3    0    0  0.26203872076E+02 -0.51798391788E+01  0.19353178073E+02  0.32985135246E+02  0.00000000000E+00 0. -1.
</event>
<event>
 7    1  0.3221417E-010  0.4778726E+02  0.7816164E-02  0.1312668E+00
        -11   -1    0    0    0    0  0.00000000000E+00  0.00000000000E+00  0.45593999997E+02  0.45594000000E+02  0.51100000000E-03 0. -1.
         11   -1    0    0    0    0 -0.00000000000E+00 -0.00000000000E+00 -0.45593999997E+02  0.45594000000E+02  0.51100000000E-03 0.  1.
    9900012    2    1    2    0    0 -0.18841758017E+02  0.15266313244E+02 -0.35993774149E+02  0.47787263339E+02  0.19999964866E+02 0.  0.
         12    1    1    2    0    0  0.18841758017E+02 -0.15266313244E+02  0.35993774149E+02  0.43400736661E+02  0.00000000000E+00 0. -1.
         11    1    3    3    0    0 -0.33041301403E+01 -0.17561469778E+00 -0.85513335917E+01  0.91691560661E+01  0.51100000000E-03 0. -1.
        -11    1    3    3    0    0  0.11638052769E+00  0.94762660022E+01 -0.53186232230E+01  0.10867424489E+02  0.51100000000E-03 0.  1.
        -12    1    3    3    0    0 -0.15654008404E+02  0.59656619398E+01 -0.22123817335E+02  0.27750682784E+02  0.00000000000E+00 0.  1.
</event>
<event>
 7    1  0.3221417E-010  0.4778727E+02  0.7816164E-02  0.1312668E+00
        -11   -1    0    0    0    0  0.00000000000E+00  0.00000000000E+00  0.45593999997E+02  0.45594000000E+02  0.51100000000E-03 0. -1.
         11   -1    0    0    0    0 -0.00000000000E+00 -0.00000000000E+00 -0.45593999997E+02  0.45594000000E+02  0.51100000000E-03 0.  1.
    9900012    2    1    2    0    0  0.16414039444E+02  0.30591759804E+02 -0.26045091844E+02  0.47787271113E+02  0.20000000310E+02 0.  0.
         12    1    1    2    0    0 -0.16414039444E+02 -0.30591759804E+02  0.26045091844E+02  0.43400728887E+02  0.00000000000E+00 0. -1.
         11    1    3    3    0    0  0.22400935972E+01  0.13486698678E+02 -0.40571501298E+01  0.14260768843E+02  0.51100000000E-03 0. -1.
        -11    1    3    3    0    0  0.98809451886E+01  0.29837976231E+01 -0.68724993385E+01  0.12400297315E+02  0.51100000000E-03 0.  1.
         12    1    3    3    0    0  0.42930006586E+01  0.14121263503E+02 -0.15115442376E+02  0.21126204955E+02  0.00000000000E+00 0. -1.
</event>
<event>
 7    1  0.3221417E-010  0.4778727E+02  0.7816164E-02  0.1312668E+00
        -11   -1    0    0    0    0  0.00000000000E+00  0.00000000000E+00  0.45593999997E+02  0.45594000000E+02  0.51100000000E-03 0.  1.
         11   -1    0    0    0    0 -0.00000000000E+00 -0.00000000000E+00 -0.45593999997E+02  0.45594000000E+02  0.51100000000E-03 0. -1.
    9900012    2    1    2    0    0 -0.78482647736E+01  0.30434540406E+02  0.29929362850E+02  0.47787271086E+02  0.20000000188E+02 0.  0.
        -12    1    1    2    0    0  0.78482647736E+01 -0.30434540406E+02 -0.29929362850E+02  0.43400728914E+02  0.00000000000E+00 0.  1.
         11    1    3    3    0    0 -0.28676754261E+01  0.19320196340E+02  0.23320933823E+02  0.30419722280E+02  0.51100000000E-03 0. -1.
        -11    1    3    3    0    0 -0.30522389907E+00  0.41342546629E+01  0.78477667126E+01  0.88753966605E+01  0.51100000000E-03 0.  1.
        -12    1    3    3    0    0 -0.46753654484E+01  0.69800894031E+01 -0.12393376855E+01  0.84921521448E+01  0.00000000000E+00 0.  1.
</event>
<event>
 7    1  0.3221417E-010  0.4778727E+02  0.7816164E-02  0.1312668E+00
        -11   -1    0    0    0    0  0.00000000000E+00  0.00000000000E+00  0.45593999997E+02  0.45594000000E+02  0.51100000000E-03 0. -1.
         11   -1    0    0    0    0 -0.00000000000E+00 -0.00000000000E+00 -0.45593999997E+02  0.45594000000E+02  0.51100000000E-03 0.  1.
    9900012    2    1    2    0    0  0.12327487183E+02  0.21783317633E+02  0.35456218060E+02  0.47787271129E+02  0.20000000388E+02 0.  0.
        -12    1    1    2    0    0 -0.12327487183E+02 -0.21783317633E+02 -0.35456218060E+02  0.43400728871E+02  0.00000000000E+00 0.  1.
         11    1    3    3    0    0 -0.17910305976E+01  0.67354198047E+01  0.16023442044E+02  0.17473533293E+02  0.51100000000E-03 0. -1.
        -11    1    3    3    0    0  0.29366041543E+01  0.53265318800E+01  0.26681230317E+00  0.60882489185E+01  0.51100000000E-03 0.  1.
         12    1    3    3    0    0  0.11181913627E+02  0.97213659485E+01  0.19165963713E+02  0.24225488918E+02  0.00000000000E+00 0. -1.
</event>
<event>
 7    1  0.3221417E-010  0.4778725E+02  0.7816164E-02  0.1312668E+00
        -11   -1    0    0    0    0  0.00000000000E+00  0.00000000000E+00  0.45593999997E+02  0.45594000000E+02  0.51100000000E-03 0. -1.
         11   -1    0    0    0    0 -0.00000000000E+00 -0.00000000000E+00 -0.45593999997E+02  0.45594000000E+02  0.51100000000E-03 0.  1.
    9900012    2    1    2    0    0 -0.61704704268E+01 -0.33201300914E+02  0.27262142577E+02  0.47787245335E+02  0.19999882779E+02 0.  0.
        -12    1    1    2    0    0  0.61704704268E+01  0.33201300914E+02 -0.27262142577E+02  0.43400754665E+02  0.00000000000E+00 0.  1.
         11    1    3    3    0    0 -0.70606466213E+01 -0.12288919428E+02  0.12088432125E+02  0.18627948436E+02  0.51100000000E-03 0. -1.
        -11    1    3    3    0    0  0.84140625809E+00  0.11849151660E+01 -0.10096975752E+01  0.17695982302E+01  0.51100000000E-03 0.  1.
         12    1    3    3    0    0  0.48769936462E-01 -0.22097296651E+02  0.16183408027E+02  0.27389698669E+02  0.00000000000E+00 0. -1.
</event>
<event>
 7    1  0.3221417E-010  0.4778727E+02  0.7816164E-02  0.1312668E+00
        -11   -1    0    0    0    0  0.00000000000E+00  0.00000000000E+00  0.45593999997E+02  0.45594000000E+02  0.51100000000E-03 0. -1.
         11   -1    0    0    0    0 -0.00000000000E+00 -0.00000000000E+00 -0.45593999997E+02  0.45594000000E+02  0.51100000000E-03 0.  1.
    9900012    2    1    2    0    0 -0.20142562381E+02 -0.24735925279E+02  0.29428462415E+02  0.47787271679E+02  0.20000002894E+02 0.  0.
        -12    1    1    2    0    0  0.20142562381E+02  0.24735925279E+02 -0.29428462415E+02  0.43400728321E+02  0.00000000000E+00 0.  1.
         11    1    3    3    0    0 -0.22765393943E+01 -0.97772388811E+01  0.60074217957E+01  0.11698980667E+02  0.51100000000E-03 0. -1.
        -11    1    3    3    0    0 -0.91841836298E+01 -0.13689733319E+02  0.79488978234E+01  0.18301448144E+02  0.51100000000E-03 0.  1.
         12    1    3    3    0    0 -0.86818393567E+01 -0.12689530787E+01  0.15472142796E+02  0.17786842868E+02  0.00000000000E+00 0. -1.
</event>
<event>
 7    1  0.3221417E-010  0.4778727E+02  0.7816164E-02  0.1312668E+00
        -11   -1    0    0    0    0  0.00000000000E+00  0.00000000000E+00  0.45593999997E+02  0.45594000000E+02  0.51100000000E-03 0. -1.
         11   -1    0    0    0    0 -0.00000000000E+00 -0.00000000000E+00 -0.45593999997E+02  0.45594000000E+02  0.51100000000E-03 0.  1.
    9900012    2    1    2    0    0  0.67436717784E+01 -0.26502142743E+02  0.33701373059E+02  0.47787271607E+02  0.20000002563E+02 0.  0.
        -12    1    1    2    0    0 -0.67436717784E+01  0.26502142743E+02 -0.33701373059E+02  0.43400728393E+02  0.00000000000E+00 0.  1.
         11    1    3    3    0    0  0.42741674183E+01 -0.37682999094E+01  0.85957809752E+01  0.10312906582E+02  0.51100000000E-03 0. -1.
        -11    1    3    3    0    0 -0.21351269247E+01 -0.23103540297E+02  0.20902187287E+02  0.31228733162E+02  0.51100000000E-03 0.  1.
        -12    1    3    3    0    0  0.46046312848E+01  0.36969746390E+00  0.42034047969E+01  0.62456318632E+01  0.00000000000E+00 0.  1.
</event>
<event>
 7    1  0.3221417E-010  0.4778727E+02  0.7816164E-02  0.1312668E+00
        -11   -1    0    0    0    0  0.00000000000E+00  0.00000000000E+00  0.45593999997E+02  0.45594000000E+02  0.51100000000E-03 0.  1.
         11   -1    0    0    0    0 -0.00000000000E+00 -0.00000000000E+00 -0.45593999997E+02  0.45594000000E+02  0.51100000000E-03 0. -1.
    9900012    2    1    2    0    0 -0.39246071963E+02 -0.12536045089E+02  0.13646138005E+02  0.47787266441E+02  0.19999979013E+02 0.  0.
         12    1    1    2    0    0  0.39246071963E+02  0.12536045089E+02 -0.13646138005E+02  0.43400733559E+02  0.00000000000E+00 0. -1.
         11    1    3    3    0    0 -0.12658652428E+02 -0.32892023251E+01  0.98066420371E+01  0.16347188185E+02  0.51100000000E-03 0. -1.
        -11    1    3    3    0    0 -0.19318062399E+02 -0.55239000647E+01  0.87449387065E+01  0.21912894834E+02  0.51100000000E-03 0.  1.
         12    1    3    3    0    0 -0.72693571358E+01 -0.37229426993E+01 -0.49054427387E+01  0.95271834228E+01  0.00000000000E+00 0. -1.
</event>
<event>
 7    1  0.3221417E-010  0.4778727E+02  0.7816164E-02  0.1312668E+00
        -11   -1    0    0    0    0  0.00000000000E+00  0.00000000000E+00  0.45593999997E+02  0.45594000000E+02  0.51100000000E-03 0.  1.
         11   -1    0    0    0    0 -0.00000000000E+00 -0.00000000000E+00 -0.45593999997E+02  0.45594000000E+02  0.51100000000E-03 0. -1.
    9900012    2    1    2    0    0  0.30371752900E+02 -0.29225487869E+02 -0.10346528323E+02  0.47787272313E+02  0.20000005784E+02 0.  0.
         12    1    1    2    0    0 -0.30371752900E+02  0.29225487869E+02  0.10346528323E+02  0.43400727687E+02  0.00000000000E+00 0. -1.
         11    1    3    3    0    0 -0.17493445816E+00 -0.19794316655E+01 -0.40771202246E+01  0.45355993397E+01  0.51100000000E-03 0. -1.
        -11    1    3    3    0    0  0.99112889170E+01 -0.11255948271E+02 -0.81670091700E+01  0.17077179466E+02  0.51100000000E-03 0.  1.
         12    1    3    3    0    0  0.20635398441E+02 -0.15990107933E+02  0.18976010721E+01  0.26174493507E+02  0.00000000000E+00 0. -1.
</event>
<event>
 7    1  0.3221417E-010  0.4778727E+02  0.7816164E-02  0.1312668E+00
        -11   -1    0    0    0    0  0.00000000000E+00  0.00000000000E+00  0.45593999997E+02  0.45594000000E+02  0.51100000000E-03 0. -1.
         11   -1    0    0    0    0 -0.00000000000E+00 -0.00000000000E+00 -0.45593999997E+02  0.45594000000E+02  0.51100000000E-03 0.  1.
    9900012    2    1    2    0    0 -0.98880849870E+01  0.41430720227E+02 -0.83273354439E+01  0.47787270526E+02  0.19999997637E+02 0.  0.
         12    1    1    2    0    0  0.98880849870E+01 -0.41430720227E+02  0.83273354439E+01  0.43400729474E+02  0.00000000000E+00 0. -1.
         11    1    3    3    0    0 -0.20950636430E+01  0.32380374614E+02  0.28688092137E+00  0.32449349034E+02  0.51100000000E-03 0. -1.
        -11    1    3    3    0    0 -0.47417307186E+01  0.55334098764E+01 -0.26112231422E+01  0.77408734409E+01  0.51100000000E-03 0.  1.
         12    1    3    3    0    0 -0.30512906254E+01  0.35169357374E+01 -0.60029932230E+01  0.75970480515E+01  0.00000000000E+00 0. -1.
</event>
<event>
 7    1  0.3221417E-010  0.4778728E+02  0.7816164E-02  0.1312668E+00
        -11   -1    0    0    0    0  0.00000000000E+00  0.00000000000E+00  0.45593999997E+02  0.45594000000E+02  0.51100000000E-03 0. -1.
         11   -1    0    0    0    0 -0.00000000000E+00 -0.00000000000E+00 -0.45593999997E+02  0.45594000000E+02  0.51100000000E-03 0.  1.
    9900012    2    1    2    0    0 -0.12409845116E+02 -0.36571728051E+02 -0.19802187725E+02  0.47787283564E+02  0.20000057082E+02 0.  0.
         12    1    1    2    0    0  0.12409845116E+02  0.36571728051E+02  0.19802187725E+02  0.43400716436E+02  0.00000000000E+00 0. -1.
         11    1    3    3    0    0  0.17573562915E+01 -0.52249348420E+01 -0.65984242714E+01  0.85981072548E+01  0.51100000000E-03 0. -1.
        -11    1    3    3    0    0 -0.73161273067E+01 -0.24348197625E+02 -0.39753664906E+01  0.25732547199E+02  0.51100000000E-03 0.  1.
         12    1    3    3    0    0 -0.68510741013E+01 -0.69985955836E+01 -0.92283969636E+01  0.13456629110E+02  0.00000000000E+00 0. -1.
</event>
<event>
 7    1  0.3221417E-010  0.4778727E+02  0.7816164E-02  0.1312668E+00
        -11   -1    0    0    0    0  0.00000000000E+00  0.00000000000E+00  0.45593999997E+02  0.45594000000E+02  0.51100000000E-03 0.  1.
         11   -1    0    0    0    0 -0.00000000000E+00 -0.00000000000E+00 -0.45593999997E+02  0.45594000000E+02  0.51100000000E-03 0. -1.
    9900012    2    1    2    0    0  0.15353042683E+02  0.27061263348E+01 -0.40504131693E+02  0.47787265864E+02  0.19999976381E+02 0.  0.
         12    1    1    2    0    0 -0.15353042683E+02 -0.27061263348E+01  0.40504131693E+02  0.43400734136E+02  0.00000000000E+00 0. -1.
         11    1    3    3    0    0  0.98578279520E+00  0.24873545929E+01 -0.17400405264E+02  0.17604908525E+02  0.51100000000E-03 0. -1.
        -11    1    3    3    0    0  0.10728893243E+02  0.61296590642E+01 -0.13116846088E+02  0.18020364093E+02  0.51100000000E-03 0.  1.
        -12    1    3    3    0    0  0.36383666440E+01 -0.59108873224E+01 -0.99868803410E+01  0.12161993246E+02  0.00000000000E+00 0.  1.
</event>
<event>
 7    1  0.3221417E-010  0.4778727E+02  0.7816164E-02  0.1312668E+00
        -11   -1    0    0    0    0  0.00000000000E+00  0.00000000000E+00  0.45593999997E+02  0.45594000000E+02  0.51100000000E-03 0. -1.
         11   -1    0    0    0    0 -0.00000000000E+00 -0.00000000000E+00 -0.45593999997E+02  0.45594000000E+02  0.51100000000E-03 0.  1.
    9900012    2    1    2    0    0  0.58829099206E+01  0.30434476530E+01  0.42892332060E+02  0.47787270141E+02  0.19999995879E+02 0.  0.
        -12    1    1    2    0    0 -0.58829099206E+01 -0.30434476530E+01 -0.42892332060E+02  0.43400729859E+02  0.00000000000E+00 0.  1.
         11    1    3    3    0    0 -0.56121870129E+01  0.16546711229E+01  0.15574742699E+02  0.16637523554E+02  0.51100000000E-03 0. -1.
        -11    1    3    3    0    0  0.51592266997E+01 -0.28350821636E+01  0.18915855819E+02  0.19810727211E+02  0.51100000000E-03 0.  1.
        -12    1    3    3    0    0  0.63358702338E+01  0.42238586937E+01  0.84017335422E+01  0.11339019376E+02  0.00000000000E+00 0.  1.
</event>
<event>
 7    1  0.3221417E-010  0.4778727E+02  0.7816164E-02  0.1312668E+00
        -11   -1    0    0    0    0  0.00000000000E+00  0.00000000000E+00  0.45593999997E+02  0.45594000000E+02  0.51100000000E-03 0.  1.
         11   -1    0    0    0    0 -0.00000000000E+00 -0.00000000000E+00 -0.45593999997E+02  0.45594000000E+02  0.51100000000E-03 0. -1.
    9900012    2    1    2    0    0 -0.23526626531E+02 -0.21339301416E+01  0.36408340757E+02  0.47787273158E+02  0.20000009635E+02 0.  0.
        -12    1    1    2    0    0  0.23526626531E+02  0.21339301416E+01 -0.36408340757E+02  0.43400726842E+02  0.00000000000E+00 0.  1.
         11    1    3    3    0    0 -0.16313798041E+02 -0.43799306427E+01  0.22792590275E+02  0.28369454889E+02  0.51100000000E-03 0. -1.
        -11    1    3    3    0    0 -0.33103844777E+01 -0.17789433117E+01 -0.89375893630E+00  0.38629121131E+01  0.51100000000E-03 0.  1.
        -12    1    3    3    0    0 -0.39024440116E+01  0.40249438128E+01  0.14509509418E+02  0.15554906156E+02  0.00000000000E+00 0.  1.
</event>
<event>
 7    1  0.3221417E-010  0.4778727E+02  0.7816164E-02  0.1312668E+00
        -11   -1    0    0    0    0  0.00000000000E+00  0.00000000000E+00  0.45593999997E+02  0.45594000000E+02  0.51100000000E-03 0. -1.
         11   -1    0    0    0    0 -0.00000000000E+00 -0.00000000000E+00 -0.45593999997E+02  0.45594000000E+02  0.51100000000E-03 0.  1.
    9900012    2    1    2    0    0  0.30093471108E+01 -0.21339477333E+01 -0.43243649470E+02  0.47787272789E+02  0.20000007952E+02 0.  0.
         12    1    1    2    0    0 -0.30093471108E+01  0.21339477333E+01  0.43243649470E+02  0.43400727211E+02  0.00000000000E+00 0. -1.
         11    1    3    3    0    0  0.23864849995E+01 -0.96272050953E+01 -0.12507528602E+02  0.15962977811E+02  0.51100000000E-03 0. -1.
        -11    1    3    3    0    0  0.16309095561E+01  0.26778233638E+01 -0.87599586108E+01  0.93041646090E+01  0.51100000000E-03 0.  1.
        -12    1    3    3    0    0 -0.10080474448E+01  0.48154339982E+01 -0.21976162258E+02  0.22520130368E+02  0.00000000000E+00 0.  1.
</event>
<event>
 7    1  0.3221417E-010  0.4778725E+02  0.7816164E-02  0.1312668E+00
        -11   -1    0    0    0    0  0.00000000000E+00  0.00000000000E+00  0.45593999997E+02  0.45594000000E+02  0.51100000000E-03 0. -1.
         11   -1    0    0    0    0 -0.00000000000E+00 -0.00000000000E+00 -0.45593999997E+02  0.45594000000E+02  0.51100000000E-03 0.  1.
    9900012    2    1    2    0    0 -0.23087644095E+02 -0.28448841960E+02  0.23264755390E+02  0.47787253900E+02  0.19999921832E+02 0.  0.
        -12    1    1    2    0    0  0.23087644095E+02  0.28448841960E+02 -0.23264755390E+02  0.43400746100E+02  0.00000000000E+00 0.  1.
         11    1    3    3    0    0  0.17513747596E+01 -0.39618601822E+01  0.58165003750E+01  0.72522635450E+01  0.51100000000E-03 0. -1.
        -11    1    3    3    0    0 -0.10947587493E+02 -0.71377816149E+01  0.14471664042E+01  0.13148836038E+02  0.51100000000E-03 0.  1.
         12    1    3    3    0    0 -0.13891431361E+02 -0.17349200162E+02  0.16001088611E+02  0.27386154317E+02  0.00000000000E+00 0. -1.
</event>
<event>
 7    1  0.3221417E-010  0.4778727E+02  0.7816164E-02  0.1312668E+00
        -11   -1    0    0    0    0  0.00000000000E+00  0.00000000000E+00  0.45593999997E+02  0.45594000000E+02  0.51100000000E-03 0.  1.
         11   -1    0    0    0    0 -0.00000000000E+00 -0.00000000000E+00 -0.45593999997E+02  0.45594000000E+02  0.51100000000E-03 0. -1.
    9900012    2    1    2    0    0 -0.27002753233E+02 -0.28765547295E+02  0.18083639796E+02  0.47787269343E+02  0.19999992241E+02 0.  0.
        -12    1    1    2    0    0  0.27002753233E+02  0.28765547295E+02 -0.18083639796E+02  0.43400730657E+02  0.00000000000E+00 0.  1.
         11    1    3    3    0    0 -0.25979874328E+01 -0.99134454956E+00 -0.10426728876E+01  0.29697592038E+01  0.51100000000E-03 0. -1.
        -11    1    3    3    0    0 -0.17505565633E+02 -0.22929275682E+02  0.21592482715E+02  0.36033759470E+02  0.51100000000E-03 0.  1.
        -12    1    3    3    0    0 -0.68992001667E+01 -0.48449270631E+01 -0.24661700319E+01  0.87837506689E+01  0.00000000000E+00 0.  1.
</event>
<event>
 7    1  0.3221417E-010  0.4778727E+02  0.7816164E-02  0.1312668E+00
        -11   -1    0    0    0    0  0.00000000000E+00  0.00000000000E+00  0.45593999997E+02  0.45594000000E+02  0.51100000000E-03 0. -1.
         11   -1    0    0    0    0 -0.00000000000E+00 -0.00000000000E+00 -0.45593999997E+02  0.45594000000E+02  0.51100000000E-03 0.  1.
    9900012    2    1    2    0    0 -0.99346889421E+01  0.80960482931E+01  0.41465398855E+02  0.47787270230E+02  0.19999996288E+02 0.  0.
        -12    1    1    2    0    0  0.99346889421E+01 -0.80960482931E+01 -0.41465398855E+02  0.43400729770E+02  0.00000000000E+00 0.  1.
         11    1    3    3    0    0  0.50337847409E+00  0.41006998219E+01  0.80128619119E+00  0.42084663167E+01  0.51100000000E-03 0. -1.
        -11    1    3    3    0    0 -0.62685019880E+01 -0.31383088262E+01  0.13891400542E+02  0.15560016348E+02  0.51100000000E-03 0.  1.
         12    1    3    3    0    0 -0.41695654281E+01  0.71336572973E+01  0.26772712122E+02  0.28018787566E+02  0.00000000000E+00 0. -1.
</event>
<event>
 7    1  0.3221417E-010  0.4778727E+02  0.7816164E-02  0.1312668E+00
        -11   -1    0    0    0    0  0.00000000000E+00  0.00000000000E+00  0.45593999997E+02  0.45594000000E+02  0.51100000000E-03 0. -1.
         11   -1    0    0    0    0 -0.00000000000E+00 -0.00000000000E+00 -0.45593999997E+02  0.45594000000E+02  0.51100000000E-03 0.  1.
    9900012    2    1    2    0    0  0.22560593334E+02 -0.10591009911E+02  0.35531303565E+02  0.47787269642E+02  0.19999993607E+02 0.  0.
        -12    1    1    2    0    0 -0.22560593334E+02  0.10591009911E+02 -0.35531303565E+02  0.43400730358E+02  0.00000000000E+00 0.  1.
         11    1    3    3    0    0  0.15878034818E+02  0.19574684335E+00  0.19510081773E+02  0.25155389036E+02  0.51100000000E-03 0. -1.
        -11    1    3    3    0    0  0.37502256701E+01 -0.31852258867E+01  0.30560367409E+00  0.49298326942E+01  0.51100000000E-03 0.  1.
        -12    1    3    3    0    0  0.29323328467E+01 -0.76015308678E+01  0.15715618118E+02  0.17702047912E+02  0.00000000000E+00 0.  1.
</event>
<event>
 7    1  0.3221417E-010  0.4778727E+02  0.7816164E-02  0.1312668E+00
        -11   -1    0    0    0    0  0.00000000000E+00  0.00000000000E+00  0.45593999997E+02  0.45594000000E+02  0.51100000000E-03 0. -1.
         11   -1    0    0    0    0 -0.00000000000E+00 -0.00000000000E+00 -0.45593999997E+02  0.45594000000E+02  0.51100000000E-03 0.  1.
    9900012    2    1    2    0    0  0.89485530723E+01 -0.37494274131E+02  0.19943066994E+02  0.47787272865E+02  0.20000008301E+02 0.  0.
        -12    1    1    2    0    0 -0.89485530723E+01  0.37494274131E+02 -0.19943066994E+02  0.43400727135E+02  0.00000000000E+00 0.  1.
         11    1    3    3    0    0  0.81851859881E+01 -0.20320221969E+02  0.84460745888E+01  0.23478604446E+02  0.51100000000E-03 0. -1.
        -11    1    3    3    0    0 -0.32300763734E+01 -0.12719172540E+02  0.22789588086E+01  0.13319324194E+02  0.51100000000E-03 0.  1.
        -12    1    3    3    0    0  0.39934434576E+01 -0.44548796222E+01  0.92180335962E+01  0.10989344224E+02  0.00000000000E+00 0.  1.
</event>
<event>
 7    1  0.3221417E-010  0.4778728E+02  0.7816164E-02  0.1312668E+00
        -11   -1    0    0    0    0  0.00000000000E+00  0.00000000000E+00  0.45593999997E+02  0.45594000000E+02  0.51100000000E-03 0. -1.
         11   -1    0    0    0    0 -0.00000000000E+00 -0.00000000000E+00 -0.45593999997E+02  0.45594000000E+02  0.51100000000E-03 0.  1.
    9900012    2    1    2    0    0  0.12884153324E+02  0.35184019257E+02  0.21902195398E+02  0.47787276720E+02  0.20000025878E+02 0.  0.
        -12    1    1    2    0    0 -0.12884153324E+02 -0.35184019257E+02 -0.21902195398E+02  0.43400723280E+02  0.00000000000E+00 0.  1.
         11    1    3    3    0    0  0.40013603268E+01  0.29627584977E+01 -0.20806877887E+01  0.53961175224E+01  0.51100000000E-03 0. -1.
        -11    1    3    3    0    0 -0.17033866773E+01  0.10577975138E+02  0.92143058021E+01  0.14131472530E+02  0.51100000000E-03 0.  1.
         12    1    3    3    0    0  0.10586179675E+02  0.21643285622E+02  0.14768577384E+02  0.28259686668E+02  0.00000000000E+00 0. -1.
</event>
<event>
 7    1  0.3221417E-010  0.4778727E+02  0.7816164E-02  0.1312668E+00
        -11   -1    0    0    0    0  0.00000000000E+00  0.00000000000E+00  0.45593999997E+02  0.45594000000E+02  0.51100000000E-03 0. -1.
         11   -1    0    0    0    0 -0.00000000000E+00 -0.00000000000E+00 -0.45593999997E+02  0.45594000000E+02  0.51100000000E-03 0.  1.
    9900012    2    1    2    0    0  0.86537092043E+01  0.14041923000E+02 -0.40144250535E+02  0.47787272638E+02  0.20000007266E+02 0.  0.
         12    1    1    2    0    0 -0.86537092043E+01 -0.14041923000E+02  0.40144250535E+02  0.43400727362E+02  0.00000000000E+00 0. -1.
         11    1    3    3    0    0  0.81190851928E+00 -0.28323030803E+01 -0.94970653454E+01  0.99436103412E+01  0.51100000000E-03 0. -1.
        -11    1    3    3    0    0  0.68841690655E+01  0.54359068674E+01 -0.21318604976E+02  0.23052630773E+02  0.51100000000E-03 0.  1.
         12    1    3    3    0    0  0.95763161953E+00  0.11438319212E+02 -0.93285802141E+01  0.14791031524E+02  0.00000000000E+00 0. -1.
</event>
<event>
 7    1  0.3221417E-010  0.4778728E+02  0.7816164E-02  0.1312668E+00
        -11   -1    0    0    0    0  0.00000000000E+00  0.00000000000E+00  0.45593999997E+02  0.45594000000E+02  0.51100000000E-03 0. -1.
         11   -1    0    0    0    0 -0.00000000000E+00 -0.00000000000E+00 -0.45593999997E+02  0.45594000000E+02  0.51100000000E-03 0.  1.
    9900012    2    1    2    0    0  0.87111871406E+01 -0.56113383695E+01 -0.42145589688E+02  0.47787278464E+02  0.20000033830E+02 0.  0.
         12    1    1    2    0    0 -0.87111871406E+01  0.56113383695E+01  0.42145589688E+02  0.43400721536E+02  0.00000000000E+00 0. -1.
         11    1    3    3    0    0  0.71818286124E+01  0.21005244017E+01 -0.44508148590E+01  0.87063550439E+01  0.51100000000E-03 0. -1.
        -11    1    3    3    0    0  0.29726659579E+01 -0.61740981069E+01 -0.17779870525E+02  0.19054658918E+02  0.51100000000E-03 0.  1.
        -12    1    3    3    0    0 -0.14433074297E+01 -0.15377646643E+01 -0.19914904304E+02  0.20026264503E+02  0.00000000000E+00 0.  1.
</event>
<event>
 7    1  0.3221417E-010  0.4778724E+02  0.7816164E-02  0.1312668E+00
        -11   -1    0    0    0    0  0.00000000000E+00  0.00000000000E+00  0.45593999997E+02  0.45594000000E+02  0.51100000000E-03 0. -1.
         11   -1    0    0    0    0 -0.00000000000E+00 -0.00000000000E+00 -0.45593999997E+02  0.45594000000E+02  0.51100000000E-03 0.  1.
    9900012    2    1    2    0    0 -0.27934370879E+00  0.22396115627E+02  0.37174747908E+02  0.47787240673E+02  0.19999861526E+02 0.  0.
        -12    1    1    2    0    0  0.27934370879E+00 -0.22396115627E+02 -0.37174747908E+02  0.43400759327E+02  0.00000000000E+00 0.  1.
         11    1    3    3    0    0  0.16223297442E+01  0.15383376819E+02  0.20966072450E+02  0.26054873448E+02  0.51100000000E-03 0. -1.
        -11    1    3    3    0    0 -0.65274606294E+01  0.34122894719E+01  0.13265446741E+02  0.15173118968E+02  0.51100000000E-03 0.  1.
        -12    1    3    3    0    0  0.46257871764E+01  0.36004493365E+01  0.29432287171E+01  0.65592482577E+01  0.00000000000E+00 0.  1.
</event>
<event>
 7    1  0.3221417E-010  0.4778727E+02  0.7816164E-02  0.1312668E+00
        -11   -1    0    0    0    0  0.00000000000E+00  0.00000000000E+00  0.45593999997E+02  0.45594000000E+02  0.51100000000E-03 0. -1.
         11   -1    0    0    0    0 -0.00000000000E+00 -0.00000000000E+00 -0.45593999997E+02  0.45594000000E+02  0.51100000000E-03 0.  1.
    9900012    2    1    2    0    0 -0.36936199385E+02 -0.51962668892E+01  0.22188722407E+02  0.47787269400E+02  0.19999992501E+02 0.  0.
        -12    1    1    2    0    0  0.36936199385E+02  0.51962668892E+01 -0.22188722407E+02  0.43400730600E+02  0.00000000000E+00 0.  1.
         11    1    3    3    0    0 -0.62847229328E+01  0.11007542396E+01  0.11184347085E+02  0.12876296914E+02  0.51100000000E-03 0.  1.
        -11    1    3    3    0    0 -0.16088602571E+02  0.22365624584E+01  0.58027689066E+01  0.17248694778E+02  0.51100000000E-03 0. -1.
        -12    1    3    3    0    0 -0.14562873881E+02 -0.85335835871E+01  0.52016064156E+01  0.17662277708E+02  0.00000000000E+00 0.  1.
</event>
<event>
 7    1  0.3221417E-010  0.4778728E+02  0.7816164E-02  0.1312668E+00
        -11   -1    0    0    0    0  0.00000000000E+00  0.00000000000E+00  0.45593999997E+02  0.45594000000E+02  0.51100000000E-03 0. -1.
         11   -1    0    0    0    0 -0.00000000000E+00 -0.00000000000E+00 -0.45593999997E+02  0.45594000000E+02  0.51100000000E-03 0.  1.
    9900012    2    1    2    0    0  0.13383341297E+01 -0.12464506428E+02  0.41550783271E+02  0.47787278242E+02  0.20000032815E+02 0.  0.
        -12    1    1    2    0    0 -0.13383341297E+01  0.12464506428E+02 -0.41550783271E+02  0.43400721758E+02  0.00000000000E+00 0.  1.
         11    1    3    3    0    0  0.18989456987E+01  0.14060512209E+01  0.21962782446E+02  0.22089517601E+02  0.51100000000E-03 0. -1.
        -11    1    3    3    0    0 -0.48443731470E+01 -0.64686753736E+01  0.95775389275E+01  0.12531598639E+02  0.51100000000E-03 0.  1.
        -12    1    3    3    0    0  0.42837615780E+01 -0.74018822750E+01  0.10010461897E+02  0.13166162002E+02  0.00000000000E+00 0.  1.
</event>
<event>
 7    1  0.3221417E-010  0.4778727E+02  0.7816164E-02  0.1312668E+00
        -11   -1    0    0    0    0  0.00000000000E+00  0.00000000000E+00  0.45593999997E+02  0.45594000000E+02  0.51100000000E-03 0. -1.
         11   -1    0    0    0    0 -0.00000000000E+00 -0.00000000000E+00 -0.45593999997E+02  0.45594000000E+02  0.51100000000E-03 0.  1.
    9900012    2    1    2    0    0 -0.89256482929E+01 -0.92749945222E+01  0.41447928173E+02  0.47787268777E+02  0.19999989662E+02 0.  0.
        -12    1    1    2    0    0  0.89256482929E+01  0.92749945222E+01 -0.41447928173E+02  0.43400731223E+02  0.00000000000E+00 0.  1.
         11    1    3    3    0    0  0.32181258281E+01 -0.46685790025E+01  0.11221884728E+02  0.12573092732E+02  0.51100000000E-03 0. -1.
        -11    1    3    3    0    0 -0.47238987146E+01  0.43564562973E+01  0.10338103202E+02  0.12172522689E+02  0.51100000000E-03 0.  1.
         12    1    3    3    0    0 -0.74198754064E+01 -0.89628718170E+01  0.19887940243E+02  0.23041653356E+02  0.00000000000E+00 0. -1.
</event>
<event>
 7    1  0.3221417E-010  0.4778728E+02  0.7816164E-02  0.1312668E+00
        -11   -1    0    0    0    0  0.00000000000E+00  0.00000000000E+00  0.45593999997E+02  0.45594000000E+02  0.51100000000E-03 0.  1.
         11   -1    0    0    0    0 -0.00000000000E+00 -0.00000000000E+00 -0.45593999997E+02  0.45594000000E+02  0.51100000000E-03 0. -1.
    9900012    2    1    2    0    0  0.35649868422E+02  0.47685741244E+01  0.24289304613E+02  0.47787277238E+02  0.20000028238E+02 0.  0.
        -12    1    1    2    0    0 -0.35649868422E+02 -0.47685741244E+01 -0.24289304613E+02  0.43400722762E+02  0.00000000000E+00 0.  1.
         11    1    3    3    0    0  0.22289218238E+02  0.57030389949E+01  0.44031417749E+01  0.23424806535E+02  0.51100000000E-03 0. -1.
        -11    1    3    3    0    0  0.11916750039E+02  0.74718855354E-01  0.14932004365E+02  0.19104430612E+02  0.51100000000E-03 0.  1.
        -12    1    3    3    0    0  0.14439001455E+01 -0.10091837258E+01  0.49541584733E+01  0.52580400912E+01  0.00000000000E+00 0.  1.
</event>
<event>
 7    1  0.3221417E-010  0.4778728E+02  0.7816164E-02  0.1312668E+00
        -11   -1    0    0    0    0  0.00000000000E+00  0.00000000000E+00  0.45593999997E+02  0.45594000000E+02  0.51100000000E-03 0.  1.
         11   -1    0    0    0    0 -0.00000000000E+00 -0.00000000000E+00 -0.45593999997E+02  0.45594000000E+02  0.51100000000E-03 0. -1.
    9900012    2    1    2    0    0 -0.35664013650E+02 -0.23326224633E+02  0.82211850772E+01  0.47787279852E+02  0.20000040158E+02 0.  0.
        -12    1    1    2    0    0  0.35664013650E+02  0.23326224633E+02 -0.82211850772E+01  0.43400720148E+02  0.00000000000E+00 0.  1.
         11    1    3    3    0    0 -0.22257465396E+02 -0.22576767014E+02  0.13652922936E+01  0.31732777974E+02  0.51100000000E-03 0. -1.
        -11    1    3    3    0    0 -0.44230674179E+01  0.79841228026E+00 -0.24219953966E+00  0.45010719202E+01  0.51100000000E-03 0.  1.
         12    1    3    3    0    0 -0.89834808362E+01 -0.15478698995E+01  0.70980923233E+01  0.11553429958E+02  0.00000000000E+00 0. -1.
</event>
<event>
 7    1  0.3221417E-010  0.4778727E+02  0.7816164E-02  0.1312668E+00
        -11   -1    0    0    0    0  0.00000000000E+00  0.00000000000E+00  0.45593999997E+02  0.45594000000E+02  0.51100000000E-03 0. -1.
         11   -1    0    0    0    0 -0.00000000000E+00 -0.00000000000E+00 -0.45593999997E+02  0.45594000000E+02  0.51100000000E-03 0.  1.
    9900012    2    1    2    0    0  0.26238513814E+01 -0.89523670737E+01  0.42386245583E+02  0.47787270894E+02  0.19999999316E+02 0.  0.
        -12    1    1    2    0    0 -0.26238513814E+01  0.89523670737E+01 -0.42386245583E+02  0.43400729106E+02  0.00000000000E+00 0.  1.
         11    1    3    3    0    0 -0.39555579731E+01  0.35202334791E+01  0.67591378934E+01  0.85862930272E+01  0.51100000000E-03 0. -1.
        -11    1    3    3    0    0 -0.97958135512E+00  0.51688475746E+00  0.11811750545E+01  0.16192357006E+01  0.51100000000E-03 0.  1.
        -12    1    3    3    0    0  0.75589907096E+01 -0.12989485310E+02  0.34445932635E+02  0.37581742166E+02  0.00000000000E+00 0.  1.
</event>
<event>
 7    1  0.3221417E-010  0.4778727E+02  0.7816164E-02  0.1312668E+00
        -11   -1    0    0    0    0  0.00000000000E+00  0.00000000000E+00  0.45593999997E+02  0.45594000000E+02  0.51100000000E-03 0. -1.
         11   -1    0    0    0    0 -0.00000000000E+00 -0.00000000000E+00 -0.45593999997E+02  0.45594000000E+02  0.51100000000E-03 0.  1.
    9900012    2    1    2    0    0 -0.37829946042E+01 -0.82472852288E+01  0.42441661605E+02  0.47787269573E+02  0.19999993291E+02 0.  0.
        -12    1    1    2    0    0  0.37829946042E+01  0.82472852288E+01 -0.42441661605E+02  0.43400730427E+02  0.00000000000E+00 0.  1.
         11    1    3    3    0    0 -0.53638610296E+01  0.46362949087E+01  0.11295064289E+02  0.13335843175E+02  0.51100000000E-03 0.  1.
        -11    1    3    3    0    0  0.20132473310E+01 -0.50085962566E+00  0.71492534104E+01  0.74441822766E+01  0.51100000000E-03 0. -1.
         12    1    3    3    0    0 -0.43238090556E+00 -0.12382720512E+02  0.23997343906E+02  0.27007244122E+02  0.00000000000E+00 0. -1.
</event>
<event>
 7    1  0.3221417E-010  0.4778727E+02  0.7816164E-02  0.1312668E+00
        -11   -1    0    0    0    0  0.00000000000E+00  0.00000000000E+00  0.45593999997E+02  0.45594000000E+02  0.51100000000E-03 0.  1.
         11   -1    0    0    0    0 -0.00000000000E+00 -0.00000000000E+00 -0.45593999997E+02  0.45594000000E+02  0.51100000000E-03 0. -1.
    9900012    2    1    2    0    0 -0.43272923579E+02 -0.31273892962E+01 -0.11388039941E+01  0.47787270128E+02  0.19999995821E+02 0.  0.
         12    1    1    2    0    0  0.43272923579E+02  0.31273892962E+01  0.11388039941E+01  0.43400729872E+02  0.00000000000E+00 0. -1.
         11    1    3    3    0    0 -0.71281810694E+01 -0.64323221687E+01  0.47930463861E+01  0.10731217441E+02  0.51100000000E-03 0. -1.
        -11    1    3    3    0    0 -0.17818586780E+02  0.15522171600E+01 -0.62637459843E+00  0.17897032110E+02  0.51100000000E-03 0.  1.
         12    1    3    3    0    0 -0.18326155729E+02  0.17527157125E+01 -0.53054757817E+01  0.19159020577E+02  0.00000000000E+00 0. -1.
</event>
<event>
 7    1  0.3221417E-010  0.4778726E+02  0.7816164E-02  0.1312668E+00
        -11   -1    0    0    0    0  0.00000000000E+00  0.00000000000E+00  0.45593999997E+02  0.45594000000E+02  0.51100000000E-03 0. -1.
         11   -1    0    0    0    0 -0.00000000000E+00 -0.00000000000E+00 -0.45593999997E+02  0.45594000000E+02  0.51100000000E-03 0.  1.
    9900012    2    1    2    0    0  0.12703733760E+02  0.18293417719E+02  0.37250366787E+02  0.47787264879E+02  0.19999971888E+02 0.  0.
        -12    1    1    2    0    0 -0.12703733760E+02 -0.18293417719E+02 -0.37250366787E+02  0.43400735121E+02  0.00000000000E+00 0.  1.
         11    1    3    3    0    0  0.32223592280E+01  0.36023004510E+00  0.79533242437E+01  0.85888725375E+01  0.51100000000E-03 0. -1.
        -11    1    3    3    0    0  0.57718225116E+00  0.14940952432E+02  0.10773361793E+02  0.18429067353E+02  0.51100000000E-03 0.  1.
        -12    1    3    3    0    0  0.89041922807E+01  0.29922352424E+01  0.18523680750E+02  0.20769324988E+02  0.00000000000E+00 0.  1.
</event>
<event>
 7    1  0.3221417E-010  0.4778726E+02  0.7816164E-02  0.1312668E+00
        -11   -1    0    0    0    0  0.00000000000E+00  0.00000000000E+00  0.45593999997E+02  0.45594000000E+02  0.51100000000E-03 0. -1.
         11   -1    0    0    0    0 -0.00000000000E+00 -0.00000000000E+00 -0.45593999997E+02  0.45594000000E+02  0.51100000000E-03 0.  1.
    9900012    2    1    2    0    0 -0.13142893252E+02 -0.91376162861E+01 -0.40340958770E+02  0.47787255434E+02  0.19999928826E+02 0.  0.
         12    1    1    2    0    0  0.13142893252E+02  0.91376162861E+01  0.40340958770E+02  0.43400744566E+02  0.00000000000E+00 0. -1.
         11    1    3    3    0    0 -0.17225300123E+01  0.39859549197E+01 -0.11276855270E+02  0.12083973325E+02  0.51100000000E-03 0. -1.
        -11    1    3    3    0    0  0.18611222548E+01 -0.38577946759E+01 -0.85916298922E+01  0.96001281384E+01  0.51100000000E-03 0.  1.
         12    1    3    3    0    0 -0.13281485494E+02 -0.92657765300E+01 -0.20472473607E+02  0.26103153971E+02  0.00000000000E+00 0. -1.
</event>
<event>
 7    1  0.3221417E-010  0.4778725E+02  0.7816164E-02  0.1312668E+00
        -11   -1    0    0    0    0  0.00000000000E+00  0.00000000000E+00  0.45593999997E+02  0.45594000000E+02  0.51100000000E-03 0. -1.
         11   -1    0    0    0    0 -0.00000000000E+00 -0.00000000000E+00 -0.45593999997E+02  0.45594000000E+02  0.51100000000E-03 0.  1.
    9900012    2    1    2    0    0  0.67976580462E+01 -0.11672620483E+02  0.41245204389E+02  0.47787249904E+02  0.19999903610E+02 0.  0.
        -12    1    1    2    0    0 -0.67976580462E+01  0.11672620483E+02 -0.41245204389E+02  0.43400750096E+02  0.00000000000E+00 0.  1.
         11    1    3    3    0    0  0.70241690270E+01 -0.11356100715E+02  0.28674478486E+02  0.31631087409E+02  0.51100000000E-03 0. -1.
        -11    1    3    3    0    0 -0.77505381595E+00  0.13615319697E+01  0.13873755588E+02  0.13961932964E+02  0.51100000000E-03 0.  1.
         12    1    3    3    0    0  0.54854283511E+00 -0.16780517381E+01 -0.13030296843E+01  0.21942295313E+01  0.00000000000E+00 0. -1.
</event>
<event>
 7    1  0.3221417E-010  0.4778733E+02  0.7816164E-02  0.1312668E+00
        -11   -1    0    0    0    0  0.00000000000E+00  0.00000000000E+00  0.45593999997E+02  0.45594000000E+02  0.51100000000E-03 0. -1.
         11   -1    0    0    0    0 -0.00000000000E+00 -0.00000000000E+00 -0.45593999997E+02  0.45594000000E+02  0.51100000000E-03 0.  1.
    9900012    2    1    2    0    0 -0.12513801680E+02 -0.94392586481E+01 -0.40471268058E+02  0.47787327488E+02  0.20000257347E+02 0.  0.
         12    1    1    2    0    0  0.12513801680E+02  0.94392586481E+01  0.40471268058E+02  0.43400672512E+02  0.00000000000E+00 0. -1.
         11    1    3    3    0    0 -0.15814232394E+02 -0.11374498266E+02 -0.28454910431E+02  0.34484070017E+02  0.51100000000E-03 0.  1.
        -11    1    3    3    0    0 -0.18403742184E+00  0.13140598752E+01 -0.72280086147E+01  0.73487911879E+01  0.51100000000E-03 0. -1.
        -12    1    3    3    0    0  0.34844681359E+01  0.62117974231E+00 -0.47883490115E+01  0.59544662833E+01  0.00000000000E+00 0.  1.
</event>
<event>
 7    1  0.3221417E-010  0.4778727E+02  0.7816164E-02  0.1312668E+00
        -11   -1    0    0    0    0  0.00000000000E+00  0.00000000000E+00  0.45593999997E+02  0.45594000000E+02  0.51100000000E-03 0. -1.
         11   -1    0    0    0    0 -0.00000000000E+00 -0.00000000000E+00 -0.45593999997E+02  0.45594000000E+02  0.51100000000E-03 0.  1.
    9900012    2    1    2    0    0 -0.20467187166E+02 -0.43784201373E+01 -0.38020352331E+02  0.47787268384E+02  0.19999987872E+02 0.  0.
         12    1    1    2    0    0  0.20467187166E+02  0.43784201373E+01  0.38020352331E+02  0.43400731616E+02  0.00000000000E+00 0. -1.
         11    1    3    3    0    0 -0.35503603075E+01 -0.57282120103E+01 -0.10209983410E+02  0.12233610777E+02  0.51100000000E-03 0. -1.
        -11    1    3    3    0    0 -0.52965057504E+00 -0.13672773382E+01 -0.13643251078E+02  0.13721817566E+02  0.51100000000E-03 0.  1.
        -12    1    3    3    0    0 -0.16387176284E+02  0.27170692112E+01 -0.14167117843E+02  0.21831840042E+02  0.00000000000E+00 0.  1.
</event>
<event>
 7    1  0.3221417E-010  0.4778727E+02  0.7816164E-02  0.1312668E+00
        -11   -1    0    0    0    0  0.00000000000E+00  0.00000000000E+00  0.45593999997E+02  0.45594000000E+02  0.51100000000E-03 0. -1.
         11   -1    0    0    0    0 -0.00000000000E+00 -0.00000000000E+00 -0.45593999997E+02  0.45594000000E+02  0.51100000000E-03 0.  1.
    9900012    2    1    2    0    0 -0.28379451815E+02  0.83619443876E+01 -0.31753864224E+02  0.47787270831E+02  0.19999999025E+02 0.  0.
         12    1    1    2    0    0  0.28379451815E+02 -0.83619443876E+01  0.31753864224E+02  0.43400729169E+02  0.00000000000E+00 0. -1.
         11    1    3    3    0    0 -0.46125132548E+01  0.42213077561E+01 -0.11936440017E+02  0.13474914405E+02  0.51100000000E-03 0. -1.
        -11    1    3    3    0    0 -0.88687839654E+01 -0.47774443455E+01 -0.10718452056E+02  0.14709334391E+02  0.51100000000E-03 0.  1.
        -12    1    3    3    0    0 -0.14898154595E+02  0.89180809769E+01 -0.90989721519E+01  0.19603022034E+02  0.00000000000E+00 0.  1.
</event>
<event>
 7    1  0.3221417E-010  0.4778728E+02  0.7816164E-02  0.1312668E+00
        -11   -1    0    0    0    0  0.00000000000E+00  0.00000000000E+00  0.45593999997E+02  0.45594000000E+02  0.51100000000E-03 0.  1.
         11   -1    0    0    0    0 -0.00000000000E+00 -0.00000000000E+00 -0.45593999997E+02  0.45594000000E+02  0.51100000000E-03 0. -1.
    9900012    2    1    2    0    0 -0.35882188464E+02 -0.24033281266E+02 -0.43002702245E+01  0.47787281326E+02  0.20000046879E+02 0.  0.
         12    1    1    2    0    0  0.35882188464E+02  0.24033281266E+02  0.43002702245E+01  0.43400718674E+02  0.00000000000E+00 0. -1.
         11    1    3    3    0    0 -0.15026362488E+02 -0.15463323714E+02 -0.19681586391E+01  0.21651318634E+02  0.51100000000E-03 0. -1.
        -11    1    3    3    0    0 -0.12962878040E+02 -0.32859223339E+01  0.48528525364E+01  0.14226161487E+02  0.51100000000E-03 0.  1.
         12    1    3    3    0    0 -0.78929479363E+01 -0.52840352182E+01 -0.71849641218E+01  0.11909801205E+02  0.00000000000E+00 0. -1.
</event>
<event>
 7    1  0.3221417E-010  0.4778727E+02  0.7816164E-02  0.1312668E+00
        -11   -1    0    0    0    0  0.00000000000E+00  0.00000000000E+00  0.45593999997E+02  0.45594000000E+02  0.51100000000E-03 0. -1.
         11   -1    0    0    0    0 -0.00000000000E+00 -0.00000000000E+00 -0.45593999997E+02  0.45594000000E+02  0.51100000000E-03 0.  1.
    9900012    2    1    2    0    0 -0.13266715056E+02  0.29497312904E+02  0.28940041445E+02  0.47787271944E+02  0.20000004101E+02 0.  0.
        -12    1    1    2    0    0  0.13266715056E+02 -0.29497312904E+02 -0.28940041445E+02  0.43400728056E+02  0.00000000000E+00 0.  1.
         11    1    3    3    0    0 -0.32063778397E+01  0.20574540262E+02  0.13430388176E+02  0.24778375505E+02  0.51100000000E-03 0. -1.
        -11    1    3    3    0    0 -0.14515247474E+01 -0.11876617299E+00 -0.13797702830E+01  0.20061893707E+01  0.51100000000E-03 0.  1.
        -12    1    3    3    0    0 -0.86088124687E+01  0.90415388152E+01  0.16889423553E+02  0.21002707068E+02  0.00000000000E+00 0.  1.
</event>
<event>
 7    1  0.3221417E-010  0.4778728E+02  0.7816164E-02  0.1312668E+00
        -11   -1    0    0    0    0  0.00000000000E+00  0.00000000000E+00  0.45593999997E+02  0.45594000000E+02  0.51100000000E-03 0. -1.
         11   -1    0    0    0    0 -0.00000000000E+00 -0.00000000000E+00 -0.45593999997E+02  0.45594000000E+02  0.51100000000E-03 0.  1.
    9900012    2    1    2    0    0  0.10653694154E+02 -0.23089421769E+02 -0.35171006062E+02  0.47787282677E+02  0.20000053036E+02 0.  0.
         12    1    1    2    0    0 -0.10653694154E+02  0.23089421769E+02  0.35171006062E+02  0.43400717323E+02  0.00000000000E+00 0. -1.
         11    1    3    3    0    0  0.78876622795E+01 -0.66900171127E+01 -0.10441815517E+02  0.14697042449E+02  0.51100000000E-03 0. -1.
        -11    1    3    3    0    0  0.27879525555E+01 -0.18450534046E+02 -0.24802093618E+02  0.31037698596E+02  0.51100000000E-03 0.  1.
         12    1    3    3    0    0 -0.21920681152E-01  0.20511293899E+01  0.72903072788E-01  0.20525416314E+01  0.00000000000E+00 0. -1.
</event>
<event>
 7    1  0.3462110E-010  0.4778727E+02  0.7816164E-02  0.1312668E+00
        -11   -1    0    0    0    0  0.00000000000E+00  0.00000000000E+00  0.45593999997E+02  0.45594000000E+02  0.51100000000E-03 0. -1.
         11   -1    0    0    0    0 -0.00000000000E+00 -0.00000000000E+00 -0.45593999997E+02  0.45594000000E+02  0.51100000000E-03 0.  1.
    9900012    2    1    2    0    0 -0.15154963695E+02 -0.28842872241E+02 -0.28671221439E+02  0.47787272558E+02  0.20000006901E+02 0.  0.
         12    1    1    2    0    0  0.15154963695E+02  0.28842872241E+02  0.28671221439E+02  0.43400727442E+02  0.00000000000E+00 0. -1.
         11    1    3    3    0    0 -0.12024410140E+02 -0.11833902309E+02 -0.11250353287E+02  0.20278020920E+02  0.51100000000E-03 0. -1.
        -11    1    3    3    0    0 -0.28852340486E+01 -0.17685975176E+02 -0.10954348014E+02  0.21002762535E+02  0.51100000000E-03 0.  1.
         12    1    3    3    0    0 -0.24531950601E+00  0.67700524362E+00 -0.64665201377E+01  0.65064891033E+01  0.00000000000E+00 0. -1.
</event>
<event>
 7    1  0.3221417E-010  0.4778728E+02  0.7816164E-02  0.1312668E+00
        -11   -1    0    0    0    0  0.00000000000E+00  0.00000000000E+00  0.45593999997E+02  0.45594000000E+02  0.51100000000E-03 0. -1.
         11   -1    0    0    0    0 -0.00000000000E+00 -0.00000000000E+00 -0.45593999997E+02  0.45594000000E+02  0.51100000000E-03 0.  1.
    9900012    2    1    2    0    0  0.14850649293E+02 -0.90742397778E+01 -0.39758512095E+02  0.47787275398E+02  0.20000019851E+02 0.  0.
         12    1    1    2    0    0 -0.14850649293E+02  0.90742397778E+01  0.39758512095E+02  0.43400724602E+02  0.00000000000E+00 0. -1.
         11    1    3    3    0    0 -0.13632536738E+01  0.14641153342E+01 -0.31121101310E+00  0.20245855987E+01  0.51100000000E-03 0. -1.
        -11    1    3    3    0    0  0.56399997427E+01 -0.49723786449E+01 -0.28775503973E+02  0.29741616897E+02  0.51100000000E-03 0.  1.
         12    1    3    3    0    0  0.10573903224E+02 -0.55659764671E+01 -0.10671797109E+02  0.16021072903E+02  0.00000000000E+00 0. -1.
</event>
<event>
 7    1  0.3221417E-010  0.4778728E+02  0.7816164E-02  0.1312668E+00
        -11   -1    0    0    0    0  0.00000000000E+00  0.00000000000E+00  0.45593999997E+02  0.45594000000E+02  0.51100000000E-03 0. -1.
         11   -1    0    0    0    0 -0.00000000000E+00 -0.00000000000E+00 -0.45593999997E+02  0.45594000000E+02  0.51100000000E-03 0.  1.
    9900012    2    1    2    0    0 -0.11301229054E+02 -0.12193416634E+02  0.40090218343E+02  0.47787276571E+02  0.20000025200E+02 0.  0.
        -12    1    1    2    0    0  0.11301229054E+02  0.12193416634E+02 -0.40090218343E+02  0.43400723429E+02  0.00000000000E+00 0.  1.
         11    1    3    3    0    0 -0.58433403694E+01 -0.70158873677E+01  0.31627421708E+02  0.32919008284E+02  0.51100000000E-03 0. -1.
        -11    1    3    3    0    0 -0.48164531961E-02  0.26025188201E+01  0.10042294529E+01  0.27895527351E+01  0.51100000000E-03 0.  1.
        -12    1    3    3    0    0 -0.54530722316E+01 -0.77800480867E+01  0.74585671819E+01  0.12078715553E+02  0.00000000000E+00 0.  1.
</event>
<event>
 7    1  0.3221417E-010  0.4778728E+02  0.7816164E-02  0.1312668E+00
        -11   -1    0    0    0    0  0.00000000000E+00  0.00000000000E+00  0.45593999997E+02  0.45594000000E+02  0.51100000000E-03 0. -1.
         11   -1    0    0    0    0 -0.00000000000E+00 -0.00000000000E+00 -0.45593999997E+02  0.45594000000E+02  0.51100000000E-03 0.  1.
    9900012    2    1    2    0    0 -0.18802278824E+02  0.64514348934E+01 -0.38580774452E+02  0.47787275831E+02  0.20000021822E+02 0.  0.
         12    1    1    2    0    0  0.18802278824E+02 -0.64514348934E+01  0.38580774452E+02  0.43400724169E+02  0.00000000000E+00 0. -1.
         11    1    3    3    0    0  0.18334674791E+01  0.16830522582E+01 -0.11820195926E+02  0.12079374980E+02  0.51100000000E-03 0. -1.
        -11    1    3    3    0    0 -0.11479024589E+02  0.15355060929E+01 -0.22069158491E+02  0.24923353331E+02  0.51100000000E-03 0.  1.
         12    1    3    3    0    0 -0.91567217134E+01  0.32328765423E+01 -0.46914200341E+01  0.10784547520E+02  0.00000000000E+00 0. -1.
</event>
<event>
 7    1  0.3221417E-010  0.4778726E+02  0.7816164E-02  0.1312668E+00
        -11   -1    0    0    0    0  0.00000000000E+00  0.00000000000E+00  0.45593999997E+02  0.45594000000E+02  0.51100000000E-03 0. -1.
         11   -1    0    0    0    0 -0.00000000000E+00 -0.00000000000E+00 -0.45593999997E+02  0.45594000000E+02  0.51100000000E-03 0.  1.
    9900012    2    1    2    0    0  0.39128516358E+02 -0.98520690173E+01  0.15984989866E+02  0.47787263170E+02  0.19999964100E+02 0.  0.
        -12    1    1    2    0    0 -0.39128516358E+02  0.98520690173E+01 -0.15984989866E+02  0.43400736830E+02  0.00000000000E+00 0.  1.
         11    1    3    3    0    0  0.13552727711E+02 -0.91846477951E+01  0.23204610412E+01  0.16535377928E+02  0.51100000000E-03 0. -1.
        -11    1    3    3    0    0 -0.66153528583E+00  0.15775932232E+01  0.13618239181E+01  0.21865484118E+01  0.51100000000E-03 0.  1.
         12    1    3    3    0    0  0.26237323933E+02 -0.22450144453E+01  0.12302704907E+02  0.29065336831E+02  0.00000000000E+00 0. -1.
</event>
<event>
 7    1  0.3221417E-010  0.4778728E+02  0.7816164E-02  0.1312668E+00
        -11   -1    0    0    0    0  0.00000000000E+00  0.00000000000E+00  0.45593999997E+02  0.45594000000E+02  0.51100000000E-03 0. -1.
         11   -1    0    0    0    0 -0.00000000000E+00 -0.00000000000E+00 -0.45593999997E+02  0.45594000000E+02  0.51100000000E-03 0.  1.
    9900012    2    1    2    0    0 -0.20015022299E+02  0.29300527143E+02  0.24990009227E+02  0.47787279157E+02  0.20000036991E+02 0.  0.
        -12    1    1    2    0    0  0.20015022299E+02 -0.29300527143E+02 -0.24990009227E+02  0.43400720843E+02  0.00000000000E+00 0.  1.
         11    1    3    3    0    0 -0.96455277180E+01  0.23674368670E+02  0.12290521299E+02  0.28364922897E+02  0.51100000000E-03 0.  1.
        -11    1    3    3    0    0 -0.15131219721E+01  0.30138367212E+01  0.87540135058E+01  0.93811248049E+01  0.51100000000E-03 0. -1.
        -12    1    3    3    0    0 -0.88563726091E+01  0.26123217511E+01  0.39454744221E+01  0.10041231455E+02  0.00000000000E+00 0.  1.
</event>
<event>
 7    1  0.3221417E-010  0.4778726E+02  0.7816164E-02  0.1312668E+00
        -11   -1    0    0    0    0  0.00000000000E+00  0.00000000000E+00  0.45593999997E+02  0.45594000000E+02  0.51100000000E-03 0. -1.
         11   -1    0    0    0    0 -0.00000000000E+00 -0.00000000000E+00 -0.45593999997E+02  0.45594000000E+02  0.51100000000E-03 0.  1.
    9900012    2    1    2    0    0 -0.29303005799E+02 -0.19641778042E+02  0.25281578826E+02  0.47787264737E+02  0.19999971241E+02 0.  0.
        -12    1    1    2    0    0  0.29303005799E+02  0.19641778042E+02 -0.25281578826E+02  0.43400735263E+02  0.00000000000E+00 0.  1.
         11    1    3    3    0    0 -0.11542875560E+02 -0.37799145317E+01  0.15177558158E+02  0.19439238719E+02  0.51100000000E-03 0. -1.
        -11    1    3    3    0    0 -0.10246871004E+02 -0.82803966036E+01  0.11620684468E+02  0.17567118177E+02  0.51100000000E-03 0.  1.
        -12    1    3    3    0    0 -0.75132592349E+01 -0.75814669062E+01 -0.15166638013E+01  0.10780907841E+02  0.00000000000E+00 0.  1.
</event>
<event>
 7    1  0.3221417E-010  0.4778727E+02  0.7816164E-02  0.1312668E+00
        -11   -1    0    0    0    0  0.00000000000E+00  0.00000000000E+00  0.45593999997E+02  0.45594000000E+02  0.51100000000E-03 0. -1.
         11   -1    0    0    0    0 -0.00000000000E+00 -0.00000000000E+00 -0.45593999997E+02  0.45594000000E+02  0.51100000000E-03 0.  1.
    9900012    2    1    2    0    0  0.35541470494E+02  0.10366822472E+02  0.22648532194E+02  0.47787272545E+02  0.20000006844E+02 0.  0.
        -12    1    1    2    0    0 -0.35541470494E+02 -0.10366822472E+02 -0.22648532194E+02  0.43400727455E+02  0.00000000000E+00 0.  1.
         11    1    3    3    0    0  0.10095013185E+02 -0.39610961658E+01  0.53147252556E+01  0.12076666711E+02  0.51100000000E-03 0. -1.
        -11    1    3    3    0    0  0.12678599639E+01  0.37799969789E+01  0.55138664987E+01  0.68043052603E+01  0.51100000000E-03 0.  1.
         12    1    3    3    0    0  0.24178597345E+02  0.10547921659E+02  0.11819940440E+02  0.28906300574E+02  0.00000000000E+00 0. -1.
</event>
<event>
 7    1  0.3221417E-010  0.4778726E+02  0.7816164E-02  0.1312668E+00
        -11   -1    0    0    0    0  0.00000000000E+00  0.00000000000E+00  0.45593999997E+02  0.45594000000E+02  0.51100000000E-03 0. -1.
         11   -1    0    0    0    0 -0.00000000000E+00 -0.00000000000E+00 -0.45593999997E+02  0.45594000000E+02  0.51100000000E-03 0.  1.
    9900012    2    1    2    0    0 -0.12087151187E+02  0.30599875058E+02 -0.28305001128E+02  0.47787255004E+02  0.19999926865E+02 0.  0.
         12    1    1    2    0    0  0.12087151187E+02 -0.30599875058E+02  0.28305001128E+02  0.43400744996E+02  0.00000000000E+00 0. -1.
         11    1    3    3    0    0  0.10027694343E+01 -0.10285944701E+01  0.52754034614E+00  0.15303111449E+01  0.51100000000E-03 0. -1.
        -11    1    3    3    0    0 -0.12175570501E+01  0.17513747456E+02 -0.16314386657E+02  0.23966080351E+02  0.51100000000E-03 0.  1.
        -12    1    3    3    0    0 -0.11872363572E+02  0.14114722072E+02 -0.12518154817E+02  0.22290863509E+02  0.00000000000E+00 0.  1.
</event>
<event>
 7    1  0.3221417E-010  0.4778727E+02  0.7816164E-02  0.1312668E+00
        -11   -1    0    0    0    0  0.00000000000E+00  0.00000000000E+00  0.45593999997E+02  0.45594000000E+02  0.51100000000E-03 0. -1.
         11   -1    0    0    0    0 -0.00000000000E+00 -0.00000000000E+00 -0.45593999997E+02  0.45594000000E+02  0.51100000000E-03 0.  1.
    9900012    2    1    2    0    0  0.16199450685E+02 -0.34795346000E+02 -0.20260430613E+02  0.47787270117E+02  0.19999995773E+02 0.  0.
         12    1    1    2    0    0 -0.16199450685E+02  0.34795346000E+02  0.20260430613E+02  0.43400729883E+02  0.00000000000E+00 0. -1.
         11    1    3    3    0    0  0.59335110435E+01 -0.19558118296E+02 -0.84431576603E+01  0.22113648639E+02  0.51100000000E-03 0. -1.
        -11    1    3    3    0    0  0.47999965016E+01 -0.15443867579E+02 -0.49889659995E+01  0.16924620947E+02  0.51100000000E-03 0.  1.
         12    1    3    3    0    0  0.54659431402E+01  0.20663987543E+00 -0.68283069529E+01  0.87490005311E+01  0.00000000000E+00 0. -1.
</event>
<event>
 7    1  0.3221417E-010  0.4778727E+02  0.7816164E-02  0.1312668E+00
        -11   -1    0    0    0    0  0.00000000000E+00  0.00000000000E+00  0.45593999997E+02  0.45594000000E+02  0.51100000000E-03 0. -1.
         11   -1    0    0    0    0 -0.00000000000E+00 -0.00000000000E+00 -0.45593999997E+02  0.45594000000E+02  0.51100000000E-03 0.  1.
    9900012    2    1    2    0    0 -0.17475616423E+01 -0.31415775636E+02 -0.29893446027E+02  0.47787273671E+02  0.20000011976E+02 0.  0.
         12    1    1    2    0    0  0.17475616423E+01  0.31415775636E+02  0.29893446027E+02  0.43400726329E+02  0.00000000000E+00 0. -1.
         11    1    3    3    0    0 -0.29629364605E+01 -0.25042603228E+02 -0.19914971567E+02  0.32132803514E+02  0.51100000000E-03 0. -1.
        -11    1    3    3    0    0 -0.16309271495E+00 -0.77214537415E+01 -0.27896724458E+01  0.82115601278E+01  0.51100000000E-03 0.  1.
        -12    1    3    3    0    0  0.13784675332E+01  0.13482813340E+01 -0.71888020146E+01  0.74429100290E+01  0.00000000000E+00 0.  1.
</event>
<event>
 7    1  0.3221417E-010  0.4778727E+02  0.7816164E-02  0.1312668E+00
        -11   -1    0    0    0    0  0.00000000000E+00  0.00000000000E+00  0.45593999997E+02  0.45594000000E+02  0.51100000000E-03 0. -1.
         11   -1    0    0    0    0 -0.00000000000E+00 -0.00000000000E+00 -0.45593999997E+02  0.45594000000E+02  0.51100000000E-03 0.  1.
    9900012    2    1    2    0    0 -0.40620873365E+02  0.64708183388E+01 -0.13845456839E+02  0.47787268232E+02  0.19999987177E+02 0.  0.
         12    1    1    2    0    0  0.40620873365E+02 -0.64708183388E+01  0.13845456839E+02  0.43400731768E+02  0.00000000000E+00 0. -1.
         11    1    3    3    0    0 -0.76030311941E+01  0.11504340830E+01 -0.71378186965E+01  0.10491808134E+02  0.51100000000E-03 0.  1.
        -11    1    3    3    0    0 -0.70401383646E+01 -0.13786836978E+01  0.42252721563E+01  0.83256976877E+01  0.51100000000E-03 0. -1.
         12    1    3    3    0    0 -0.25977703806E+02  0.66990679536E+01 -0.10932910299E+02  0.28969762410E+02  0.00000000000E+00 0. -1.
</event>
<event>
 7    1  0.3221417E-010  0.4778727E+02  0.7816164E-02  0.1312668E+00
        -11   -1    0    0    0    0  0.00000000000E+00  0.00000000000E+00  0.45593999997E+02  0.45594000000E+02  0.51100000000E-03 0.  1.
         11   -1    0    0    0    0 -0.00000000000E+00 -0.00000000000E+00 -0.45593999997E+02  0.45594000000E+02  0.51100000000E-03 0. -1.
    9900012    2    1    2    0    0  0.28139960347E+02 -0.27142693225E+02  0.18842508421E+02  0.47787270888E+02  0.19999999286E+02 0.  0.
         12    1    1    2    0    0 -0.28139960347E+02  0.27142693225E+02 -0.18842508421E+02  0.43400729112E+02  0.00000000000E+00 0. -1.
         11    1    3    3    0    0  0.18741072566E+01  0.29685946060E+01  0.21699364865E+01  0.41271608353E+01  0.51100000000E-03 0.  1.
        -11    1    3    3    0    0  0.12439881532E+02 -0.10335046520E+02  0.77422572059E+01  0.17930599154E+02  0.51100000000E-03 0. -1.
        -12    1    3    3    0    0  0.13825971558E+02 -0.19776241311E+02  0.89303147289E+01  0.25729510898E+02  0.00000000000E+00 0.  1.
</event>
<event>
 7    1  0.3221417E-010  0.4778727E+02  0.7816164E-02  0.1312668E+00
        -11   -1    0    0    0    0  0.00000000000E+00  0.00000000000E+00  0.45593999997E+02  0.45594000000E+02  0.51100000000E-03 0. -1.
         11   -1    0    0    0    0 -0.00000000000E+00 -0.00000000000E+00 -0.45593999997E+02  0.45594000000E+02  0.51100000000E-03 0.  1.
    9900012    2    1    2    0    0  0.57858208073E+01 -0.29982918504E+00  0.43012294723E+02  0.47787272848E+02  0.20000008222E+02 0.  0.
        -12    1    1    2    0    0 -0.57858208073E+01  0.29982918504E+00 -0.43012294723E+02  0.43400727152E+02  0.00000000000E+00 0.  1.
         11    1    3    3    0    0 -0.16415444007E+00 -0.61632191779E-01  0.43899619315E+00  0.47271886569E+00  0.51100000000E-03 0. -1.
        -11    1    3    3    0    0  0.52389505053E+01 -0.29606627681E+01  0.15757231207E+01  0.62205329384E+01  0.51100000000E-03 0.  1.
        -12    1    3    3    0    0  0.71102474214E+00  0.27224657749E+01  0.40997575410E+02  0.41094021044E+02  0.00000000000E+00 0.  1.
</event>
<event>
 7    1  0.3221417E-010  0.4778727E+02  0.7816164E-02  0.1312668E+00
        -11   -1    0    0    0    0  0.00000000000E+00  0.00000000000E+00  0.45593999997E+02  0.45594000000E+02  0.51100000000E-03 0. -1.
         11   -1    0    0    0    0 -0.00000000000E+00 -0.00000000000E+00 -0.45593999997E+02  0.45594000000E+02  0.51100000000E-03 0.  1.
    9900012    2    1    2    0    0  0.14940367105E+02  0.29264724371E+02 -0.28354623916E+02  0.47787270062E+02  0.19999995519E+02 0.  0.
         12    1    1    2    0    0 -0.14940367105E+02 -0.29264724371E+02  0.28354623916E+02  0.43400729938E+02  0.00000000000E+00 0. -1.
         11    1    3    3    0    0  0.16612215971E+01  0.82185908762E+00  0.80703740954E+00  0.20214893510E+01  0.51100000000E-03 0. -1.
        -11    1    3    3    0    0  0.14354832451E+02  0.13486013851E+02 -0.20589024875E+02  0.28492836465E+02  0.51100000000E-03 0.  1.
         12    1    3    3    0    0 -0.10756869431E+01  0.14956851433E+02 -0.85726364508E+01  0.17272944245E+02  0.00000000000E+00 0. -1.
</event>
<event>
 7    1  0.3221417E-010  0.4778727E+02  0.7816164E-02  0.1312668E+00
        -11   -1    0    0    0    0  0.00000000000E+00  0.00000000000E+00  0.45593999997E+02  0.45594000000E+02  0.51100000000E-03 0. -1.
         11   -1    0    0    0    0 -0.00000000000E+00 -0.00000000000E+00 -0.45593999997E+02  0.45594000000E+02  0.51100000000E-03 0.  1.
    9900012    2    1    2    0    0  0.62821765184E+01 -0.27314521447E+02  0.33137204847E+02  0.47787272256E+02  0.20000005523E+02 0.  0.
        -12    1    1    2    0    0 -0.62821765184E+01  0.27314521447E+02 -0.33137204847E+02  0.43400727744E+02  0.00000000000E+00 0.  1.
         11    1    3    3    0    0  0.37695972304E+01 -0.10133878938E+02  0.20058308676E+02  0.22786862724E+02  0.51100000000E-03 0. -1.
        -11    1    3    3    0    0  0.19389641993E+01 -0.19151215978E+02  0.11974955191E+02  0.22669984731E+02  0.51100000000E-03 0.  1.
         12    1    3    3    0    0  0.57361508861E+00  0.19705734690E+01  0.11039409793E+01  0.23304248009E+01  0.00000000000E+00 0. -1.
</event>
<event>
 7    1  0.3221417E-010  0.4778727E+02  0.7816164E-02  0.1312668E+00
        -11   -1    0    0    0    0  0.00000000000E+00  0.00000000000E+00  0.45593999997E+02  0.45594000000E+02  0.51100000000E-03 0. -1.
         11   -1    0    0    0    0 -0.00000000000E+00 -0.00000000000E+00 -0.45593999997E+02  0.45594000000E+02  0.51100000000E-03 0.  1.
    9900012    2    1    2    0    0  0.28897489751E+02 -0.22237394418E+02  0.23538406060E+02  0.47787272077E+02  0.20000004706E+02 0.  0.
        -12    1    1    2    0    0 -0.28897489751E+02  0.22237394418E+02 -0.23538406060E+02  0.43400727923E+02  0.00000000000E+00 0.  1.
         11    1    3    3    0    0  0.13051599398E+02 -0.68543109314E+01  0.10690172262E+02  0.18210041418E+02  0.51100000000E-03 0. -1.
        -11    1    3    3    0    0  0.60370893706E+01 -0.13553114759E+01 -0.24164759623E+01  0.66424900152E+01  0.51100000000E-03 0.  1.
         12    1    3    3    0    0  0.98088009830E+01 -0.14027772011E+02  0.15264709761E+02  0.22934740644E+02  0.00000000000E+00 0. -1.
</event>
<event>
 7    1  0.3221417E-010  0.4778727E+02  0.7816164E-02  0.1312668E+00
        -11   -1    0    0    0    0  0.00000000000E+00  0.00000000000E+00  0.45593999997E+02  0.45594000000E+02  0.51100000000E-03 0. -1.
         11   -1    0    0    0    0 -0.00000000000E+00 -0.00000000000E+00 -0.45593999997E+02  0.45594000000E+02  0.51100000000E-03 0.  1.
    9900012    2    1    2    0    0 -0.26410281993E+01 -0.78826242217E+01  0.42597095455E+02  0.47787270332E+02  0.19999996751E+02 0.  0.
        -12    1    1    2    0    0  0.26410281993E+01  0.78826242217E+01 -0.42597095455E+02  0.43400729668E+02  0.00000000000E+00 0.  1.
         11    1    3    3    0    0  0.34953737914E+01 -0.79365066173E+01  0.14499220604E+02  0.16894767640E+02  0.51100000000E-03 0. -1.
        -11    1    3    3    0    0 -0.39429855213E+01 -0.15400015680E+01  0.20489803159E+01  0.47028778685E+01  0.51100000000E-03 0.  1.
         12    1    3    3    0    0 -0.21934164694E+01  0.15938839637E+01  0.26048894535E+02  0.26189624823E+02  0.00000000000E+00 0. -1.
</event>
<event>
 7    1  0.3221417E-010  0.4778727E+02  0.7816164E-02  0.1312668E+00
        -11   -1    0    0    0    0  0.00000000000E+00  0.00000000000E+00  0.45593999997E+02  0.45594000000E+02  0.51100000000E-03 0. -1.
         11   -1    0    0    0    0 -0.00000000000E+00 -0.00000000000E+00 -0.45593999997E+02  0.45594000000E+02  0.51100000000E-03 0.  1.
    9900012    2    1    2    0    0 -0.24015665273E+02 -0.18745341440E+02  0.30910887177E+02  0.47787274773E+02  0.20000017000E+02 0.  0.
        -12    1    1    2    0    0  0.24015665273E+02  0.18745341440E+02 -0.30910887177E+02  0.43400725227E+02  0.00000000000E+00 0.  1.
         11    1    3    3    0    0  0.92367355714E+00 -0.13593074847E+01  0.39620756761E+01  0.42893978135E+01  0.51100000000E-03 0. -1.
        -11    1    3    3    0    0  0.16377178802E+01 -0.41206095183E+01  0.37860344590E+01  0.58305745723E+01  0.51100000000E-03 0.  1.
         12    1    3    3    0    0 -0.26577056710E+02 -0.13265424437E+02  0.23162777041E+02  0.37667302387E+02  0.00000000000E+00 0. -1.
</event>
<event>
 7    1  0.3221417E-010  0.4778724E+02  0.7816164E-02  0.1312668E+00
        -11   -1    0    0    0    0  0.00000000000E+00  0.00000000000E+00  0.45593999997E+02  0.45594000000E+02  0.51100000000E-03 0. -1.
         11   -1    0    0    0    0 -0.00000000000E+00 -0.00000000000E+00 -0.45593999997E+02  0.45594000000E+02  0.51100000000E-03 0.  1.
    9900012    2    1    2    0    0 -0.19236298961E+02 -0.29782439193E+02  0.25031914004E+02  0.47787244238E+02  0.19999877778E+02 0.  0.
        -12    1    1    2    0    0  0.19236298961E+02  0.29782439193E+02 -0.25031914004E+02  0.43400755762E+02  0.00000000000E+00 0.  1.
         11    1    3    3    0    0 -0.29308904457E+01 -0.33000889655E+00  0.64480364700E+00  0.30190721556E+01  0.51100000000E-03 0. -1.
        -11    1    3    3    0    0 -0.10095667056E+02 -0.25005196759E+02  0.25422208950E+02  0.37060370565E+02  0.51100000000E-03 0.  1.
        -12    1    3    3    0    0 -0.62097414598E+01 -0.44472335379E+01 -0.10350985928E+01  0.77078015176E+01  0.00000000000E+00 0.  1.
</event>
<event>
 7    1  0.3221417E-010  0.4778727E+02  0.7816164E-02  0.1312668E+00
        -11   -1    0    0    0    0  0.00000000000E+00  0.00000000000E+00  0.45593999997E+02  0.45594000000E+02  0.51100000000E-03 0. -1.
         11   -1    0    0    0    0 -0.00000000000E+00 -0.00000000000E+00 -0.45593999997E+02  0.45594000000E+02  0.51100000000E-03 0.  1.
    9900012    2    1    2    0    0 -0.76993075262E+01  0.40676384992E+02  0.13029794220E+02  0.47787272243E+02  0.20000005465E+02 0.  0.
        -12    1    1    2    0    0  0.76993075262E+01 -0.40676384992E+02 -0.13029794220E+02  0.43400727757E+02  0.00000000000E+00 0.  1.
         11    1    3    3    0    0 -0.15202316999E+01  0.16140413767E+02 -0.24392296775E+01  0.16394325319E+02  0.51100000000E-03 0. -1.
        -11    1    3    3    0    0 -0.26790574043E+01  0.96557906624E+00  0.40972724194E+01  0.49897227426E+01  0.51100000000E-03 0.  1.
         12    1    3    3    0    0 -0.35000184220E+01  0.23570392160E+02  0.11371751478E+02  0.26403224182E+02  0.00000000000E+00 0. -1.
</event>
<event>
 7    1  0.3221417E-010  0.4778727E+02  0.7816164E-02  0.1312668E+00
        -11   -1    0    0    0    0  0.00000000000E+00  0.00000000000E+00  0.45593999997E+02  0.45594000000E+02  0.51100000000E-03 0. -1.
         11   -1    0    0    0    0 -0.00000000000E+00 -0.00000000000E+00 -0.45593999997E+02  0.45594000000E+02  0.51100000000E-03 0.  1.
    9900012    2    1    2    0    0 -0.24216952200E+02 -0.17927338779E+02 -0.31237368088E+02  0.47787269422E+02  0.19999992604E+02 0.  0.
         12    1    1    2    0    0  0.24216952200E+02  0.17927338779E+02  0.31237368088E+02  0.43400730578E+02  0.00000000000E+00 0. -1.
         11    1    3    3    0    0 -0.74133704624E+01 -0.12085722418E+02 -0.98973873453E+01  0.17291067766E+02  0.51100000000E-03 0. -1.
        -11    1    3    3    0    0 -0.18064053940E+02 -0.73562437832E+01 -0.20658382823E+02  0.28411144793E+02  0.51100000000E-03 0.  1.
        -12    1    3    3    0    0  0.12604722017E+01  0.15146274216E+01 -0.68159791980E+00  0.20850568630E+01  0.00000000000E+00 0.  1.
</event>
<event>
 7    1  0.3221417E-010  0.4778727E+02  0.7816164E-02  0.1312668E+00
        -11   -1    0    0    0    0  0.00000000000E+00  0.00000000000E+00  0.45593999997E+02  0.45594000000E+02  0.51100000000E-03 0. -1.
         11   -1    0    0    0    0 -0.00000000000E+00 -0.00000000000E+00 -0.45593999997E+02  0.45594000000E+02  0.51100000000E-03 0.  1.
    9900012    2    1    2    0    0  0.27239078927E+02 -0.19953178991E+02  0.27267684752E+02  0.47787269541E+02  0.19999993147E+02 0.  0.
        -12    1    1    2    0    0 -0.27239078927E+02  0.19953178991E+02 -0.27267684752E+02  0.43400730459E+02  0.00000000000E+00 0.  1.
         11    1    3    3    0    0  0.17677782841E+02 -0.87779755214E+01  0.20950629622E+02  0.28783428257E+02  0.51100000000E-03 0. -1.
        -11    1    3    3    0    0  0.98818009763E+01 -0.12242228030E+02  0.74563631301E+01  0.17410327081E+02  0.51100000000E-03 0.  1.
         12    1    3    3    0    0 -0.32050489026E+00  0.10670245605E+01 -0.11393080003E+01  0.15935142035E+01  0.00000000000E+00 0. -1.
</event>
<event>
 7    1  0.3221417E-010  0.4778728E+02  0.7816164E-02  0.1312668E+00
        -11   -1    0    0    0    0  0.00000000000E+00  0.00000000000E+00  0.45593999997E+02  0.45594000000E+02  0.51100000000E-03 0. -1.
         11   -1    0    0    0    0 -0.00000000000E+00 -0.00000000000E+00 -0.45593999997E+02  0.45594000000E+02  0.51100000000E-03 0.  1.
    9900012    2    1    2    0    0 -0.25914673657E+02  0.55671547941E+00  0.34810092837E+02  0.47787276432E+02  0.20000024564E+02 0.  0.
        -12    1    1    2    0    0  0.25914673657E+02 -0.55671547941E+00 -0.34810092837E+02  0.43400723568E+02  0.00000000000E+00 0.  1.
         11    1    3    3    0    0 -0.13212361329E+02 -0.73271372551E+01  0.10438003357E+02  0.18363151870E+02  0.51100000000E-03 0. -1.
        -11    1    3    3    0    0 -0.33177787896E+01  0.37282841672E+01  0.32932930463E+01  0.59794262500E+01  0.51100000000E-03 0.  1.
         12    1    3    3    0    0 -0.93845335385E+01  0.41555685672E+01  0.21078796434E+02  0.23444698312E+02  0.00000000000E+00 0. -1.
</event>
<event>
 7    1  0.3221417E-010  0.4778727E+02  0.7816164E-02  0.1312668E+00
        -11   -1    0    0    0    0  0.00000000000E+00  0.00000000000E+00  0.45593999997E+02  0.45594000000E+02  0.51100000000E-03 0. -1.
         11   -1    0    0    0    0 -0.00000000000E+00 -0.00000000000E+00 -0.45593999997E+02  0.45594000000E+02  0.51100000000E-03 0.  1.
    9900012    2    1    2    0    0  0.17088747687E+02 -0.37675922863E+02  0.13119558655E+02  0.47787270969E+02  0.19999999658E+02 0.  0.
        -12    1    1    2    0    0 -0.17088747687E+02  0.37675922863E+02 -0.13119558655E+02  0.43400729031E+02  0.00000000000E+00 0.  1.
         11    1    3    3    0    0  0.43317661935E+01 -0.18152664090E+02  0.26314391328E+01  0.18846959545E+02  0.51100000000E-03 0. -1.
        -11    1    3    3    0    0  0.11329916438E+02 -0.54188242800E+01  0.30200785167E+01  0.12917102523E+02  0.51100000000E-03 0.  1.
         12    1    3    3    0    0  0.14270650553E+01 -0.14104434492E+02  0.74680410059E+01  0.16023208901E+02  0.00000000000E+00 0. -1.
</event>
<event>
 7    1  0.3221417E-010  0.4778727E+02  0.7816164E-02  0.1312668E+00
        -11   -1    0    0    0    0  0.00000000000E+00  0.00000000000E+00  0.45593999997E+02  0.45594000000E+02  0.51100000000E-03 0.  1.
         11   -1    0    0    0    0 -0.00000000000E+00 -0.00000000000E+00 -0.45593999997E+02  0.45594000000E+02  0.51100000000E-03 0. -1.
    9900012    2    1    2    0    0  0.33122490665E+02 -0.22779446126E+02 -0.16359120325E+02  0.47787269920E+02  0.19999994872E+02 0.  0.
         12    1    1    2    0    0 -0.33122490665E+02  0.22779446126E+02  0.16359120325E+02  0.43400730080E+02  0.00000000000E+00 0. -1.
         11    1    3    3    0    0  0.18325869423E+01  0.19989438578E+01 -0.10050504886E+01  0.28921061864E+01  0.51100000000E-03 0. -1.
        -11    1    3    3    0    0  0.23853328779E+02 -0.13040670599E+02 -0.14881501364E+02  0.30991925830E+02  0.51100000000E-03 0.  1.
        -12    1    3    3    0    0  0.74365749437E+01 -0.11737719385E+02 -0.47256847312E+00  0.13903237904E+02  0.00000000000E+00 0.  1.
</event>
<event>
 7    1  0.3221417E-010  0.4778727E+02  0.7816164E-02  0.1312668E+00
        -11   -1    0    0    0    0  0.00000000000E+00  0.00000000000E+00  0.45593999997E+02  0.45594000000E+02  0.51100000000E-03 0. -1.
         11   -1    0    0    0    0 -0.00000000000E+00 -0.00000000000E+00 -0.45593999997E+02  0.45594000000E+02  0.51100000000E-03 0.  1.
    9900012    2    1    2    0    0  0.57178409598E+01  0.40622321335E+02 -0.14168868253E+02  0.47787268169E+02  0.19999986889E+02 0.  0.
         12    1    1    2    0    0 -0.57178409598E+01 -0.40622321335E+02  0.14168868253E+02  0.43400731831E+02  0.00000000000E+00 0. -1.
         11    1    3    3    0    0 -0.24449866230E+01 -0.52693992930E-01 -0.22920886444E+00  0.24562722179E+01  0.51100000000E-03 0. -1.
        -11    1    3    3    0    0  0.48485048052E+01  0.16951167735E+02 -0.11939837929E+02  0.21293421906E+02  0.51100000000E-03 0.  1.
         12    1    3    3    0    0  0.33143227776E+01  0.23723847593E+02 -0.19998214595E+01  0.24037574045E+02  0.00000000000E+00 0. -1.
</event>
<event>
 7    1  0.3221417E-010  0.4778727E+02  0.7816164E-02  0.1312668E+00
        -11   -1    0    0    0    0  0.00000000000E+00  0.00000000000E+00  0.45593999997E+02  0.45594000000E+02  0.51100000000E-03 0. -1.
         11   -1    0    0    0    0 -0.00000000000E+00 -0.00000000000E+00 -0.45593999997E+02  0.45594000000E+02  0.51100000000E-03 0.  1.
    9900012    2    1    2    0    0 -0.26911539409E+02  0.94461272458E+01  0.32713345098E+02  0.47787271656E+02  0.20000002788E+02 0.  0.
        -12    1    1    2    0    0  0.26911539409E+02 -0.94461272458E+01 -0.32713345098E+02  0.43400728344E+02  0.00000000000E+00 0.  1.
         11    1    3    3    0    0 -0.90720201380E+00 -0.15837134784E+01  0.72882368014E+01  0.75132922085E+01  0.51100000000E-03 0. -1.
        -11    1    3    3    0    0 -0.80108098203E+01  0.71803421227E+01  0.28100358573E+01  0.11118753921E+02  0.51100000000E-03 0.  1.
         12    1    3    3    0    0 -0.17993527575E+02  0.38494986015E+01  0.22615072439E+02  0.29155225526E+02  0.00000000000E+00 0. -1.
</event>
<event>
 7    1  0.3221417E-010  0.4778726E+02  0.7816164E-02  0.1312668E+00
        -11   -1    0    0    0    0  0.00000000000E+00  0.00000000000E+00  0.45593999997E+02  0.45594000000E+02  0.51100000000E-03 0. -1.
         11   -1    0    0    0    0 -0.00000000000E+00 -0.00000000000E+00 -0.45593999997E+02  0.45594000000E+02  0.51100000000E-03 0.  1.
    9900012    2    1    2    0    0  0.18858448921E+02 -0.16883496626E+02 -0.35255226567E+02  0.47787256293E+02  0.19999932740E+02 0.  0.
         12    1    1    2    0    0 -0.18858448921E+02  0.16883496626E+02  0.35255226567E+02  0.43400743707E+02  0.00000000000E+00 0. -1.
         11    1    3    3    0    0 -0.10250399644E+01 -0.32771743876E+01 -0.12339351454E+02  0.12808207270E+02  0.51100000000E-03 0. -1.
        -11    1    3    3    0    0  0.28107885104E+01  0.11975675759E+01 -0.60636001066E+01  0.67898414314E+01  0.51100000000E-03 0.  1.
        -12    1    3    3    0    0  0.17072700375E+02 -0.14803889814E+02 -0.16852275007E+02  0.28189207591E+02  0.00000000000E+00 0.  1.
</event>
<event>
 7    1  0.3221417E-010  0.4778728E+02  0.7816164E-02  0.1312668E+00
        -11   -1    0    0    0    0  0.00000000000E+00  0.00000000000E+00  0.45593999997E+02  0.45594000000E+02  0.51100000000E-03 0. -1.
         11   -1    0    0    0    0 -0.00000000000E+00 -0.00000000000E+00 -0.45593999997E+02  0.45594000000E+02  0.51100000000E-03 0.  1.
    9900012    2    1    2    0    0 -0.22695891568E+02 -0.22113651025E+02 -0.29656460662E+02  0.47787277486E+02  0.20000029371E+02 0.  0.
         12    1    1    2    0    0  0.22695891568E+02  0.22113651025E+02  0.29656460662E+02  0.43400722514E+02  0.00000000000E+00 0. -1.
         11    1    3    3    0    0 -0.19546781820E+00  0.21458197113E+01 -0.61284967964E+01  0.64962468507E+01  0.51100000000E-03 0. -1.
        -11    1    3    3    0    0 -0.39609823968E+01 -0.35192698710E+01 -0.75084853152E+01  0.91897766002E+01  0.51100000000E-03 0.  1.
        -12    1    3    3    0    0 -0.18539441353E+02 -0.20740200866E+02 -0.16019478551E+02  0.32101254035E+02  0.00000000000E+00 0.  1.
</event>
<event>
 7    1  0.3221417E-010  0.4778728E+02  0.7816164E-02  0.1312668E+00
        -11   -1    0    0    0    0  0.00000000000E+00  0.00000000000E+00  0.45593999997E+02  0.45594000000E+02  0.51100000000E-03 0. -1.
         11   -1    0    0    0    0 -0.00000000000E+00 -0.00000000000E+00 -0.45593999997E+02  0.45594000000E+02  0.51100000000E-03 0.  1.
    9900012    2    1    2    0    0  0.24888726690E+02 -0.34649301201E+02  0.79749652770E+01  0.47787275799E+02  0.20000021680E+02 0.  0.
        -12    1    1    2    0    0 -0.24888726690E+02  0.34649301201E+02 -0.79749652770E+01  0.43400724201E+02  0.00000000000E+00 0.  1.
         11    1    3    3    0    0  0.52843515747E+01 -0.16539098652E+02  0.50399313180E+01  0.18079465250E+02  0.51100000000E-03 0. -1.
        -11    1    3    3    0    0  0.33198867903E+01 -0.28520365951E+00  0.44005152551E+01  0.55197395047E+01  0.51100000000E-03 0.  1.
         12    1    3    3    0    0  0.16284488325E+02 -0.17824998890E+02 -0.14654812962E+01  0.24188071045E+02  0.00000000000E+00 0. -1.
</event>
<event>
 7    1  0.3221417E-010  0.4778727E+02  0.7816164E-02  0.1312668E+00
        -11   -1    0    0    0    0  0.00000000000E+00  0.00000000000E+00  0.45593999997E+02  0.45594000000E+02  0.51100000000E-03 0. -1.
         11   -1    0    0    0    0 -0.00000000000E+00 -0.00000000000E+00 -0.45593999997E+02  0.45594000000E+02  0.51100000000E-03 0.  1.
    9900012    2    1    2    0    0  0.23741765271E+02 -0.35285973989E+02 -0.86516912740E+01  0.47787272582E+02  0.20000007009E+02 0.  0.
         12    1    1    2    0    0 -0.23741765271E+02  0.35285973989E+02  0.86516912740E+01  0.43400727418E+02  0.00000000000E+00 0. -1.
         11    1    3    3    0    0  0.13885759511E+02 -0.17943132817E+02 -0.21139363496E+01  0.22786817673E+02  0.51100000000E-03 0.  1.
        -11    1    3    3    0    0  0.60991852922E+01 -0.12017588081E+02 -0.10751342916E+02  0.17239891510E+02  0.51100000000E-03 0. -1.
         12    1    3    3    0    0  0.37568204669E+01 -0.53252530912E+01  0.42135879916E+01  0.77605633989E+01  0.00000000000E+00 0. -1.
</event>
<event>
 7    1  0.3221417E-010  0.4778727E+02  0.7816164E-02  0.1312668E+00
        -11   -1    0    0    0    0  0.00000000000E+00  0.00000000000E+00  0.45593999997E+02  0.45594000000E+02  0.51100000000E-03 0. -1.
         11   -1    0    0    0    0 -0.00000000000E+00 -0.00000000000E+00 -0.45593999997E+02  0.45594000000E+02  0.51100000000E-03 0.  1.
    9900012    2    1    2    0    0  0.16736101624E+02  0.11022682416E+02 -0.38497097418E+02  0.47787272647E+02  0.20000007305E+02 0.  0.
         12    1    1    2    0    0 -0.16736101624E+02 -0.11022682416E+02  0.38497097418E+02  0.43400727353E+02  0.00000000000E+00 0. -1.
         11    1    3    3    0    0  0.11127224844E+02  0.60281806825E+01 -0.14373311926E+02  0.19150618555E+02  0.51100000000E-03 0. -1.
        -11    1    3    3    0    0  0.41135827548E+01  0.16434988061E+01 -0.24546408634E+02  0.24942911388E+02  0.51100000000E-03 0.  1.
         12    1    3    3    0    0  0.14952940254E+01  0.33510029270E+01  0.42262314227E+00  0.36937427034E+01  0.00000000000E+00 0. -1.
</event>
<event>
 7    1  0.3221417E-010  0.4778727E+02  0.7816164E-02  0.1312668E+00
        -11   -1    0    0    0    0  0.00000000000E+00  0.00000000000E+00  0.45593999997E+02  0.45594000000E+02  0.51100000000E-03 0. -1.
         11   -1    0    0    0    0 -0.00000000000E+00 -0.00000000000E+00 -0.45593999997E+02  0.45594000000E+02  0.51100000000E-03 0.  1.
    9900012    2    1    2    0    0  0.17341640027E+02  0.27647380083E+00  0.39784598114E+02  0.47787272313E+02  0.20000005785E+02 0.  0.
        -12    1    1    2    0    0 -0.17341640027E+02 -0.27647380083E+00 -0.39784598114E+02  0.43400727687E+02  0.00000000000E+00 0.  1.
         11    1    3    3    0    0 -0.26473156889E+01  0.93581057955E+00  0.44364462439E+01  0.52503406874E+01  0.51100000000E-03 0. -1.
        -11    1    3    3    0    0  0.12219059471E+02  0.38051728175E+01  0.28555629228E+02  0.31292310803E+02  0.51100000000E-03 0.  1.
        -12    1    3    3    0    0  0.77698962456E+01 -0.44645095962E+01  0.67925226426E+01  0.11244620823E+02  0.00000000000E+00 0.  1.
</event>
<event>
 7    1  0.3221417E-010  0.4778721E+02  0.7816164E-02  0.1312668E+00
        -11   -1    0    0    0    0  0.00000000000E+00  0.00000000000E+00  0.45593999997E+02  0.45594000000E+02  0.51100000000E-03 0. -1.
         11   -1    0    0    0    0 -0.00000000000E+00 -0.00000000000E+00 -0.45593999997E+02  0.45594000000E+02  0.51100000000E-03 0.  1.
    9900012    2    1    2    0    0  0.57993477532E+01  0.12100615058E+02 -0.41274346325E+02  0.47787205264E+02  0.19999700077E+02 0.  0.
         12    1    1    2    0    0 -0.57993477532E+01 -0.12100615058E+02  0.41274346325E+02  0.43400794736E+02  0.00000000000E+00 0. -1.
         11    1    3    3    0    0  0.65798961755E+00 -0.57362353219E+00  0.42253582322E+00  0.96980981461E+00  0.51100000000E-03 0. -1.
        -11    1    3    3    0    0  0.52934945564E+01  0.11395064444E+02 -0.43110917450E+02  0.44904563041E+02  0.51100000000E-03 0.  1.
        -12    1    3    3    0    0 -0.15213642070E+00  0.12791741466E+01  0.14140353013E+01  0.19128324080E+01  0.00000000000E+00 0.  1.
</event>
<event>
 7    1  0.3221417E-010  0.4778727E+02  0.7816164E-02  0.1312668E+00
        -11   -1    0    0    0    0  0.00000000000E+00  0.00000000000E+00  0.45593999997E+02  0.45594000000E+02  0.51100000000E-03 0. -1.
         11   -1    0    0    0    0 -0.00000000000E+00 -0.00000000000E+00 -0.45593999997E+02  0.45594000000E+02  0.51100000000E-03 0.  1.
    9900012    2    1    2    0    0  0.11478790988E+02  0.20620629754E+02 -0.36423214605E+02  0.47787267562E+02  0.19999984121E+02 0.  0.
         12    1    1    2    0    0 -0.11478790988E+02 -0.20620629754E+02  0.36423214605E+02  0.43400732438E+02  0.00000000000E+00 0. -1.
         11    1    3    3    0    0 -0.25810353524E+01  0.11614023466E+00 -0.67075183705E+01  0.71879089446E+01  0.51100000000E-03 0. -1.
        -11    1    3    3    0    0  0.23848585452E+01  0.26975155024E+01  0.49961759137E+00  0.36350733369E+01  0.51100000000E-03 0.  1.
        -12    1    3    3    0    0  0.11674967796E+02  0.17806974017E+02 -0.30215313826E+02  0.36964285280E+02  0.00000000000E+00 0.  1.
</event>
<event>
 7    1  0.3221417E-010  0.4778727E+02  0.7816164E-02  0.1312668E+00
        -11   -1    0    0    0    0  0.00000000000E+00  0.00000000000E+00  0.45593999997E+02  0.45594000000E+02  0.51100000000E-03 0. -1.
         11   -1    0    0    0    0 -0.00000000000E+00 -0.00000000000E+00 -0.45593999997E+02  0.45594000000E+02  0.51100000000E-03 0.  1.
    9900012    2    1    2    0    0  0.20856014828E+02 -0.28818642150E+02 -0.24862330633E+02  0.47787274495E+02  0.20000015732E+02 0.  0.
         12    1    1    2    0    0 -0.20856014828E+02  0.28818642150E+02  0.24862330633E+02  0.43400725505E+02  0.00000000000E+00 0. -1.
         11    1    3    3    0    0  0.15895994869E+01  0.22363186038E+01  0.48915070133E+00  0.27869725682E+01  0.51100000000E-03 0. -1.
        -11    1    3    3    0    0  0.71248132356E+01 -0.62230095231E+01 -0.77647800651E+01  0.12238489322E+02  0.51100000000E-03 0.  1.
         12    1    3    3    0    0  0.12141602106E+02 -0.24831951230E+02 -0.17586701269E+02  0.32761812605E+02  0.00000000000E+00 0. -1.
</event>
<event>
 7    1  0.3221417E-010  0.4778727E+02  0.7816164E-02  0.1312668E+00
        -11   -1    0    0    0    0  0.00000000000E+00  0.00000000000E+00  0.45593999997E+02  0.45594000000E+02  0.51100000000E-03 0. -1.
         11   -1    0    0    0    0 -0.00000000000E+00 -0.00000000000E+00 -0.45593999997E+02  0.45594000000E+02  0.51100000000E-03 0.  1.
    9900012    2    1    2    0    0  0.31259800902E+02 -0.94265185016E+01 -0.28593506431E+02  0.47787274044E+02  0.20000013674E+02 0.  0.
         12    1    1    2    0    0 -0.31259800902E+02  0.94265185016E+01  0.28593506431E+02  0.43400725956E+02  0.00000000000E+00 0. -1.
         11    1    3    3    0    0  0.10393816837E+02 -0.64798394700E+01 -0.12107814858E+02  0.17222628397E+02  0.51100000000E-03 0. -1.
        -11    1    3    3    0    0  0.16055331515E+02 -0.82719906105E+01 -0.89444330786E+01  0.20154463081E+02  0.51100000000E-03 0.  1.
         12    1    3    3    0    0  0.48106525503E+01  0.53253115789E+01 -0.75412584943E+01  0.10410182566E+02  0.00000000000E+00 0. -1.
</event>
<event>
 7    1  0.3221417E-010  0.4778727E+02  0.7816164E-02  0.1312668E+00
        -11   -1    0    0    0    0  0.00000000000E+00  0.00000000000E+00  0.45593999997E+02  0.45594000000E+02  0.51100000000E-03 0. -1.
         11   -1    0    0    0    0 -0.00000000000E+00 -0.00000000000E+00 -0.45593999997E+02  0.45594000000E+02  0.51100000000E-03 0.  1.
    9900012    2    1    2    0    0 -0.30309571337E+02 -0.12919803088E+02 -0.28249457962E+02  0.47787270725E+02  0.19999998543E+02 0.  0.
         12    1    1    2    0    0  0.30309571337E+02  0.12919803088E+02  0.28249457962E+02  0.43400729275E+02  0.00000000000E+00 0. -1.
         11    1    3    3    0    0 -0.19204104971E+02 -0.12715058709E+02 -0.20810513395E+02  0.31041066891E+02  0.51100000000E-03 0. -1.
        -11    1    3    3    0    0 -0.92768373326E+01 -0.44801510669E+01 -0.57560024667E+01  0.11800975770E+02  0.51100000000E-03 0.  1.
        -12    1    3    3    0    0 -0.18286290331E+01  0.42754066876E+01 -0.16829421004E+01  0.49452280633E+01  0.00000000000E+00 0.  1.
</event>
<event>
 7    1  0.3221417E-010  0.4778725E+02  0.7816164E-02  0.1312668E+00
        -11   -1    0    0    0    0  0.00000000000E+00  0.00000000000E+00  0.45593999997E+02  0.45594000000E+02  0.51100000000E-03 0. -1.
         11   -1    0    0    0    0 -0.00000000000E+00 -0.00000000000E+00 -0.45593999997E+02  0.45594000000E+02  0.51100000000E-03 0.  1.
    9900012    2    1    2    0    0 -0.21542899266E+02 -0.25703623265E+02 -0.27547268412E+02  0.47787253985E+02  0.19999922218E+02 0.  0.
         12    1    1    2    0    0  0.21542899266E+02  0.25703623265E+02  0.27547268412E+02  0.43400746015E+02  0.00000000000E+00 0. -1.
         11    1    3    3    0    0 -0.59641881356E+01 -0.94463364799E+01 -0.11050161973E+02  0.15713398515E+02  0.51100000000E-03 0. -1.
        -11    1    3    3    0    0 -0.10625346572E+02 -0.10311908143E+02 -0.18864588007E+02  0.23981370275E+02  0.51100000000E-03 0.  1.
         12    1    3    3    0    0 -0.49533645580E+01 -0.59453786427E+01  0.23674815683E+01  0.80924851947E+01  0.00000000000E+00 0. -1.
</event>
<event>
 7    1  0.3221417E-010  0.4778727E+02  0.7816164E-02  0.1312668E+00
        -11   -1    0    0    0    0  0.00000000000E+00  0.00000000000E+00  0.45593999997E+02  0.45594000000E+02  0.51100000000E-03 0. -1.
         11   -1    0    0    0    0 -0.00000000000E+00 -0.00000000000E+00 -0.45593999997E+02  0.45594000000E+02  0.51100000000E-03 0.  1.
    9900012    2    1    2    0    0 -0.23039797872E+02  0.17486022000E+02 -0.32357838289E+02  0.47787274775E+02  0.20000017007E+02 0.  0.
         12    1    1    2    0    0  0.23039797872E+02 -0.17486022000E+02  0.32357838289E+02  0.43400725225E+02  0.00000000000E+00 0. -1.
         11    1    3    3    0    0  0.10209445763E+01  0.18763986864E+00 -0.74221570527E+00  0.12760959848E+01  0.51100000000E-03 0. -1.
        -11    1    3    3    0    0 -0.57535125469E+01  0.88403980212E+01 -0.21503951322E+02  0.23951523261E+02  0.51100000000E-03 0.  1.
         12    1    3    3    0    0 -0.18307229902E+02  0.84579841096E+01 -0.10111671261E+02  0.22559655529E+02  0.00000000000E+00 0. -1.
</event>
<event>
 7    1  0.3221417E-010  0.4778727E+02  0.7816164E-02  0.1312668E+00
        -11   -1    0    0    0    0  0.00000000000E+00  0.00000000000E+00  0.45593999997E+02  0.45594000000E+02  0.51100000000E-03 0. -1.
         11   -1    0    0    0    0 -0.00000000000E+00 -0.00000000000E+00 -0.45593999997E+02  0.45594000000E+02  0.51100000000E-03 0.  1.
    9900012    2    1    2    0    0 -0.10160455841E+02  0.86825900336E+01  0.41291661110E+02  0.47787268327E+02  0.19999987608E+02 0.  0.
        -12    1    1    2    0    0  0.10160455841E+02 -0.86825900336E+01 -0.41291661110E+02  0.43400731673E+02  0.00000000000E+00 0.  1.
         11    1    3    3    0    0 -0.16665836799E+01 -0.39223185376E+01  0.24892326881E+02  0.25254504978E+02  0.51100000000E-03 0. -1.
        -11    1    3    3    0    0 -0.22160156659E+01  0.48762998115E+01  0.43385502068E+01  0.68928980438E+01  0.51100000000E-03 0.  1.
         12    1    3    3    0    0 -0.62778564952E+01  0.77286087597E+01  0.12060784022E+02  0.15639865305E+02  0.00000000000E+00 0. -1.
</event>
<event>
 7    1  0.3221417E-010  0.4778727E+02  0.7816164E-02  0.1312668E+00
        -11   -1    0    0    0    0  0.00000000000E+00  0.00000000000E+00  0.45593999997E+02  0.45594000000E+02  0.51100000000E-03 0. -1.
         11   -1    0    0    0    0 -0.00000000000E+00 -0.00000000000E+00 -0.45593999997E+02  0.45594000000E+02  0.51100000000E-03 0.  1.
    9900012    2    1    2    0    0 -0.23295870159E+02  0.16910978522E+02 -0.32479908070E+02  0.47787272019E+02  0.20000004443E+02 0.  0.
         12    1    1    2    0    0  0.23295870159E+02 -0.16910978522E+02  0.32479908070E+02  0.43400727981E+02  0.00000000000E+00 0. -1.
         11    1    3    3    0    0 -0.11062579269E+01  0.17018012863E+01 -0.15336730727E+02  0.15470463596E+02  0.51100000000E-03 0. -1.
        -11    1    3    3    0    0 -0.93548331847E+01  0.35857823727E+01 -0.73302341673E+01  0.12413825855E+02  0.51100000000E-03 0.  1.
        -12    1    3    3    0    0 -0.12834779047E+02  0.11623394863E+02 -0.98129431759E+01  0.19902982568E+02  0.00000000000E+00 0.  1.
</event>
<event>
 7    1  0.3221417E-010  0.4778727E+02  0.7816164E-02  0.1312668E+00
        -11   -1    0    0    0    0  0.00000000000E+00  0.00000000000E+00  0.45593999997E+02  0.45594000000E+02  0.51100000000E-03 0.  1.
         11   -1    0    0    0    0 -0.00000000000E+00 -0.00000000000E+00 -0.45593999997E+02  0.45594000000E+02  0.51100000000E-03 0. -1.
    9900012    2    1    2    0    0 -0.33124538365E+02  0.16388281707E+02 -0.22755487355E+02  0.47787273923E+02  0.20000013126E+02 0.  0.
         12    1    1    2    0    0  0.33124538365E+02 -0.16388281707E+02  0.22755487355E+02  0.43400726077E+02  0.00000000000E+00 0. -1.
         11    1    3    3    0    0 -0.51896954819E+01 -0.58725868649E+00 -0.10567685174E-01  0.52228271938E+01  0.51100000000E-03 0. -1.
        -11    1    3    3    0    0 -0.12280595300E+02  0.16010339306E+02 -0.11094133463E+02  0.23026588613E+02  0.51100000000E-03 0.  1.
        -12    1    3    3    0    0 -0.15654247584E+02  0.96520108789E+00 -0.11650786206E+02  0.19537858116E+02  0.00000000000E+00 0.  1.
</event>
<event>
 7    1  0.3221417E-010  0.4778727E+02  0.7816164E-02  0.1312668E+00
        -11   -1    0    0    0    0  0.00000000000E+00  0.00000000000E+00  0.45593999997E+02  0.45594000000E+02  0.51100000000E-03 0. -1.
         11   -1    0    0    0    0 -0.00000000000E+00 -0.00000000000E+00 -0.45593999997E+02  0.45594000000E+02  0.51100000000E-03 0.  1.
    9900012    2    1    2    0    0  0.27283483716E+01 -0.72366884043E+01 -0.42706083829E+02  0.47787272588E+02  0.20000007036E+02 0.  0.
         12    1    1    2    0    0 -0.27283483716E+01  0.72366884043E+01  0.42706083829E+02  0.43400727412E+02  0.00000000000E+00 0. -1.
         11    1    3    3    0    0 -0.20522372694E+01 -0.45955680869E+01 -0.56566528726E+01  0.75715682546E+01  0.51100000000E-03 0. -1.
        -11    1    3    3    0    0  0.48009138273E+01 -0.57394623903E+01 -0.36252195249E+02  0.37016372901E+02  0.51100000000E-03 0.  1.
         12    1    3    3    0    0 -0.20328186299E-01  0.30983420730E+01 -0.79723570720E+00  0.31993314316E+01  0.00000000000E+00 0. -1.
</event>
<event>
 7    1  0.3221417E-010  0.4778724E+02  0.7816164E-02  0.1312668E+00
        -11   -1    0    0    0    0  0.00000000000E+00  0.00000000000E+00  0.45593999997E+02  0.45594000000E+02  0.51100000000E-03 0.  1.
         11   -1    0    0    0    0 -0.00000000000E+00 -0.00000000000E+00 -0.45593999997E+02  0.45594000000E+02  0.51100000000E-03 0. -1.
    9900012    2    1    2    0    0  0.32642391863E+02  0.26136864637E+02 -0.11617412432E+02  0.47787242965E+02  0.19999871974E+02 0.  0.
        -12    1    1    2    0    0 -0.32642391863E+02 -0.26136864637E+02  0.11617412432E+02  0.43400757035E+02  0.00000000000E+00 0.  1.
         11    1    3    3    0    0  0.23606949554E+02  0.13753583928E+02 -0.30433607613E+01  0.27490201583E+02  0.51100000000E-03 0. -1.
        -11    1    3    3    0    0  0.65266323222E+01  0.12392694721E+01 -0.13426634824E+01  0.67775706401E+01  0.51100000000E-03 0.  1.
        -12    1    3    3    0    0  0.25088099873E+01  0.11144011237E+02 -0.72313881888E+01  0.13519470742E+02  0.00000000000E+00 0.  1.
</event>
<event>
 7    1  0.3221417E-010  0.4778727E+02  0.7816164E-02  0.1312668E+00
        -11   -1    0    0    0    0  0.00000000000E+00  0.00000000000E+00  0.45593999997E+02  0.45594000000E+02  0.51100000000E-03 0. -1.
         11   -1    0    0    0    0 -0.00000000000E+00 -0.00000000000E+00 -0.45593999997E+02  0.45594000000E+02  0.51100000000E-03 0.  1.
    9900012    2    1    2    0    0  0.23242683536E+02 -0.10834977341E+02  0.35014343956E+02  0.47787270115E+02  0.19999995762E+02 0.  0.
        -12    1    1    2    0    0 -0.23242683536E+02  0.10834977341E+02 -0.35014343956E+02  0.43400729885E+02  0.00000000000E+00 0.  1.
         11    1    3    3    0    0  0.14144463288E+02 -0.51537216814E+01  0.12133097941E+02  0.19334910261E+02  0.51100000000E-03 0. -1.
        -11    1    3    3    0    0 -0.33721215932E+00 -0.60832017839E+01  0.38509139613E+01  0.72075373452E+01  0.51100000000E-03 0.  1.
         12    1    3    3    0    0  0.94354324069E+01  0.40194612380E+00  0.19030332053E+02  0.21244822509E+02  0.00000000000E+00 0. -1.
</event>
<event>
 7    1  0.3221417E-010  0.4778727E+02  0.7816164E-02  0.1312668E+00
        -11   -1    0    0    0    0  0.00000000000E+00  0.00000000000E+00  0.45593999997E+02  0.45594000000E+02  0.51100000000E-03 0. -1.
         11   -1    0    0    0    0 -0.00000000000E+00 -0.00000000000E+00 -0.45593999997E+02  0.45594000000E+02  0.51100000000E-03 0.  1.
    9900012    2    1    2    0    0  0.21892506299E+02  0.31636787337E+02  0.20086196812E+02  0.47787269045E+02  0.19999990885E+02 0.  0.
        -12    1    1    2    0    0 -0.21892506299E+02 -0.31636787337E+02 -0.20086196812E+02  0.43400730955E+02  0.00000000000E+00 0.  1.
         11    1    3    3    0    0  0.11783545214E+02  0.16068128779E+02  0.19157311978E+02  0.27641260874E+02  0.51100000000E-03 0. -1.
        -11    1    3    3    0    0  0.31604665959E+01  0.72665054307E+00 -0.15104785446E+01  0.35774454308E+01  0.51100000000E-03 0.  1.
        -12    1    3    3    0    0  0.69484944892E+01  0.14842008015E+02  0.24393633790E+01  0.16568562740E+02  0.00000000000E+00 0.  1.
</event>
<event>
 7    1  0.3221417E-010  0.4778727E+02  0.7816164E-02  0.1312668E+00
        -11   -1    0    0    0    0  0.00000000000E+00  0.00000000000E+00  0.45593999997E+02  0.45594000000E+02  0.51100000000E-03 0. -1.
         11   -1    0    0    0    0 -0.00000000000E+00 -0.00000000000E+00 -0.45593999997E+02  0.45594000000E+02  0.51100000000E-03 0.  1.
    9900012    2    1    2    0    0  0.18290455969E+02  0.10794767968E+02  0.37849111607E+02  0.47787273687E+02  0.20000012047E+02 0.  0.
        -12    1    1    2    0    0 -0.18290455969E+02 -0.10794767968E+02 -0.37849111607E+02  0.43400726313E+02  0.00000000000E+00 0.  1.
         11    1    3    3    0    0  0.11381698567E+02  0.62585996115E+01  0.85277827851E+01  0.15538217750E+02  0.51100000000E-03 0. -1.
        -11    1    3    3    0    0  0.56798617785E+01 -0.25558402453E+01  0.13565469817E+02  0.14926993026E+02  0.51100000000E-03 0.  1.
        -12    1    3    3    0    0  0.12288956239E+01  0.70920086022E+01  0.15755859005E+02  0.17322062910E+02  0.00000000000E+00 0.  1.
</event>
<event>
 7    1  0.3221417E-010  0.4778727E+02  0.7816164E-02  0.1312668E+00
        -11   -1    0    0    0    0  0.00000000000E+00  0.00000000000E+00  0.45593999997E+02  0.45594000000E+02  0.51100000000E-03 0. -1.
         11   -1    0    0    0    0 -0.00000000000E+00 -0.00000000000E+00 -0.45593999997E+02  0.45594000000E+02  0.51100000000E-03 0.  1.
    9900012    2    1    2    0    0  0.25602662479E+02  0.34169383539E+02 -0.77833280728E+01  0.47787270820E+02  0.19999998975E+02 0.  0.
         12    1    1    2    0    0 -0.25602662479E+02 -0.34169383539E+02  0.77833280728E+01  0.43400729180E+02  0.00000000000E+00 0. -1.
         11    1    3    3    0    0  0.97722978688E+01  0.17103416180E+02 -0.63630406464E+01  0.20700554031E+02  0.51100000000E-03 0.  1.
        -11    1    3    3    0    0  0.62475413389E+01  0.45005239849E+00  0.36461443899E+01  0.72476678398E+01  0.51100000000E-03 0. -1.
         12    1    3    3    0    0  0.95828232716E+01  0.16615914961E+02 -0.50664318163E+01  0.19839048949E+02  0.00000000000E+00 0. -1.
</event>
<event>
 7    1  0.3221417E-010  0.4778727E+02  0.7816164E-02  0.1312668E+00
        -11   -1    0    0    0    0  0.00000000000E+00  0.00000000000E+00  0.45593999997E+02  0.45594000000E+02  0.51100000000E-03 0. -1.
         11   -1    0    0    0    0 -0.00000000000E+00 -0.00000000000E+00 -0.45593999997E+02  0.45594000000E+02  0.51100000000E-03 0.  1.
    9900012    2    1    2    0    0  0.28246647184E+02  0.26458382323E+02  0.19639352225E+02  0.47787271571E+02  0.20000002402E+02 0.  0.
        -12    1    1    2    0    0 -0.28246647184E+02 -0.26458382323E+02 -0.19639352225E+02  0.43400728429E+02  0.00000000000E+00 0.  1.
         11    1    3    3    0    0  0.55410009551E+01  0.60953444382E+01 -0.37239209859E+00  0.82458833087E+01  0.51100000000E-03 0. -1.
        -11    1    3    3    0    0  0.77606461916E+01  0.11615226539E+02  0.16935329257E+02  0.21953279804E+02  0.51100000000E-03 0.  1.
         12    1    3    3    0    0  0.14945000038E+02  0.87478113459E+01  0.30764150666E+01  0.17588108458E+02  0.00000000000E+00 0. -1.
</event>
<event>
 7    1  0.3221417E-010  0.4778728E+02  0.7816164E-02  0.1312668E+00
        -11   -1    0    0    0    0  0.00000000000E+00  0.00000000000E+00  0.45593999997E+02  0.45594000000E+02  0.51100000000E-03 0. -1.
         11   -1    0    0    0    0 -0.00000000000E+00 -0.00000000000E+00 -0.45593999997E+02  0.45594000000E+02  0.51100000000E-03 0.  1.
    9900012    2    1    2    0    0  0.16346438483E+02  0.63194000200E+01  0.39704937473E+02  0.47787275036E+02  0.20000018199E+02 0.  0.
        -12    1    1    2    0    0 -0.16346438483E+02 -0.63194000200E+01 -0.39704937473E+02  0.43400724964E+02  0.00000000000E+00 0.  1.
         11    1    3    3    0    0  0.88471838574E+01  0.49083990067E+01  0.22228722590E+02  0.24422963605E+02  0.51100000000E-03 0. -1.
        -11    1    3    3    0    0  0.25296315074E+00  0.62813845645E+01  0.45277968594E+01  0.77473045031E+01  0.51100000000E-03 0.  1.
         12    1    3    3    0    0  0.72462914746E+01 -0.48703835512E+01  0.12948418023E+02  0.15617006928E+02  0.00000000000E+00 0. -1.
</event>
<event>
 7    1  0.3221417E-010  0.4778727E+02  0.7816164E-02  0.1312668E+00
        -11   -1    0    0    0    0  0.00000000000E+00  0.00000000000E+00  0.45593999997E+02  0.45594000000E+02  0.51100000000E-03 0. -1.
         11   -1    0    0    0    0 -0.00000000000E+00 -0.00000000000E+00 -0.45593999997E+02  0.45594000000E+02  0.51100000000E-03 0.  1.
    9900012    2    1    2    0    0 -0.30158651581E+02  0.20096069686E+02 -0.23879425104E+02  0.47787271604E+02  0.20000002552E+02 0.  0.
         12    1    1    2    0    0  0.30158651581E+02 -0.20096069686E+02  0.23879425104E+02  0.43400728396E+02  0.00000000000E+00 0. -1.
         11    1    3    3    0    0 -0.94198032698E+01  0.89273857567E+01 -0.10244386859E+02  0.16534157749E+02  0.51100000000E-03 0. -1.
        -11    1    3    3    0    0 -0.16154351751E+02  0.13709327170E+02 -0.14849191605E+02  0.25872905200E+02  0.51100000000E-03 0.  1.
         12    1    3    3    0    0 -0.45844965603E+01 -0.25406432402E+01  0.12141533604E+01  0.53802086547E+01  0.00000000000E+00 0. -1.
</event>
<event>
 7    1  0.3221417E-010  0.4778724E+02  0.7816164E-02  0.1312668E+00
        -11   -1    0    0    0    0  0.00000000000E+00  0.00000000000E+00  0.45593999997E+02  0.45594000000E+02  0.51100000000E-03 0. -1.
         11   -1    0    0    0    0 -0.00000000000E+00 -0.00000000000E+00 -0.45593999997E+02  0.45594000000E+02  0.51100000000E-03 0.  1.
    9900012    2    1    2    0    0  0.25108617614E+02 -0.41499063548E+01 -0.35156243109E+02  0.47787241587E+02  0.19999865693E+02 0.  0.
         12    1    1    2    0    0 -0.25108617614E+02  0.41499063548E+01  0.35156243109E+02  0.43400758413E+02  0.00000000000E+00 0. -1.
         11    1    3    3    0    0  0.36467189378E+01  0.69098444624E+00 -0.17280749634E+02  0.17674850118E+02  0.51100000000E-03 0. -1.
        -11    1    3    3    0    0  0.80606872922E+01 -0.66164792960E+01 -0.10098721427E+02  0.14516771425E+02  0.51100000000E-03 0.  1.
         12    1    3    3    0    0  0.13401211384E+02  0.17755884950E+01 -0.77767720484E+01  0.15595620044E+02  0.00000000000E+00 0. -1.
</event>
<event>
 7    1  0.3221417E-010  0.4778727E+02  0.7816164E-02  0.1312668E+00
        -11   -1    0    0    0    0  0.00000000000E+00  0.00000000000E+00  0.45593999997E+02  0.45594000000E+02  0.51100000000E-03 0. -1.
         11   -1    0    0    0    0 -0.00000000000E+00 -0.00000000000E+00 -0.45593999997E+02  0.45594000000E+02  0.51100000000E-03 0.  1.
    9900012    2    1    2    0    0 -0.25356886578E+01 -0.30972437942E+01 -0.43215743762E+02  0.47787272529E+02  0.20000006769E+02 0.  0.
         12    1    1    2    0    0  0.25356886578E+01  0.30972437942E+01  0.43215743762E+02  0.43400727471E+02  0.00000000000E+00 0. -1.
         11    1    3    3    0    0  0.19819475838E+01  0.47084519218E-01 -0.72568794058E+00  0.21111504980E+01  0.51100000000E-03 0. -1.
        -11    1    3    3    0    0 -0.10145818204E+02 -0.40514319609E+01 -0.25069761838E+02  0.27346749110E+02  0.51100000000E-03 0.  1.
        -12    1    3    3    0    0  0.56281819630E+01  0.90710364754E+00 -0.17420293983E+02  0.18329372921E+02  0.00000000000E+00 0.  1.
</event>
<event>
 7    1  0.3221417E-010  0.4778724E+02  0.7816164E-02  0.1312668E+00
        -11   -1    0    0    0    0  0.00000000000E+00  0.00000000000E+00  0.45593999997E+02  0.45594000000E+02  0.51100000000E-03 0. -1.
         11   -1    0    0    0    0 -0.00000000000E+00 -0.00000000000E+00 -0.45593999997E+02  0.45594000000E+02  0.51100000000E-03 0.  1.
    9900012    2    1    2    0    0  0.32454368954E+01 -0.26323047279E+02 -0.34353902122E+02  0.47787236530E+02  0.19999842636E+02 0.  0.
         12    1    1    2    0    0 -0.32454368954E+01  0.26323047279E+02  0.34353902122E+02  0.43400763470E+02  0.00000000000E+00 0. -1.
         11    1    3    3    0    0 -0.48461318606E+01 -0.13590508828E+02 -0.19134647741E+02  0.23965009256E+02  0.51100000000E-03 0. -1.
        -11    1    3    3    0    0 -0.39895571661E+00 -0.69204768192E+01 -0.22941903348E+01  0.73017446287E+01  0.51100000000E-03 0.  1.
        -12    1    3    3    0    0  0.84905244726E+01 -0.58120616324E+01 -0.12925064047E+02  0.16520482646E+02  0.00000000000E+00 0.  1.
</event>
<event>
 7    1  0.3221417E-010  0.4778727E+02  0.7816164E-02  0.1312668E+00
        -11   -1    0    0    0    0  0.00000000000E+00  0.00000000000E+00  0.45593999997E+02  0.45594000000E+02  0.51100000000E-03 0. -1.
         11   -1    0    0    0    0 -0.00000000000E+00 -0.00000000000E+00 -0.45593999997E+02  0.45594000000E+02  0.51100000000E-03 0.  1.
    9900012    2    1    2    0    0 -0.11659737605E+02  0.33152715313E+02 -0.25467061001E+02  0.47787271784E+02  0.20000003373E+02 0.  0.
         12    1    1    2    0    0  0.11659737605E+02 -0.33152715313E+02  0.25467061001E+02  0.43400728216E+02  0.00000000000E+00 0. -1.
         11    1    3    3    0    0 -0.44392739306E+01  0.87738589733E+00 -0.10002727044E+02  0.10978684239E+02  0.51100000000E-03 0. -1.
        -11    1    3    3    0    0 -0.30351059996E+00  0.11535155384E+02 -0.53956536478E+01  0.12738328264E+02  0.51100000000E-03 0.  1.
        -12    1    3    3    0    0 -0.69169530740E+01  0.20740174032E+02 -0.10068680309E+02  0.24070259281E+02  0.00000000000E+00 0.  1.
</event>
<event>
 7    1  0.3221417E-010  0.4778727E+02  0.7816164E-02  0.1312668E+00
        -11   -1    0    0    0    0  0.00000000000E+00  0.00000000000E+00  0.45593999997E+02  0.45594000000E+02  0.51100000000E-03 0. -1.
         11   -1    0    0    0    0 -0.00000000000E+00 -0.00000000000E+00 -0.45593999997E+02  0.45594000000E+02  0.51100000000E-03 0.  1.
    9900012    2    1    2    0    0  0.35888885858E-01  0.23838318704E+02 -0.36267843780E+02  0.47787271675E+02  0.20000002877E+02 0.  0.
         12    1    1    2    0    0 -0.35888885858E-01 -0.23838318704E+02  0.36267843780E+02  0.43400728325E+02  0.00000000000E+00 0. -1.
         11    1    3    3    0    0  0.76476469380E+00  0.10106769714E+02 -0.53351143245E+01  0.11454043138E+02  0.51100000000E-03 0.  1.
        -11    1    3    3    0    0 -0.93628761152E+00  0.41837641670E+00 -0.17110142459E+02  0.17140847369E+02  0.51100000000E-03 0. -1.
         12    1    3    3    0    0  0.20741180357E+00  0.13313172574E+02 -0.13822586997E+02  0.19192381168E+02  0.00000000000E+00 0. -1.
</event>
<event>
 7    1  0.3297256E-010  0.4778727E+02  0.7816164E-02  0.1312668E+00
        -11   -1    0    0    0    0  0.00000000000E+00  0.00000000000E+00  0.45593999997E+02  0.45594000000E+02  0.51100000000E-03 0. -1.
         11   -1    0    0    0    0 -0.00000000000E+00 -0.00000000000E+00 -0.45593999997E+02  0.45594000000E+02  0.51100000000E-03 0.  1.
    9900012    2    1    2    0    0  0.16566973343E+01  0.95573751728E+01 -0.42302897664E+02  0.47787271699E+02  0.20000002985E+02 0.  0.
         12    1    1    2    0    0 -0.16566973343E+01 -0.95573751728E+01  0.42302897664E+02  0.43400728301E+02  0.00000000000E+00 0. -1.
         11    1    3    3    0    0 -0.25456858817E+01  0.52104175166E+00 -0.17444306742E+00  0.26043102273E+01  0.51100000000E-03 0. -1.
        -11    1    3    3    0    0  0.38647070840E+01  0.11441664270E+02 -0.23744417363E+02  0.26639162867E+02  0.51100000000E-03 0.  1.
         12    1    3    3    0    0  0.33767613205E+00 -0.24053308490E+01 -0.18384037234E+02  0.18543798605E+02  0.00000000000E+00 0. -1.
</event>
<event>
 7    1  0.3221417E-010  0.4778727E+02  0.7816164E-02  0.1312668E+00
        -11   -1    0    0    0    0  0.00000000000E+00  0.00000000000E+00  0.45593999997E+02  0.45594000000E+02  0.51100000000E-03 0. -1.
         11   -1    0    0    0    0 -0.00000000000E+00 -0.00000000000E+00 -0.45593999997E+02  0.45594000000E+02  0.51100000000E-03 0.  1.
    9900012    2    1    2    0    0  0.32498410840E+02 -0.18117230846E+02 -0.22343737699E+02  0.47787269879E+02  0.19999994686E+02 0.  0.
        -12    1    1    2    0    0 -0.32498410840E+02  0.18117230846E+02  0.22343737699E+02  0.43400730121E+02  0.00000000000E+00 0.  1.
         11    1    3    3    0    0  0.32150423575E+02 -0.14840722316E+02 -0.19226573863E+02  0.40293397942E+02  0.51100000000E-03 0. -1.
        -11    1    3    3    0    0  0.50920692868E+00 -0.30466141742E+01 -0.48436261574E+01  0.57447249052E+01  0.51100000000E-03 0.  1.
         12    1    3    3    0    0 -0.16121966343E+00 -0.22989435567E+00  0.17264623210E+01  0.17491470323E+01  0.00000000000E+00 0. -1.
</event>
<event>
 7    1  0.3221417E-010  0.4778726E+02  0.7816164E-02  0.1312668E+00
        -11   -1    0    0    0    0  0.00000000000E+00  0.00000000000E+00  0.45593999997E+02  0.45594000000E+02  0.51100000000E-03 0. -1.
         11   -1    0    0    0    0 -0.00000000000E+00 -0.00000000000E+00 -0.45593999997E+02  0.45594000000E+02  0.51100000000E-03 0.  1.
    9900012    2    1    2    0    0 -0.23255939067E+02 -0.31009232000E+02 -0.19524679167E+02  0.47787259595E+02  0.19999947797E+02 0.  0.
         12    1    1    2    0    0  0.23255939067E+02  0.31009232000E+02  0.19524679167E+02  0.43400740405E+02  0.00000000000E+00 0. -1.
         11    1    3    3    0    0 -0.91141651050E+01 -0.56077825502E+00 -0.10794116056E+01  0.91949772967E+01  0.51100000000E-03 0. -1.
        -11    1    3    3    0    0 -0.42941803999E+01 -0.10035976306E+02 -0.85343676058E+01  0.13856270653E+02  0.51100000000E-03 0.  1.
         12    1    3    3    0    0 -0.98475935625E+01 -0.20412477439E+02 -0.99108999553E+01  0.24736011645E+02  0.00000000000E+00 0. -1.
</event>
<event>
 7    1  0.4617609E-010  0.4778728E+02  0.7816164E-02  0.1312668E+00
        -11   -1    0    0    0    0  0.00000000000E+00  0.00000000000E+00  0.45593999997E+02  0.45594000000E+02  0.51100000000E-03 0. -1.
         11   -1    0    0    0    0 -0.00000000000E+00 -0.00000000000E+00 -0.45593999997E+02  0.45594000000E+02  0.51100000000E-03 0.  1.
    9900012    2    1    2    0    0  0.12192997589E+02  0.12004631599E+02 -0.39885361982E+02  0.47787280300E+02  0.20000042199E+02 0.  0.
         12    1    1    2    0    0 -0.12192997589E+02 -0.12004631599E+02  0.39885361982E+02  0.43400719700E+02  0.00000000000E+00 0. -1.
         11    1    3    3    0    0  0.10637052878E+01  0.96772098609E+01 -0.11229794986E+02  0.14862306528E+02  0.51100000000E-03 0. -1.
        -11    1    3    3    0    0  0.11449065738E+02  0.57132014070E+01 -0.21981654192E+02  0.25434521774E+02  0.51100000000E-03 0.  1.
         12    1    3    3    0    0 -0.31977343687E+00 -0.33857796689E+01 -0.66739128048E+01  0.74904519986E+01  0.00000000000E+00 0. -1.
</event>
<event>
 7    1  0.3221417E-010  0.4778727E+02  0.7816164E-02  0.1312668E+00
        -11   -1    0    0    0    0  0.00000000000E+00  0.00000000000E+00  0.45593999997E+02  0.45594000000E+02  0.51100000000E-03 0.  1.
         11   -1    0    0    0    0 -0.00000000000E+00 -0.00000000000E+00 -0.45593999997E+02  0.45594000000E+02  0.51100000000E-03 0. -1.
    9900012    2    1    2    0    0  0.43120981730E+02 -0.32426079405E+01 -0.36999219805E+01  0.47787274265E+02  0.20000014684E+02 0.  0.
         12    1    1    2    0    0 -0.43120981730E+02  0.32426079405E+01  0.36999219805E+01  0.43400725735E+02  0.00000000000E+00 0. -1.
         11    1    3    3    0    0  0.12420220850E+02  0.10595405237E+00 -0.90152060425E+01  0.15347542229E+02  0.51100000000E-03 0. -1.
        -11    1    3    3    0    0  0.24667307293E+02 -0.45921352937E+01  0.13784631668E+01  0.25128945792E+02  0.51100000000E-03 0.  1.
        -12    1    3    3    0    0  0.60334535874E+01  0.12435733008E+01  0.39368208953E+01  0.73107862441E+01  0.00000000000E+00 0.  1.
</event>
<event>
 7    1  0.3221417E-010  0.4778727E+02  0.7816164E-02  0.1312668E+00
        -11   -1    0    0    0    0  0.00000000000E+00  0.00000000000E+00  0.45593999997E+02  0.45594000000E+02  0.51100000000E-03 0. -1.
         11   -1    0    0    0    0 -0.00000000000E+00 -0.00000000000E+00 -0.45593999997E+02  0.45594000000E+02  0.51100000000E-03 0.  1.
    9900012    2    1    2    0    0  0.25805900200E+02  0.10538728370E+01  0.34879339364E+02  0.47787269044E+02  0.19999990878E+02 0.  0.
        -12    1    1    2    0    0 -0.25805900200E+02 -0.10538728370E+01 -0.34879339364E+02  0.43400730956E+02  0.00000000000E+00 0.  1.
         11    1    3    3    0    0  0.54695418808E+01 -0.42834820690E+01  0.19492577640E+02  0.20693590562E+02  0.51100000000E-03 0. -1.
        -11    1    3    3    0    0  0.30077535688E+01  0.28024141264E+01  0.56334182964E+00  0.41493928164E+01  0.51100000000E-03 0.  1.
         12    1    3    3    0    0  0.17328604750E+02  0.25349407795E+01  0.14823419894E+02  0.22944285666E+02  0.00000000000E+00 0. -1.
</event>
<event>
 7    1  0.3221417E-010  0.4778727E+02  0.7816164E-02  0.1312668E+00
        -11   -1    0    0    0    0  0.00000000000E+00  0.00000000000E+00  0.45593999997E+02  0.45594000000E+02  0.51100000000E-03 0. -1.
         11   -1    0    0    0    0 -0.00000000000E+00 -0.00000000000E+00 -0.45593999997E+02  0.45594000000E+02  0.51100000000E-03 0.  1.
    9900012    2    1    2    0    0 -0.26316991765E+02  0.29676910218E+02  0.17615899921E+02  0.47787274365E+02  0.20000015139E+02 0.  0.
        -12    1    1    2    0    0  0.26316991765E+02 -0.29676910218E+02 -0.17615899921E+02  0.43400725635E+02  0.00000000000E+00 0.  1.
         11    1    3    3    0    0 -0.13039059106E+02  0.13676543389E+02  0.16454803794E+01  0.18967670057E+02  0.51100000000E-03 0. -1.
        -11    1    3    3    0    0  0.29004417612E+00 -0.16747566429E+01  0.94605961158E+00  0.19452414983E+01  0.51100000000E-03 0.  1.
         12    1    3    3    0    0 -0.13567976835E+02  0.17675123471E+02  0.15024359930E+02  0.26874362810E+02  0.00000000000E+00 0. -1.
</event>
<event>
 7    1  0.3221417E-010  0.4778727E+02  0.7816164E-02  0.1312668E+00
        -11   -1    0    0    0    0  0.00000000000E+00  0.00000000000E+00  0.45593999997E+02  0.45594000000E+02  0.51100000000E-03 0. -1.
         11   -1    0    0    0    0 -0.00000000000E+00 -0.00000000000E+00 -0.45593999997E+02  0.45594000000E+02  0.51100000000E-03 0.  1.
    9900012    2    1    2    0    0  0.10632498685E+02 -0.35552418945E+02 -0.22507744815E+02  0.47787273072E+02  0.20000009246E+02 0.  0.
         12    1    1    2    0    0 -0.10632498685E+02  0.35552418945E+02  0.22507744815E+02  0.43400726928E+02  0.00000000000E+00 0. -1.
         11    1    3    3    0    0  0.81573697966E+01 -0.40369815533E+01 -0.50608480099E+01  0.10414033076E+02  0.51100000000E-03 0. -1.
        -11    1    3    3    0    0 -0.13680124216E+01 -0.76675409493E+01 -0.87142173619E+01  0.11687609965E+02  0.51100000000E-03 0.  1.
         12    1    3    3    0    0  0.38431413104E+01 -0.23847896443E+02 -0.87326794437E+01  0.25685630032E+02  0.00000000000E+00 0. -1.
</event>
<event>
 7    1  0.3221417E-010  0.4778727E+02  0.7816164E-02  0.1312668E+00
        -11   -1    0    0    0    0  0.00000000000E+00  0.00000000000E+00  0.45593999997E+02  0.45594000000E+02  0.51100000000E-03 0. -1.
         11   -1    0    0    0    0 -0.00000000000E+00 -0.00000000000E+00 -0.45593999997E+02  0.45594000000E+02  0.51100000000E-03 0.  1.
    9900012    2    1    2    0    0  0.31268007420E+02 -0.82837975676E+01  0.28936370150E+02  0.47787272959E+02  0.20000008731E+02 0.  0.
        -12    1    1    2    0    0 -0.31268007420E+02  0.82837975676E+01 -0.28936370150E+02  0.43400727041E+02  0.00000000000E+00 0.  1.
         11    1    3    3    0    0  0.13583814307E+02  0.63210232707E+00  0.14274198128E+02  0.19714773571E+02  0.51100000000E-03 0. -1.
        -11    1    3    3    0    0  0.15695236557E+02 -0.49222808878E+01  0.16452799587E+02  0.23265079287E+02  0.51100000000E-03 0.  1.
        -12    1    3    3    0    0  0.19889565566E+01 -0.39936190068E+01 -0.17906275655E+01  0.48074201017E+01  0.00000000000E+00 0.  1.
</event>
<event>
 7    1  0.3221417E-010  0.4778727E+02  0.7816164E-02  0.1312668E+00
        -11   -1    0    0    0    0  0.00000000000E+00  0.00000000000E+00  0.45593999997E+02  0.45594000000E+02  0.51100000000E-03 0. -1.
         11   -1    0    0    0    0 -0.00000000000E+00 -0.00000000000E+00 -0.45593999997E+02  0.45594000000E+02  0.51100000000E-03 0.  1.
    9900012    2    1    2    0    0 -0.12283799287E+02  0.24673345747E+02 -0.33525475723E+02  0.47787271461E+02  0.20000001898E+02 0.  0.
         12    1    1    2    0    0  0.12283799287E+02 -0.24673345747E+02  0.33525475723E+02  0.43400728539E+02  0.00000000000E+00 0. -1.
         11    1    3    3    0    0  0.39940534355E+00  0.27028387556E+01 -0.10544943806E+02  0.10893149319E+02  0.51100000000E-03 0. -1.
        -11    1    3    3    0    0 -0.81825767226E+01  0.22215548434E+02 -0.21919224287E+02  0.32263563778E+02  0.51100000000E-03 0.  1.
        -12    1    3    3    0    0 -0.45006279078E+01 -0.24504144227E+00 -0.10613076303E+01  0.46305583636E+01  0.00000000000E+00 0.  1.
</event>
<event>
 7    1  0.3221417E-010  0.4778727E+02  0.7816164E-02  0.1312668E+00
        -11   -1    0    0    0    0  0.00000000000E+00  0.00000000000E+00  0.45593999997E+02  0.45594000000E+02  0.51100000000E-03 0. -1.
         11   -1    0    0    0    0 -0.00000000000E+00 -0.00000000000E+00 -0.45593999997E+02  0.45594000000E+02  0.51100000000E-03 0.  1.
    9900012    2    1    2    0    0  0.16995221043E+02  0.30622161866E+02  0.25633353949E+02  0.47787272238E+02  0.20000005441E+02 0.  0.
        -12    1    1    2    0    0 -0.16995221043E+02 -0.30622161866E+02 -0.25633353949E+02  0.43400727762E+02  0.00000000000E+00 0.  1.
         11    1    3    3    0    0  0.37011302456E+00  0.16104220876E+02  0.11617131433E+02  0.19860530120E+02  0.51100000000E-03 0.  1.
        -11    1    3    3    0    0  0.85612637757E+01  0.93935253452E+01  0.24826195933E+01  0.12949785950E+02  0.51100000000E-03 0. -1.
        -12    1    3    3    0    0  0.80638442431E+01  0.51244156449E+01  0.11533602922E+02  0.14976956167E+02  0.00000000000E+00 0.  1.
</event>
<event>
 7    1  0.3221417E-010  0.4778726E+02  0.7816164E-02  0.1312668E+00
        -11   -1    0    0    0    0  0.00000000000E+00  0.00000000000E+00  0.45593999997E+02  0.45594000000E+02  0.51100000000E-03 0.  1.
         11   -1    0    0    0    0 -0.00000000000E+00 -0.00000000000E+00 -0.45593999997E+02  0.45594000000E+02  0.51100000000E-03 0. -1.
    9900012    2    1    2    0    0  0.42282045186E+01  0.42111311643E+02  0.96116483488E+01  0.47787261922E+02  0.19999958408E+02 0.  0.
        -12    1    1    2    0    0 -0.42282045186E+01 -0.42111311643E+02 -0.96116483488E+01  0.43400738078E+02  0.00000000000E+00 0.  1.
         11    1    3    3    0    0 -0.36971769793E+00  0.11437410935E+02 -0.32908142398E+01  0.11907162496E+02  0.51100000000E-03 0. -1.
        -11    1    3    3    0    0 -0.49563217826E+00  0.60182189773E+01  0.83354150741E+01  0.10292898311E+02  0.51100000000E-03 0.  1.
         12    1    3    3    0    0  0.50935543948E+01  0.24655681730E+02  0.45670475144E+01  0.25587201116E+02  0.00000000000E+00 0. -1.
</event>
<event>
 7    1  0.3221417E-010  0.4778727E+02  0.7816164E-02  0.1312668E+00
        -11   -1    0    0    0    0  0.00000000000E+00  0.00000000000E+00  0.45593999997E+02  0.45594000000E+02  0.51100000000E-03 0. -1.
         11   -1    0    0    0    0 -0.00000000000E+00 -0.00000000000E+00 -0.45593999997E+02  0.45594000000E+02  0.51100000000E-03 0.  1.
    9900012    2    1    2    0    0 -0.15988077271E+02 -0.28270862874E+02  0.28788238486E+02  0.47787274458E+02  0.20000015563E+02 0.  0.
        -12    1    1    2    0    0  0.15988077271E+02  0.28270862874E+02 -0.28788238486E+02  0.43400725542E+02  0.00000000000E+00 0.  1.
         11    1    3    3    0    0 -0.13763916836E+02 -0.21123636917E+02  0.18027241832E+02  0.30994110595E+02  0.51100000000E-03 0. -1.
        -11    1    3    3    0    0  0.21468967680E+01 -0.81328454606E+01  0.69979487748E+01  0.10941829296E+02  0.51100000000E-03 0.  1.
        -12    1    3    3    0    0 -0.43710572022E+01  0.98561950319E+00  0.37630478792E+01  0.58513345667E+01  0.00000000000E+00 0.  1.
</event>
<event>
 7    1  0.3221417E-010  0.4778727E+02  0.7816164E-02  0.1312668E+00
        -11   -1    0    0    0    0  0.00000000000E+00  0.00000000000E+00  0.45593999997E+02  0.45594000000E+02  0.51100000000E-03 0. -1.
         11   -1    0    0    0    0 -0.00000000000E+00 -0.00000000000E+00 -0.45593999997E+02  0.45594000000E+02  0.51100000000E-03 0.  1.
    9900012    2    1    2    0    0 -0.18378677627E+02  0.17669207948E+02  0.35123302848E+02  0.47787273005E+02  0.20000008937E+02 0.  0.
        -12    1    1    2    0    0  0.18378677627E+02 -0.17669207948E+02 -0.35123302848E+02  0.43400726995E+02  0.00000000000E+00 0.  1.
         11    1    3    3    0    0 -0.18340968637E+02  0.15842062994E+02  0.27972366609E+02  0.37011017068E+02  0.51100000000E-03 0. -1.
        -11    1    3    3    0    0 -0.14242637447E+01 -0.15610351374E+01  0.67740494042E+01  0.70959920735E+01  0.51100000000E-03 0.  1.
        -12    1    3    3    0    0  0.13865547544E+01  0.33881800909E+01  0.37688683442E+00  0.36802638630E+01  0.00000000000E+00 0.  1.
</event>
<event>
 7    1  0.3221417E-010  0.4778727E+02  0.7816164E-02  0.1312668E+00
        -11   -1    0    0    0    0  0.00000000000E+00  0.00000000000E+00  0.45593999997E+02  0.45594000000E+02  0.51100000000E-03 0. -1.
         11   -1    0    0    0    0 -0.00000000000E+00 -0.00000000000E+00 -0.45593999997E+02  0.45594000000E+02  0.51100000000E-03 0.  1.
    9900012    2    1    2    0    0 -0.12214640064E+02  0.18092557065E+02 -0.37511138782E+02  0.47787267452E+02  0.19999983618E+02 0.  0.
         12    1    1    2    0    0  0.12214640064E+02 -0.18092557065E+02  0.37511138782E+02  0.43400732548E+02  0.00000000000E+00 0. -1.
         11    1    3    3    0    0 -0.39756368439E+01  0.18455051740E+01 -0.18919181031E+02  0.19420272625E+02  0.51100000000E-03 0. -1.
        -11    1    3    3    0    0 -0.64055376618E+01  0.26102302374E+01 -0.29093505540E+01  0.75039013544E+01  0.51100000000E-03 0.  1.
        -12    1    3    3    0    0 -0.18334655586E+01  0.13636821654E+02 -0.15682607196E+02  0.20863093473E+02  0.00000000000E+00 0.  1.
</event>
<event>
 7    1  0.3221417E-010  0.4778727E+02  0.7816164E-02  0.1312668E+00
        -11   -1    0    0    0    0  0.00000000000E+00  0.00000000000E+00  0.45593999997E+02  0.45594000000E+02  0.51100000000E-03 0. -1.
         11   -1    0    0    0    0 -0.00000000000E+00 -0.00000000000E+00 -0.45593999997E+02  0.45594000000E+02  0.51100000000E-03 0.  1.
    9900012    2    1    2    0    0 -0.33425090326E+02 -0.26555377803E+02  0.78229378782E+01  0.47787272925E+02  0.20000008573E+02 0.  0.
        -12    1    1    2    0    0  0.33425090326E+02  0.26555377803E+02 -0.78229378782E+01  0.43400727075E+02  0.00000000000E+00 0.  1.
         11    1    3    3    0    0 -0.11924284169E+02 -0.48112189236E+01  0.10215358573E+02  0.16422238931E+02  0.51100000000E-03 0. -1.
        -11    1    3    3    0    0 -0.14019686264E+02 -0.12400507419E+02  0.15038477137E+01  0.18777266717E+02  0.51100000000E-03 0.  1.
         12    1    3    3    0    0 -0.74811198936E+01 -0.93436514614E+01 -0.38962684081E+01  0.12587767276E+02  0.00000000000E+00 0. -1.
</event>
<event>
 7    1  0.3221417E-010  0.4778727E+02  0.7816164E-02  0.1312668E+00
        -11   -1    0    0    0    0  0.00000000000E+00  0.00000000000E+00  0.45593999997E+02  0.45594000000E+02  0.51100000000E-03 0. -1.
         11   -1    0    0    0    0 -0.00000000000E+00 -0.00000000000E+00 -0.45593999997E+02  0.45594000000E+02  0.51100000000E-03 0.  1.
    9900012    2    1    2    0    0  0.33944439490E+00  0.34191329987E+01  0.43264505540E+02  0.47787272672E+02  0.20000007421E+02 0.  0.
        -12    1    1    2    0    0 -0.33944439490E+00 -0.34191329987E+01 -0.43264505540E+02  0.43400727328E+02  0.00000000000E+00 0.  1.
         11    1    3    3    0    0  0.42294323332E+01  0.45082262314E+01  0.15445798499E+02  0.16636853463E+02  0.51100000000E-03 0. -1.
        -11    1    3    3    0    0 -0.42138399919E+01 -0.24878172747E+01  0.28926191310E+02  0.29337181634E+02  0.51100000000E-03 0.  1.
         12    1    3    3    0    0  0.32385205356E+00  0.13987240420E+01 -0.11074842688E+01  0.18132375752E+01  0.00000000000E+00 0. -1.
</event>
<event>
 7    1  0.3221417E-010  0.4778727E+02  0.7816164E-02  0.1312668E+00
        -11   -1    0    0    0    0  0.00000000000E+00  0.00000000000E+00  0.45593999997E+02  0.45594000000E+02  0.51100000000E-03 0. -1.
         11   -1    0    0    0    0 -0.00000000000E+00 -0.00000000000E+00 -0.45593999997E+02  0.45594000000E+02  0.51100000000E-03 0.  1.
    9900012    2    1    2    0    0  0.30788848386E+02  0.14831117037E+02  0.26752723578E+02  0.47787269173E+02  0.19999991466E+02 0.  0.
        -12    1    1    2    0    0 -0.30788848386E+02 -0.14831117037E+02 -0.26752723578E+02  0.43400730827E+02  0.00000000000E+00 0.  1.
         11    1    3    3    0    0  0.15547462691E+02  0.12603486362E+02  0.10866171377E+02  0.22773781971E+02  0.51100000000E-03 0. -1.
        -11    1    3    3    0    0  0.12147432967E+02 -0.11473067874E+01  0.49685374699E+01  0.13174323717E+02  0.51100000000E-03 0.  1.
        -12    1    3    3    0    0  0.30939527284E+01  0.33749374631E+01  0.10918014730E+02  0.11839163485E+02  0.00000000000E+00 0.  1.
</event>
<event>
 7    1  0.3221417E-010  0.4778727E+02  0.7816164E-02  0.1312668E+00
        -11   -1    0    0    0    0  0.00000000000E+00  0.00000000000E+00  0.45593999997E+02  0.45594000000E+02  0.51100000000E-03 0.  1.
         11   -1    0    0    0    0 -0.00000000000E+00 -0.00000000000E+00 -0.45593999997E+02  0.45594000000E+02  0.51100000000E-03 0. -1.
    9900012    2    1    2    0    0 -0.32543877780E+02  0.25158514492E+02 -0.13840836464E+02  0.47787267444E+02  0.19999983583E+02 0.  0.
        -12    1    1    2    0    0  0.32543877780E+02 -0.25158514492E+02  0.13840836464E+02  0.43400732556E+02  0.00000000000E+00 0.  1.
         11    1    3    3    0    0 -0.23166947277E+02  0.17850410469E+02 -0.88604169781E+01  0.30558985410E+02  0.51100000000E-03 0. -1.
        -11    1    3    3    0    0 -0.22135050894E+01  0.87853090896E+01 -0.17261594062E+01  0.92228459348E+01  0.51100000000E-03 0.  1.
         12    1    3    3    0    0 -0.71634254135E+01 -0.14772050662E+01 -0.32542600795E+01  0.80054360985E+01  0.00000000000E+00 0. -1.
</event>
<event>
 7    1  0.3221417E-010  0.4778727E+02  0.7816164E-02  0.1312668E+00
        -11   -1    0    0    0    0  0.00000000000E+00  0.00000000000E+00  0.45593999997E+02  0.45594000000E+02  0.51100000000E-03 0. -1.
         11   -1    0    0    0    0 -0.00000000000E+00 -0.00000000000E+00 -0.45593999997E+02  0.45594000000E+02  0.51100000000E-03 0.  1.
    9900012    2    1    2    0    0  0.71753948223E+01 -0.11756583172E+02  0.41157255379E+02  0.47787271791E+02  0.20000003402E+02 0.  0.
        -12    1    1    2    0    0 -0.71753948223E+01  0.11756583172E+02 -0.41157255379E+02  0.43400728209E+02  0.00000000000E+00 0.  1.
         11    1    3    3    0    0 -0.11184347958E+01  0.10760640350E+01 -0.14606744843E+01  0.21312860930E+01  0.51100000000E-03 0. -1.
        -11    1    3    3    0    0  0.61821824234E+00 -0.59702636142E+01  0.13600053056E+02  0.14865654536E+02  0.51100000000E-03 0.  1.
         12    1    3    3    0    0  0.76756113758E+01 -0.68623835927E+01  0.29017876808E+02  0.30790331161E+02  0.00000000000E+00 0. -1.
</event>
<event>
 7    1  0.3221417E-010  0.4778727E+02  0.7816164E-02  0.1312668E+00
        -11   -1    0    0    0    0  0.00000000000E+00  0.00000000000E+00  0.45593999997E+02  0.45594000000E+02  0.51100000000E-03 0.  1.
         11   -1    0    0    0    0 -0.00000000000E+00 -0.00000000000E+00 -0.45593999997E+02  0.45594000000E+02  0.51100000000E-03 0. -1.
    9900012    2    1    2    0    0 -0.18776871327E+02  0.34473716930E+02  0.18509868387E+02  0.47787270934E+02  0.19999999495E+02 0.  0.
        -12    1    1    2    0    0  0.18776871327E+02 -0.34473716930E+02 -0.18509868387E+02  0.43400729066E+02  0.00000000000E+00 0.  1.
         11    1    3    3    0    0 -0.36553051501E+01  0.53777879766E+01  0.62682022916E+01  0.90317340246E+01  0.51100000000E-03 0. -1.
        -11    1    3    3    0    0 -0.78993025090E+01  0.15147512955E+02 -0.24377919245E+01  0.17256562768E+02  0.51100000000E-03 0.  1.
        -12    1    3    3    0    0 -0.72222636680E+01  0.13948415998E+02  0.14679458019E+02  0.21498974141E+02  0.00000000000E+00 0.  1.
</event>
<event>
 7    1  0.3221417E-010  0.4778730E+02  0.7816164E-02  0.1312668E+00
        -11   -1    0    0    0    0  0.00000000000E+00  0.00000000000E+00  0.45593999997E+02  0.45594000000E+02  0.51100000000E-03 0. -1.
         11   -1    0    0    0    0 -0.00000000000E+00 -0.00000000000E+00 -0.45593999997E+02  0.45594000000E+02  0.51100000000E-03 0.  1.
    9900012    2    1    2    0    0 -0.26331530773E+02  0.29825829573E+02  0.17340459856E+02  0.47787295276E+02  0.20000110481E+02 0.  0.
        -12    1    1    2    0    0  0.26331530773E+02 -0.29825829573E+02 -0.17340459856E+02  0.43400704724E+02  0.00000000000E+00 0.  1.
         11    1    3    3    0    0 -0.21688871600E+02  0.13985771659E+02  0.10431913854E+02  0.27835836382E+02  0.51100000000E-03 0. -1.
        -11    1    3    3    0    0 -0.39361343935E+00  0.20528506875E+01  0.49738415043E+01  0.53952040791E+01  0.51100000000E-03 0.  1.
        -12    1    3    3    0    0 -0.42490457336E+01  0.13787207226E+02  0.19347044976E+01  0.14556254815E+02  0.00000000000E+00 0.  1.
</event>
<event>
 7    1  0.3221417E-010  0.4778727E+02  0.7816164E-02  0.1312668E+00
        -11   -1    0    0    0    0  0.00000000000E+00  0.00000000000E+00  0.45593999997E+02  0.45594000000E+02  0.51100000000E-03 0. -1.
         11   -1    0    0    0    0 -0.00000000000E+00 -0.00000000000E+00 -0.45593999997E+02  0.45594000000E+02  0.51100000000E-03 0.  1.
    9900012    2    1    2    0    0  0.10239091918E+02 -0.12842904143E+02 -0.40172676321E+02  0.47787272899E+02  0.20000008454E+02 0.  0.
         12    1    1    2    0    0 -0.10239091918E+02  0.12842904143E+02  0.40172676321E+02  0.43400727101E+02  0.00000000000E+00 0. -1.
         11    1    3    3    0    0  0.10506337578E+02 -0.48190665554E+01 -0.10881304850E+02  0.15874801645E+02  0.51100000000E-03 0. -1.
        -11    1    3    3    0    0 -0.31400993005E+01  0.63139001532E+00 -0.47273334077E+01  0.57102152654E+01  0.51100000000E-03 0.  1.
        -12    1    3    3    0    0  0.28728536403E+01 -0.86552276029E+01 -0.24564038063E+02  0.26202255988E+02  0.00000000000E+00 0.  1.
</event>
<event>
 7    1  0.3221417E-010  0.4778727E+02  0.7816164E-02  0.1312668E+00
        -11   -1    0    0    0    0  0.00000000000E+00  0.00000000000E+00  0.45593999997E+02  0.45594000000E+02  0.51100000000E-03 0.  1.
         11   -1    0    0    0    0 -0.00000000000E+00 -0.00000000000E+00 -0.45593999997E+02  0.45594000000E+02  0.51100000000E-03 0. -1.
    9900012    2    1    2    0    0  0.10168328011E+02 -0.35153409471E+02  0.23333801645E+02  0.47787269692E+02  0.19999993836E+02 0.  0.
        -12    1    1    2    0    0 -0.10168328011E+02  0.35153409471E+02 -0.23333801645E+02  0.43400730308E+02  0.00000000000E+00 0.  1.
         11    1    3    3    0    0  0.74309887988E+01 -0.27713435751E+02  0.12919576733E+02  0.31466960115E+02  0.51100000000E-03 0. -1.
        -11    1    3    3    0    0  0.39081637654E+01 -0.29585937836E+00  0.36683022612E+00  0.39364757671E+01  0.51100000000E-03 0.  1.
        -12    1    3    3    0    0 -0.11708245530E+01 -0.71441143419E+01  0.10047394686E+02  0.12383833810E+02  0.00000000000E+00 0.  1.
</event>
<event>
 7    1  0.3221417E-010  0.4778727E+02  0.7816164E-02  0.1312668E+00
        -11   -1    0    0    0    0  0.00000000000E+00  0.00000000000E+00  0.45593999997E+02  0.45594000000E+02  0.51100000000E-03 0. -1.
         11   -1    0    0    0    0 -0.00000000000E+00 -0.00000000000E+00 -0.45593999997E+02  0.45594000000E+02  0.51100000000E-03 0.  1.
    9900012    2    1    2    0    0  0.22199553276E+02 -0.18416052793E+02  0.32429186583E+02  0.47787270645E+02  0.19999998179E+02 0.  0.
        -12    1    1    2    0    0 -0.22199553276E+02  0.18416052793E+02 -0.32429186583E+02  0.43400729355E+02  0.00000000000E+00 0.  1.
         11    1    3    3    0    0  0.14708143970E+02 -0.19711643011E+02  0.28384373000E+02  0.37557302886E+02  0.51100000000E-03 0. -1.
        -11    1    3    3    0    0  0.69621615424E+01  0.48875798715E+00  0.52155867300E+01  0.87128022422E+01  0.51100000000E-03 0.  1.
         12    1    3    3    0    0  0.52924776395E+00  0.80683223072E+00 -0.11707731471E+01  0.15171655170E+01  0.00000000000E+00 0. -1.
</event>
<event>
 7    1  0.3221417E-010  0.4778726E+02  0.7816164E-02  0.1312668E+00
        -11   -1    0    0    0    0  0.00000000000E+00  0.00000000000E+00  0.45593999997E+02  0.45594000000E+02  0.51100000000E-03 0.  1.
         11   -1    0    0    0    0 -0.00000000000E+00 -0.00000000000E+00 -0.45593999997E+02  0.45594000000E+02  0.51100000000E-03 0. -1.
    9900012    2    1    2    0    0  0.27472488774E+02  0.33390142954E+02 -0.37396946263E+01  0.47787255746E+02  0.19999930247E+02 0.  0.
        -12    1    1    2    0    0 -0.27472488774E+02 -0.33390142954E+02  0.37396946263E+01  0.43400744254E+02  0.00000000000E+00 0.  1.
         11    1    3    3    0    0  0.93988861945E+01  0.15875167458E+02 -0.30358743070E+01  0.18696965973E+02  0.51100000000E-03 0. -1.
        -11    1    3    3    0    0  0.14924414718E+02  0.10919690474E+02  0.57229516675E+01  0.19357943351E+02  0.51100000000E-03 0.  1.
         12    1    3    3    0    0  0.31491878616E+01  0.65952850213E+01 -0.64267719868E+01  0.97323464217E+01  0.00000000000E+00 0. -1.
</event>
<event>
 7    1  0.3221417E-010  0.4778729E+02  0.7816164E-02  0.1312668E+00
        -11   -1    0    0    0    0  0.00000000000E+00  0.00000000000E+00  0.45593999997E+02  0.45594000000E+02  0.51100000000E-03 0. -1.
         11   -1    0    0    0    0 -0.00000000000E+00 -0.00000000000E+00 -0.45593999997E+02  0.45594000000E+02  0.51100000000E-03 0.  1.
    9900012    2    1    2    0    0  0.37494254420E+02 -0.21819752222E+02  0.13040582254E+01  0.47787294137E+02  0.20000105287E+02 0.  0.
         12    1    1    2    0    0 -0.37494254420E+02  0.21819752222E+02 -0.13040582254E+01  0.43400705863E+02  0.00000000000E+00 0. -1.
         11    1    3    3    0    0  0.30976262306E+01 -0.10470564776E+02 -0.50723395346E+00  0.10930933242E+02  0.51100000000E-03 0. -1.
        -11    1    3    3    0    0  0.16561026498E+02 -0.81549419620E+01  0.29816565368E+01  0.18699223327E+02  0.51100000000E-03 0.  1.
         12    1    3    3    0    0  0.17835601692E+02 -0.31942454840E+01 -0.11703643579E+01  0.18157137568E+02  0.00000000000E+00 0. -1.
</event>
<event>
 7    1  0.3221417E-010  0.4778727E+02  0.7816164E-02  0.1312668E+00
        -11   -1    0    0    0    0  0.00000000000E+00  0.00000000000E+00  0.45593999997E+02  0.45594000000E+02  0.51100000000E-03 0. -1.
         11   -1    0    0    0    0 -0.00000000000E+00 -0.00000000000E+00 -0.45593999997E+02  0.45594000000E+02  0.51100000000E-03 0.  1.
    9900012    2    1    2    0    0  0.24944102848E+02 -0.29077083760E+02 -0.20394569132E+02  0.47787268244E+02  0.19999987231E+02 0.  0.
         12    1    1    2    0    0 -0.24944102848E+02  0.29077083760E+02  0.20394569132E+02  0.43400731756E+02  0.00000000000E+00 0. -1.
         11    1    3    3    0    0  0.12897713485E+02 -0.11551841620E+02 -0.78728197625E+01  0.19020445558E+02  0.51100000000E-03 0.  1.
        -11    1    3    3    0    0 -0.16388729085E+01 -0.60994101288E+01  0.99559987169E+00  0.63937412910E+01  0.51100000000E-03 0. -1.
         12    1    3    3    0    0  0.13685262272E+02 -0.11425832011E+02 -0.13517349242E+02  0.22373081395E+02  0.00000000000E+00 0. -1.
</event>
<event>
 7    1  0.3221417E-010  0.4778727E+02  0.7816164E-02  0.1312668E+00
        -11   -1    0    0    0    0  0.00000000000E+00  0.00000000000E+00  0.45593999997E+02  0.45594000000E+02  0.51100000000E-03 0.  1.
         11   -1    0    0    0    0 -0.00000000000E+00 -0.00000000000E+00 -0.45593999997E+02  0.45594000000E+02  0.51100000000E-03 0. -1.
    9900012    2    1    2    0    0  0.33344817753E+02 -0.27397053025E+02  0.45986701535E+01  0.47787272441E+02  0.20000006368E+02 0.  0.
        -12    1    1    2    0    0 -0.33344817753E+02  0.27397053025E+02 -0.45986701535E+01  0.43400727559E+02  0.00000000000E+00 0.  1.
         11    1    3    3    0    0  0.10472043955E+02 -0.97879215834E+00 -0.14794289269E+01  0.10621226336E+02  0.51100000000E-03 0. -1.
        -11    1    3    3    0    0  0.20151694657E+02 -0.17453766715E+02  0.74906519615E+01  0.27691779234E+02  0.51100000000E-03 0.  1.
         12    1    3    3    0    0  0.27210791416E+01 -0.89644941516E+01 -0.14125528810E+01  0.94742668704E+01  0.00000000000E+00 0. -1.
</event>
<event>
 7    1  0.3221417E-010  0.4778728E+02  0.7816164E-02  0.1312668E+00
        -11   -1    0    0    0    0  0.00000000000E+00  0.00000000000E+00  0.45593999997E+02  0.45594000000E+02  0.51100000000E-03 0.  1.
         11   -1    0    0    0    0 -0.00000000000E+00 -0.00000000000E+00 -0.45593999997E+02  0.45594000000E+02  0.51100000000E-03 0. -1.
    9900012    2    1    2    0    0 -0.37272608615E+02 -0.14630061456E+01  0.22186362949E+02  0.47787280642E+02  0.20000043758E+02 0.  0.
        -12    1    1    2    0    0  0.37272608615E+02  0.14630061456E+01 -0.22186362949E+02  0.43400719358E+02  0.00000000000E+00 0.  1.
         11    1    3    3    0    0 -0.29689734420E+02 -0.54262204765E+01  0.15944904755E+02  0.34134501409E+02  0.51100000000E-03 0. -1.
        -11    1    3    3    0    0 -0.35473654359E+01  0.35479388422E+00 -0.17727551362E+01  0.39814998770E+01  0.51100000000E-03 0.  1.
        -12    1    3    3    0    0 -0.40355087591E+01  0.36084204467E+01  0.80142133302E+01  0.96712793552E+01  0.00000000000E+00 0.  1.
</event>
<event>
 7    1  0.3221417E-010  0.4778727E+02  0.7816164E-02  0.1312668E+00
        -11   -1    0    0    0    0  0.00000000000E+00  0.00000000000E+00  0.45593999997E+02  0.45594000000E+02  0.51100000000E-03 0. -1.
         11   -1    0    0    0    0 -0.00000000000E+00 -0.00000000000E+00 -0.45593999997E+02  0.45594000000E+02  0.51100000000E-03 0.  1.
    9900012    2    1    2    0    0 -0.51713460554E+01  0.10416752649E+02 -0.41813535660E+02  0.47787270511E+02  0.19999997570E+02 0.  0.
         12    1    1    2    0    0  0.51713460554E+01 -0.10416752649E+02  0.41813535660E+02  0.43400729489E+02  0.00000000000E+00 0. -1.
         11    1    3    3    0    0 -0.22883668647E+01  0.60986336061E+01 -0.20037187276E+02  0.21069381315E+02  0.51100000000E-03 0. -1.
        -11    1    3    3    0    0  0.36838926466E+01  0.11671452932E+01 -0.18195913097E+02  0.18601735050E+02  0.51100000000E-03 0.  1.
         12    1    3    3    0    0 -0.65668718373E+01  0.31509737500E+01 -0.35804352860E+01  0.81161541470E+01  0.00000000000E+00 0. -1.
</event>
<event>
 7    1  0.3221417E-010  0.4778727E+02  0.7816164E-02  0.1312668E+00
        -11   -1    0    0    0    0  0.00000000000E+00  0.00000000000E+00  0.45593999997E+02  0.45594000000E+02  0.51100000000E-03 0.  1.
         11   -1    0    0    0    0 -0.00000000000E+00 -0.00000000000E+00 -0.45593999997E+02  0.45594000000E+02  0.51100000000E-03 0. -1.
    9900012    2    1    2    0    0  0.59421245046E+01  0.42447540720E+02  0.68206049810E+01  0.47787271790E+02  0.20000003401E+02 0.  0.
        -12    1    1    2    0    0 -0.59421245046E+01 -0.42447540720E+02 -0.68206049810E+01  0.43400728210E+02  0.00000000000E+00 0.  1.
         11    1    3    3    0    0  0.70280014266E+01  0.33122090522E+02  0.82373030257E+01  0.34847078012E+02  0.51100000000E-03 0. -1.
        -11    1    3    3    0    0  0.25166054585E+01  0.77975323443E+01  0.11303146527E+01  0.82711803975E+01  0.51100000000E-03 0.  1.
        -12    1    3    3    0    0 -0.36024823805E+01  0.15279178543E+01 -0.25470126974E+01  0.46690133810E+01  0.00000000000E+00 0.  1.
</event>
<event>
 7    1  0.3221417E-010  0.4778726E+02  0.7816164E-02  0.1312668E+00
        -11   -1    0    0    0    0  0.00000000000E+00  0.00000000000E+00  0.45593999997E+02  0.45594000000E+02  0.51100000000E-03 0. -1.
         11   -1    0    0    0    0 -0.00000000000E+00 -0.00000000000E+00 -0.45593999997E+02  0.45594000000E+02  0.51100000000E-03 0.  1.
    9900012    2    1    2    0    0  0.96580163904E+01 -0.39109812539E+02 -0.16148351580E+02  0.47787262953E+02  0.19999963109E+02 0.  0.
         12    1    1    2    0    0 -0.96580163904E+01  0.39109812539E+02  0.16148351580E+02  0.43400737047E+02  0.00000000000E+00 0. -1.
         11    1    3    3    0    0  0.66107312393E+01 -0.12357839049E+02  0.14221979857E+01  0.14086894649E+02  0.51100000000E-03 0. -1.
        -11    1    3    3    0    0  0.59158111645E+01 -0.22956993768E+02 -0.12709617026E+02  0.26898973025E+02  0.51100000000E-03 0.  1.
        -12    1    3    3    0    0 -0.28685260134E+01 -0.37949797221E+01 -0.48609325404E+01  0.68013952792E+01  0.00000000000E+00 0.  1.
</event>
<event>
 7    1  0.3221417E-010  0.4778727E+02  0.7816164E-02  0.1312668E+00
        -11   -1    0    0    0    0  0.00000000000E+00  0.00000000000E+00  0.45593999997E+02  0.45594000000E+02  0.51100000000E-03 0.  1.
         11   -1    0    0    0    0 -0.00000000000E+00 -0.00000000000E+00 -0.45593999997E+02  0.45594000000E+02  0.51100000000E-03 0. -1.
    9900012    2    1    2    0    0  0.35581736308E+02  0.19372027872E+01 -0.24775197022E+02  0.47787273038E+02  0.20000009091E+02 0.  0.
         12    1    1    2    0    0 -0.35581736308E+02 -0.19372027872E+01  0.24775197022E+02  0.43400726962E+02  0.00000000000E+00 0. -1.
         11    1    3    3    0    0 -0.98894611250E+00  0.33949003378E+01 -0.66437566594E+00  0.35978824332E+01  0.51100000000E-03 0. -1.
        -11    1    3    3    0    0  0.88437368898E+00  0.74904264226E+00 -0.14595310997E+01  0.18637094714E+01  0.51100000000E-03 0.  1.
        -12    1    3    3    0    0  0.35686308731E+02 -0.22067401929E+01 -0.22651290257E+02  0.42325681134E+02  0.00000000000E+00 0.  1.
</event>
<event>
 7    1  0.3221417E-010  0.4778727E+02  0.7816164E-02  0.1312668E+00
        -11   -1    0    0    0    0  0.00000000000E+00  0.00000000000E+00  0.45593999997E+02  0.45594000000E+02  0.51100000000E-03 0. -1.
         11   -1    0    0    0    0 -0.00000000000E+00 -0.00000000000E+00 -0.45593999997E+02  0.45594000000E+02  0.51100000000E-03 0.  1.
    9900012    2    1    2    0    0  0.13688115647E+02 -0.27989247289E+02 -0.30213590163E+02  0.47787268389E+02  0.19999987894E+02 0.  0.
         12    1    1    2    0    0 -0.13688115647E+02  0.27989247289E+02  0.30213590163E+02  0.43400731611E+02  0.00000000000E+00 0. -1.
         11    1    3    3    0    0 -0.16513795110E+01 -0.58346921479E+01 -0.10873945559E+02  0.12450436901E+02  0.51100000000E-03 0. -1.
        -11    1    3    3    0    0  0.27333607877E+01 -0.36596698151E+01  0.14463113472E+01  0.47912692603E+01  0.51100000000E-03 0.  1.
        -12    1    3    3    0    0  0.12606134370E+02 -0.18494885326E+02 -0.20785955951E+02  0.30545562228E+02  0.00000000000E+00 0.  1.
</event>
<event>
 7    1  0.3221417E-010  0.4778726E+02  0.7816164E-02  0.1312668E+00
        -11   -1    0    0    0    0  0.00000000000E+00  0.00000000000E+00  0.45593999997E+02  0.45594000000E+02  0.51100000000E-03 0. -1.
         11   -1    0    0    0    0 -0.00000000000E+00 -0.00000000000E+00 -0.45593999997E+02  0.45594000000E+02  0.51100000000E-03 0.  1.
    9900012    2    1    2    0    0  0.77890432845E+01 -0.37231844207E+02  0.20898435910E+02  0.47787262197E+02  0.19999959661E+02 0.  0.
        -12    1    1    2    0    0 -0.77890432845E+01  0.37231844207E+02 -0.20898435910E+02  0.43400737803E+02  0.00000000000E+00 0.  1.
         11    1    3    3    0    0  0.24395667995E+00 -0.15264644940E+02  0.14785053786E+02  0.21252451993E+02  0.51100000000E-03 0. -1.
        -11    1    3    3    0    0 -0.75504458291E+00 -0.14610423050E+02  0.23192097559E+01  0.14812605719E+02  0.51100000000E-03 0.  1.
         12    1    3    3    0    0  0.83001311874E+01 -0.73567762172E+01  0.37941723687E+01  0.11722204486E+02  0.00000000000E+00 0. -1.
</event>
<event>
 7    1  0.3221417E-010  0.4778723E+02  0.7816164E-02  0.1312668E+00
        -11   -1    0    0    0    0  0.00000000000E+00  0.00000000000E+00  0.45593999997E+02  0.45594000000E+02  0.51100000000E-03 0. -1.
         11   -1    0    0    0    0 -0.00000000000E+00 -0.00000000000E+00 -0.45593999997E+02  0.45594000000E+02  0.51100000000E-03 0.  1.
    9900012    2    1    2    0    0  0.29416870631E+02  0.52402521791E+01 -0.31477204860E+02  0.47787228735E+02  0.19999807092E+02 0.  0.
         12    1    1    2    0    0 -0.29416870631E+02 -0.52402521791E+01  0.31477204860E+02  0.43400771265E+02  0.00000000000E+00 0. -1.
         11    1    3    3    0    0  0.48938160024E+00 -0.33719964310E+01 -0.39093657603E+00  0.34296772369E+01  0.51100000000E-03 0. -1.
        -11    1    3    3    0    0  0.17516777396E+02  0.24317950443E+01 -0.12366449549E+02  0.21579624468E+02  0.51100000000E-03 0.  1.
         12    1    3    3    0    0  0.11410711635E+02  0.61804535658E+01 -0.18719818735E+02  0.22777927030E+02  0.00000000000E+00 0. -1.
</event>
<event>
 7    1  0.3221417E-010  0.4778727E+02  0.7816164E-02  0.1312668E+00
        -11   -1    0    0    0    0  0.00000000000E+00  0.00000000000E+00  0.45593999997E+02  0.45594000000E+02  0.51100000000E-03 0.  1.
         11   -1    0    0    0    0 -0.00000000000E+00 -0.00000000000E+00 -0.45593999997E+02  0.45594000000E+02  0.51100000000E-03 0. -1.
    9900012    2    1    2    0    0 -0.42138429292E+02  0.88038344532E+01  0.55198207707E+01  0.47787272522E+02  0.20000006737E+02 0.  0.
        -12    1    1    2    0    0  0.42138429292E+02 -0.88038344532E+01 -0.55198207707E+01  0.43400727478E+02  0.00000000000E+00 0.  1.
         11    1    3    3    0    0 -0.86411453256E+01  0.50821422201E+00 -0.63776364306E+01  0.10751833376E+02  0.51100000000E-03 0.  1.
        -11    1    3    3    0    0 -0.19835250539E+02  0.29998924851E+01  0.42452124343E+01  0.20505081023E+02  0.51100000000E-03 0. -1.
        -12    1    3    3    0    0 -0.13662033427E+02  0.52957277461E+01  0.76522447671E+01  0.16530358124E+02  0.00000000000E+00 0.  1.
</event>
<event>
 7    1  0.3221417E-010  0.4778727E+02  0.7816164E-02  0.1312668E+00
        -11   -1    0    0    0    0  0.00000000000E+00  0.00000000000E+00  0.45593999997E+02  0.45594000000E+02  0.51100000000E-03 0. -1.
         11   -1    0    0    0    0 -0.00000000000E+00 -0.00000000000E+00 -0.45593999997E+02  0.45594000000E+02  0.51100000000E-03 0.  1.
    9900012    2    1    2    0    0  0.29738663619E+02  0.16804377270E+02  0.26774016576E+02  0.47787272208E+02  0.20000005305E+02 0.  0.
        -12    1    1    2    0    0 -0.29738663619E+02 -0.16804377270E+02 -0.26774016576E+02  0.43400727792E+02  0.00000000000E+00 0.  1.
         11    1    3    3    0    0  0.69915549757E+00  0.46939936910E+01  0.10159393467E+02  0.11213191831E+02  0.51100000000E-03 0. -1.
        -11    1    3    3    0    0  0.73027397185E+01 -0.62415320777E+00  0.28279869369E+01  0.78560222123E+01  0.51100000000E-03 0.  1.
        -12    1    3    3    0    0  0.21736768403E+02  0.12734536787E+02  0.13786636173E+02  0.28718058164E+02  0.00000000000E+00 0.  1.
</event>
<event>
 7    1  0.3221417E-010  0.4778727E+02  0.7816164E-02  0.1312668E+00
        -11   -1    0    0    0    0  0.00000000000E+00  0.00000000000E+00  0.45593999997E+02  0.45594000000E+02  0.51100000000E-03 0.  1.
         11   -1    0    0    0    0 -0.00000000000E+00 -0.00000000000E+00 -0.45593999997E+02  0.45594000000E+02  0.51100000000E-03 0. -1.
    9900012    2    1    2    0    0  0.39981972409E+02  0.30299110004E+00 -0.16881155636E+02  0.47787270318E+02  0.19999996687E+02 0.  0.
         12    1    1    2    0    0 -0.39981972409E+02 -0.30299110004E+00  0.16881155636E+02  0.43400729682E+02  0.00000000000E+00 0. -1.
         11    1    3    3    0    0  0.14067571349E+02  0.58742993031E+01 -0.83709745614E+01  0.17391870840E+02  0.51100000000E-03 0.  1.
        -11    1    3    3    0    0  0.71785155011E+01  0.37489886927E+01 -0.98879124496E+00  0.81586585543E+01  0.51100000000E-03 0. -1.
         12    1    3    3    0    0  0.18735885559E+02 -0.93202968957E+01 -0.75213898295E+01  0.22236740923E+02  0.00000000000E+00 0. -1.
</event>
<event>
 7    1  0.3221417E-010  0.4778727E+02  0.7816164E-02  0.1312668E+00
        -11   -1    0    0    0    0  0.00000000000E+00  0.00000000000E+00  0.45593999997E+02  0.45594000000E+02  0.51100000000E-03 0. -1.
         11   -1    0    0    0    0 -0.00000000000E+00 -0.00000000000E+00 -0.45593999997E+02  0.45594000000E+02  0.51100000000E-03 0.  1.
    9900012    2    1    2    0    0 -0.18332475411E+02  0.11164406378E+02  0.37721341330E+02  0.47787271709E+02  0.20000003031E+02 0.  0.
        -12    1    1    2    0    0  0.18332475411E+02 -0.11164406378E+02 -0.37721341330E+02  0.43400728291E+02  0.00000000000E+00 0.  1.
         11    1    3    3    0    0 -0.24410054648E+01  0.51805702877E+01  0.16932389321E+02  0.17874636347E+02  0.51100000000E-03 0. -1.
        -11    1    3    3    0    0 -0.13437752967E+02 -0.14836370391E+01  0.14685765448E+02  0.19961114465E+02  0.51100000000E-03 0.  1.
         12    1    3    3    0    0 -0.24537169792E+01  0.74674731290E+01  0.61031865616E+01  0.99515208965E+01  0.00000000000E+00 0. -1.
</event>
<event>
 7    1  0.3221417E-010  0.4778727E+02  0.7816164E-02  0.1312668E+00
        -11   -1    0    0    0    0  0.00000000000E+00  0.00000000000E+00  0.45593999997E+02  0.45594000000E+02  0.51100000000E-03 0. -1.
         11   -1    0    0    0    0 -0.00000000000E+00 -0.00000000000E+00 -0.45593999997E+02  0.45594000000E+02  0.51100000000E-03 0.  1.
    9900012    2    1    2    0    0  0.27777663025E+02 -0.32810470698E+02 -0.59579828431E+01  0.47787272932E+02  0.20000008604E+02 0.  0.
         12    1    1    2    0    0 -0.27777663025E+02  0.32810470698E+02  0.59579828431E+01  0.43400727068E+02  0.00000000000E+00 0. -1.
         11    1    3    3    0    0 -0.11884012463E+01  0.67503528325E+00  0.90844371443E+00  0.16411095025E+01  0.51100000000E-03 0. -1.
        -11    1    3    3    0    0  0.19037565305E+02 -0.28352015930E+02 -0.28501230280E+01  0.34269358056E+02  0.51100000000E-03 0.  1.
         12    1    3    3    0    0  0.99284989663E+01 -0.51334900503E+01 -0.40163035295E+01  0.11876805373E+02  0.00000000000E+00 0. -1.
</event>
<event>
 7    1  0.3221417E-010  0.4778726E+02  0.7816164E-02  0.1312668E+00
        -11   -1    0    0    0    0  0.00000000000E+00  0.00000000000E+00  0.45593999997E+02  0.45594000000E+02  0.51100000000E-03 0. -1.
         11   -1    0    0    0    0 -0.00000000000E+00 -0.00000000000E+00 -0.45593999997E+02  0.45594000000E+02  0.51100000000E-03 0.  1.
    9900012    2    1    2    0    0  0.33231732604E+02  0.11950662353E+02  0.25228123824E+02  0.47787255603E+02  0.19999929597E+02 0.  0.
        -12    1    1    2    0    0 -0.33231732604E+02 -0.11950662353E+02 -0.25228123824E+02  0.43400744397E+02  0.00000000000E+00 0.  1.
         11    1    3    3    0    0  0.15136531916E+02  0.41047654765E+01  0.81500314063E+01  0.17674464921E+02  0.51100000000E-03 0. -1.
        -11    1    3    3    0    0  0.45983090406E+01 -0.42238377923E+01  0.70400375430E+01  0.94099617745E+01  0.51100000000E-03 0.  1.
        -12    1    3    3    0    0  0.13496891647E+02  0.12069734669E+02  0.10038054875E+02  0.20702828908E+02  0.00000000000E+00 0.  1.
</event>
<event>
 7    1  0.3221417E-010  0.4778727E+02  0.7816164E-02  0.1312668E+00
        -11   -1    0    0    0    0  0.00000000000E+00  0.00000000000E+00  0.45593999997E+02  0.45594000000E+02  0.51100000000E-03 0. -1.
         11   -1    0    0    0    0 -0.00000000000E+00 -0.00000000000E+00 -0.45593999997E+02  0.45594000000E+02  0.51100000000E-03 0.  1.
    9900012    2    1    2    0    0  0.29350902415E+02 -0.12256856279E+02  0.29528247078E+02  0.47787269892E+02  0.19999994745E+02 0.  0.
        -12    1    1    2    0    0 -0.29350902415E+02  0.12256856279E+02 -0.29528247078E+02  0.43400730108E+02  0.00000000000E+00 0.  1.
         11    1    3    3    0    0  0.31187132395E+01 -0.53586349720E+01  0.12401340266E+02  0.13864868614E+02  0.51100000000E-03 0. -1.
        -11    1    3    3    0    0  0.86200398599E+00  0.19631432441E+01  0.17943730945E+00  0.21515529921E+01  0.51100000000E-03 0.  1.
        -12    1    3    3    0    0  0.25370185189E+02 -0.88613645515E+01  0.16947469503E+02  0.31770848286E+02  0.00000000000E+00 0.  1.
</event>
<event>
 7    1  0.3221417E-010  0.4778727E+02  0.7816164E-02  0.1312668E+00
        -11   -1    0    0    0    0  0.00000000000E+00  0.00000000000E+00  0.45593999997E+02  0.45594000000E+02  0.51100000000E-03 0. -1.
         11   -1    0    0    0    0 -0.00000000000E+00 -0.00000000000E+00 -0.45593999997E+02  0.45594000000E+02  0.51100000000E-03 0.  1.
    9900012    2    1    2    0    0  0.18063283040E+02  0.98886857204E+01  0.38204123098E+02  0.47787270500E+02  0.19999997518E+02 0.  0.
        -12    1    1    2    0    0 -0.18063283040E+02 -0.98886857204E+01 -0.38204123098E+02  0.43400729500E+02  0.00000000000E+00 0.  1.
         11    1    3    3    0    0  0.32009202428E+01  0.12291954433E+02  0.19440566796E+02  0.23222266723E+02  0.51100000000E-03 0. -1.
        -11    1    3    3    0    0  0.63468690924E+01 -0.67392138618E+00  0.11855170164E+02  0.13464099569E+02  0.51100000000E-03 0.  1.
        -12    1    3    3    0    0  0.85154937047E+01 -0.17293473260E+01  0.69083861380E+01  0.11100904208E+02  0.00000000000E+00 0.  1.
</event>
<event>
 7    1  0.3221417E-010  0.4778727E+02  0.7816164E-02  0.1312668E+00
        -11   -1    0    0    0    0  0.00000000000E+00  0.00000000000E+00  0.45593999997E+02  0.45594000000E+02  0.51100000000E-03 0. -1.
         11   -1    0    0    0    0 -0.00000000000E+00 -0.00000000000E+00 -0.45593999997E+02  0.45594000000E+02  0.51100000000E-03 0.  1.
    9900012    2    1    2    0    0 -0.26938214976E+02 -0.11972107027E+02 -0.31853171161E+02  0.47787270908E+02  0.19999999377E+02 0.  0.
         12    1    1    2    0    0  0.26938214976E+02  0.11972107027E+02  0.31853171161E+02  0.43400729092E+02  0.00000000000E+00 0. -1.
         11    1    3    3    0    0 -0.27006710812E+01 -0.39856057995E+01 -0.17957714268E+01  0.51384310014E+01  0.51100000000E-03 0. -1.
        -11    1    3    3    0    0 -0.18089775350E+02 -0.33053011943E+01 -0.95231398464E+01  0.20708818919E+02  0.51100000000E-03 0.  1.
         12    1    3    3    0    0 -0.61477685445E+01 -0.46812000329E+01 -0.20534259887E+02  0.21940020988E+02  0.00000000000E+00 0. -1.
</event>
<event>
 7    1  0.3221417E-010  0.4778731E+02  0.7816164E-02  0.1312668E+00
        -11   -1    0    0    0    0  0.00000000000E+00  0.00000000000E+00  0.45593999997E+02  0.45594000000E+02  0.51100000000E-03 0. -1.
         11   -1    0    0    0    0 -0.00000000000E+00 -0.00000000000E+00 -0.45593999997E+02  0.45594000000E+02  0.51100000000E-03 0.  1.
    9900012    2    1    2    0    0  0.31847769832E+02  0.28913940427E+02  0.57726883389E+01  0.47787305018E+02  0.20000154897E+02 0.  0.
         12    1    1    2    0    0 -0.31847769832E+02 -0.28913940427E+02 -0.57726883389E+01  0.43400694982E+02  0.00000000000E+00 0. -1.
         11    1    3    3    0    0  0.74881686606E+01  0.12982959206E+01  0.13081720043E+01  0.77116506950E+01  0.51100000000E-03 0. -1.
        -11    1    3    3    0    0  0.23381992971E+02  0.27798438117E+02  0.73175447441E+01  0.37054246968E+02  0.51100000000E-03 0.  1.
         12    1    3    3    0    0  0.97760820037E+00 -0.18279361057E+00 -0.28530284095E+01  0.30214073547E+01  0.00000000000E+00 0. -1.
</event>
<event>
 7    1  0.5924295E-010  0.4778727E+02  0.7816164E-02  0.1312668E+00
        -11   -1    0    0    0    0  0.00000000000E+00  0.00000000000E+00  0.45593999997E+02  0.45594000000E+02  0.51100000000E-03 0. -1.
         11   -1    0    0    0    0 -0.00000000000E+00 -0.00000000000E+00 -0.45593999997E+02  0.45594000000E+02  0.51100000000E-03 0.  1.
    9900012    2    1    2    0    0  0.82526400664E+01 -0.25063628672E+02 -0.34457684343E+02  0.47787267742E+02  0.19999984944E+02 0.  0.
         12    1    1    2    0    0 -0.82526400664E+01  0.25063628672E+02  0.34457684343E+02  0.43400732258E+02  0.00000000000E+00 0. -1.
         11    1    3    3    0    0  0.23898466217E+01  0.91387491126E+00 -0.11847517584E+02  0.12120652103E+02  0.51100000000E-03 0. -1.
        -11    1    3    3    0    0  0.58600214928E+01 -0.99024992545E+01 -0.96789461317E+01  0.15036001525E+02  0.51100000000E-03 0.  1.
         12    1    3    3    0    0  0.27719518660E-02 -0.16075004329E+02 -0.12931220627E+02  0.20630614115E+02  0.00000000000E+00 0. -1.
</event>
<event>
 7    1  0.3221417E-010  0.4778726E+02  0.7816164E-02  0.1312668E+00
        -11   -1    0    0    0    0  0.00000000000E+00  0.00000000000E+00  0.45593999997E+02  0.45594000000E+02  0.51100000000E-03 0. -1.
         11   -1    0    0    0    0 -0.00000000000E+00 -0.00000000000E+00 -0.45593999997E+02  0.45594000000E+02  0.51100000000E-03 0.  1.
    9900012    2    1    2    0    0  0.22392945066E+02  0.14680330497E+02 -0.34156518781E+02  0.47787264206E+02  0.19999968820E+02 0.  0.
         12    1    1    2    0    0 -0.22392945066E+02 -0.14680330497E+02  0.34156518781E+02  0.43400735794E+02  0.00000000000E+00 0. -1.
         11    1    3    3    0    0 -0.12376238477E+01  0.68063025009E+00 -0.16033821518E+01  0.21367744176E+01  0.51100000000E-03 0. -1.
        -11    1    3    3    0    0  0.58154983979E+01  0.10897658865E+02 -0.65605648583E+01  0.13986422054E+02  0.51100000000E-03 0.  1.
         12    1    3    3    0    0  0.17815070516E+02  0.31020413821E+01 -0.25992571771E+02  0.31664067734E+02  0.00000000000E+00 0. -1.
</event>
<event>
 7    1  0.3221417E-010  0.4778727E+02  0.7816164E-02  0.1312668E+00
        -11   -1    0    0    0    0  0.00000000000E+00  0.00000000000E+00  0.45593999997E+02  0.45594000000E+02  0.51100000000E-03 0. -1.
         11   -1    0    0    0    0 -0.00000000000E+00 -0.00000000000E+00 -0.45593999997E+02  0.45594000000E+02  0.51100000000E-03 0.  1.
    9900012    2    1    2    0    0  0.11455633261E+02 -0.34146070066E+01  0.41722082502E+02  0.47787271404E+02  0.20000001638E+02 0.  0.
        -12    1    1    2    0    0 -0.11455633261E+02  0.34146070066E+01 -0.41722082502E+02  0.43400728596E+02  0.00000000000E+00 0.  1.
         11    1    3    3    0    0  0.93049439148E+01  0.23064732560E+00  0.32410770342E+02  0.33720812770E+02  0.51100000000E-03 0. -1.
        -11    1    3    3    0    0  0.64299251838E+00 -0.59078543699E+01  0.96432730035E+01  0.11327351726E+02  0.51100000000E-03 0.  1.
         12    1    3    3    0    0  0.15076968275E+01  0.22626000377E+01 -0.33196084359E+00  0.27391069085E+01  0.00000000000E+00 0. -1.
</event>
<event>
 7    1  0.3221417E-010  0.4778732E+02  0.7816164E-02  0.1312668E+00
        -11   -1    0    0    0    0  0.00000000000E+00  0.00000000000E+00  0.45593999997E+02  0.45594000000E+02  0.51100000000E-03 0. -1.
         11   -1    0    0    0    0 -0.00000000000E+00 -0.00000000000E+00 -0.45593999997E+02  0.45594000000E+02  0.51100000000E-03 0.  1.
    9900012    2    1    2    0    0 -0.29347767063E+02 -0.15833894452E+02  0.27777968493E+02  0.47787318223E+02  0.20000215106E+02 0.  0.
        -12    1    1    2    0    0  0.29347767063E+02  0.15833894452E+02 -0.27777968493E+02  0.43400681777E+02  0.00000000000E+00 0.  1.
         11    1    3    3    0    0 -0.72981161365E+01 -0.55916766436E+01  0.13245565493E+02  0.16123720176E+02  0.51100000000E-03 0. -1.
        -11    1    3    3    0    0 -0.25113992961E+01 -0.57901413070E+01 -0.89423303370E+00  0.63743639494E+01  0.51100000000E-03 0.  1.
         12    1    3    3    0    0 -0.19538251631E+02 -0.44520765012E+01  0.15426636034E+02  0.25289234098E+02  0.00000000000E+00 0. -1.
</event>
<event>
 7    1  0.3221417E-010  0.4778729E+02  0.7816164E-02  0.1312668E+00
        -11   -1    0    0    0    0  0.00000000000E+00  0.00000000000E+00  0.45593999997E+02  0.45594000000E+02  0.51100000000E-03 0. -1.
         11   -1    0    0    0    0 -0.00000000000E+00 -0.00000000000E+00 -0.45593999997E+02  0.45594000000E+02  0.51100000000E-03 0.  1.
    9900012    2    1    2    0    0  0.65901680679E+01  0.71309253682E+01  0.42300602838E+02  0.47787292492E+02  0.20000097786E+02 0.  0.
        -12    1    1    2    0    0 -0.65901680679E+01 -0.71309253682E+01 -0.42300602838E+02  0.43400707508E+02  0.00000000000E+00 0.  1.
         11    1    3    3    0    0  0.39617887317E+00  0.68201578252E+01  0.18874487277E+02  0.20072811978E+02  0.51100000000E-03 0. -1.
        -11    1    3    3    0    0 -0.20496268841E+01 -0.47219171050E+01  0.84165588656E+01  0.98658975724E+01  0.51100000000E-03 0.  1.
         12    1    3    3    0    0  0.82436160789E+01  0.50326846480E+01  0.15009556695E+02  0.17848582941E+02  0.00000000000E+00 0. -1.
</event>
<event>
 7    1  0.3221417E-010  0.4778727E+02  0.7816164E-02  0.1312668E+00
        -11   -1    0    0    0    0  0.00000000000E+00  0.00000000000E+00  0.45593999997E+02  0.45594000000E+02  0.51100000000E-03 0. -1.
         11   -1    0    0    0    0 -0.00000000000E+00 -0.00000000000E+00 -0.45593999997E+02  0.45594000000E+02  0.51100000000E-03 0.  1.
    9900012    2    1    2    0    0 -0.22089594756E+02 -0.19233710947E+02  0.32027138435E+02  0.47787269251E+02  0.19999991821E+02 0.  0.
        -12    1    1    2    0    0  0.22089594756E+02  0.19233710947E+02 -0.32027138435E+02  0.43400730749E+02  0.00000000000E+00 0.  1.
         11    1    3    3    0    0 -0.98551865454E+01 -0.57801776680E+01  0.41337221194E+01  0.12150012944E+02  0.51100000000E-03 0. -1.
        -11    1    3    3    0    0 -0.14868341437E+02 -0.10441294270E+02  0.22424551282E+02  0.28860850708E+02  0.51100000000E-03 0.  1.
        -12    1    3    3    0    0  0.26339332263E+01 -0.30122390084E+01  0.54688650336E+01  0.67764055989E+01  0.00000000000E+00 0.  1.
</event>
<event>
 7    1  0.3221417E-010  0.4778728E+02  0.7816164E-02  0.1312668E+00
        -11   -1    0    0    0    0  0.00000000000E+00  0.00000000000E+00  0.45593999997E+02  0.45594000000E+02  0.51100000000E-03 0. -1.
         11   -1    0    0    0    0 -0.00000000000E+00 -0.00000000000E+00 -0.45593999997E+02  0.45594000000E+02  0.51100000000E-03 0.  1.
    9900012    2    1    2    0    0  0.11224367823E+02  0.30810661321E+02 -0.28431313359E+02  0.47787275773E+02  0.20000021561E+02 0.  0.
         12    1    1    2    0    0 -0.11224367823E+02 -0.30810661321E+02  0.28431313359E+02  0.43400724227E+02  0.00000000000E+00 0. -1.
         11    1    3    3    0    0 -0.29292198743E+01  0.18756595958E+01 -0.67461676984E+01  0.75900729158E+01  0.51100000000E-03 0. -1.
        -11    1    3    3    0    0  0.34441286918E+01  0.16777975344E+02 -0.76365499331E+01  0.18753116387E+02  0.51100000000E-03 0.  1.
        -12    1    3    3    0    0  0.10709459006E+02  0.12157026382E+02 -0.14048595728E+02  0.21444086471E+02  0.00000000000E+00 0.  1.
</event>
<event>
 7    1  0.3221417E-010  0.4778727E+02  0.7816164E-02  0.1312668E+00
        -11   -1    0    0    0    0  0.00000000000E+00  0.00000000000E+00  0.45593999997E+02  0.45594000000E+02  0.51100000000E-03 0. -1.
         11   -1    0    0    0    0 -0.00000000000E+00 -0.00000000000E+00 -0.45593999997E+02  0.45594000000E+02  0.51100000000E-03 0.  1.
    9900012    2    1    2    0    0 -0.25367202058E+02  0.18678788460E+02 -0.29853494301E+02  0.47787271889E+02  0.20000003849E+02 0.  0.
         12    1    1    2    0    0  0.25367202058E+02 -0.18678788460E+02  0.29853494301E+02  0.43400728111E+02  0.00000000000E+00 0. -1.
         11    1    3    3    0    0 -0.40189354181E+01  0.40369192860E+01  0.33831731262E+00  0.57064015003E+01  0.51100000000E-03 0. -1.
        -11    1    3    3    0    0 -0.68346940160E+01  0.11045512860E+01 -0.16711177338E+02  0.18088574409E+02  0.51100000000E-03 0.  1.
        -12    1    3    3    0    0 -0.14513572624E+02  0.13537317888E+02 -0.13480634275E+02  0.23992295980E+02  0.00000000000E+00 0.  1.
</event>
<event>
 7    1  0.3221417E-010  0.4778726E+02  0.7816164E-02  0.1312668E+00
        -11   -1    0    0    0    0  0.00000000000E+00  0.00000000000E+00  0.45593999997E+02  0.45594000000E+02  0.51100000000E-03 0. -1.
         11   -1    0    0    0    0 -0.00000000000E+00 -0.00000000000E+00 -0.45593999997E+02  0.45594000000E+02  0.51100000000E-03 0.  1.
    9900012    2    1    2    0    0 -0.35965620989E+02  0.38542723786E+01 -0.23984220362E+02  0.47787261123E+02  0.19999954763E+02 0.  0.
         12    1    1    2    0    0  0.35965620989E+02 -0.38542723786E+01  0.23984220362E+02  0.43400738877E+02  0.00000000000E+00 0. -1.
         11    1    3    3    0    0 -0.24185177772E+02  0.26977334136E+00 -0.12151046824E+02  0.27067388878E+02  0.51100000000E-03 0. -1.
        -11    1    3    3    0    0 -0.96558717482E+01  0.51997515010E+01 -0.13636141057E+02  0.17499074778E+02  0.51100000000E-03 0.  1.
         12    1    3    3    0    0 -0.21245714693E+01 -0.16152524638E+01  0.18029675185E+01  0.32207974669E+01  0.00000000000E+00 0. -1.
</event>
<event>
 7    1  0.3221417E-010  0.4778727E+02  0.7816164E-02  0.1312668E+00
        -11   -1    0    0    0    0  0.00000000000E+00  0.00000000000E+00  0.45593999997E+02  0.45594000000E+02  0.51100000000E-03 0. -1.
         11   -1    0    0    0    0 -0.00000000000E+00 -0.00000000000E+00 -0.45593999997E+02  0.45594000000E+02  0.51100000000E-03 0.  1.
    9900012    2    1    2    0    0  0.74444579861E+01 -0.39016551491E+02 -0.17490342920E+02  0.47787270278E+02  0.19999996506E+02 0.  0.
         12    1    1    2    0    0 -0.74444579861E+01  0.39016551491E+02  0.17490342920E+02  0.43400729722E+02  0.00000000000E+00 0. -1.
         11    1    3    3    0    0  0.77686772751E+01 -0.16444539982E+02 -0.11194630929E+02  0.21356380866E+02  0.51100000000E-03 0. -1.
        -11    1    3    3    0    0 -0.35859721989E+00 -0.27724641203E+01 -0.60109904657E+01  0.66292651105E+01  0.51100000000E-03 0.  1.
        -12    1    3    3    0    0  0.34377930857E-01 -0.19799547388E+02 -0.28472152600E+00  0.19801624301E+02  0.00000000000E+00 0.  1.
</event>
<event>
 7    1  0.3221417E-010  0.4778727E+02  0.7816164E-02  0.1312668E+00
        -11   -1    0    0    0    0  0.00000000000E+00  0.00000000000E+00  0.45593999997E+02  0.45594000000E+02  0.51100000000E-03 0. -1.
         11   -1    0    0    0    0 -0.00000000000E+00 -0.00000000000E+00 -0.45593999997E+02  0.45594000000E+02  0.51100000000E-03 0.  1.
    9900012    2    1    2    0    0 -0.10099379112E+02  0.13747780882E+02  0.39907698685E+02  0.47787270145E+02  0.19999995898E+02 0.  0.
        -12    1    1    2    0    0  0.10099379112E+02 -0.13747780882E+02 -0.39907698685E+02  0.43400729855E+02  0.00000000000E+00 0.  1.
         11    1    3    3    0    0 -0.24343210426E+01 -0.17148575216E+01  0.68195079069E+01  0.74412595446E+01  0.51100000000E-03 0. -1.
        -11    1    3    3    0    0  0.12664423629E+01  0.81464553908E+01  0.42346239083E+01  0.92682604408E+01  0.51100000000E-03 0.  1.
         12    1    3    3    0    0 -0.89315004319E+01  0.73161830126E+01  0.28853566870E+02  0.31077750159E+02  0.00000000000E+00 0. -1.
</event>
<event>
 7    1  0.3221417E-010  0.4778727E+02  0.7816164E-02  0.1312668E+00
        -11   -1    0    0    0    0  0.00000000000E+00  0.00000000000E+00  0.45593999997E+02  0.45594000000E+02  0.51100000000E-03 0. -1.
         11   -1    0    0    0    0 -0.00000000000E+00 -0.00000000000E+00 -0.45593999997E+02  0.45594000000E+02  0.51100000000E-03 0.  1.
    9900012    2    1    2    0    0  0.36819111003E+02 -0.18283484965E+02 -0.13917274674E+02  0.47787270837E+02  0.19999999054E+02 0.  0.
         12    1    1    2    0    0 -0.36819111003E+02  0.18283484965E+02  0.13917274674E+02  0.43400729163E+02  0.00000000000E+00 0. -1.
         11    1    3    3    0    0  0.59835104026E+01 -0.83976066525E+00  0.39053888611E+01  0.71944184706E+01  0.51100000000E-03 0. -1.
        -11    1    3    3    0    0  0.10988205526E+02 -0.37377168813E+01 -0.20838799320E+01  0.11792105156E+02  0.51100000000E-03 0.  1.
        -12    1    3    3    0    0  0.19847395074E+02 -0.13706007418E+02 -0.15738783603E+02  0.28800747211E+02  0.00000000000E+00 0.  1.
</event>
<event>
 7    1  0.3221417E-010  0.4778727E+02  0.7816164E-02  0.1312668E+00
        -11   -1    0    0    0    0  0.00000000000E+00  0.00000000000E+00  0.45593999997E+02  0.45594000000E+02  0.51100000000E-03 0. -1.
         11   -1    0    0    0    0 -0.00000000000E+00 -0.00000000000E+00 -0.45593999997E+02  0.45594000000E+02  0.51100000000E-03 0.  1.
    9900012    2    1    2    0    0 -0.14317780250E+02  0.18708210960E+02  0.36450338080E+02  0.47787272648E+02  0.20000007310E+02 0.  0.
        -12    1    1    2    0    0  0.14317780250E+02 -0.18708210960E+02 -0.36450338080E+02  0.43400727352E+02  0.00000000000E+00 0.  1.
         11    1    3    3    0    0 -0.70688542345E+01  0.16605246235E+02  0.31035615133E+02  0.35901424897E+02  0.51100000000E-03 0. -1.
        -11    1    3    3    0    0 -0.41664011759E+00  0.25033540891E+01  0.42404372543E+01  0.49418295248E+01  0.51100000000E-03 0.  1.
        -12    1    3    3    0    0 -0.68322858976E+01 -0.40038936481E+00  0.11742856928E+01  0.69440182257E+01  0.00000000000E+00 0.  1.
</event>
<event>
 7    1  0.3221417E-010  0.4778727E+02  0.7816164E-02  0.1312668E+00
        -11   -1    0    0    0    0  0.00000000000E+00  0.00000000000E+00  0.45593999997E+02  0.45594000000E+02  0.51100000000E-03 0. -1.
         11   -1    0    0    0    0 -0.00000000000E+00 -0.00000000000E+00 -0.45593999997E+02  0.45594000000E+02  0.51100000000E-03 0.  1.
    9900012    2    1    2    0    0  0.20631235450E+01 -0.23392208333E+02  0.36498927682E+02  0.47787267156E+02  0.19999982271E+02 0.  0.
        -12    1    1    2    0    0 -0.20631235450E+01  0.23392208333E+02 -0.36498927682E+02  0.43400732844E+02  0.00000000000E+00 0.  1.
         11    1    3    3    0    0 -0.41872487196E+00 -0.25101264373E+02  0.25419115929E+02  0.35726464399E+02  0.51100000000E-03 0. -1.
        -11    1    3    3    0    0 -0.72770771176E+00  0.41387761673E+00  0.49594970811E+01  0.50296585126E+01  0.51100000000E-03 0.  1.
         12    1    3    3    0    0  0.32095561288E+01  0.12951784228E+01  0.61203146723E+01  0.70311442439E+01  0.00000000000E+00 0. -1.
</event>
<event>
 7    1  0.3221417E-010  0.4778728E+02  0.7816164E-02  0.1312668E+00
        -11   -1    0    0    0    0  0.00000000000E+00  0.00000000000E+00  0.45593999997E+02  0.45594000000E+02  0.51100000000E-03 0. -1.
         11   -1    0    0    0    0 -0.00000000000E+00 -0.00000000000E+00 -0.45593999997E+02  0.45594000000E+02  0.51100000000E-03 0.  1.
    9900012    2    1    2    0    0  0.19258092957E+02  0.19403714886E+01 -0.38845637458E+02  0.47787277248E+02  0.20000028284E+02 0.  0.
         12    1    1    2    0    0 -0.19258092957E+02 -0.19403714886E+01  0.38845637458E+02  0.43400722752E+02  0.00000000000E+00 0. -1.
         11    1    3    3    0    0  0.37802177432E+01 -0.67795980116E+01 -0.68731324581E+01  0.10367880470E+02  0.51100000000E-03 0. -1.
        -11    1    3    3    0    0  0.12669756117E+01  0.30196944986E+01 -0.10833819429E+02  0.11317924975E+02  0.51100000000E-03 0.  1.
        -12    1    3    3    0    0  0.14210899602E+02  0.57002750015E+01 -0.21138685571E+02  0.26101471803E+02  0.00000000000E+00 0.  1.
</event>
<event>
 7    1  0.5464519E-010  0.4778727E+02  0.7816164E-02  0.1312668E+00
        -11   -1    0    0    0    0  0.00000000000E+00  0.00000000000E+00  0.45593999997E+02  0.45594000000E+02  0.51100000000E-03 0. -1.
         11   -1    0    0    0    0 -0.00000000000E+00 -0.00000000000E+00 -0.45593999997E+02  0.45594000000E+02  0.51100000000E-03 0.  1.
    9900012    2    1    2    0    0 -0.20605502478E+02  0.19954054355E+02 -0.32571036435E+02  0.47787269222E+02  0.19999991692E+02 0.  0.
         12    1    1    2    0    0  0.20605502478E+02 -0.19954054355E+02  0.32571036435E+02  0.43400730778E+02  0.00000000000E+00 0. -1.
         11    1    3    3    0    0 -0.27506893768E+00  0.20908384870E+01  0.24880069924E+01  0.32615100114E+01  0.51100000000E-03 0. -1.
        -11    1    3    3    0    0 -0.72075482633E+01  0.35884524248E+01 -0.10735640577E+02  0.13419378586E+02  0.51100000000E-03 0.  1.
         12    1    3    3    0    0 -0.13122885277E+02  0.14274763443E+02 -0.24323402851E+02  0.31106380625E+02  0.00000000000E+00 0. -1.
</event>
<event>
 7    1  0.3221417E-010  0.4778727E+02  0.7816164E-02  0.1312668E+00
        -11   -1    0    0    0    0  0.00000000000E+00  0.00000000000E+00  0.45593999997E+02  0.45594000000E+02  0.51100000000E-03 0. -1.
         11   -1    0    0    0    0 -0.00000000000E+00 -0.00000000000E+00 -0.45593999997E+02  0.45594000000E+02  0.51100000000E-03 0.  1.
    9900012    2    1    2    0    0 -0.21836858428E+02 -0.21979746497E+02  0.30391870510E+02  0.47787269186E+02  0.19999991527E+02 0.  0.
        -12    1    1    2    0    0  0.21836858428E+02  0.21979746497E+02 -0.30391870510E+02  0.43400730814E+02  0.00000000000E+00 0.  1.
         11    1    3    3    0    0 -0.21470147476E+01 -0.63588062052E+00 -0.13670857905E+01  0.26235358412E+01  0.51100000000E-03 0. -1.
        -11    1    3    3    0    0 -0.10925514304E+02 -0.20434763870E+02  0.21152760423E+02  0.31374921689E+02  0.51100000000E-03 0.  1.
         12    1    3    3    0    0 -0.87643293771E+01 -0.90910200672E+00  0.10606195878E+02  0.13788811656E+02  0.00000000000E+00 0. -1.
</event>
<event>
 7    1  0.3221417E-010  0.4778727E+02  0.7816164E-02  0.1312668E+00
        -11   -1    0    0    0    0  0.00000000000E+00  0.00000000000E+00  0.45593999997E+02  0.45594000000E+02  0.51100000000E-03 0. -1.
         11   -1    0    0    0    0 -0.00000000000E+00 -0.00000000000E+00 -0.45593999997E+02  0.45594000000E+02  0.51100000000E-03 0.  1.
    9900012    2    1    2    0    0  0.13904485174E+02  0.90195541545E+01  0.40111548708E+02  0.47787269536E+02  0.19999993122E+02 0.  0.
        -12    1    1    2    0    0 -0.13904485174E+02 -0.90195541545E+01 -0.40111548708E+02  0.43400730464E+02  0.00000000000E+00 0.  1.
         11    1    3    3    0    0  0.16653977242E+02  0.57277330000E+01  0.18116273033E+02  0.25265811528E+02  0.51100000000E-03 0. -1.
        -11    1    3    3    0    0 -0.53275223021E+00  0.76955953442E+00  0.10613061339E+02  0.10654253520E+02  0.51100000000E-03 0.  1.
         12    1    3    3    0    0 -0.22167398376E+01  0.25222616201E+01  0.11382214335E+02  0.11867204488E+02  0.00000000000E+00 0. -1.
</event>
<event>
 7    1  0.3221417E-010  0.4778728E+02  0.7816164E-02  0.1312668E+00
        -11   -1    0    0    0    0  0.00000000000E+00  0.00000000000E+00  0.45593999997E+02  0.45594000000E+02  0.51100000000E-03 0. -1.
         11   -1    0    0    0    0 -0.00000000000E+00 -0.00000000000E+00 -0.45593999997E+02  0.45594000000E+02  0.51100000000E-03 0.  1.
    9900012    2    1    2    0    0  0.17352014130E+02  0.12526600012E+02  0.37757306999E+02  0.47787281872E+02  0.20000049368E+02 0.  0.
        -12    1    1    2    0    0 -0.17352014130E+02 -0.12526600012E+02 -0.37757306999E+02  0.43400718128E+02  0.00000000000E+00 0.  1.
         11    1    3    3    0    0  0.13209418098E+02  0.15059855669E+02  0.25418666344E+02  0.32363506890E+02  0.51100000000E-03 0. -1.
        -11    1    3    3    0    0  0.64685144682E+01 -0.15139148656E+01  0.97441101987E+01  0.11793273569E+02  0.51100000000E-03 0.  1.
        -12    1    3    3    0    0 -0.23259184364E+01 -0.10193407915E+01  0.25945304558E+01  0.36305014127E+01  0.00000000000E+00 0.  1.
</event>
<event>
 7    1  0.3221417E-010  0.4778727E+02  0.7816164E-02  0.1312668E+00
        -11   -1    0    0    0    0  0.00000000000E+00  0.00000000000E+00  0.45593999997E+02  0.45594000000E+02  0.51100000000E-03 0. -1.
         11   -1    0    0    0    0 -0.00000000000E+00 -0.00000000000E+00 -0.45593999997E+02  0.45594000000E+02  0.51100000000E-03 0.  1.
    9900012    2    1    2    0    0  0.37035114517E+02 -0.21126007286E+02  0.81064854691E+01  0.47787274225E+02  0.20000014500E+02 0.  0.
        -12    1    1    2    0    0 -0.37035114517E+02  0.21126007286E+02 -0.81064854691E+01  0.43400725775E+02  0.00000000000E+00 0.  1.
         11    1    3    3    0    0  0.20494844183E+01 -0.37348848859E+00 -0.31584826320E+01  0.37836348700E+01  0.51100000000E-03 0.  1.
        -11    1    3    3    0    0  0.12297966379E+02 -0.10791041351E+02  0.10038087556E+02  0.19195045000E+02  0.51100000000E-03 0. -1.
         12    1    3    3    0    0  0.22687663720E+02 -0.99614774467E+01  0.12268805450E+01  0.24808594355E+02  0.00000000000E+00 0. -1.
</event>
<event>
 7    1  0.3221417E-010  0.4778727E+02  0.7816164E-02  0.1312668E+00
        -11   -1    0    0    0    0  0.00000000000E+00  0.00000000000E+00  0.45593999997E+02  0.45594000000E+02  0.51100000000E-03 0. -1.
         11   -1    0    0    0    0 -0.00000000000E+00 -0.00000000000E+00 -0.45593999997E+02  0.45594000000E+02  0.51100000000E-03 0.  1.
    9900012    2    1    2    0    0 -0.30123919498E+02  0.10952153939E+02  0.29261291409E+02  0.47787269860E+02  0.19999994598E+02 0.  0.
        -12    1    1    2    0    0  0.30123919498E+02 -0.10952153939E+02 -0.29261291409E+02  0.43400730140E+02  0.00000000000E+00 0.  1.
         11    1    3    3    0    0 -0.10057892349E+02 -0.18549470926E+01  0.69969536920E+01  0.12391908184E+02  0.51100000000E-03 0. -1.
        -11    1    3    3    0    0  0.19098785231E+00  0.55343533516E+01  0.73817890232E+01  0.92280199840E+01  0.51100000000E-03 0.  1.
         12    1    3    3    0    0 -0.20257015002E+02  0.72727476798E+01  0.14882548693E+02  0.26167341692E+02  0.00000000000E+00 0. -1.
</event>
<event>
 7    1  0.3221417E-010  0.4778728E+02  0.7816164E-02  0.1312668E+00
        -11   -1    0    0    0    0  0.00000000000E+00  0.00000000000E+00  0.45593999997E+02  0.45594000000E+02  0.51100000000E-03 0. -1.
         11   -1    0    0    0    0 -0.00000000000E+00 -0.00000000000E+00 -0.45593999997E+02  0.45594000000E+02  0.51100000000E-03 0.  1.
    9900012    2    1    2    0    0 -0.11423693941E+02  0.40650204984E+02  0.10034086490E+02  0.47787276041E+02  0.20000022779E+02 0.  0.
        -12    1    1    2    0    0  0.11423693941E+02 -0.40650204984E+02 -0.10034086490E+02  0.43400723959E+02  0.00000000000E+00 0.  1.
         11    1    3    3    0    0 -0.98017285470E+00  0.94209051004E+00  0.28409753006E+01  0.31495101641E+01  0.51100000000E-03 0. -1.
        -11    1    3    3    0    0 -0.53090210759E+01  0.19516448295E+01  0.27064868477E+01  0.62705417344E+01  0.51100000000E-03 0.  1.
         12    1    3    3    0    0 -0.51345000102E+01  0.37756469645E+02  0.44866243419E+01  0.38367224142E+02  0.00000000000E+00 0. -1.
</event>
<event>
 7    1  0.3221417E-010  0.4778727E+02  0.7816164E-02  0.1312668E+00
        -11   -1    0    0    0    0  0.00000000000E+00  0.00000000000E+00  0.45593999997E+02  0.45594000000E+02  0.51100000000E-03 0.  1.
         11   -1    0    0    0    0 -0.00000000000E+00 -0.00000000000E+00 -0.45593999997E+02  0.45594000000E+02  0.51100000000E-03 0. -1.
    9900012    2    1    2    0    0  0.28404843785E+02 -0.32736447477E+02 -0.22612226805E+01  0.47787271067E+02  0.20000000102E+02 0.  0.
        -12    1    1    2    0    0 -0.28404843785E+02  0.32736447477E+02  0.22612226805E+01  0.43400728933E+02  0.00000000000E+00 0.  1.
         11    1    3    3    0    0  0.23177488726E+02 -0.21300561054E+02 -0.73112770821E+01  0.32316631286E+02  0.51100000000E-03 0. -1.
        -11    1    3    3    0    0  0.10529500501E+00 -0.41152860778E+01 -0.15116422357E+01  0.43853995314E+01  0.51100000000E-03 0.  1.
        -12    1    3    3    0    0  0.51220600544E+01 -0.73206003454E+01  0.65616966372E+01  0.11085240249E+02  0.00000000000E+00 0.  1.
</event>
<event>
 7    1  0.3221417E-010  0.4778727E+02  0.7816164E-02  0.1312668E+00
        -11   -1    0    0    0    0  0.00000000000E+00  0.00000000000E+00  0.45593999997E+02  0.45594000000E+02  0.51100000000E-03 0.  1.
         11   -1    0    0    0    0 -0.00000000000E+00 -0.00000000000E+00 -0.45593999997E+02  0.45594000000E+02  0.51100000000E-03 0. -1.
    9900012    2    1    2    0    0 -0.33452394122E+02 -0.23359772963E+02  0.14794653505E+02  0.47787269157E+02  0.19999991394E+02 0.  0.
         12    1    1    2    0    0  0.33452394122E+02  0.23359772963E+02 -0.14794653505E+02  0.43400730843E+02  0.00000000000E+00 0. -1.
         11    1    3    3    0    0 -0.11019278531E+02 -0.15541752520E+02  0.83344118794E+01  0.20795023260E+02  0.51100000000E-03 0. -1.
        -11    1    3    3    0    0 -0.13272991198E+02 -0.84146390054E+01  0.80798177900E+01  0.17670933782E+02  0.51100000000E-03 0.  1.
        -12    1    3    3    0    0 -0.91601243929E+01  0.59661856265E+00 -0.16195761643E+01  0.93213121156E+01  0.00000000000E+00 0.  1.
</event>
<event>
 7    1  0.3221417E-010  0.4778727E+02  0.7816164E-02  0.1312668E+00
        -11   -1    0    0    0    0  0.00000000000E+00  0.00000000000E+00  0.45593999997E+02  0.45594000000E+02  0.51100000000E-03 0. -1.
         11   -1    0    0    0    0 -0.00000000000E+00 -0.00000000000E+00 -0.45593999997E+02  0.45594000000E+02  0.51100000000E-03 0.  1.
    9900012    2    1    2    0    0 -0.33062475136E+02 -0.12638542483E+02  0.25114997584E+02  0.47787272796E+02  0.20000007987E+02 0.  0.
        -12    1    1    2    0    0  0.33062475136E+02  0.12638542483E+02 -0.25114997584E+02  0.43400727204E+02  0.00000000000E+00 0.  1.
         11    1    3    3    0    0 -0.11252218699E+02 -0.77249966290E+01  0.79947418642E+01  0.15817834754E+02  0.51100000000E-03 0. -1.
        -11    1    3    3    0    0 -0.33054336442E+01  0.45826449250E+01  0.65104694099E+01  0.86204836456E+01  0.51100000000E-03 0.  1.
        -12    1    3    3    0    0 -0.18504822792E+02 -0.94961907787E+01  0.10609786310E+02  0.23348954396E+02  0.00000000000E+00 0.  1.
</event>
<event>
 7    1  0.3221417E-010  0.4778728E+02  0.7816164E-02  0.1312668E+00
        -11   -1    0    0    0    0  0.00000000000E+00  0.00000000000E+00  0.45593999997E+02  0.45594000000E+02  0.51100000000E-03 0. -1.
         11   -1    0    0    0    0 -0.00000000000E+00 -0.00000000000E+00 -0.45593999997E+02  0.45594000000E+02  0.51100000000E-03 0.  1.
    9900012    2    1    2    0    0 -0.30762171310E+02 -0.17387912892E+02 -0.25198655341E+02  0.47787275013E+02  0.20000018092E+02 0.  0.
         12    1    1    2    0    0  0.30762171310E+02  0.17387912892E+02  0.25198655341E+02  0.43400724987E+02  0.00000000000E+00 0. -1.
         11    1    3    3    0    0 -0.13425707876E+02  0.17760692688E+01 -0.81949714189E+01  0.15829138032E+02  0.51100000000E-03 0. -1.
        -11    1    3    3    0    0 -0.65262197679E+01 -0.21392697084E+01 -0.49178240251E+01  0.84470712526E+01  0.51100000000E-03 0.  1.
        -12    1    3    3    0    0 -0.10810243666E+02 -0.17024712452E+02 -0.12085859897E+02  0.23511065728E+02  0.00000000000E+00 0.  1.
</event>
<event>
 7    1  0.3221417E-010  0.4778727E+02  0.7816164E-02  0.1312668E+00
        -11   -1    0    0    0    0  0.00000000000E+00  0.00000000000E+00  0.45593999997E+02  0.45594000000E+02  0.51100000000E-03 0. -1.
         11   -1    0    0    0    0 -0.00000000000E+00 -0.00000000000E+00 -0.45593999997E+02  0.45594000000E+02  0.51100000000E-03 0.  1.
    9900012    2    1    2    0    0  0.36796600357E+02 -0.32581174523E+01  0.22781966344E+02  0.47787272844E+02  0.20000008204E+02 0.  0.
        -12    1    1    2    0    0 -0.36796600357E+02  0.32581174523E+01 -0.22781966344E+02  0.43400727156E+02  0.00000000000E+00 0.  1.
         11    1    3    3    0    0  0.11566615965E+01 -0.18405922888E+01 -0.73333167779E+00  0.22942148184E+01  0.51100000000E-03 0. -1.
        -11    1    3    3    0    0  0.14387624172E+02 -0.96070239933E+00  0.88812547239E+00  0.14446987420E+02  0.51100000000E-03 0.  1.
         12    1    3    3    0    0  0.21252314589E+02 -0.45682276426E+00  0.22627172550E+02  0.31046070605E+02  0.00000000000E+00 0. -1.
</event>
<event>
 7    1  0.3221417E-010  0.4778724E+02  0.7816164E-02  0.1312668E+00
        -11   -1    0    0    0    0  0.00000000000E+00  0.00000000000E+00  0.45593999997E+02  0.45594000000E+02  0.51100000000E-03 0. -1.
         11   -1    0    0    0    0 -0.00000000000E+00 -0.00000000000E+00 -0.45593999997E+02  0.45594000000E+02  0.51100000000E-03 0.  1.
    9900012    2    1    2    0    0  0.88398469452E+01 -0.29600383271E+02 -0.30484431173E+02  0.47787238166E+02  0.19999850093E+02 0.  0.
         12    1    1    2    0    0 -0.88398469452E+01  0.29600383271E+02  0.30484431173E+02  0.43400761834E+02  0.00000000000E+00 0. -1.
         11    1    3    3    0    0  0.93187265852E+01 -0.16039732161E+02 -0.11767821948E+02  0.21968006432E+02  0.51100000000E-03 0. -1.
        -11    1    3    3    0    0  0.59714639850E+00 -0.15402347347E+02 -0.17654215878E+02  0.23436301460E+02  0.51100000000E-03 0.  1.
         12    1    3    3    0    0 -0.10760260385E+01  0.18416962363E+01 -0.10623933473E+01  0.23829302731E+01  0.00000000000E+00 0. -1.
</event>
<event>
 7    1  0.3221417E-010  0.4778727E+02  0.7816164E-02  0.1312668E+00
        -11   -1    0    0    0    0  0.00000000000E+00  0.00000000000E+00  0.45593999997E+02  0.45594000000E+02  0.51100000000E-03 0. -1.
         11   -1    0    0    0    0 -0.00000000000E+00 -0.00000000000E+00 -0.45593999997E+02  0.45594000000E+02  0.51100000000E-03 0.  1.
    9900012    2    1    2    0    0  0.42445340867E+02  0.70130082065E+00 -0.90290896049E+01  0.47787271397E+02  0.20000001607E+02 0.  0.
         12    1    1    2    0    0 -0.42445340867E+02 -0.70130082065E+00  0.90290896049E+01  0.43400728603E+02  0.00000000000E+00 0. -1.
         11    1    3    3    0    0  0.20403680265E+02  0.53826592012E+01 -0.33350784273E+01  0.21363659256E+02  0.51100000000E-03 0. -1.
        -11    1    3    3    0    0  0.19348970520E+02  0.98816855867E+00 -0.55180331530E+01  0.20144672433E+02  0.51100000000E-03 0.  1.
        -12    1    3    3    0    0  0.26926900823E+01 -0.56695269392E+01 -0.17597802466E+00  0.62789397082E+01  0.00000000000E+00 0.  1.
</event>
<event>
 7    1  0.3221417E-010  0.4778727E+02  0.7816164E-02  0.1312668E+00
        -11   -1    0    0    0    0  0.00000000000E+00  0.00000000000E+00  0.45593999997E+02  0.45594000000E+02  0.51100000000E-03 0. -1.
         11   -1    0    0    0    0 -0.00000000000E+00 -0.00000000000E+00 -0.45593999997E+02  0.45594000000E+02  0.51100000000E-03 0.  1.
    9900012    2    1    2    0    0  0.12512957847E+02  0.37444291793E+02  0.18027033789E+02  0.47787273633E+02  0.20000011803E+02 0.  0.
        -12    1    1    2    0    0 -0.12512957847E+02 -0.37444291793E+02 -0.18027033789E+02  0.43400726367E+02  0.00000000000E+00 0.  1.
         11    1    3    3    0    0  0.20017852896E+01  0.36857045824E+01  0.95193667535E+01  0.10402399063E+02  0.51100000000E-03 0. -1.
        -11    1    3    3    0    0  0.71711266661E+01  0.24618188866E+02  0.10033300000E+02  0.27534476386E+02  0.51100000000E-03 0.  1.
        -12    1    3    3    0    0  0.33400458911E+01  0.91403983446E+01 -0.15256329640E+01  0.98503981845E+01  0.00000000000E+00 0.  1.
</event>
<event>
 7    1  0.3221417E-010  0.4778727E+02  0.7816164E-02  0.1312668E+00
        -11   -1    0    0    0    0  0.00000000000E+00  0.00000000000E+00  0.45593999997E+02  0.45594000000E+02  0.51100000000E-03 0. -1.
         11   -1    0    0    0    0 -0.00000000000E+00 -0.00000000000E+00 -0.45593999997E+02  0.45594000000E+02  0.51100000000E-03 0.  1.
    9900012    2    1    2    0    0  0.29939568039E+02  0.16947652860E+02 -0.26457945856E+02  0.47787267624E+02  0.19999984406E+02 0.  0.
         12    1    1    2    0    0 -0.29939568039E+02 -0.16947652860E+02  0.26457945856E+02  0.43400732376E+02  0.00000000000E+00 0. -1.
         11    1    3    3    0    0  0.46580431022E+01  0.55878569981E+01 -0.47011310186E+01  0.86615324561E+01  0.51100000000E-03 0. -1.
        -11    1    3    3    0    0  0.17375041291E+02  0.10566419814E+02 -0.23410223619E+02  0.31009351134E+02  0.51100000000E-03 0.  1.
         12    1    3    3    0    0  0.79064836458E+01  0.79337604833E+00  0.16534087823E+01  0.81163840346E+01  0.00000000000E+00 0. -1.
</event>
<event>
 7    1  0.3221417E-010  0.4778727E+02  0.7816164E-02  0.1312668E+00
        -11   -1    0    0    0    0  0.00000000000E+00  0.00000000000E+00  0.45593999997E+02  0.45594000000E+02  0.51100000000E-03 0.  1.
         11   -1    0    0    0    0 -0.00000000000E+00 -0.00000000000E+00 -0.45593999997E+02  0.45594000000E+02  0.51100000000E-03 0. -1.
    9900012    2    1    2    0    0  0.30307453824E+02  0.21495716920E+02  0.22428019757E+02  0.47787266441E+02  0.19999979013E+02 0.  0.
        -12    1    1    2    0    0 -0.30307453824E+02 -0.21495716920E+02 -0.22428019757E+02  0.43400733559E+02  0.00000000000E+00 0.  1.
         11    1    3    3    0    0  0.68410457636E+01  0.51014746183E+01  0.20459465457E+01  0.87755824850E+01  0.51100000000E-03 0. -1.
        -11    1    3    3    0    0  0.14717545019E+02  0.15672869940E+02  0.62761144081E+01  0.22397200626E+02  0.51100000000E-03 0.  1.
        -12    1    3    3    0    0  0.87488630409E+01  0.72137236212E+00  0.14105958803E+02  0.16614483331E+02  0.00000000000E+00 0.  1.
</event>
<event>
 7    1  0.3221417E-010  0.4778725E+02  0.7816164E-02  0.1312668E+00
        -11   -1    0    0    0    0  0.00000000000E+00  0.00000000000E+00  0.45593999997E+02  0.45594000000E+02  0.51100000000E-03 0.  1.
         11   -1    0    0    0    0 -0.00000000000E+00 -0.00000000000E+00 -0.45593999997E+02  0.45594000000E+02  0.51100000000E-03 0. -1.
    9900012    2    1    2    0    0 -0.41639257968E+02  0.11064566082E+02 -0.52319243059E+01  0.47787245875E+02  0.19999885240E+02 0.  0.
         12    1    1    2    0    0  0.41639257968E+02 -0.11064566082E+02  0.52319243059E+01  0.43400754125E+02  0.00000000000E+00 0. -1.
         11    1    3    3    0    0  0.12152705171E+01  0.37150756621E+00 -0.88690670997E+00  0.15496787005E+01  0.51100000000E-03 0. -1.
        -11    1    3    3    0    0 -0.23954725265E+02  0.12546934597E+02 -0.26811276019E+01  0.27174305433E+02  0.51100000000E-03 0.  1.
        -12    1    3    3    0    0 -0.18899803220E+02 -0.18538760815E+01 -0.16638899940E+01  0.19063261741E+02  0.00000000000E+00 0.  1.
</event>
<event>
 7    1  0.3221417E-010  0.4778726E+02  0.7816164E-02  0.1312668E+00
        -11   -1    0    0    0    0  0.00000000000E+00  0.00000000000E+00  0.45593999997E+02  0.45594000000E+02  0.51100000000E-03 0. -1.
         11   -1    0    0    0    0 -0.00000000000E+00 -0.00000000000E+00 -0.45593999997E+02  0.45594000000E+02  0.51100000000E-03 0.  1.
    9900012    2    1    2    0    0 -0.43513296456E+01 -0.70948195555E+01 -0.42595226060E+02  0.47787264784E+02  0.19999971455E+02 0.  0.
         12    1    1    2    0    0  0.43513296456E+01  0.70948195555E+01  0.42595226060E+02  0.43400735216E+02  0.00000000000E+00 0. -1.
         11    1    3    3    0    0 -0.40710064737E+01 -0.22177334500E+01 -0.77094195659E+00  0.46995518005E+01  0.51100000000E-03 0. -1.
        -11    1    3    3    0    0  0.63797950198E+00 -0.21081382428E+01 -0.15156697809E+01  0.26736716032E+01  0.51100000000E-03 0.  1.
        -12    1    3    3    0    0 -0.91830267387E+00 -0.27689478627E+01 -0.40308614322E+02  0.40414041380E+02  0.00000000000E+00 0.  1.
</event>
<event>
 7    1  0.3221417E-010  0.4778726E+02  0.7816164E-02  0.1312668E+00
        -11   -1    0    0    0    0  0.00000000000E+00  0.00000000000E+00  0.45593999997E+02  0.45594000000E+02  0.51100000000E-03 0. -1.
         11   -1    0    0    0    0 -0.00000000000E+00 -0.00000000000E+00 -0.45593999997E+02  0.45594000000E+02  0.51100000000E-03 0.  1.
    9900012    2    1    2    0    0  0.33678315962E+02  0.12602713811E+02  0.24301579241E+02  0.47787261353E+02  0.19999955814E+02 0.  0.
        -12    1    1    2    0    0 -0.33678315962E+02 -0.12602713811E+02 -0.24301579241E+02  0.43400738647E+02  0.00000000000E+00 0.  1.
         11    1    3    3    0    0  0.17592876994E+02  0.18709556558E+01  0.60980690545E+01  0.18713530999E+02  0.51100000000E-03 0. -1.
        -11    1    3    3    0    0 -0.13010597845E+01 -0.88365790564E+00  0.23758410902E+01  0.28492506039E+01  0.51100000000E-03 0.  1.
         12    1    3    3    0    0  0.17386498753E+02  0.11615416061E+02  0.15827669097E+02  0.26224479751E+02  0.00000000000E+00 0. -1.
</event>
<event>
 7    1  0.3221417E-010  0.4778726E+02  0.7816164E-02  0.1312668E+00
        -11   -1    0    0    0    0  0.00000000000E+00  0.00000000000E+00  0.45593999997E+02  0.45594000000E+02  0.51100000000E-03 0. -1.
         11   -1    0    0    0    0 -0.00000000000E+00 -0.00000000000E+00 -0.45593999997E+02  0.45594000000E+02  0.51100000000E-03 0.  1.
    9900012    2    1    2    0    0  0.62058402902E+00  0.20536152243E+02 -0.38229638357E+02  0.47787263573E+02  0.19999965934E+02 0.  0.
         12    1    1    2    0    0 -0.62058402902E+00 -0.20536152243E+02  0.38229638357E+02  0.43400736427E+02  0.00000000000E+00 0. -1.
         11    1    3    3    0    0  0.33433025186E+00 -0.14767902374E+01 -0.10473567797E+01  0.18410982070E+01  0.51100000000E-03 0. -1.
        -11    1    3    3    0    0 -0.55323369389E+01  0.19947880060E+02 -0.26758747600E+02  0.33831276126E+02  0.51100000000E-03 0.  1.
        -12    1    3    3    0    0  0.58185907161E+01  0.20650624200E+01 -0.10423533977E+02  0.12114889240E+02  0.00000000000E+00 0.  1.
</event>
<event>
 7    1  0.3221417E-010  0.4778727E+02  0.7816164E-02  0.1312668E+00
        -11   -1    0    0    0    0  0.00000000000E+00  0.00000000000E+00  0.45593999997E+02  0.45594000000E+02  0.51100000000E-03 0. -1.
         11   -1    0    0    0    0 -0.00000000000E+00 -0.00000000000E+00 -0.45593999997E+02  0.45594000000E+02  0.51100000000E-03 0.  1.
    9900012    2    1    2    0    0  0.51105511408E+01  0.13916348754E+02  0.40790203787E+02  0.47787271658E+02  0.20000002799E+02 0.  0.
        -12    1    1    2    0    0 -0.51105511408E+01 -0.13916348754E+02 -0.40790203787E+02  0.43400728342E+02  0.00000000000E+00 0.  1.
         11    1    3    3    0    0  0.54836650551E+01  0.27864792704E+01  0.34282941772E+01  0.70418925288E+01  0.51100000000E-03 0.  1.
        -11    1    3    3    0    0  0.34918271959E+01  0.11764662990E+02  0.26647209439E+02  0.29337244649E+02  0.51100000000E-03 0. -1.
         12    1    3    3    0    0 -0.38649411102E+01 -0.63479350667E+00  0.10714700171E+02  0.11408134481E+02  0.00000000000E+00 0. -1.
</event>
<event>
 7    1  0.3221417E-010  0.4778727E+02  0.7816164E-02  0.1312668E+00
        -11   -1    0    0    0    0  0.00000000000E+00  0.00000000000E+00  0.45593999997E+02  0.45594000000E+02  0.51100000000E-03 0. -1.
         11   -1    0    0    0    0 -0.00000000000E+00 -0.00000000000E+00 -0.45593999997E+02  0.45594000000E+02  0.51100000000E-03 0.  1.
    9900012    2    1    2    0    0  0.76658577275E+01  0.28414653628E+02 -0.31897732907E+02  0.47787270972E+02  0.19999999672E+02 0.  0.
         12    1    1    2    0    0 -0.76658577275E+01 -0.28414653628E+02  0.31897732907E+02  0.43400729028E+02  0.00000000000E+00 0. -1.
         11    1    3    3    0    0  0.78583535735E+01  0.12047503399E+02 -0.26283157839E+02  0.29961649575E+02  0.51100000000E-03 0. -1.
        -11    1    3    3    0    0  0.78944031095E+00  0.29942642068E+01 -0.26892824767E+01  0.41013503441E+01  0.51100000000E-03 0.  1.
         12    1    3    3    0    0 -0.98193615695E+00  0.13372886023E+02 -0.29252925916E+01  0.13724271053E+02  0.00000000000E+00 0. -1.
</event>
<event>
 7    1  0.3221417E-010  0.4778727E+02  0.7816164E-02  0.1312668E+00
        -11   -1    0    0    0    0  0.00000000000E+00  0.00000000000E+00  0.45593999997E+02  0.45594000000E+02  0.51100000000E-03 0. -1.
         11   -1    0    0    0    0 -0.00000000000E+00 -0.00000000000E+00 -0.45593999997E+02  0.45594000000E+02  0.51100000000E-03 0.  1.
    9900012    2    1    2    0    0 -0.32585477681E+02 -0.23941384296E+02 -0.15767699691E+02  0.47787267388E+02  0.19999983329E+02 0.  0.
         12    1    1    2    0    0  0.32585477681E+02  0.23941384296E+02  0.15767699691E+02  0.43400732612E+02  0.00000000000E+00 0. -1.
         11    1    3    3    0    0  0.62619840972E+00 -0.24985710156E+01 -0.46171611476E+00  0.26168996159E+01  0.51100000000E-03 0. -1.
        -11    1    3    3    0    0 -0.27451639425E+02 -0.22559260879E+02 -0.16510971529E+02  0.39180670484E+02  0.51100000000E-03 0.  1.
        -12    1    3    3    0    0 -0.57600366661E+01  0.11164475987E+01  0.12049879523E+01  0.59896972879E+01  0.00000000000E+00 0.  1.
</event>
<event>
 7    1  0.3221417E-010  0.4778727E+02  0.7816164E-02  0.1312668E+00
        -11   -1    0    0    0    0  0.00000000000E+00  0.00000000000E+00  0.45593999997E+02  0.45594000000E+02  0.51100000000E-03 0. -1.
         11   -1    0    0    0    0 -0.00000000000E+00 -0.00000000000E+00 -0.45593999997E+02  0.45594000000E+02  0.51100000000E-03 0.  1.
    9900012    2    1    2    0    0  0.10895988290E+02  0.14410877030E+02 -0.39461720332E+02  0.47787270638E+02  0.19999998148E+02 0.  0.
         12    1    1    2    0    0 -0.10895988290E+02 -0.14410877030E+02  0.39461720332E+02  0.43400729362E+02  0.00000000000E+00 0. -1.
         11    1    3    3    0    0  0.77448126761E+01  0.12721343650E+02 -0.22578635893E+02  0.27048281030E+02  0.51100000000E-03 0. -1.
        -11    1    3    3    0    0  0.33847700053E+01  0.64437733742E+01 -0.98927346010E+01  0.12281900563E+02  0.51100000000E-03 0.  1.
         12    1    3    3    0    0 -0.23359439153E+00 -0.47542399944E+01 -0.69903498377E+01  0.84570890451E+01  0.00000000000E+00 0. -1.
</event>
<event>
 7    1  0.3221417E-010  0.4778727E+02  0.7816164E-02  0.1312668E+00
        -11   -1    0    0    0    0  0.00000000000E+00  0.00000000000E+00  0.45593999997E+02  0.45594000000E+02  0.51100000000E-03 0. -1.
         11   -1    0    0    0    0 -0.00000000000E+00 -0.00000000000E+00 -0.45593999997E+02  0.45594000000E+02  0.51100000000E-03 0.  1.
    9900012    2    1    2    0    0  0.35808568568E+02 -0.43646373342E+01  0.24131307697E+02  0.47787266675E+02  0.19999980079E+02 0.  0.
        -12    1    1    2    0    0 -0.35808568568E+02  0.43646373342E+01 -0.24131307697E+02  0.43400733325E+02  0.00000000000E+00 0.  1.
         11    1    3    3    0    0  0.32347247999E+02  0.16005056090E+01  0.17304062313E+02  0.36719703758E+02  0.51100000000E-03 0. -1.
        -11    1    3    3    0    0  0.78419207961E+00  0.79853158424E+00  0.21370319495E+01  0.24123672446E+01  0.51100000000E-03 0.  1.
         12    1    3    3    0    0  0.26771284895E+01 -0.67636745274E+01  0.46902134351E+01  0.86551956724E+01  0.00000000000E+00 0. -1.
</event>
<event>
 7    1  0.3221417E-010  0.4778727E+02  0.7816164E-02  0.1312668E+00
        -11   -1    0    0    0    0  0.00000000000E+00  0.00000000000E+00  0.45593999997E+02  0.45594000000E+02  0.51100000000E-03 0. -1.
         11   -1    0    0    0    0 -0.00000000000E+00 -0.00000000000E+00 -0.45593999997E+02  0.45594000000E+02  0.51100000000E-03 0.  1.
    9900012    2    1    2    0    0 -0.41687869895E+02 -0.10747779970E+02 -0.54982278785E+01  0.47787265208E+02  0.19999973391E+02 0.  0.
         12    1    1    2    0    0  0.41687869895E+02  0.10747779970E+02  0.54982278785E+01  0.43400734792E+02  0.00000000000E+00 0. -1.
         11    1    3    3    0    0 -0.26166749851E+02 -0.11112685210E+02  0.11400715923E+01  0.28451543611E+02  0.51100000000E-03 0. -1.
        -11    1    3    3    0    0 -0.14352420289E+02 -0.18940714403E+01 -0.28216802022E+01  0.14749283176E+02  0.51100000000E-03 0.  1.
        -12    1    3    3    0    0 -0.11686997551E+01  0.22589766803E+01 -0.38166192687E+01  0.45864384223E+01  0.00000000000E+00 0.  1.
</event>
<event>
 7    1  0.3221417E-010  0.4778727E+02  0.7816164E-02  0.1312668E+00
        -11   -1    0    0    0    0  0.00000000000E+00  0.00000000000E+00  0.45593999997E+02  0.45594000000E+02  0.51100000000E-03 0. -1.
         11   -1    0    0    0    0 -0.00000000000E+00 -0.00000000000E+00 -0.45593999997E+02  0.45594000000E+02  0.51100000000E-03 0.  1.
    9900012    2    1    2    0    0 -0.92409598716E+01  0.37113631082E+02 -0.20513565680E+02  0.47787270416E+02  0.19999997137E+02 0.  0.
         12    1    1    2    0    0  0.92409598716E+01 -0.37113631082E+02  0.20513565680E+02  0.43400729584E+02  0.00000000000E+00 0. -1.
         11    1    3    3    0    0  0.12394770236E+01  0.17557657099E+02 -0.37102512829E+01  0.17988151404E+02  0.51100000000E-03 0. -1.
        -11    1    3    3    0    0 -0.71412652898E+01  0.19855149927E+02 -0.15585335156E+02  0.26232181014E+02  0.51100000000E-03 0.  1.
         12    1    3    3    0    0 -0.33391716055E+01 -0.29917594308E+00 -0.12179792419E+01  0.35669379991E+01  0.00000000000E+00 0. -1.
</event>
<event>
 7    1  0.3221417E-010  0.4778727E+02  0.7816164E-02  0.1312668E+00
        -11   -1    0    0    0    0  0.00000000000E+00  0.00000000000E+00  0.45593999997E+02  0.45594000000E+02  0.51100000000E-03 0. -1.
         11   -1    0    0    0    0 -0.00000000000E+00 -0.00000000000E+00 -0.45593999997E+02  0.45594000000E+02  0.51100000000E-03 0.  1.
    9900012    2    1    2    0    0 -0.20429849107E+01  0.61391380713E+01  0.42915735407E+02  0.47787272481E+02  0.20000006551E+02 0.  0.
        -12    1    1    2    0    0  0.20429849107E+01 -0.61391380713E+01 -0.42915735407E+02  0.43400727519E+02  0.00000000000E+00 0.  1.
         11    1    3    3    0    0 -0.86081867394E+00 -0.54199868443E+01  0.34694315750E+01  0.64926282734E+01  0.51100000000E-03 0.  1.
        -11    1    3    3    0    0 -0.16235738244E+00  0.35421471116E+01  0.18633336449E+02  0.18967719777E+02  0.51100000000E-03 0. -1.
        -12    1    3    3    0    0 -0.10198088543E+01  0.80169778040E+01  0.20812967384E+02  0.22326924431E+02  0.00000000000E+00 0.  1.
</event>
<event>
 7    1  0.3486127E-010  0.4778727E+02  0.7816164E-02  0.1312668E+00
        -11   -1    0    0    0    0  0.00000000000E+00  0.00000000000E+00  0.45593999997E+02  0.45594000000E+02  0.51100000000E-03 0. -1.
         11   -1    0    0    0    0 -0.00000000000E+00 -0.00000000000E+00 -0.45593999997E+02  0.45594000000E+02  0.51100000000E-03 0.  1.
    9900012    2    1    2    0    0  0.21551773046E+02  0.19363145789E+02 -0.32314285131E+02  0.47787270055E+02  0.19999995488E+02 0.  0.
         12    1    1    2    0    0 -0.21551773046E+02 -0.19363145789E+02  0.32314285131E+02  0.43400729945E+02  0.00000000000E+00 0. -1.
         11    1    3    3    0    0  0.67376864223E+00 -0.22497166900E+01  0.25085340741E-01  0.23485780600E+01  0.51100000000E-03 0. -1.
        -11    1    3    3    0    0  0.96916019168E+01  0.10895405305E+02 -0.81256938631E+01  0.16693229331E+02  0.51100000000E-03 0.  1.
         12    1    3    3    0    0  0.11186402487E+02  0.10717457174E+02 -0.24213676608E+02  0.28745462664E+02  0.00000000000E+00 0. -1.
</event>
<event>
 7    1  0.3221417E-010  0.4778727E+02  0.7816164E-02  0.1312668E+00
        -11   -1    0    0    0    0  0.00000000000E+00  0.00000000000E+00  0.45593999997E+02  0.45594000000E+02  0.51100000000E-03 0. -1.
         11   -1    0    0    0    0 -0.00000000000E+00 -0.00000000000E+00 -0.45593999997E+02  0.45594000000E+02  0.51100000000E-03 0.  1.
    9900012    2    1    2    0    0 -0.95826750152E+01 -0.41061322262E+02 -0.10284142704E+02  0.47787269159E+02  0.19999991405E+02 0.  0.
         12    1    1    2    0    0  0.95826750152E+01  0.41061322262E+02  0.10284142704E+02  0.43400730841E+02  0.00000000000E+00 0. -1.
         11    1    3    3    0    0 -0.31823931944E+01 -0.49700175629E+00 -0.56911908528E+00  0.32708613520E+01  0.51100000000E-03 0. -1.
        -11    1    3    3    0    0 -0.94060058301E+01 -0.28930947557E+02 -0.25532750476E+01  0.30528542153E+02  0.51100000000E-03 0.  1.
        -12    1    3    3    0    0  0.30057240094E+01 -0.11633372949E+02 -0.71617485708E+01  0.13987865655E+02  0.00000000000E+00 0.  1.
</event>
<event>
 7    1  0.3221417E-010  0.4778727E+02  0.7816164E-02  0.1312668E+00
        -11   -1    0    0    0    0  0.00000000000E+00  0.00000000000E+00  0.45593999997E+02  0.45594000000E+02  0.51100000000E-03 0. -1.
         11   -1    0    0    0    0 -0.00000000000E+00 -0.00000000000E+00 -0.45593999997E+02  0.45594000000E+02  0.51100000000E-03 0.  1.
    9900012    2    1    2    0    0 -0.26128451995E+02  0.34646125063E+02 -0.75733596049E+00  0.47787267941E+02  0.19999985849E+02 0.  0.
        -12    1    1    2    0    0  0.26128451995E+02 -0.34646125063E+02  0.75733596049E+00  0.43400732059E+02  0.00000000000E+00 0.  1.
         11    1    3    3    0    0 -0.31433155779E+01 -0.97402868391E-01  0.28261119459E+01  0.42280999436E+01  0.51100000000E-03 0. -1.
        -11    1    3    3    0    0 -0.18814284196E+02  0.17815442132E+02 -0.95982649719E+00  0.25928527443E+02  0.51100000000E-03 0.  1.
        -12    1    3    3    0    0 -0.41708522212E+01  0.16928085799E+02 -0.26236214092E+01  0.17630640555E+02  0.00000000000E+00 0.  1.
</event>
<event>
 7    1  0.3221417E-010  0.4778725E+02  0.7816164E-02  0.1312668E+00
        -11   -1    0    0    0    0  0.00000000000E+00  0.00000000000E+00  0.45593999997E+02  0.45594000000E+02  0.51100000000E-03 0. -1.
         11   -1    0    0    0    0 -0.00000000000E+00 -0.00000000000E+00 -0.45593999997E+02  0.45594000000E+02  0.51100000000E-03 0.  1.
    9900012    2    1    2    0    0  0.27068574921E+02 -0.18590549145E+02  0.28377958001E+02  0.47787253853E+02  0.19999921617E+02 0.  0.
        -12    1    1    2    0    0 -0.27068574921E+02  0.18590549145E+02 -0.28377958001E+02  0.43400746147E+02  0.00000000000E+00 0.  1.
         11    1    3    3    0    0  0.37764597413E+01  0.36526552777E+01  0.65061718560E+01  0.83626437947E+01  0.51100000000E-03 0. -1.
        -11    1    3    3    0    0  0.67898974633E+01 -0.67491911210E+01  0.32405474347E+01  0.10107197252E+02  0.51100000000E-03 0.  1.
         12    1    3    3    0    0  0.16502217717E+02 -0.15494013302E+02  0.18631238711E+02  0.29317412806E+02  0.00000000000E+00 0. -1.
</event>
<event>
 7    1  0.3221417E-010  0.4778728E+02  0.7816164E-02  0.1312668E+00
        -11   -1    0    0    0    0  0.00000000000E+00  0.00000000000E+00  0.45593999997E+02  0.45594000000E+02  0.51100000000E-03 0. -1.
         11   -1    0    0    0    0 -0.00000000000E+00 -0.00000000000E+00 -0.45593999997E+02  0.45594000000E+02  0.51100000000E-03 0.  1.
    9900012    2    1    2    0    0 -0.96234664427E+01  0.11599451986E+02  0.40699677773E+02  0.47787283836E+02  0.20000058322E+02 0.  0.
        -12    1    1    2    0    0  0.96234664427E+01 -0.11599451986E+02 -0.40699677773E+02  0.43400716164E+02  0.00000000000E+00 0.  1.
         11    1    3    3    0    0 -0.97205393996E+01  0.21449834536E+01  0.23724739967E+02  0.25728449759E+02  0.51100000000E-03 0. -1.
        -11    1    3    3    0    0 -0.43632380779E+01  0.31543053805E+01  0.11172098329E+02  0.12401744647E+02  0.51100000000E-03 0.  1.
        -12    1    3    3    0    0  0.44603110348E+01  0.63001631519E+01  0.58028394764E+01  0.96570894299E+01  0.00000000000E+00 0.  1.
</event>
<event>
 7    1  0.3221417E-010  0.4778727E+02  0.7816164E-02  0.1312668E+00
        -11   -1    0    0    0    0  0.00000000000E+00  0.00000000000E+00  0.45593999997E+02  0.45594000000E+02  0.51100000000E-03 0. -1.
         11   -1    0    0    0    0 -0.00000000000E+00 -0.00000000000E+00 -0.45593999997E+02  0.45594000000E+02  0.51100000000E-03 0.  1.
    9900012    2    1    2    0    0  0.29378322899E+02 -0.11882002503E+02  0.29653923960E+02  0.47787273669E+02  0.20000011966E+02 0.  0.
        -12    1    1    2    0    0 -0.29378322899E+02  0.11882002503E+02 -0.29653923960E+02  0.43400726331E+02  0.00000000000E+00 0.  1.
         11    1    3    3    0    0  0.13252732129E+02 -0.46831389885E+01  0.26001649876E+02  0.29557613169E+02  0.51100000000E-03 0. -1.
        -11    1    3    3    0    0  0.40828787064E+01 -0.16979946244E+01 -0.24415727019E+00  0.44286225070E+01  0.51100000000E-03 0.  1.
         12    1    3    3    0    0  0.12042712064E+02 -0.55008688902E+01  0.38964313533E+01  0.13801037993E+02  0.00000000000E+00 0. -1.
</event>
<event>
 7    1  0.3221417E-010  0.4778725E+02  0.7816164E-02  0.1312668E+00
        -11   -1    0    0    0    0  0.00000000000E+00  0.00000000000E+00  0.45593999997E+02  0.45594000000E+02  0.51100000000E-03 0. -1.
         11   -1    0    0    0    0 -0.00000000000E+00 -0.00000000000E+00 -0.45593999997E+02  0.45594000000E+02  0.51100000000E-03 0.  1.
    9900012    2    1    2    0    0 -0.16683326846E+02 -0.38307537430E+02  0.11739858263E+02  0.47787250115E+02  0.19999904573E+02 0.  0.
        -12    1    1    2    0    0  0.16683326846E+02  0.38307537430E+02 -0.11739858263E+02  0.43400749885E+02  0.00000000000E+00 0.  1.
         11    1    3    3    0    0  0.57227430823E+00 -0.35476302942E+01  0.44859625421E+01  0.57477855543E+01  0.51100000000E-03 0.  1.
        -11    1    3    3    0    0 -0.80158435881E+01 -0.16029121048E+02 -0.39304121084E+01  0.18347605010E+02  0.51100000000E-03 0. -1.
         12    1    3    3    0    0 -0.92397575664E+01 -0.18730786088E+02  0.11184307829E+02  0.23691859551E+02  0.00000000000E+00 0. -1.
</event>
