<event>
 7    1  0.2442667E-009  0.4778727E+02  0.7816164E-02  0.1312668E+00
        -11   -1    0    0    0    0  0.00000000000E+00  0.00000000000E+00  0.45593999997E+02  0.45594000000E+02  0.51100000000E-03 0.  1.
         11   -1    0    0    0    0 -0.00000000000E+00 -0.00000000000E+00 -0.45593999997E+02  0.45594000000E+02  0.51100000000E-03 0. -1.
    9900012    2    1    2    0    0  0.12122195855E+02 -0.29715797231E+02  0.29217237816E+02  0.47787271631E+02  0.20000002673E+02 0.  0.
        -12    1    1    2    0    0 -0.12122195855E+02  0.29715797231E+02 -0.29217237816E+02  0.43400728369E+02  0.00000000000E+00 0.  1.
         11    1    3    3    0    0 -0.85229332610E+00 -0.39521320352E+01  0.13033278063E+02  0.13645955037E+02  0.51100000000E-03 0. -1.
        -11    1    3    3    0    0  0.12601089194E+01 -0.25478939007E+01  0.51726540569E+01  0.59022019681E+01  0.51100000000E-03 0.  1.
         12    1    3    3    0    0  0.11714380261E+02 -0.23215771295E+02  0.11011305696E+02  0.28239114626E+02  0.00000000000E+00 0. -1.
</event>
<event>
 7    1  0.2442667E-009  0.4778727E+02  0.7816164E-02  0.1312668E+00
        -11   -1    0    0    0    0  0.00000000000E+00  0.00000000000E+00  0.45593999997E+02  0.45594000000E+02  0.51100000000E-03 0. -1.
         11   -1    0    0    0    0 -0.00000000000E+00 -0.00000000000E+00 -0.45593999997E+02  0.45594000000E+02  0.51100000000E-03 0.  1.
    9900012    2    1    2    0    0 -0.83092316070E+01  0.15298536134E+02  0.39755936586E+02  0.47787273836E+02  0.20000012728E+02 0.  0.
        -12    1    1    2    0    0  0.83092316070E+01 -0.15298536134E+02 -0.39755936586E+02  0.43400726164E+02  0.00000000000E+00 0.  1.
         11    1    3    3    0    0 -0.27102147620E+01  0.10853794065E+02  0.38226570827E+02  0.39829898658E+02  0.51100000000E-03 0. -1.
        -11    1    3    3    0    0 -0.91984322295E+00  0.24638631982E+01 -0.68511188475E-01  0.26308605927E+01  0.51100000000E-03 0.  1.
         12    1    3    3    0    0 -0.46791736221E+01  0.19808788708E+01  0.15978769474E+01  0.53265145851E+01  0.00000000000E+00 0. -1.
</event>
<event>
 7    1  0.2442667E-009  0.4778727E+02  0.7816164E-02  0.1312668E+00
        -11   -1    0    0    0    0  0.00000000000E+00  0.00000000000E+00  0.45593999997E+02  0.45594000000E+02  0.51100000000E-03 0. -1.
         11   -1    0    0    0    0 -0.00000000000E+00 -0.00000000000E+00 -0.45593999997E+02  0.45594000000E+02  0.51100000000E-03 0.  1.
    9900012    2    1    2    0    0 -0.27344073610E+02  0.31919361028E+02  0.10820340052E+02  0.47787265802E+02  0.19999976099E+02 0.  0.
        -12    1    1    2    0    0  0.27344073610E+02 -0.31919361028E+02 -0.10820340052E+02  0.43400734198E+02  0.00000000000E+00 0.  1.
         11    1    3    3    0    0 -0.87860478384E+01  0.92351647297E+01  0.21444109106E+01  0.12925997161E+02  0.51100000000E-03 0. -1.
        -11    1    3    3    0    0 -0.12278893836E+02  0.22968473272E+02  0.26929618516E+01  0.26183468870E+02  0.51100000000E-03 0.  1.
        -12    1    3    3    0    0 -0.62791319361E+01 -0.28427697310E+00  0.59829672903E+01  0.86777997710E+01  0.00000000000E+00 0.  1.
</event>
<event>
 7    1  0.2442667E-009  0.4778726E+02  0.7816164E-02  0.1312668E+00
        -11   -1    0    0    0    0  0.00000000000E+00  0.00000000000E+00  0.45593999997E+02  0.45594000000E+02  0.51100000000E-03 0. -1.
         11   -1    0    0    0    0 -0.00000000000E+00 -0.00000000000E+00 -0.45593999997E+02  0.45594000000E+02  0.51100000000E-03 0.  1.
    9900012    2    1    2    0    0  0.61299720700E+01 -0.15416022420E+02  0.40104790454E+02  0.47787256663E+02  0.19999934430E+02 0.  0.
        -12    1    1    2    0    0 -0.61299720700E+01  0.15416022420E+02 -0.40104790454E+02  0.43400743337E+02  0.00000000000E+00 0.  1.
         11    1    3    3    0    0  0.35905258095E+01 -0.10372538197E+02  0.76129553033E+01  0.13358087923E+02  0.51100000000E-03 0. -1.
        -11    1    3    3    0    0  0.17099162427E+01 -0.74462562541E+01  0.29640372705E+02  0.30609185552E+02  0.51100000000E-03 0.  1.
        -12    1    3    3    0    0  0.82953001777E+00  0.24027720313E+01  0.28514624451E+01  0.38199831886E+01  0.00000000000E+00 0.  1.
</event>
<event>
 7    1  0.2442667E-009  0.4778727E+02  0.7816164E-02  0.1312668E+00
        -11   -1    0    0    0    0  0.00000000000E+00  0.00000000000E+00  0.45593999997E+02  0.45594000000E+02  0.51100000000E-03 0.  1.
         11   -1    0    0    0    0 -0.00000000000E+00 -0.00000000000E+00 -0.45593999997E+02  0.45594000000E+02  0.51100000000E-03 0. -1.
    9900012    2    1    2    0    0  0.18686084201E+02 -0.19678578492E+02 -0.33870445416E+02  0.47787271125E+02  0.20000000368E+02 0.  0.
        -12    1    1    2    0    0 -0.18686084201E+02  0.19678578492E+02  0.33870445416E+02  0.43400728875E+02  0.00000000000E+00 0.  1.
         11    1    3    3    0    0  0.37665517873E+01 -0.10672479836E+02 -0.19075739972E+02  0.22180455224E+02  0.51100000000E-03 0.  1.
        -11    1    3    3    0    0  0.11935217028E+02 -0.27962184353E+01 -0.41786992924E+01  0.12951052894E+02  0.51100000000E-03 0. -1.
         12    1    3    3    0    0  0.29843153855E+01 -0.62098802204E+01 -0.10616006151E+02  0.12655763007E+02  0.00000000000E+00 0. -1.
</event>
<event>
 7    1  0.2442667E-009  0.4778727E+02  0.7816164E-02  0.1312668E+00
        -11   -1    0    0    0    0  0.00000000000E+00  0.00000000000E+00  0.45593999997E+02  0.45594000000E+02  0.51100000000E-03 0. -1.
         11   -1    0    0    0    0 -0.00000000000E+00 -0.00000000000E+00 -0.45593999997E+02  0.45594000000E+02  0.51100000000E-03 0.  1.
    9900012    2    1    2    0    0 -0.36489342900E+02 -0.16542568473E+02  0.16688157768E+02  0.47787270436E+02  0.19999997227E+02 0.  0.
        -12    1    1    2    0    0  0.36489342900E+02  0.16542568473E+02 -0.16688157768E+02  0.43400729564E+02  0.00000000000E+00 0.  1.
         11    1    3    3    0    0 -0.25412434175E+02 -0.60869136828E+01  0.12350168925E+02  0.28902750762E+02  0.51100000000E-03 0. -1.
        -11    1    3    3    0    0 -0.78458600500E+01 -0.12160218124E+02  0.46945575304E+01  0.15214049278E+02  0.51100000000E-03 0.  1.
         12    1    3    3    0    0 -0.32310486754E+01  0.17045633341E+01 -0.35656868775E+00  0.36704703965E+01  0.00000000000E+00 0. -1.
</event>
<event>
 7    1  0.2442667E-009  0.4778727E+02  0.7816164E-02  0.1312668E+00
        -11   -1    0    0    0    0  0.00000000000E+00  0.00000000000E+00  0.45593999997E+02  0.45594000000E+02  0.51100000000E-03 0.  1.
         11   -1    0    0    0    0 -0.00000000000E+00 -0.00000000000E+00 -0.45593999997E+02  0.45594000000E+02  0.51100000000E-03 0. -1.
    9900012    2    1    2    0    0  0.32657704111E+02  0.33653508843E+01 -0.28386125679E+02  0.47787270104E+02  0.19999995714E+02 0.  0.
        -12    1    1    2    0    0 -0.32657704111E+02 -0.33653508843E+01  0.28386125679E+02  0.43400729896E+02  0.00000000000E+00 0.  1.
         11    1    3    3    0    0  0.40727122817E+01 -0.36245247712E+01  0.88822202745E+00  0.55238667415E+01  0.51100000000E-03 0. -1.
        -11    1    3    3    0    0  0.34258552462E+01 -0.17483942309E+01 -0.39019667053E+01  0.54789333802E+01  0.51100000000E-03 0.  1.
         12    1    3    3    0    0  0.25159136583E+02  0.87382698863E+01 -0.25372381001E+02  0.36784469983E+02  0.00000000000E+00 0. -1.
</event>
<event>
 7    1  0.2442667E-009  0.4778727E+02  0.7816164E-02  0.1312668E+00
        -11   -1    0    0    0    0  0.00000000000E+00  0.00000000000E+00  0.45593999997E+02  0.45594000000E+02  0.51100000000E-03 0. -1.
         11   -1    0    0    0    0 -0.00000000000E+00 -0.00000000000E+00 -0.45593999997E+02  0.45594000000E+02  0.51100000000E-03 0.  1.
    9900012    2    1    2    0    0  0.41341793841E+01 -0.48696930090E+01  0.42928055472E+02  0.47787270792E+02  0.19999998847E+02 0.  0.
        -12    1    1    2    0    0 -0.41341793841E+01  0.48696930090E+01 -0.42928055472E+02  0.43400729208E+02  0.00000000000E+00 0.  1.
         11    1    3    3    0    0 -0.27738133975E+01 -0.85475036440E+01  0.11096938961E+02  0.14279212649E+02  0.51100000000E-03 0.  1.
        -11    1    3    3    0    0  0.72370777620E+01  0.49484396493E+01  0.23657755115E+02  0.25229976751E+02  0.51100000000E-03 0. -1.
         12    1    3    3    0    0 -0.32908498043E+00 -0.12706290144E+01  0.81733613965E+01  0.82780813921E+01  0.00000000000E+00 0. -1.
</event>
<event>
 7    1  0.2442667E-009  0.4778727E+02  0.7816164E-02  0.1312668E+00
        -11   -1    0    0    0    0  0.00000000000E+00  0.00000000000E+00  0.45593999997E+02  0.45594000000E+02  0.51100000000E-03 0. -1.
         11   -1    0    0    0    0 -0.00000000000E+00 -0.00000000000E+00 -0.45593999997E+02  0.45594000000E+02  0.51100000000E-03 0.  1.
    9900012    2    1    2    0    0  0.21589183115E+02 -0.25423028965E+02 -0.27770493862E+02  0.47787267764E+02  0.19999985041E+02 0.  0.
        -12    1    1    2    0    0 -0.21589183115E+02  0.25423028965E+02  0.27770493862E+02  0.43400732236E+02  0.00000000000E+00 0.  1.
         11    1    3    3    0    0  0.61386075725E+01 -0.58860457496E+01 -0.20792223083E+01  0.87550672850E+01  0.51100000000E-03 0. -1.
        -11    1    3    3    0    0  0.17020052335E+02 -0.20644825784E+02 -0.21165342253E+02  0.34115432374E+02  0.51100000000E-03 0.  1.
        -12    1    3    3    0    0 -0.15694767926E+01  0.11078425685E+01 -0.45259293004E+01  0.49167681043E+01  0.00000000000E+00 0.  1.
</event>
<event>
 7    1  0.2442667E-009  0.4778728E+02  0.7816164E-02  0.1312668E+00
        -11   -1    0    0    0    0  0.00000000000E+00  0.00000000000E+00  0.45593999997E+02  0.45594000000E+02  0.51100000000E-03 0.  1.
         11   -1    0    0    0    0 -0.00000000000E+00 -0.00000000000E+00 -0.45593999997E+02  0.45594000000E+02  0.51100000000E-03 0. -1.
    9900012    2    1    2    0    0 -0.74958563998E+01  0.11983773384E+02 -0.41034425144E+02  0.47787277257E+02  0.20000028328E+02 0.  0.
        -12    1    1    2    0    0  0.74958563998E+01 -0.11983773384E+02  0.41034425144E+02  0.43400722743E+02  0.00000000000E+00 0.  1.
         11    1    3    3    0    0 -0.76429605163E+01  0.11387887416E+01 -0.27414155011E+02  0.28482408264E+02  0.51100000000E-03 0. -1.
        -11    1    3    3    0    0 -0.31574623906E+00  0.12125881239E+02 -0.11110218895E+02  0.16449123249E+02  0.51100000000E-03 0.  1.
         12    1    3    3    0    0  0.46285035558E+00 -0.12808965968E+01 -0.25100512380E+01  0.28557457451E+01  0.00000000000E+00 0. -1.
</event>
<event>
 7    1  0.2442667E-009  0.4778726E+02  0.7816164E-02  0.1312668E+00
        -11   -1    0    0    0    0  0.00000000000E+00  0.00000000000E+00  0.45593999997E+02  0.45594000000E+02  0.51100000000E-03 0. -1.
         11   -1    0    0    0    0 -0.00000000000E+00 -0.00000000000E+00 -0.45593999997E+02  0.45594000000E+02  0.51100000000E-03 0.  1.
    9900012    2    1    2    0    0  0.37252415964E+02  0.22266105344E+02  0.31991503912E+00  0.47787259361E+02  0.19999946733E+02 0.  0.
        -12    1    1    2    0    0 -0.37252415964E+02 -0.22266105344E+02 -0.31991503912E+00  0.43400740639E+02  0.00000000000E+00 0.  1.
         11    1    3    3    0    0  0.14509805237E+02  0.15553773175E+02  0.55243557736E+01  0.21976642486E+02  0.51100000000E-03 0. -1.
        -11    1    3    3    0    0  0.21379047976E+02  0.34864243393E+01 -0.36009042403E+01  0.21958719422E+02  0.51100000000E-03 0.  1.
        -12    1    3    3    0    0  0.13635627506E+01  0.32259078304E+01 -0.16035364942E+01  0.38518974536E+01  0.00000000000E+00 0.  1.
</event>
<event>
 7    1  0.2442667E-009  0.4778727E+02  0.7816164E-02  0.1312668E+00
        -11   -1    0    0    0    0  0.00000000000E+00  0.00000000000E+00  0.45593999997E+02  0.45594000000E+02  0.51100000000E-03 0.  1.
         11   -1    0    0    0    0 -0.00000000000E+00 -0.00000000000E+00 -0.45593999997E+02  0.45594000000E+02  0.51100000000E-03 0. -1.
    9900012    2    1    2    0    0  0.28568285689E+01 -0.32273397750E+02 -0.28877150764E+02  0.47787268346E+02  0.19999987697E+02 0.  0.
        -12    1    1    2    0    0 -0.28568285689E+01  0.32273397750E+02  0.28877150764E+02  0.43400731654E+02  0.00000000000E+00 0.  1.
         11    1    3    3    0    0  0.85909847238E+00 -0.74168968974E+01 -0.56714776157E+01  0.93762502301E+01  0.51100000000E-03 0. -1.
        -11    1    3    3    0    0  0.77136947629E+01 -0.15153397205E+02 -0.63734434082E+01  0.18158945864E+02  0.51100000000E-03 0.  1.
        -12    1    3    3    0    0 -0.57159646664E+01 -0.97031036479E+01 -0.16832229741E+02  0.20252072252E+02  0.00000000000E+00 0.  1.
</event>
<event>
 7    1  0.2442667E-009  0.4778728E+02  0.7816164E-02  0.1312668E+00
        -11   -1    0    0    0    0  0.00000000000E+00  0.00000000000E+00  0.45593999997E+02  0.45594000000E+02  0.51100000000E-03 0. -1.
         11   -1    0    0    0    0 -0.00000000000E+00 -0.00000000000E+00 -0.45593999997E+02  0.45594000000E+02  0.51100000000E-03 0.  1.
    9900012    2    1    2    0    0  0.19138313718E+02  0.37262816374E+02 -0.11350344591E+02  0.47787275830E+02  0.20000021821E+02 0.  0.
        -12    1    1    2    0    0 -0.19138313718E+02 -0.37262816374E+02  0.11350344591E+02  0.43400724170E+02  0.00000000000E+00 0.  1.
         11    1    3    3    0    0  0.11850495355E+02  0.21112886589E+02 -0.61437367733E+01  0.24978665338E+02  0.51100000000E-03 0. -1.
        -11    1    3    3    0    0  0.52785838267E+01 -0.55722581864E+00 -0.20358570206E+01  0.56849504745E+01  0.51100000000E-03 0.  1.
        -12    1    3    3    0    0  0.20092345368E+01  0.16707155604E+02 -0.31707507971E+01  0.17123660018E+02  0.00000000000E+00 0.  1.
</event>
<event>
 7    1  0.2442667E-009  0.4778727E+02  0.7816164E-02  0.1312668E+00
        -11   -1    0    0    0    0  0.00000000000E+00  0.00000000000E+00  0.45593999997E+02  0.45594000000E+02  0.51100000000E-03 0. -1.
         11   -1    0    0    0    0 -0.00000000000E+00 -0.00000000000E+00 -0.45593999997E+02  0.45594000000E+02  0.51100000000E-03 0.  1.
    9900012    2    1    2    0    0 -0.17345830747E+02  0.15722869386E+02  0.36544996138E+02  0.47787271794E+02  0.20000003420E+02 0.  0.
        -12    1    1    2    0    0  0.17345830747E+02 -0.15722869386E+02 -0.36544996138E+02  0.43400728206E+02  0.00000000000E+00 0.  1.
         11    1    3    3    0    0 -0.38199102092E+01  0.82499475569E+01  0.14199055425E+02  0.16860205335E+02  0.51100000000E-03 0. -1.
        -11    1    3    3    0    0 -0.14024740521E+02  0.67165288904E+01  0.24256301361E+02  0.28812727448E+02  0.51100000000E-03 0.  1.
        -12    1    3    3    0    0  0.49881998323E+00  0.75639293916E+00 -0.19103606477E+01  0.21143390122E+01  0.00000000000E+00 0.  1.
</event>
<event>
 7    1  0.2442667E-009  0.4778727E+02  0.7816164E-02  0.1312668E+00
        -11   -1    0    0    0    0  0.00000000000E+00  0.00000000000E+00  0.45593999997E+02  0.45594000000E+02  0.51100000000E-03 0. -1.
         11   -1    0    0    0    0 -0.00000000000E+00 -0.00000000000E+00 -0.45593999997E+02  0.45594000000E+02  0.51100000000E-03 0.  1.
    9900012    2    1    2    0    0 -0.39118484818E+02  0.18381089377E+02  0.39374220722E+01  0.47787267360E+02  0.19999983201E+02 0.  0.
        -12    1    1    2    0    0  0.39118484818E+02 -0.18381089377E+02 -0.39374220722E+01  0.43400732640E+02  0.00000000000E+00 0.  1.
         11    1    3    3    0    0 -0.25179896694E+02  0.18299508965E+02  0.68164747979E+00  0.31134608869E+02  0.51100000000E-03 0. -1.
        -11    1    3    3    0    0 -0.94430277159E+01 -0.40025158255E+01  0.19424317799E+01  0.10438579734E+02  0.51100000000E-03 0.  1.
        -12    1    3    3    0    0 -0.44955604075E+01  0.40840962372E+01  0.13133428126E+01  0.62140787568E+01  0.00000000000E+00 0.  1.
</event>
<event>
 7    1  0.2442667E-009  0.4778727E+02  0.7816164E-02  0.1312668E+00
        -11   -1    0    0    0    0  0.00000000000E+00  0.00000000000E+00  0.45593999997E+02  0.45594000000E+02  0.51100000000E-03 0.  1.
         11   -1    0    0    0    0 -0.00000000000E+00 -0.00000000000E+00 -0.45593999997E+02  0.45594000000E+02  0.51100000000E-03 0. -1.
    9900012    2    1    2    0    0  0.17363739982E+02  0.19628656443E+02 -0.34595369526E+02  0.47787271750E+02  0.20000003219E+02 0.  0.
        -12    1    1    2    0    0 -0.17363739982E+02 -0.19628656443E+02  0.34595369526E+02  0.43400728250E+02  0.00000000000E+00 0.  1.
         11    1    3    3    0    0  0.98345726829E+01  0.21308130966E+02 -0.26111638557E+02  0.35108018080E+02  0.51100000000E-03 0. -1.
        -11    1    3    3    0    0  0.79402839244E+01 -0.38062244029E+00 -0.64782083408E+01  0.10254763079E+02  0.51100000000E-03 0.  1.
         12    1    3    3    0    0 -0.41111662499E+00 -0.12988520829E+01 -0.20055226291E+01  0.24244905915E+01  0.00000000000E+00 0. -1.
</event>
<event>
 7    1  0.2442667E-009  0.4778727E+02  0.7816164E-02  0.1312668E+00
        -11   -1    0    0    0    0  0.00000000000E+00  0.00000000000E+00  0.45593999997E+02  0.45594000000E+02  0.51100000000E-03 0.  1.
         11   -1    0    0    0    0 -0.00000000000E+00 -0.00000000000E+00 -0.45593999997E+02  0.45594000000E+02  0.51100000000E-03 0. -1.
    9900012    2    1    2    0    0 -0.62205664206E+01  0.38743152231E+02 -0.18544426367E+02  0.47787273731E+02  0.20000012250E+02 0.  0.
        -12    1    1    2    0    0  0.62205664206E+01 -0.38743152231E+02  0.18544426367E+02  0.43400726269E+02  0.00000000000E+00 0.  1.
         11    1    3    3    0    0 -0.63696417278E+01  0.20143617017E+02 -0.19667778791E+02  0.28864496619E+02  0.51100000000E-03 0. -1.
        -11    1    3    3    0    0 -0.24045092563E+00  0.17644659868E+02  0.17223754379E+01  0.17730155553E+02  0.51100000000E-03 0.  1.
         12    1    3    3    0    0  0.38952623280E+00  0.95487534549E+00 -0.59902301476E+00  0.11926215593E+01  0.00000000000E+00 0. -1.
</event>
<event>
 7    1  0.2442667E-009  0.4778727E+02  0.7816164E-02  0.1312668E+00
        -11   -1    0    0    0    0  0.00000000000E+00  0.00000000000E+00  0.45593999997E+02  0.45594000000E+02  0.51100000000E-03 0.  1.
         11   -1    0    0    0    0 -0.00000000000E+00 -0.00000000000E+00 -0.45593999997E+02  0.45594000000E+02  0.51100000000E-03 0. -1.
    9900012    2    1    2    0    0  0.24219715967E+02 -0.35680659487E+02 -0.48906921410E+01  0.47787274515E+02  0.20000015825E+02 0.  0.
        -12    1    1    2    0    0 -0.24219715967E+02  0.35680659487E+02  0.48906921410E+01  0.43400725485E+02  0.00000000000E+00 0.  1.
         11    1    3    3    0    0  0.26549496067E+01 -0.51392594973E+01 -0.46186929316E+01  0.74022341392E+01  0.51100000000E-03 0. -1.
        -11    1    3    3    0    0  0.16184880248E+02 -0.99944088279E+01  0.14402571939E+01  0.19076501187E+02  0.51100000000E-03 0.  1.
        -12    1    3    3    0    0  0.53798861118E+01 -0.20546991162E+02 -0.17122564032E+01  0.21308539189E+02  0.00000000000E+00 0.  1.
</event>
<event>
 7    1  0.2442667E-009  0.4778727E+02  0.7816164E-02  0.1312668E+00
        -11   -1    0    0    0    0  0.00000000000E+00  0.00000000000E+00  0.45593999997E+02  0.45594000000E+02  0.51100000000E-03 0. -1.
         11   -1    0    0    0    0 -0.00000000000E+00 -0.00000000000E+00 -0.45593999997E+02  0.45594000000E+02  0.51100000000E-03 0.  1.
    9900012    2    1    2    0    0  0.60759350322E+01  0.23527017060E+02  0.35960890920E+02  0.47787271965E+02  0.20000004195E+02 0.  0.
        -12    1    1    2    0    0 -0.60759350322E+01 -0.23527017060E+02 -0.35960890920E+02  0.43400728035E+02  0.00000000000E+00 0.  1.
         11    1    3    3    0    0  0.23871450845E+01  0.22345865568E+01 -0.19504075515E+01  0.38073519161E+01  0.51100000000E-03 0. -1.
        -11    1    3    3    0    0  0.62023976083E+00  0.15699687130E+02  0.29498991449E+02  0.33422378284E+02  0.51100000000E-03 0.  1.
         12    1    3    3    0    0  0.30685501868E+01  0.55927433726E+01  0.84123070219E+01  0.10557541765E+02  0.00000000000E+00 0. -1.
</event>
<event>
 7    1  0.2442667E-009  0.4778725E+02  0.7816164E-02  0.1312668E+00
        -11   -1    0    0    0    0  0.00000000000E+00  0.00000000000E+00  0.45593999997E+02  0.45594000000E+02  0.51100000000E-03 0.  1.
         11   -1    0    0    0    0 -0.00000000000E+00 -0.00000000000E+00 -0.45593999997E+02  0.45594000000E+02  0.51100000000E-03 0. -1.
    9900012    2    1    2    0    0 -0.48006354558E+01  0.93936103807E+01 -0.42099159273E+02  0.47787248528E+02  0.19999897340E+02 0.  0.
        -12    1    1    2    0    0  0.48006354558E+01 -0.93936103807E+01  0.42099159273E+02  0.43400751472E+02  0.00000000000E+00 0.  1.
         11    1    3    3    0    0  0.17959176862E+01 -0.13548637422E+01 -0.16519037007E+01  0.27910145455E+01  0.51100000000E-03 0. -1.
        -11    1    3    3    0    0 -0.54329327428E+01  0.48735380785E+01 -0.45452254078E+01  0.85980931525E+01  0.51100000000E-03 0.  1.
        -12    1    3    3    0    0 -0.11636203992E+01  0.58749360444E+01 -0.35902030165E+02  0.36398140831E+02  0.00000000000E+00 0.  1.
</event>
<event>
 7    1  0.2442667E-009  0.4778727E+02  0.7816164E-02  0.1312668E+00
        -11   -1    0    0    0    0  0.00000000000E+00  0.00000000000E+00  0.45593999997E+02  0.45594000000E+02  0.51100000000E-03 0.  1.
         11   -1    0    0    0    0 -0.00000000000E+00 -0.00000000000E+00 -0.45593999997E+02  0.45594000000E+02  0.51100000000E-03 0. -1.
    9900012    2    1    2    0    0  0.20493079962E+02 -0.16216820634E+02 -0.34650712373E+02  0.47787268834E+02  0.19999989923E+02 0.  0.
        -12    1    1    2    0    0 -0.20493079962E+02  0.16216820634E+02  0.34650712373E+02  0.43400731166E+02  0.00000000000E+00 0.  1.
         11    1    3    3    0    0  0.42649561516E+01 -0.33828884925E+01 -0.39393184417E+01  0.67195249516E+01  0.51100000000E-03 0. -1.
        -11    1    3    3    0    0  0.13521861627E+02 -0.17240238175E+02 -0.26596684629E+02  0.34459399120E+02  0.51100000000E-03 0.  1.
        -12    1    3    3    0    0  0.27062621829E+01  0.44063060335E+01 -0.41147093015E+01  0.66083447625E+01  0.00000000000E+00 0.  1.
</event>
<event>
 7    1  0.2442667E-009  0.4778727E+02  0.7816164E-02  0.1312668E+00
        -11   -1    0    0    0    0  0.00000000000E+00  0.00000000000E+00  0.45593999997E+02  0.45594000000E+02  0.51100000000E-03 0.  1.
         11   -1    0    0    0    0 -0.00000000000E+00 -0.00000000000E+00 -0.45593999997E+02  0.45594000000E+02  0.51100000000E-03 0. -1.
    9900012    2    1    2    0    0  0.22380455925E+02  0.36799758171E+02 -0.53400653109E+01  0.47787270670E+02  0.19999998295E+02 0.  0.
        -12    1    1    2    0    0 -0.22380455925E+02 -0.36799758171E+02  0.53400653109E+01  0.43400729330E+02  0.00000000000E+00 0.  1.
         11    1    3    3    0    0  0.15268453617E+02  0.30708603095E+02 -0.10698603360E+02  0.35924978692E+02  0.51100000000E-03 0. -1.
        -11    1    3    3    0    0  0.45905508984E+01  0.51251884571E+01  0.59520635672E+01  0.90976796624E+01  0.51100000000E-03 0.  1.
         12    1    3    3    0    0  0.25214514091E+01  0.96596661830E+00 -0.59352551802E+00  0.27646123158E+01  0.00000000000E+00 0. -1.
</event>
<event>
 7    1  0.2442667E-009  0.4778727E+02  0.7816164E-02  0.1312668E+00
        -11   -1    0    0    0    0  0.00000000000E+00  0.00000000000E+00  0.45593999997E+02  0.45594000000E+02  0.51100000000E-03 0. -1.
         11   -1    0    0    0    0 -0.00000000000E+00 -0.00000000000E+00 -0.45593999997E+02  0.45594000000E+02  0.51100000000E-03 0.  1.
    9900012    2    1    2    0    0 -0.21469117722E+02  0.34734827476E+01  0.37558425143E+02  0.47787269621E+02  0.19999993511E+02 0.  0.
        -12    1    1    2    0    0  0.21469117722E+02 -0.34734827476E+01 -0.37558425143E+02  0.43400730379E+02  0.00000000000E+00 0.  1.
         11    1    3    3    0    0 -0.94716159856E+01 -0.27891345377E+01  0.70354465763E+01  0.12123872716E+02  0.51100000000E-03 0. -1.
        -11    1    3    3    0    0  0.14477563392E+00  0.54548883797E+01  0.50593622355E+01  0.74413650435E+01  0.51100000000E-03 0.  1.
         12    1    3    3    0    0 -0.12142277370E+02  0.80772890552E+00  0.25463616331E+02  0.28222031862E+02  0.00000000000E+00 0. -1.
</event>
<event>
 7    1  0.2442667E-009  0.4778727E+02  0.7816164E-02  0.1312668E+00
        -11   -1    0    0    0    0  0.00000000000E+00  0.00000000000E+00  0.45593999997E+02  0.45594000000E+02  0.51100000000E-03 0.  1.
         11   -1    0    0    0    0 -0.00000000000E+00 -0.00000000000E+00 -0.45593999997E+02  0.45594000000E+02  0.51100000000E-03 0. -1.
    9900012    2    1    2    0    0 -0.34593042250E+02  0.23372063666E+02 -0.11861339278E+02  0.47787270725E+02  0.19999998543E+02 0.  0.
        -12    1    1    2    0    0  0.34593042250E+02 -0.23372063666E+02  0.11861339278E+02  0.43400729275E+02  0.00000000000E+00 0.  1.
         11    1    3    3    0    0 -0.22255042656E+02  0.17841853724E+02 -0.12129834087E+02  0.30995992373E+02  0.51100000000E-03 0. -1.
        -11    1    3    3    0    0 -0.36880196031E+01  0.68408525351E+01 -0.13671053679E+01  0.78909903908E+01  0.51100000000E-03 0.  1.
         12    1    3    3    0    0 -0.86499799914E+01 -0.13106425930E+01  0.16356001766E+01  0.89002879614E+01  0.00000000000E+00 0. -1.
</event>
<event>
 7    1  0.2442667E-009  0.4778727E+02  0.7816164E-02  0.1312668E+00
        -11   -1    0    0    0    0  0.00000000000E+00  0.00000000000E+00  0.45593999997E+02  0.45594000000E+02  0.51100000000E-03 0.  1.
         11   -1    0    0    0    0 -0.00000000000E+00 -0.00000000000E+00 -0.45593999997E+02  0.45594000000E+02  0.51100000000E-03 0. -1.
    9900012    2    1    2    0    0  0.35615154184E+02  0.23041617892E+02 -0.91797677358E+01  0.47787268459E+02  0.19999988210E+02 0.  0.
        -12    1    1    2    0    0 -0.35615154184E+02 -0.23041617892E+02  0.91797677358E+01  0.43400731541E+02  0.00000000000E+00 0.  1.
         11    1    3    3    0    0  0.23378497347E+02  0.41243776868E+01 -0.21762009337E+01  0.23839053678E+02  0.51100000000E-03 0. -1.
        -11    1    3    3    0    0  0.50498910135E+01  0.97720161826E+01 -0.52400700985E+01  0.12184089396E+02  0.51100000000E-03 0.  1.
         12    1    3    3    0    0  0.71867658236E+01  0.91452240227E+01 -0.17634967036E+01  0.11764125384E+02  0.00000000000E+00 0. -1.
</event>
<event>
 7    1  0.2442667E-009  0.4778727E+02  0.7816164E-02  0.1312668E+00
        -11   -1    0    0    0    0  0.00000000000E+00  0.00000000000E+00  0.45593999997E+02  0.45594000000E+02  0.51100000000E-03 0. -1.
         11   -1    0    0    0    0 -0.00000000000E+00 -0.00000000000E+00 -0.45593999997E+02  0.45594000000E+02  0.51100000000E-03 0.  1.
    9900012    2    1    2    0    0 -0.68249351757E+00  0.23297314113E+02  0.36611369942E+02  0.47787273609E+02  0.20000011692E+02 0.  0.
        -12    1    1    2    0    0  0.68249351757E+00 -0.23297314113E+02 -0.36611369942E+02  0.43400726391E+02  0.00000000000E+00 0.  1.
         11    1    3    3    0    0  0.39251559565E+00  0.18869850718E+02  0.33387129301E+02  0.38352649685E+02  0.51100000000E-03 0. -1.
        -11    1    3    3    0    0 -0.15230951025E+01 -0.14564957929E+00 -0.19734043846E+01  0.24970698063E+01  0.51100000000E-03 0.  1.
        -12    1    3    3    0    0  0.44808598928E+00  0.45731129744E+01  0.51976450251E+01  0.69375541178E+01  0.00000000000E+00 0.  1.
</event>
<event>
 7    1  0.2442667E-009  0.4778727E+02  0.7816164E-02  0.1312668E+00
        -11   -1    0    0    0    0  0.00000000000E+00  0.00000000000E+00  0.45593999997E+02  0.45594000000E+02  0.51100000000E-03 0. -1.
         11   -1    0    0    0    0 -0.00000000000E+00 -0.00000000000E+00 -0.45593999997E+02  0.45594000000E+02  0.51100000000E-03 0.  1.
    9900012    2    1    2    0    0 -0.32720004822E+02  0.11526772726E+02  0.26079840795E+02  0.47787270733E+02  0.19999998581E+02 0.  0.
        -12    1    1    2    0    0  0.32720004822E+02 -0.11526772726E+02 -0.26079840795E+02  0.43400729267E+02  0.00000000000E+00 0.  1.
         11    1    3    3    0    0 -0.74348629882E+01  0.15651885404E+01  0.42774440152E+01  0.87191473428E+01  0.51100000000E-03 0. -1.
        -11    1    3    3    0    0 -0.18382427396E+02 -0.19044514736E+01  0.10292316687E+02  0.21153542385E+02  0.51100000000E-03 0.  1.
        -12    1    3    3    0    0 -0.69027144373E+01  0.11866035659E+02  0.11510080092E+02  0.17914581005E+02  0.00000000000E+00 0.  1.
</event>
<event>
 7    1  0.2442667E-009  0.4778727E+02  0.7816164E-02  0.1312668E+00
        -11   -1    0    0    0    0  0.00000000000E+00  0.00000000000E+00  0.45593999997E+02  0.45594000000E+02  0.51100000000E-03 0.  1.
         11   -1    0    0    0    0 -0.00000000000E+00 -0.00000000000E+00 -0.45593999997E+02  0.45594000000E+02  0.51100000000E-03 0. -1.
    9900012    2    1    2    0    0 -0.24884079352E+01 -0.31228444551E+02 -0.30036899429E+02  0.47787271314E+02  0.20000001230E+02 0.  0.
        -12    1    1    2    0    0  0.24884079352E+01  0.31228444551E+02  0.30036899429E+02  0.43400728686E+02  0.00000000000E+00 0.  1.
         11    1    3    3    0    0 -0.72367471576E+01 -0.65290892855E+01 -0.79392930205E+01  0.12571073552E+02  0.51100000000E-03 0. -1.
        -11    1    3    3    0    0  0.82757293092E+01 -0.16457642146E+02 -0.14028010350E+02  0.23154411140E+02  0.51100000000E-03 0.  1.
        -12    1    3    3    0    0 -0.35273900868E+01 -0.82417131192E+01 -0.80695960586E+01  0.12061786622E+02  0.00000000000E+00 0.  1.
</event>
<event>
 7    1  0.2442667E-009  0.4778727E+02  0.7816164E-02  0.1312668E+00
        -11   -1    0    0    0    0  0.00000000000E+00  0.00000000000E+00  0.45593999997E+02  0.45594000000E+02  0.51100000000E-03 0. -1.
         11   -1    0    0    0    0 -0.00000000000E+00 -0.00000000000E+00 -0.45593999997E+02  0.45594000000E+02  0.51100000000E-03 0.  1.
    9900012    2    1    2    0    0 -0.80411027857E+01  0.26879532792E+02  0.33112764261E+02  0.47787265281E+02  0.19999973721E+02 0.  0.
        -12    1    1    2    0    0  0.80411027857E+01 -0.26879532792E+02 -0.33112764261E+02  0.43400734719E+02  0.00000000000E+00 0.  1.
         11    1    3    3    0    0 -0.40840499525E+01  0.53330104085E+01  0.19639214472E+02  0.20756184846E+02  0.51100000000E-03 0. -1.
        -11    1    3    3    0    0  0.66285461357E+00 -0.31307189394E-01 -0.56974250230E+00  0.87462172331E+00  0.51100000000E-03 0.  1.
         12    1    3    3    0    0 -0.46199074468E+01  0.21577829573E+02  0.14043292291E+02  0.26156458711E+02  0.00000000000E+00 0. -1.
</event>
<event>
 7    1  0.2442667E-009  0.4778727E+02  0.7816164E-02  0.1312668E+00
        -11   -1    0    0    0    0  0.00000000000E+00  0.00000000000E+00  0.45593999997E+02  0.45594000000E+02  0.51100000000E-03 0.  1.
         11   -1    0    0    0    0 -0.00000000000E+00 -0.00000000000E+00 -0.45593999997E+02  0.45594000000E+02  0.51100000000E-03 0. -1.
    9900012    2    1    2    0    0  0.40455069034E+02  0.79841162990E+01 -0.13537536959E+02  0.47787266936E+02  0.19999981267E+02 0.  0.
        -12    1    1    2    0    0 -0.40455069034E+02 -0.79841162990E+01  0.13537536959E+02  0.43400733064E+02  0.00000000000E+00 0.  1.
         11    1    3    3    0    0  0.25406570246E+02 -0.27589304857E+01 -0.12532392537E+02  0.28463421650E+02  0.51100000000E-03 0. -1.
        -11    1    3    3    0    0  0.10646469098E+02  0.98919275421E+01 -0.21641944017E+01  0.14692898707E+02  0.51100000000E-03 0.  1.
        -12    1    3    3    0    0  0.44020296905E+01  0.85111924257E+00  0.11590499796E+01  0.46309465789E+01  0.00000000000E+00 0.  1.
</event>
<event>
 7    1  0.2442667E-009  0.4778727E+02  0.7816164E-02  0.1312668E+00
        -11   -1    0    0    0    0  0.00000000000E+00  0.00000000000E+00  0.45593999997E+02  0.45594000000E+02  0.51100000000E-03 0.  1.
         11   -1    0    0    0    0 -0.00000000000E+00 -0.00000000000E+00 -0.45593999997E+02  0.45594000000E+02  0.51100000000E-03 0. -1.
    9900012    2    1    2    0    0  0.41896202931E+02 -0.52231837058E+01 -0.10052355006E+02  0.47787270637E+02  0.19999998144E+02 0.  0.
        -12    1    1    2    0    0 -0.41896202931E+02  0.52231837058E+01  0.10052355006E+02  0.43400729363E+02  0.00000000000E+00 0.  1.
         11    1    3    3    0    0  0.35287097374E+02 -0.11503354189E+02 -0.76898166133E+01  0.37903029938E+02  0.51100000000E-03 0. -1.
        -11    1    3    3    0    0  0.14167416354E+01  0.24788064258E+01  0.39662898856E+00  0.28825254507E+01  0.51100000000E-03 0.  1.
         12    1    3    3    0    0  0.51923639216E+01  0.38013640573E+01 -0.27591673810E+01  0.70017152489E+01  0.00000000000E+00 0. -1.
</event>
<event>
 7    1  0.2442667E-009  0.4778727E+02  0.7816164E-02  0.1312668E+00
        -11   -1    0    0    0    0  0.00000000000E+00  0.00000000000E+00  0.45593999997E+02  0.45594000000E+02  0.51100000000E-03 0. -1.
         11   -1    0    0    0    0 -0.00000000000E+00 -0.00000000000E+00 -0.45593999997E+02  0.45594000000E+02  0.51100000000E-03 0.  1.
    9900012    2    1    2    0    0 -0.36594390082E+02  0.16216052103E+02 -0.16778371662E+02  0.47787268590E+02  0.19999988809E+02 0.  0.
        -12    1    1    2    0    0  0.36594390082E+02 -0.16216052103E+02  0.16778371662E+02  0.43400731410E+02  0.00000000000E+00 0.  1.
         11    1    3    3    0    0 -0.26810804877E+01  0.69446389762E+01 -0.47468187058E+01  0.88288442719E+01  0.51100000000E-03 0. -1.
        -11    1    3    3    0    0 -0.34140028531E+01  0.50750510639E+01 -0.33371433699E+01  0.69676455790E+01  0.51100000000E-03 0.  1.
         12    1    3    3    0    0 -0.30499306742E+02  0.41963620630E+01 -0.86944095860E+01  0.31990778739E+02  0.00000000000E+00 0. -1.
</event>
<event>
 7    1  0.2442667E-009  0.4778727E+02  0.7816164E-02  0.1312668E+00
        -11   -1    0    0    0    0  0.00000000000E+00  0.00000000000E+00  0.45593999997E+02  0.45594000000E+02  0.51100000000E-03 0.  1.
         11   -1    0    0    0    0 -0.00000000000E+00 -0.00000000000E+00 -0.45593999997E+02  0.45594000000E+02  0.51100000000E-03 0. -1.
    9900012    2    1    2    0    0 -0.74084493042E+01  0.17485620182E+02 -0.39025521093E+02  0.47787270389E+02  0.19999997010E+02 0.  0.
        -12    1    1    2    0    0  0.74084493042E+01 -0.17485620182E+02  0.39025521093E+02  0.43400729611E+02  0.00000000000E+00 0.  1.
         11    1    3    3    0    0  0.53295401779E-01 -0.33658051320E+01 -0.59829911183E+01  0.68649594004E+01  0.51100000000E-03 0. -1.
        -11    1    3    3    0    0 -0.15765810540E+01  0.18970478773E+00 -0.69221808269E+01  0.71019844683E+01  0.51100000000E-03 0.  1.
         12    1    3    3    0    0 -0.58851636520E+01  0.20661720526E+02 -0.26120349147E+02  0.33820326520E+02  0.00000000000E+00 0. -1.
</event>
<event>
 7    1  0.2442667E-009  0.4778727E+02  0.7816164E-02  0.1312668E+00
        -11   -1    0    0    0    0  0.00000000000E+00  0.00000000000E+00  0.45593999997E+02  0.45594000000E+02  0.51100000000E-03 0.  1.
         11   -1    0    0    0    0 -0.00000000000E+00 -0.00000000000E+00 -0.45593999997E+02  0.45594000000E+02  0.51100000000E-03 0. -1.
    9900012    2    1    2    0    0  0.40956692762E+02 -0.11533944635E+02 -0.85522374092E+01  0.47787270450E+02  0.19999997288E+02 0.  0.
        -12    1    1    2    0    0 -0.40956692762E+02  0.11533944635E+02  0.85522374092E+01  0.43400729550E+02  0.00000000000E+00 0.  1.
         11    1    3    3    0    0  0.22101832194E+02 -0.11729690964E+02  0.27299109157E+01  0.25170002986E+02  0.51100000000E-03 0. -1.
        -11    1    3    3    0    0  0.13931154720E+02 -0.21365996105E+01 -0.89160686107E+01  0.16677482108E+02  0.51100000000E-03 0.  1.
         12    1    3    3    0    0  0.49237058478E+01  0.23323459402E+01 -0.23660797142E+01  0.59397853559E+01  0.00000000000E+00 0. -1.
</event>
<event>
 7    1  0.2442667E-009  0.4778727E+02  0.7816164E-02  0.1312668E+00
        -11   -1    0    0    0    0  0.00000000000E+00  0.00000000000E+00  0.45593999997E+02  0.45594000000E+02  0.51100000000E-03 0.  1.
         11   -1    0    0    0    0 -0.00000000000E+00 -0.00000000000E+00 -0.45593999997E+02  0.45594000000E+02  0.51100000000E-03 0. -1.
    9900012    2    1    2    0    0 -0.33421209565E+02  0.27681608912E+02 -0.61209238649E+00  0.47787269847E+02  0.19999994540E+02 0.  0.
        -12    1    1    2    0    0  0.33421209565E+02 -0.27681608912E+02  0.61209238649E+00  0.43400730153E+02  0.00000000000E+00 0.  1.
         11    1    3    3    0    0 -0.10853447889E+02  0.21486767803E+02  0.19874614338E+01  0.24154265149E+02  0.51100000000E-03 0. -1.
        -11    1    3    3    0    0 -0.16745764269E+01 -0.57074741861E-01 -0.53951503466E-01  0.16764172397E+01  0.51100000000E-03 0.  1.
         12    1    3    3    0    0 -0.20893185249E+02  0.62519158513E+01 -0.25456023169E+01  0.21956587458E+02  0.00000000000E+00 0. -1.
</event>
<event>
 7    1  0.2442667E-009  0.4778728E+02  0.7816164E-02  0.1312668E+00
        -11   -1    0    0    0    0  0.00000000000E+00  0.00000000000E+00  0.45593999997E+02  0.45594000000E+02  0.51100000000E-03 0.  1.
         11   -1    0    0    0    0 -0.00000000000E+00 -0.00000000000E+00 -0.45593999997E+02  0.45594000000E+02  0.51100000000E-03 0. -1.
    9900012    2    1    2    0    0  0.29477032655E+02 -0.22926639720E+02 -0.22115514393E+02  0.47787282957E+02  0.20000054313E+02 0.  0.
        -12    1    1    2    0    0 -0.29477032655E+02  0.22926639720E+02  0.22115514393E+02  0.43400717043E+02  0.00000000000E+00 0.  1.
         11    1    3    3    0    0  0.24950752457E+02 -0.24518710073E+02 -0.19529282313E+02  0.40063700025E+02  0.51100000000E-03 0. -1.
        -11    1    3    3    0    0  0.13895394061E+01  0.23404194278E+01 -0.34410913917E+01  0.43874244252E+01  0.51100000000E-03 0.  1.
        -12    1    3    3    0    0  0.31367407926E+01 -0.74834907409E+00  0.85485931131E+00  0.33361585062E+01  0.00000000000E+00 0.  1.
</event>
<event>
 7    1  0.2442667E-009  0.4778726E+02  0.7816164E-02  0.1312668E+00
        -11   -1    0    0    0    0  0.00000000000E+00  0.00000000000E+00  0.45593999997E+02  0.45594000000E+02  0.51100000000E-03 0.  1.
         11   -1    0    0    0    0 -0.00000000000E+00 -0.00000000000E+00 -0.45593999997E+02  0.45594000000E+02  0.51100000000E-03 0. -1.
    9900012    2    1    2    0    0 -0.75874788186E+01  0.36217930949E+02 -0.22678526901E+02  0.47787263377E+02  0.19999965039E+02 0.  0.
        -12    1    1    2    0    0  0.75874788186E+01 -0.36217930949E+02  0.22678526901E+02  0.43400736623E+02  0.00000000000E+00 0.  1.
         11    1    3    3    0    0 -0.40204983239E+01  0.22541563341E+02 -0.37283422509E+01  0.23198858179E+02  0.51100000000E-03 0. -1.
        -11    1    3    3    0    0 -0.19215517786E+01  0.26463404433E+01 -0.92388646654E+01  0.98006173043E+01  0.51100000000E-03 0.  1.
        -12    1    3    3    0    0 -0.16454287161E+01  0.11030027165E+02 -0.97113199847E+01  0.14787787893E+02  0.00000000000E+00 0.  1.
</event>
<event>
 7    1  0.2442667E-009  0.4778727E+02  0.7816164E-02  0.1312668E+00
        -11   -1    0    0    0    0  0.00000000000E+00  0.00000000000E+00  0.45593999997E+02  0.45594000000E+02  0.51100000000E-03 0.  1.
         11   -1    0    0    0    0 -0.00000000000E+00 -0.00000000000E+00 -0.45593999997E+02  0.45594000000E+02  0.51100000000E-03 0. -1.
    9900012    2    1    2    0    0  0.37678617586E+02 -0.12467516164E+02  0.17564344915E+02  0.47787269651E+02  0.19999993648E+02 0.  0.
        -12    1    1    2    0    0 -0.37678617586E+02  0.12467516164E+02 -0.17564344915E+02  0.43400730349E+02  0.00000000000E+00 0.  1.
         11    1    3    3    0    0  0.17651482633E+02 -0.82555980925E+01  0.24939787648E+00  0.19488251295E+02  0.51100000000E-03 0. -1.
        -11    1    3    3    0    0  0.57455849193E+00  0.94197943844E+00  0.40476772033E+01  0.41953705112E+01  0.51100000000E-03 0.  1.
        -12    1    3    3    0    0  0.19452576462E+02 -0.51538975100E+01  0.13267269835E+02  0.24103647845E+02  0.00000000000E+00 0.  1.
</event>
<event>
 7    1  0.2442667E-009  0.4778727E+02  0.7816164E-02  0.1312668E+00
        -11   -1    0    0    0    0  0.00000000000E+00  0.00000000000E+00  0.45593999997E+02  0.45594000000E+02  0.51100000000E-03 0.  1.
         11   -1    0    0    0    0 -0.00000000000E+00 -0.00000000000E+00 -0.45593999997E+02  0.45594000000E+02  0.51100000000E-03 0. -1.
    9900012    2    1    2    0    0 -0.11669674278E+02  0.32700415372E+02 -0.26040829476E+02  0.47787271169E+02  0.20000000568E+02 0.  0.
        -12    1    1    2    0    0  0.11669674278E+02 -0.32700415372E+02  0.26040829476E+02  0.43400728831E+02  0.00000000000E+00 0.  1.
         11    1    3    3    0    0 -0.39993180749E+01  0.17784295580E+02 -0.61292358801E+01  0.19231309032E+02  0.51100000000E-03 0. -1.
        -11    1    3    3    0    0 -0.23226338719E+01  0.50692953625E+01  0.14898016718E+00  0.55780443640E+01  0.51100000000E-03 0.  1.
         12    1    3    3    0    0 -0.53477223314E+01  0.98468244292E+01 -0.20060573763E+02  0.22977917773E+02  0.00000000000E+00 0. -1.
</event>
<event>
 7    1  0.2442667E-009  0.4778727E+02  0.7816164E-02  0.1312668E+00
        -11   -1    0    0    0    0  0.00000000000E+00  0.00000000000E+00  0.45593999997E+02  0.45594000000E+02  0.51100000000E-03 0. -1.
         11   -1    0    0    0    0 -0.00000000000E+00 -0.00000000000E+00 -0.45593999997E+02  0.45594000000E+02  0.51100000000E-03 0.  1.
    9900012    2    1    2    0    0  0.13229930348E+02 -0.39735070863E+02 -0.11389330736E+02  0.47787265350E+02  0.19999974038E+02 0.  0.
        -12    1    1    2    0    0 -0.13229930348E+02  0.39735070863E+02  0.11389330736E+02  0.43400734650E+02  0.00000000000E+00 0.  1.
         11    1    3    3    0    0 -0.43819035343E-01 -0.18688902075E+02  0.24670619862E+01  0.18851084212E+02  0.51100000000E-03 0. -1.
        -11    1    3    3    0    0  0.67220518207E+01 -0.70064412242E+01 -0.71277631928E+01  0.12044966073E+02  0.51100000000E-03 0.  1.
        -12    1    3    3    0    0  0.65516975628E+01 -0.14039727564E+02 -0.67286295293E+01  0.16891215065E+02  0.00000000000E+00 0.  1.
</event>
<event>
 7    1  0.2442667E-009  0.4778726E+02  0.7816164E-02  0.1312668E+00
        -11   -1    0    0    0    0  0.00000000000E+00  0.00000000000E+00  0.45593999997E+02  0.45594000000E+02  0.51100000000E-03 0.  1.
         11   -1    0    0    0    0 -0.00000000000E+00 -0.00000000000E+00 -0.45593999997E+02  0.45594000000E+02  0.51100000000E-03 0. -1.
    9900012    2    1    2    0    0  0.84944874165E+01  0.29863143814E+02 -0.30325900643E+02  0.47787263546E+02  0.19999965811E+02 0.  0.
        -12    1    1    2    0    0 -0.84944874165E+01 -0.29863143814E+02  0.30325900643E+02  0.43400736454E+02  0.00000000000E+00 0.  1.
         11    1    3    3    0    0  0.54493165394E+01  0.19587788016E+02 -0.28377514775E+02  0.34909308718E+02  0.51100000000E-03 0. -1.
        -11    1    3    3    0    0  0.97825043905E+00 -0.20270904091E+00 -0.19578058525E+01  0.21979692659E+01  0.51100000000E-03 0.  1.
         12    1    3    3    0    0  0.20669204380E+01  0.10478064839E+02  0.94199842198E-02  0.10679985562E+02  0.00000000000E+00 0. -1.
</event>
<event>
 7    1  0.2442667E-009  0.4778728E+02  0.7816164E-02  0.1312668E+00
        -11   -1    0    0    0    0  0.00000000000E+00  0.00000000000E+00  0.45593999997E+02  0.45594000000E+02  0.51100000000E-03 0. -1.
         11   -1    0    0    0    0 -0.00000000000E+00 -0.00000000000E+00 -0.45593999997E+02  0.45594000000E+02  0.51100000000E-03 0.  1.
    9900012    2    1    2    0    0 -0.15199209022E+02  0.22581008582E+02  0.33803907775E+02  0.47787284749E+02  0.20000062482E+02 0.  0.
        -12    1    1    2    0    0  0.15199209022E+02 -0.22581008582E+02 -0.33803907775E+02  0.43400715251E+02  0.00000000000E+00 0.  1.
         11    1    3    3    0    0  0.35794772248E+00  0.87904544403E+01  0.15355426850E+02  0.17697156547E+02  0.51100000000E-03 0. -1.
        -11    1    3    3    0    0 -0.12237810328E+02  0.66326480225E+01  0.55821558978E+01  0.14997215946E+02  0.51100000000E-03 0.  1.
        -12    1    3    3    0    0 -0.33193464164E+01  0.71579061196E+01  0.12866325027E+02  0.15092912255E+02  0.00000000000E+00 0.  1.
</event>
<event>
 7    1  0.2442667E-009  0.4778727E+02  0.7816164E-02  0.1312668E+00
        -11   -1    0    0    0    0  0.00000000000E+00  0.00000000000E+00  0.45593999997E+02  0.45594000000E+02  0.51100000000E-03 0. -1.
         11   -1    0    0    0    0 -0.00000000000E+00 -0.00000000000E+00 -0.45593999997E+02  0.45594000000E+02  0.51100000000E-03 0.  1.
    9900012    2    1    2    0    0 -0.43331578313E+02 -0.55078467404E+00  0.23862963230E+01  0.47787268981E+02  0.19999990593E+02 0.  0.
        -12    1    1    2    0    0  0.43331578313E+02  0.55078467404E+00 -0.23862963230E+01  0.43400731019E+02  0.00000000000E+00 0.  1.
         11    1    3    3    0    0 -0.41063406680E+01 -0.62200782328E+01 -0.69485417636E+00  0.74856014783E+01  0.51100000000E-03 0. -1.
        -11    1    3    3    0    0 -0.56298083907E+01  0.24424278166E+01  0.22659843558E+01  0.65417796903E+01  0.51100000000E-03 0.  1.
         12    1    3    3    0    0 -0.33595429254E+02  0.32268657421E+01  0.81516614356E+00  0.33759887813E+02  0.00000000000E+00 0. -1.
</event>
<event>
 7    1  0.2442667E-009  0.4778727E+02  0.7816164E-02  0.1312668E+00
        -11   -1    0    0    0    0  0.00000000000E+00  0.00000000000E+00  0.45593999997E+02  0.45594000000E+02  0.51100000000E-03 0.  1.
         11   -1    0    0    0    0 -0.00000000000E+00 -0.00000000000E+00 -0.45593999997E+02  0.45594000000E+02  0.51100000000E-03 0. -1.
    9900012    2    1    2    0    0  0.19434533071E+02 -0.30096963420E+02 -0.24496833575E+02  0.47787272610E+02  0.20000007137E+02 0.  0.
        -12    1    1    2    0    0 -0.19434533071E+02  0.30096963420E+02  0.24496833575E+02  0.43400727390E+02  0.00000000000E+00 0.  1.
         11    1    3    3    0    0  0.13091597340E+02 -0.14349107593E+02 -0.92473815315E+01  0.21512807234E+02  0.51100000000E-03 0. -1.
        -11    1    3    3    0    0 -0.31077262148E+01 -0.32463720951E+01 -0.12645893503E+00  0.44958743454E+01  0.51100000000E-03 0.  1.
        -12    1    3    3    0    0  0.94506619462E+01 -0.12501483731E+02 -0.15122993109E+02  0.21778591031E+02  0.00000000000E+00 0.  1.
</event>
<event>
 7    1  0.2442667E-009  0.4778727E+02  0.7816164E-02  0.1312668E+00
        -11   -1    0    0    0    0  0.00000000000E+00  0.00000000000E+00  0.45593999997E+02  0.45594000000E+02  0.51100000000E-03 0.  1.
         11   -1    0    0    0    0 -0.00000000000E+00 -0.00000000000E+00 -0.45593999997E+02  0.45594000000E+02  0.51100000000E-03 0. -1.
    9900012    2    1    2    0    0 -0.31999127812E+02 -0.25844416086E+02  0.13847208780E+02  0.47787271728E+02  0.20000003115E+02 0.  0.
        -12    1    1    2    0    0  0.31999127812E+02  0.25844416086E+02 -0.13847208780E+02  0.43400728272E+02  0.00000000000E+00 0.  1.
         11    1    3    3    0    0 -0.25105273877E+02 -0.14573308753E+02  0.79812122799E+01  0.30105744538E+02  0.51100000000E-03 0. -1.
        -11    1    3    3    0    0  0.81318909769E+00 -0.56247177394E+01 -0.11873758878E+01  0.58059097407E+01  0.51100000000E-03 0.  1.
         12    1    3    3    0    0 -0.77070430331E+01 -0.56463895934E+01  0.70533723882E+01  0.11875617449E+02  0.00000000000E+00 0. -1.
</event>
<event>
 7    1  0.2442667E-009  0.4778727E+02  0.7816164E-02  0.1312668E+00
        -11   -1    0    0    0    0  0.00000000000E+00  0.00000000000E+00  0.45593999997E+02  0.45594000000E+02  0.51100000000E-03 0.  1.
         11   -1    0    0    0    0 -0.00000000000E+00 -0.00000000000E+00 -0.45593999997E+02  0.45594000000E+02  0.51100000000E-03 0. -1.
    9900012    2    1    2    0    0 -0.53737624090E+01 -0.16186255835E+02 -0.39909286218E+02  0.47787270434E+02  0.19999997218E+02 0.  0.
        -12    1    1    2    0    0  0.53737624090E+01  0.16186255835E+02  0.39909286218E+02  0.43400729566E+02  0.00000000000E+00 0.  1.
         11    1    3    3    0    0 -0.65317499414E+01 -0.17695790142E+02 -0.33020117098E+02  0.38028053848E+02  0.51100000000E-03 0. -1.
        -11    1    3    3    0    0 -0.25680022436E+01  0.16507103938E+01 -0.40550496037E+01  0.50757174741E+01  0.51100000000E-03 0.  1.
         12    1    3    3    0    0  0.37259897760E+01 -0.14117608647E+00 -0.28341195169E+01  0.46834991122E+01  0.00000000000E+00 0. -1.
</event>
<event>
 7    1  0.2442667E-009  0.4778727E+02  0.7816164E-02  0.1312668E+00
        -11   -1    0    0    0    0  0.00000000000E+00  0.00000000000E+00  0.45593999997E+02  0.45594000000E+02  0.51100000000E-03 0. -1.
         11   -1    0    0    0    0 -0.00000000000E+00 -0.00000000000E+00 -0.45593999997E+02  0.45594000000E+02  0.51100000000E-03 0.  1.
    9900012    2    1    2    0    0  0.24763071271E+02 -0.34380379143E+02  0.94022855716E+01  0.47787272555E+02  0.20000006885E+02 0.  0.
        -12    1    1    2    0    0 -0.24763071271E+02  0.34380379143E+02 -0.94022855716E+01  0.43400727445E+02  0.00000000000E+00 0.  1.
         11    1    3    3    0    0  0.63150432425E+01 -0.27715387378E+01  0.86610644969E+00  0.69506358538E+01  0.51100000000E-03 0. -1.
        -11    1    3    3    0    0  0.20697996804E+02 -0.23774083542E+02  0.48580849616E+01  0.31893809896E+02  0.51100000000E-03 0.  1.
        -12    1    3    3    0    0 -0.22499687751E+01 -0.78347568640E+01  0.36780941603E+01  0.89428268047E+01  0.00000000000E+00 0.  1.
</event>
<event>
 7    1  0.2442667E-009  0.4778727E+02  0.7816164E-02  0.1312668E+00
        -11   -1    0    0    0    0  0.00000000000E+00  0.00000000000E+00  0.45593999997E+02  0.45594000000E+02  0.51100000000E-03 0.  1.
         11   -1    0    0    0    0 -0.00000000000E+00 -0.00000000000E+00 -0.45593999997E+02  0.45594000000E+02  0.51100000000E-03 0. -1.
    9900012    2    1    2    0    0 -0.34678212117E+02  0.10316579979E+02 -0.23971087194E+02  0.47787271442E+02  0.20000001815E+02 0.  0.
        -12    1    1    2    0    0  0.34678212117E+02 -0.10316579979E+02  0.23971087194E+02  0.43400728558E+02  0.00000000000E+00 0.  1.
         11    1    3    3    0    0 -0.23997926399E+02  0.82726361160E+01 -0.10249900630E+02  0.27375124529E+02  0.51100000000E-03 0. -1.
        -11    1    3    3    0    0 -0.62902314928E+00 -0.26585109314E-01 -0.91604176452E+01  0.91820274769E+01  0.51100000000E-03 0.  1.
        -12    1    3    3    0    0 -0.10051262568E+02  0.20705289718E+01 -0.45607689194E+01  0.11230119437E+02  0.00000000000E+00 0.  1.
</event>
<event>
 7    1  0.2442667E-009  0.4778727E+02  0.7816164E-02  0.1312668E+00
        -11   -1    0    0    0    0  0.00000000000E+00  0.00000000000E+00  0.45593999997E+02  0.45594000000E+02  0.51100000000E-03 0.  1.
         11   -1    0    0    0    0 -0.00000000000E+00 -0.00000000000E+00 -0.45593999997E+02  0.45594000000E+02  0.51100000000E-03 0. -1.
    9900012    2    1    2    0    0 -0.22272315342E+02 -0.21531814260E+02 -0.30396513843E+02  0.47787272934E+02  0.20000008616E+02 0.  0.
        -12    1    1    2    0    0  0.22272315342E+02  0.21531814260E+02  0.30396513843E+02  0.43400727066E+02  0.00000000000E+00 0.  1.
         11    1    3    3    0    0 -0.18979378540E+02 -0.12419365631E+02 -0.18875411884E+02  0.29508280642E+02  0.51100000000E-03 0. -1.
        -11    1    3    3    0    0 -0.36195972994E+01  0.79962538052E+00 -0.10410290095E+01  0.38502762263E+01  0.51100000000E-03 0.  1.
         12    1    3    3    0    0  0.32666049723E+00 -0.99120740100E+01 -0.10480072950E+02  0.14428716066E+02  0.00000000000E+00 0. -1.
</event>
<event>
 7    1  0.2442667E-009  0.4778727E+02  0.7816164E-02  0.1312668E+00
        -11   -1    0    0    0    0  0.00000000000E+00  0.00000000000E+00  0.45593999997E+02  0.45594000000E+02  0.51100000000E-03 0. -1.
         11   -1    0    0    0    0 -0.00000000000E+00 -0.00000000000E+00 -0.45593999997E+02  0.45594000000E+02  0.51100000000E-03 0.  1.
    9900012    2    1    2    0    0  0.15910991148E+02  0.40360560322E+02  0.12201014040E+01  0.47787272861E+02  0.20000008281E+02 0.  0.
        -12    1    1    2    0    0 -0.15910991148E+02 -0.40360560322E+02 -0.12201014040E+01  0.43400727139E+02  0.00000000000E+00 0.  1.
         11    1    3    3    0    0  0.57495521362E+01  0.48130978486E+01 -0.40818990574E+01  0.85372806469E+01  0.51100000000E-03 0. -1.
        -11    1    3    3    0    0  0.23313911334E+01  0.21941970468E+02  0.76994810955E+01  0.23370225973E+02  0.51100000000E-03 0.  1.
        -12    1    3    3    0    0  0.78300478780E+01  0.13605492005E+02 -0.23974806340E+01  0.15879766240E+02  0.00000000000E+00 0.  1.
</event>
<event>
 7    1  0.2442667E-009  0.4778729E+02  0.7816164E-02  0.1312668E+00
        -11   -1    0    0    0    0  0.00000000000E+00  0.00000000000E+00  0.45593999997E+02  0.45594000000E+02  0.51100000000E-03 0. -1.
         11   -1    0    0    0    0 -0.00000000000E+00 -0.00000000000E+00 -0.45593999997E+02  0.45594000000E+02  0.51100000000E-03 0.  1.
    9900012    2    1    2    0    0  0.12653180412E+02  0.41335840484E+02 -0.38558101596E+01  0.47787286238E+02  0.20000069274E+02 0.  0.
        -12    1    1    2    0    0 -0.12653180412E+02 -0.41335840484E+02  0.38558101596E+01  0.43400713762E+02  0.00000000000E+00 0.  1.
         11    1    3    3    0    0  0.31068850224E+01  0.19720182669E+02  0.43407365577E+01  0.20429888231E+02  0.51100000000E-03 0. -1.
        -11    1    3    3    0    0  0.27950992810E+01  0.12035471044E+02 -0.94713113115E+01  0.15568265204E+02  0.51100000000E-03 0.  1.
        -12    1    3    3    0    0  0.67511961085E+01  0.95801867714E+01  0.12747645942E+01  0.11789132803E+02  0.00000000000E+00 0.  1.
</event>
<event>
 7    1  0.2442667E-009  0.4778726E+02  0.7816164E-02  0.1312668E+00
        -11   -1    0    0    0    0  0.00000000000E+00  0.00000000000E+00  0.45593999997E+02  0.45594000000E+02  0.51100000000E-03 0.  1.
         11   -1    0    0    0    0 -0.00000000000E+00 -0.00000000000E+00 -0.45593999997E+02  0.45594000000E+02  0.51100000000E-03 0. -1.
    9900012    2    1    2    0    0  0.42819774266E+02  0.51340125408E+00  0.70588357124E+01  0.47787264860E+02  0.19999971804E+02 0.  0.
        -12    1    1    2    0    0 -0.42819774266E+02 -0.51340125408E+00 -0.70588357124E+01  0.43400735140E+02  0.00000000000E+00 0.  1.
         11    1    3    3    0    0  0.24712707241E+02  0.14066057422E+01 -0.63759607595E+00  0.24760916136E+02  0.51100000000E-03 0. -1.
        -11    1    3    3    0    0  0.73133869232E+01 -0.51292591414E+01  0.71089659427E+01  0.11416318350E+02  0.51100000000E-03 0.  1.
        -12    1    3    3    0    0  0.10793680102E+02  0.42360546532E+01  0.58746584565E+00  0.11610030374E+02  0.00000000000E+00 0.  1.
</event>
<event>
 7    1  0.2442667E-009  0.4778727E+02  0.7816164E-02  0.1312668E+00
        -11   -1    0    0    0    0  0.00000000000E+00  0.00000000000E+00  0.45593999997E+02  0.45594000000E+02  0.51100000000E-03 0. -1.
         11   -1    0    0    0    0 -0.00000000000E+00 -0.00000000000E+00 -0.45593999997E+02  0.45594000000E+02  0.51100000000E-03 0.  1.
    9900012    2    1    2    0    0  0.87959466631E+00  0.22552254403E+02  0.37070819164E+02  0.47787268451E+02  0.19999988177E+02 0.  0.
        -12    1    1    2    0    0 -0.87959466631E+00 -0.22552254403E+02 -0.37070819164E+02  0.43400731549E+02  0.00000000000E+00 0.  1.
         11    1    3    3    0    0 -0.46574283923E+01  0.82414821387E+01  0.80871098589E+01  0.12450502528E+02  0.51100000000E-03 0. -1.
        -11    1    3    3    0    0  0.92086015113E+01  0.12649868294E+02  0.19283852637E+02  0.24833132755E+02  0.51100000000E-03 0.  1.
        -12    1    3    3    0    0 -0.36715784527E+01  0.16609039703E+01  0.96998566685E+01  0.10503633168E+02  0.00000000000E+00 0.  1.
</event>
<event>
 7    1  0.2442667E-009  0.4778727E+02  0.7816164E-02  0.1312668E+00
        -11   -1    0    0    0    0  0.00000000000E+00  0.00000000000E+00  0.45593999997E+02  0.45594000000E+02  0.51100000000E-03 0. -1.
         11   -1    0    0    0    0 -0.00000000000E+00 -0.00000000000E+00 -0.45593999997E+02  0.45594000000E+02  0.51100000000E-03 0.  1.
    9900012    2    1    2    0    0 -0.36993265299E+02 -0.37423068917E+01  0.22385643393E+02  0.47787267651E+02  0.19999984526E+02 0.  0.
        -12    1    1    2    0    0  0.36993265299E+02  0.37423068917E+01 -0.22385643393E+02  0.43400732349E+02  0.00000000000E+00 0.  1.
         11    1    3    3    0    0 -0.20759697654E+02  0.72543906208E+01  0.88623296288E+01  0.23709325522E+02  0.51100000000E-03 0. -1.
        -11    1    3    3    0    0 -0.83794816355E+01 -0.47503237533E+01  0.85429652102E+01  0.12874919149E+02  0.51100000000E-03 0.  1.
         12    1    3    3    0    0 -0.78540860093E+01 -0.62463737592E+01  0.49803485535E+01  0.11203022980E+02  0.00000000000E+00 0. -1.
</event>
<event>
 7    1  0.2442667E-009  0.4778728E+02  0.7816164E-02  0.1312668E+00
        -11   -1    0    0    0    0  0.00000000000E+00  0.00000000000E+00  0.45593999997E+02  0.45594000000E+02  0.51100000000E-03 0.  1.
         11   -1    0    0    0    0 -0.00000000000E+00 -0.00000000000E+00 -0.45593999997E+02  0.45594000000E+02  0.51100000000E-03 0. -1.
    9900012    2    1    2    0    0 -0.33508971768E+02 -0.34591927559E+01 -0.27364312863E+02  0.47787276251E+02  0.20000023738E+02 0.  0.
        -12    1    1    2    0    0  0.33508971768E+02  0.34591927559E+01  0.27364312863E+02  0.43400723749E+02  0.00000000000E+00 0.  1.
         11    1    3    3    0    0 -0.24862606639E+02 -0.24757838063E+01 -0.80611612608E+01  0.26253781355E+02  0.51100000000E-03 0.  1.
        -11    1    3    3    0    0 -0.25864896093E+01 -0.91835983480E+00 -0.26634164231E+01  0.38245392650E+01  0.51100000000E-03 0. -1.
         12    1    3    3    0    0 -0.60598755206E+01 -0.65049114847E-01 -0.16639735179E+02  0.17708955631E+02  0.00000000000E+00 0. -1.
</event>
<event>
 7    1  0.2442667E-009  0.4778727E+02  0.7816164E-02  0.1312668E+00
        -11   -1    0    0    0    0  0.00000000000E+00  0.00000000000E+00  0.45593999997E+02  0.45594000000E+02  0.51100000000E-03 0.  1.
         11   -1    0    0    0    0 -0.00000000000E+00 -0.00000000000E+00 -0.45593999997E+02  0.45594000000E+02  0.51100000000E-03 0. -1.
    9900012    2    1    2    0    0 -0.50275323083E+01  0.41790036742E+02  0.10580168666E+02  0.47787271654E+02  0.20000002777E+02 0.  0.
        -12    1    1    2    0    0  0.50275323083E+01 -0.41790036742E+02 -0.10580168666E+02  0.43400728346E+02  0.00000000000E+00 0.  1.
         11    1    3    3    0    0 -0.34914211817E+01  0.22640863154E+02 -0.23369772709E+01  0.23027378689E+02  0.51100000000E-03 0. -1.
        -11    1    3    3    0    0 -0.29316541388E+01  0.19368177763E+02  0.11306922106E+02  0.22617855638E+02  0.51100000000E-03 0.  1.
         12    1    3    3    0    0  0.13955430121E+01 -0.21900417582E+00  0.16102238302E+01  0.21420373272E+01  0.00000000000E+00 0. -1.
</event>
<event>
 7    1  0.2442667E-009  0.4778728E+02  0.7816164E-02  0.1312668E+00
        -11   -1    0    0    0    0  0.00000000000E+00  0.00000000000E+00  0.45593999997E+02  0.45594000000E+02  0.51100000000E-03 0. -1.
         11   -1    0    0    0    0 -0.00000000000E+00 -0.00000000000E+00 -0.45593999997E+02  0.45594000000E+02  0.51100000000E-03 0.  1.
    9900012    2    1    2    0    0  0.29592422707E+02 -0.31584555185E+02 -0.32135203706E+01  0.47787282021E+02  0.20000050048E+02 0.  0.
        -12    1    1    2    0    0 -0.29592422707E+02  0.31584555185E+02  0.32135203706E+01  0.43400717979E+02  0.00000000000E+00 0.  1.
         11    1    3    3    0    0  0.33136878506E+01 -0.29105844243E+01 -0.65442336038E+01  0.78917059363E+01  0.51100000000E-03 0. -1.
        -11    1    3    3    0    0  0.51076789469E+01 -0.16031414653E+01  0.10364497942E+01  0.54527676660E+01  0.51100000000E-03 0.  1.
         12    1    3    3    0    0  0.21171055909E+02 -0.27070829295E+02  0.22942634390E+01  0.34442808419E+02  0.00000000000E+00 0. -1.
</event>
<event>
 7    1  0.2442667E-009  0.4778727E+02  0.7816164E-02  0.1312668E+00
        -11   -1    0    0    0    0  0.00000000000E+00  0.00000000000E+00  0.45593999997E+02  0.45594000000E+02  0.51100000000E-03 0.  1.
         11   -1    0    0    0    0 -0.00000000000E+00 -0.00000000000E+00 -0.45593999997E+02  0.45594000000E+02  0.51100000000E-03 0. -1.
    9900012    2    1    2    0    0 -0.19592382493E+01  0.19489779486E+02 -0.38728968182E+02  0.47787273101E+02  0.20000009377E+02 0.  0.
        -12    1    1    2    0    0  0.19592382493E+01 -0.19489779486E+02  0.38728968182E+02  0.43400726899E+02  0.00000000000E+00 0.  1.
         11    1    3    3    0    0 -0.13751498175E+01  0.18914908038E+01 -0.86168940280E+01  0.89285854105E+01  0.51100000000E-03 0. -1.
        -11    1    3    3    0    0 -0.58992963600E+01  0.18207334222E+02 -0.22252165854E+02  0.29350768345E+02  0.51100000000E-03 0.  1.
        -12    1    3    3    0    0  0.53152079282E+01 -0.60904554003E+00 -0.78599083002E+01  0.95079193453E+01  0.00000000000E+00 0.  1.
</event>
<event>
 7    1  0.2442667E-009  0.4778727E+02  0.7816164E-02  0.1312668E+00
        -11   -1    0    0    0    0  0.00000000000E+00  0.00000000000E+00  0.45593999997E+02  0.45594000000E+02  0.51100000000E-03 0. -1.
         11   -1    0    0    0    0 -0.00000000000E+00 -0.00000000000E+00 -0.45593999997E+02  0.45594000000E+02  0.51100000000E-03 0.  1.
    9900012    2    1    2    0    0  0.22575227228E+02 -0.34638414003E+02  0.13197064787E+02  0.47787272724E+02  0.20000007660E+02 0.  0.
        -12    1    1    2    0    0 -0.22575227228E+02  0.34638414003E+02 -0.13197064787E+02  0.43400727276E+02  0.00000000000E+00 0.  1.
         11    1    3    3    0    0  0.66100888428E+01 -0.18547671223E+02  0.33078871127E+01  0.19966259032E+02  0.51100000000E-03 0. -1.
        -11    1    3    3    0    0  0.14905708643E+02 -0.72419822306E+01  0.90177920263E+01  0.18866558512E+02  0.51100000000E-03 0.  1.
        -12    1    3    3    0    0  0.10594297419E+01 -0.88487605491E+01  0.87138564804E+00  0.89544551806E+01  0.00000000000E+00 0.  1.
</event>
<event>
 7    1  0.2442667E-009  0.4778727E+02  0.7816164E-02  0.1312668E+00
        -11   -1    0    0    0    0  0.00000000000E+00  0.00000000000E+00  0.45593999997E+02  0.45594000000E+02  0.51100000000E-03 0.  1.
         11   -1    0    0    0    0 -0.00000000000E+00 -0.00000000000E+00 -0.45593999997E+02  0.45594000000E+02  0.51100000000E-03 0. -1.
    9900012    2    1    2    0    0 -0.11242672471E+02 -0.33324123581E+02 -0.25430855253E+02  0.47787270794E+02  0.19999998856E+02 0.  0.
        -12    1    1    2    0    0  0.11242672471E+02  0.33324123581E+02  0.25430855253E+02  0.43400729206E+02  0.00000000000E+00 0.  1.
         11    1    3    3    0    0 -0.11436454326E+02 -0.22426298882E+02 -0.21446227968E+02  0.33070713077E+02  0.51100000000E-03 0. -1.
        -11    1    3    3    0    0  0.16585499493E+01  0.81633669667E+00  0.75295612034E+00  0.19960302395E+01  0.51100000000E-03 0.  1.
         12    1    3    3    0    0 -0.14647680952E+01 -0.11714161396E+02 -0.47375834049E+01  0.12720527477E+02  0.00000000000E+00 0. -1.
</event>
<event>
 7    1  0.2442667E-009  0.4778727E+02  0.7816164E-02  0.1312668E+00
        -11   -1    0    0    0    0  0.00000000000E+00  0.00000000000E+00  0.45593999997E+02  0.45594000000E+02  0.51100000000E-03 0. -1.
         11   -1    0    0    0    0 -0.00000000000E+00 -0.00000000000E+00 -0.45593999997E+02  0.45594000000E+02  0.51100000000E-03 0.  1.
    9900012    2    1    2    0    0  0.27323919701E+01 -0.79073145560E+01  0.42586753871E+02  0.47787271958E+02  0.20000004163E+02 0.  0.
        -12    1    1    2    0    0 -0.27323919701E+01  0.79073145560E+01 -0.42586753871E+02  0.43400728042E+02  0.00000000000E+00 0.  1.
         11    1    3    3    0    0 -0.41942794767E+01  0.20212736997E+01  0.32423788152E+01  0.56736715044E+01  0.51100000000E-03 0. -1.
        -11    1    3    3    0    0  0.35361081852E+01 -0.25020693336E+01  0.42005118745E+01  0.60339632346E+01  0.51100000000E-03 0.  1.
         12    1    3    3    0    0  0.33905632616E+01 -0.74265189220E+01  0.35143863181E+02  0.36079637219E+02  0.00000000000E+00 0. -1.
</event>
<event>
 7    1  0.2442667E-009  0.4778726E+02  0.7816164E-02  0.1312668E+00
        -11   -1    0    0    0    0  0.00000000000E+00  0.00000000000E+00  0.45593999997E+02  0.45594000000E+02  0.51100000000E-03 0.  1.
         11   -1    0    0    0    0 -0.00000000000E+00 -0.00000000000E+00 -0.45593999997E+02  0.45594000000E+02  0.51100000000E-03 0. -1.
    9900012    2    1    2    0    0 -0.16111155901E+02  0.15605040596E+02 -0.37155580754E+02  0.47787264780E+02  0.19999971439E+02 0.  0.
        -12    1    1    2    0    0  0.16111155901E+02 -0.15605040596E+02  0.37155580754E+02  0.43400735220E+02  0.00000000000E+00 0.  1.
         11    1    3    3    0    0 -0.10039489345E+02  0.14074608731E+02 -0.30977199836E+02  0.35474961130E+02  0.51100000000E-03 0. -1.
        -11    1    3    3    0    0 -0.16790310156E+01 -0.34572033147E+01 -0.33151964585E+01  0.50756209206E+01  0.51100000000E-03 0.  1.
         12    1    3    3    0    0 -0.43926355405E+01  0.49876351798E+01 -0.28631844592E+01  0.72366827294E+01  0.00000000000E+00 0. -1.
</event>
<event>
 7    1  0.2442667E-009  0.4778727E+02  0.7816164E-02  0.1312668E+00
        -11   -1    0    0    0    0  0.00000000000E+00  0.00000000000E+00  0.45593999997E+02  0.45594000000E+02  0.51100000000E-03 0.  1.
         11   -1    0    0    0    0 -0.00000000000E+00 -0.00000000000E+00 -0.45593999997E+02  0.45594000000E+02  0.51100000000E-03 0. -1.
    9900012    2    1    2    0    0 -0.20794683281E+02 -0.10477508239E+02 -0.36625483277E+02  0.47787273544E+02  0.20000011396E+02 0.  0.
        -12    1    1    2    0    0  0.20794683281E+02  0.10477508239E+02  0.36625483277E+02  0.43400726456E+02  0.00000000000E+00 0.  1.
         11    1    3    3    0    0 -0.10261899411E+02 -0.40187478983E+01 -0.20632579199E+02  0.23391456536E+02  0.51100000000E-03 0. -1.
        -11    1    3    3    0    0 -0.41208835115E+01 -0.98682329749E+01 -0.67693682558E+01  0.12656541779E+02  0.51100000000E-03 0.  1.
        -12    1    3    3    0    0 -0.64119003584E+01  0.34094726339E+01 -0.92235358221E+01  0.11739275229E+02  0.00000000000E+00 0.  1.
</event>
<event>
 7    1  0.2442667E-009  0.4778728E+02  0.7816164E-02  0.1312668E+00
        -11   -1    0    0    0    0  0.00000000000E+00  0.00000000000E+00  0.45593999997E+02  0.45594000000E+02  0.51100000000E-03 0.  1.
         11   -1    0    0    0    0 -0.00000000000E+00 -0.00000000000E+00 -0.45593999997E+02  0.45594000000E+02  0.51100000000E-03 0. -1.
    9900012    2    1    2    0    0 -0.69832742816E+01  0.28445474279E+02 -0.32026725809E+02  0.47787282348E+02  0.20000051538E+02 0.  0.
        -12    1    1    2    0    0  0.69832742816E+01 -0.28445474279E+02  0.32026725809E+02  0.43400717652E+02  0.00000000000E+00 0.  1.
         11    1    3    3    0    0 -0.67271510001E+01  0.15594789398E+02 -0.12675778678E+02  0.21192625658E+02  0.51100000000E-03 0. -1.
        -11    1    3    3    0    0  0.76768209277E+00  0.54626818699E+01 -0.18237353204E+02  0.19053379784E+02  0.51100000000E-03 0.  1.
        -12    1    3    3    0    0 -0.10238053743E+01  0.73880030115E+01 -0.11135939265E+01  0.75412769062E+01  0.00000000000E+00 0.  1.
</event>
<event>
 7    1  0.2442667E-009  0.4778729E+02  0.7816164E-02  0.1312668E+00
        -11   -1    0    0    0    0  0.00000000000E+00  0.00000000000E+00  0.45593999997E+02  0.45594000000E+02  0.51100000000E-03 0. -1.
         11   -1    0    0    0    0 -0.00000000000E+00 -0.00000000000E+00 -0.45593999997E+02  0.45594000000E+02  0.51100000000E-03 0.  1.
    9900012    2    1    2    0    0  0.23315194998E+01  0.36167538005E+02  0.23876663690E+02  0.47787287362E+02  0.20000074398E+02 0.  0.
        -12    1    1    2    0    0 -0.23315194998E+01 -0.36167538005E+02 -0.23876663690E+02  0.43400712638E+02  0.00000000000E+00 0.  1.
         11    1    3    3    0    0  0.30030624523E-01  0.18959065557E+01  0.69395240088E+01  0.71939111224E+01  0.51100000000E-03 0. -1.
        -11    1    3    3    0    0 -0.30296390179E+01  0.20550755359E+02  0.43456700600E+01  0.21222561271E+02  0.51100000000E-03 0.  1.
        -12    1    3    3    0    0  0.53311278932E+01  0.13720876090E+02  0.12591469621E+02  0.19370814968E+02  0.00000000000E+00 0.  1.
</event>
<event>
 7    1  0.2442667E-009  0.4778727E+02  0.7816164E-02  0.1312668E+00
        -11   -1    0    0    0    0  0.00000000000E+00  0.00000000000E+00  0.45593999997E+02  0.45594000000E+02  0.51100000000E-03 0.  1.
         11   -1    0    0    0    0 -0.00000000000E+00 -0.00000000000E+00 -0.45593999997E+02  0.45594000000E+02  0.51100000000E-03 0. -1.
    9900012    2    1    2    0    0 -0.76712053502E+01  0.30047083983E+02 -0.30363607009E+02  0.47787270996E+02  0.19999999780E+02 0.  0.
        -12    1    1    2    0    0  0.76712053502E+01 -0.30047083983E+02  0.30363607009E+02  0.43400729004E+02  0.00000000000E+00 0.  1.
         11    1    3    3    0    0 -0.78884674470E-01  0.19803337203E+02 -0.17472866833E+02  0.26409836478E+02  0.51100000000E-03 0. -1.
        -11    1    3    3    0    0 -0.29545992957E+01 -0.22568036672E+01 -0.26601373211E+01  0.45715588828E+01  0.51100000000E-03 0.  1.
         12    1    3    3    0    0 -0.46377213800E+01  0.12500550447E+02 -0.10230602855E+02  0.16805875635E+02  0.00000000000E+00 0. -1.
</event>
<event>
 7    1  0.2442667E-009  0.4778726E+02  0.7816164E-02  0.1312668E+00
        -11   -1    0    0    0    0  0.00000000000E+00  0.00000000000E+00  0.45593999997E+02  0.45594000000E+02  0.51100000000E-03 0.  1.
         11   -1    0    0    0    0 -0.00000000000E+00 -0.00000000000E+00 -0.45593999997E+02  0.45594000000E+02  0.51100000000E-03 0. -1.
    9900012    2    1    2    0    0  0.22678072197E+02  0.22943785429E+02 -0.29032951347E+02  0.47787256777E+02  0.19999934949E+02 0.  0.
        -12    1    1    2    0    0 -0.22678072197E+02 -0.22943785429E+02  0.29032951347E+02  0.43400743223E+02  0.00000000000E+00 0.  1.
         11    1    3    3    0    0  0.67885215529E+01  0.28860420368E+01 -0.12351042758E+02  0.14386157269E+02  0.51100000000E-03 0. -1.
        -11    1    3    3    0    0 -0.88825460896E+00  0.55240168442E+01  0.64314304589E-01  0.55953458281E+01  0.51100000000E-03 0.  1.
        -12    1    3    3    0    0  0.16777805253E+02  0.14533726548E+02 -0.16746222894E+02  0.27805753680E+02  0.00000000000E+00 0.  1.
</event>
<event>
 7    1  0.2442667E-009  0.4778727E+02  0.7816164E-02  0.1312668E+00
        -11   -1    0    0    0    0  0.00000000000E+00  0.00000000000E+00  0.45593999997E+02  0.45594000000E+02  0.51100000000E-03 0.  1.
         11   -1    0    0    0    0 -0.00000000000E+00 -0.00000000000E+00 -0.45593999997E+02  0.45594000000E+02  0.51100000000E-03 0. -1.
    9900012    2    1    2    0    0 -0.18855715257E+02 -0.37840758083E+02 -0.98062444599E+01  0.47787269585E+02  0.19999993346E+02 0.  0.
        -12    1    1    2    0    0  0.18855715257E+02  0.37840758083E+02  0.98062444599E+01  0.43400730415E+02  0.00000000000E+00 0.  1.
         11    1    3    3    0    0 -0.38001273114E+01 -0.20056963291E+02  0.10659794579E+01  0.20441601123E+02  0.51100000000E-03 0. -1.
        -11    1    3    3    0    0 -0.91176299154E+01 -0.41831062198E+01 -0.61748427721E+01  0.11779568602E+02  0.51100000000E-03 0.  1.
         12    1    3    3    0    0 -0.59379580306E+01 -0.13600688573E+02 -0.46973811457E+01  0.15566099860E+02  0.00000000000E+00 0. -1.
</event>
<event>
 7    1  0.2442667E-009  0.4778727E+02  0.7816164E-02  0.1312668E+00
        -11   -1    0    0    0    0  0.00000000000E+00  0.00000000000E+00  0.45593999997E+02  0.45594000000E+02  0.51100000000E-03 0.  1.
         11   -1    0    0    0    0 -0.00000000000E+00 -0.00000000000E+00 -0.45593999997E+02  0.45594000000E+02  0.51100000000E-03 0. -1.
    9900012    2    1    2    0    0  0.23600517628E+02  0.35765087333E+02 -0.68918273584E+01  0.47787272027E+02  0.20000004479E+02 0.  0.
        -12    1    1    2    0    0 -0.23600517628E+02 -0.35765087333E+02  0.68918273584E+01  0.43400727973E+02  0.00000000000E+00 0.  1.
         11    1    3    3    0    0 -0.24632740471E+01  0.46431566414E+01 -0.43493525353E+01  0.68222789715E+01  0.51100000000E-03 0. -1.
        -11    1    3    3    0    0  0.16844143202E+02  0.16831837577E+02 -0.32360885015E+00  0.23814714765E+02  0.51100000000E-03 0.  1.
         12    1    3    3    0    0  0.92196484736E+01  0.14290093115E+02 -0.22188659729E+01  0.17150278290E+02  0.00000000000E+00 0. -1.
</event>
<event>
 7    1  0.2442667E-009  0.4778725E+02  0.7816164E-02  0.1312668E+00
        -11   -1    0    0    0    0  0.00000000000E+00  0.00000000000E+00  0.45593999997E+02  0.45594000000E+02  0.51100000000E-03 0.  1.
         11   -1    0    0    0    0 -0.00000000000E+00 -0.00000000000E+00 -0.45593999997E+02  0.45594000000E+02  0.51100000000E-03 0. -1.
    9900012    2    1    2    0    0 -0.18698732873E+02 -0.27650092237E+02 -0.27739046000E+02  0.47787252486E+02  0.19999915386E+02 0.  0.
        -12    1    1    2    0    0  0.18698732873E+02  0.27650092237E+02  0.27739046000E+02  0.43400747514E+02  0.00000000000E+00 0.  1.
         11    1    3    3    0    0 -0.13000293158E+02 -0.19171729164E+02 -0.26909424787E+02  0.35506055314E+02  0.51100000000E-03 0. -1.
        -11    1    3    3    0    0 -0.32387013728E+01  0.17158355229E+00  0.65278619107E-01  0.32439002846E+01  0.51100000000E-03 0.  1.
         12    1    3    3    0    0 -0.24597383419E+01 -0.86499466252E+01 -0.89489983224E+00  0.90372968878E+01  0.00000000000E+00 0. -1.
</event>
<event>
 7    1  0.2442667E-009  0.4778727E+02  0.7816164E-02  0.1312668E+00
        -11   -1    0    0    0    0  0.00000000000E+00  0.00000000000E+00  0.45593999997E+02  0.45594000000E+02  0.51100000000E-03 0.  1.
         11   -1    0    0    0    0 -0.00000000000E+00 -0.00000000000E+00 -0.45593999997E+02  0.45594000000E+02  0.51100000000E-03 0. -1.
    9900012    2    1    2    0    0  0.33476868817E+02  0.20240778259E+02 -0.18794502186E+02  0.47787272325E+02  0.20000005839E+02 0.  0.
        -12    1    1    2    0    0 -0.33476868817E+02 -0.20240778259E+02  0.18794502186E+02  0.43400727675E+02  0.00000000000E+00 0.  1.
         11    1    3    3    0    0  0.19152855522E+02  0.19549503971E+02 -0.16013920015E+02  0.31708998954E+02  0.51100000000E-03 0. -1.
        -11    1    3    3    0    0  0.15054927164E+02  0.44727641772E+00 -0.27212592873E+01  0.15305428464E+02  0.51100000000E-03 0.  1.
        -12    1    3    3    0    0 -0.73091386955E+00  0.24399786977E+00 -0.59322884499E-01  0.77284490668E+00  0.00000000000E+00 0.  1.
</event>
<event>
 7    1  0.2442667E-009  0.4778727E+02  0.7816164E-02  0.1312668E+00
        -11   -1    0    0    0    0  0.00000000000E+00  0.00000000000E+00  0.45593999997E+02  0.45594000000E+02  0.51100000000E-03 0.  1.
         11   -1    0    0    0    0 -0.00000000000E+00 -0.00000000000E+00 -0.45593999997E+02  0.45594000000E+02  0.51100000000E-03 0. -1.
    9900012    2    1    2    0    0  0.13703383682E+02 -0.31737981570E+02 -0.26240067556E+02  0.47787270239E+02  0.19999996327E+02 0.  0.
        -12    1    1    2    0    0 -0.13703383682E+02  0.31737981570E+02  0.26240067556E+02  0.43400729761E+02  0.00000000000E+00 0.  1.
         11    1    3    3    0    0  0.81562804910E+01 -0.20548839796E+02 -0.24862265183E+02  0.33270286423E+02  0.51100000000E-03 0. -1.
        -11    1    3    3    0    0  0.40311415787E+01 -0.11874258663E+02 -0.20801307169E+01  0.12711218088E+02  0.51100000000E-03 0.  1.
        -12    1    3    3    0    0  0.15159616122E+01  0.68511688874E+00  0.70232834392E+00  0.18057657278E+01  0.00000000000E+00 0.  1.
</event>
<event>
 7    1  0.2442667E-009  0.4778727E+02  0.7816164E-02  0.1312668E+00
        -11   -1    0    0    0    0  0.00000000000E+00  0.00000000000E+00  0.45593999997E+02  0.45594000000E+02  0.51100000000E-03 0.  1.
         11   -1    0    0    0    0 -0.00000000000E+00 -0.00000000000E+00 -0.45593999997E+02  0.45594000000E+02  0.51100000000E-03 0. -1.
    9900012    2    1    2    0    0  0.13034782753E+02  0.78927962760E+01 -0.40637684466E+02  0.47787271973E+02  0.20000004234E+02 0.  0.
        -12    1    1    2    0    0 -0.13034782753E+02 -0.78927962760E+01  0.40637684466E+02  0.43400728027E+02  0.00000000000E+00 0.  1.
         11    1    3    3    0    0 -0.13109561148E+01  0.70166623454E+01 -0.18766868523E+02  0.20078533583E+02  0.51100000000E-03 0. -1.
        -11    1    3    3    0    0  0.11399500170E+02 -0.26856693831E+01 -0.11787788447E+02  0.16616659739E+02  0.51100000000E-03 0.  1.
        -12    1    3    3    0    0  0.29462386976E+01  0.35618033137E+01 -0.10083027496E+02  0.11092078651E+02  0.00000000000E+00 0.  1.
</event>
<event>
 7    1  0.2442667E-009  0.4778727E+02  0.7816164E-02  0.1312668E+00
        -11   -1    0    0    0    0  0.00000000000E+00  0.00000000000E+00  0.45593999997E+02  0.45594000000E+02  0.51100000000E-03 0.  1.
         11   -1    0    0    0    0 -0.00000000000E+00 -0.00000000000E+00 -0.45593999997E+02  0.45594000000E+02  0.51100000000E-03 0. -1.
    9900012    2    1    2    0    0  0.39964710528E+02 -0.19735644274E+01 -0.16809221219E+02  0.47787274636E+02  0.20000016377E+02 0.  0.
        -12    1    1    2    0    0 -0.39964710528E+02  0.19735644274E+01  0.16809221219E+02  0.43400725364E+02  0.00000000000E+00 0.  1.
         11    1    3    3    0    0  0.32875349698E+01  0.11679891889E+01 -0.88745377093E+00  0.35999526913E+01  0.51100000000E-03 0. -1.
        -11    1    3    3    0    0  0.34140316941E+02  0.23294224374E+01 -0.16751694957E+02  0.38099957138E+02  0.51100000000E-03 0.  1.
        -12    1    3    3    0    0  0.25368586167E+01 -0.54709760537E+01  0.82992750894E+00  0.60873648068E+01  0.00000000000E+00 0.  1.
</event>
<event>
 7    1  0.2442667E-009  0.4778727E+02  0.7816164E-02  0.1312668E+00
        -11   -1    0    0    0    0  0.00000000000E+00  0.00000000000E+00  0.45593999997E+02  0.45594000000E+02  0.51100000000E-03 0.  1.
         11   -1    0    0    0    0 -0.00000000000E+00 -0.00000000000E+00 -0.45593999997E+02  0.45594000000E+02  0.51100000000E-03 0. -1.
    9900012    2    1    2    0    0 -0.26250572100E+02 -0.24100620188E+02 -0.24772787997E+02  0.47787268968E+02  0.19999990532E+02 0.  0.
        -12    1    1    2    0    0  0.26250572100E+02  0.24100620188E+02  0.24772787997E+02  0.43400731032E+02  0.00000000000E+00 0.  1.
         11    1    3    3    0    0 -0.12246858052E+02 -0.11255672975E+02 -0.40193649842E+01  0.17112305555E+02  0.51100000000E-03 0. -1.
        -11    1    3    3    0    0 -0.38892420652E+01 -0.16543425267E+01 -0.13090666316E+02  0.13756038598E+02  0.51100000000E-03 0.  1.
        -12    1    3    3    0    0 -0.10114471983E+02 -0.11190604686E+02 -0.76627566962E+01  0.16918924815E+02  0.00000000000E+00 0.  1.
</event>
<event>
 7    1  0.2442667E-009  0.4778727E+02  0.7816164E-02  0.1312668E+00
        -11   -1    0    0    0    0  0.00000000000E+00  0.00000000000E+00  0.45593999997E+02  0.45594000000E+02  0.51100000000E-03 0.  1.
         11   -1    0    0    0    0 -0.00000000000E+00 -0.00000000000E+00 -0.45593999997E+02  0.45594000000E+02  0.51100000000E-03 0. -1.
    9900012    2    1    2    0    0 -0.21119306229E+02  0.36022466369E+02  0.11831331160E+02  0.47787267565E+02  0.19999984135E+02 0.  0.
        -12    1    1    2    0    0  0.21119306229E+02 -0.36022466369E+02 -0.11831331160E+02  0.43400732435E+02  0.00000000000E+00 0.  1.
         11    1    3    3    0    0 -0.25788335302E+01  0.67260995794E+01 -0.47805605885E+01  0.86454934925E+01  0.51100000000E-03 0. -1.
        -11    1    3    3    0    0 -0.14239728619E+02  0.21773073747E+02  0.87699031195E+01  0.27454467988E+02  0.51100000000E-03 0.  1.
        -12    1    3    3    0    0 -0.43007440793E+01  0.75232930429E+01  0.78419886292E+01  0.11687306084E+02  0.00000000000E+00 0.  1.
</event>
<event>
 7    1  0.2442667E-009  0.4778727E+02  0.7816164E-02  0.1312668E+00
        -11   -1    0    0    0    0  0.00000000000E+00  0.00000000000E+00  0.45593999997E+02  0.45594000000E+02  0.51100000000E-03 0. -1.
         11   -1    0    0    0    0 -0.00000000000E+00 -0.00000000000E+00 -0.45593999997E+02  0.45594000000E+02  0.51100000000E-03 0.  1.
    9900012    2    1    2    0    0 -0.32634979220E+02 -0.22757037976E+02  0.17340663709E+02  0.47787271158E+02  0.20000000519E+02 0.  0.
        -12    1    1    2    0    0  0.32634979220E+02  0.22757037976E+02 -0.17340663709E+02  0.43400728842E+02  0.00000000000E+00 0.  1.
         11    1    3    3    0    0 -0.17479615336E+02 -0.48765203293E+01  0.13703533513E+02  0.22739925985E+02  0.51100000000E-03 0. -1.
        -11    1    3    3    0    0 -0.14403511654E+02 -0.14000730093E+02  0.65685127352E+00  0.20097588039E+02  0.51100000000E-03 0.  1.
         12    1    3    3    0    0 -0.75185223005E+00 -0.38797875535E+01  0.29802789220E+01  0.49497571343E+01  0.00000000000E+00 0. -1.
</event>
<event>
 7    1  0.2442667E-009  0.4778727E+02  0.7816164E-02  0.1312668E+00
        -11   -1    0    0    0    0  0.00000000000E+00  0.00000000000E+00  0.45593999997E+02  0.45594000000E+02  0.51100000000E-03 0. -1.
         11   -1    0    0    0    0 -0.00000000000E+00 -0.00000000000E+00 -0.45593999997E+02  0.45594000000E+02  0.51100000000E-03 0.  1.
    9900012    2    1    2    0    0 -0.15107279357E+02  0.69454681711E+01  0.40089325446E+02  0.47787269218E+02  0.19999991673E+02 0.  0.
        -12    1    1    2    0    0  0.15107279357E+02 -0.69454681711E+01 -0.40089325446E+02  0.43400730782E+02  0.00000000000E+00 0.  1.
         11    1    3    3    0    0  0.19730650256E+00  0.36420125483E+00  0.47725109217E+00  0.63193455047E+00  0.51100000000E-03 0. -1.
        -11    1    3    3    0    0 -0.81017061458E+01  0.12968565037E+02  0.29286023779E+02  0.33037743728E+02  0.51100000000E-03 0.  1.
        -12    1    3    3    0    0 -0.72028797141E+01 -0.63872981211E+01  0.10326050575E+02  0.14117590940E+02  0.00000000000E+00 0.  1.
</event>
<event>
 7    1  0.2442667E-009  0.4778727E+02  0.7816164E-02  0.1312668E+00
        -11   -1    0    0    0    0  0.00000000000E+00  0.00000000000E+00  0.45593999997E+02  0.45594000000E+02  0.51100000000E-03 0.  1.
         11   -1    0    0    0    0 -0.00000000000E+00 -0.00000000000E+00 -0.45593999997E+02  0.45594000000E+02  0.51100000000E-03 0. -1.
    9900012    2    1    2    0    0 -0.16989226139E+02  0.29828726637E+02 -0.26556287634E+02  0.47787272466E+02  0.20000006481E+02 0.  0.
        -12    1    1    2    0    0  0.16989226139E+02 -0.29828726637E+02  0.26556287634E+02  0.43400727534E+02  0.00000000000E+00 0.  1.
         11    1    3    3    0    0 -0.13984491932E+02  0.11411580284E+02 -0.14248357505E+02  0.22995779418E+02  0.51100000000E-03 0. -1.
        -11    1    3    3    0    0  0.30064322500E+01  0.10084608336E+02 -0.94081305659E+01  0.14115625426E+02  0.51100000000E-03 0.  1.
        -12    1    3    3    0    0 -0.60111664572E+01  0.83325380167E+01 -0.28997995632E+01  0.10675867622E+02  0.00000000000E+00 0.  1.
</event>
<event>
 7    1  0.2442667E-009  0.4778731E+02  0.7816164E-02  0.1312668E+00
        -11   -1    0    0    0    0  0.00000000000E+00  0.00000000000E+00  0.45593999997E+02  0.45594000000E+02  0.51100000000E-03 0.  1.
         11   -1    0    0    0    0 -0.00000000000E+00 -0.00000000000E+00 -0.45593999997E+02  0.45594000000E+02  0.51100000000E-03 0. -1.
    9900012    2    1    2    0    0 -0.86094077543E+01 -0.34957548185E+02 -0.24237727133E+02  0.47787314595E+02  0.20000198566E+02 0.  0.
        -12    1    1    2    0    0  0.86094077543E+01  0.34957548185E+02  0.24237727133E+02  0.43400685405E+02  0.00000000000E+00 0.  1.
         11    1    3    3    0    0 -0.13022247104E+02 -0.18839993503E+02 -0.79535579409E+01  0.24244243833E+02  0.51100000000E-03 0. -1.
        -11    1    3    3    0    0  0.46041474707E+01 -0.12358661964E+02 -0.11884820735E+02  0.17753412732E+02  0.51100000000E-03 0.  1.
         12    1    3    3    0    0 -0.19130812069E+00 -0.37588927179E+01 -0.43993484571E+01  0.57896580304E+01  0.00000000000E+00 0. -1.
</event>
<event>
 7    1  0.2442667E-009  0.4778729E+02  0.7816164E-02  0.1312668E+00
        -11   -1    0    0    0    0  0.00000000000E+00  0.00000000000E+00  0.45593999997E+02  0.45594000000E+02  0.51100000000E-03 0.  1.
         11   -1    0    0    0    0 -0.00000000000E+00 -0.00000000000E+00 -0.45593999997E+02  0.45594000000E+02  0.51100000000E-03 0. -1.
    9900012    2    1    2    0    0 -0.21795369330E+02 -0.97178373893E+01 -0.36251165288E+02  0.47787291797E+02  0.20000094620E+02 0.  0.
        -12    1    1    2    0    0  0.21795369330E+02  0.97178373893E+01  0.36251165288E+02  0.43400708203E+02  0.00000000000E+00 0.  1.
         11    1    3    3    0    0 -0.17609124335E+02 -0.13300742165E+02 -0.19736621702E+02  0.29606168926E+02  0.51100000000E-03 0. -1.
        -11    1    3    3    0    0 -0.31655326899E+01  0.31927001190E+01 -0.54607725922E+01  0.70734693627E+01  0.51100000000E-03 0.  1.
         12    1    3    3    0    0 -0.10207123048E+01  0.39020465624E+00 -0.11053770994E+02  0.11107653509E+02  0.00000000000E+00 0. -1.
</event>
<event>
 7    1  0.2442667E-009  0.4778727E+02  0.7816164E-02  0.1312668E+00
        -11   -1    0    0    0    0  0.00000000000E+00  0.00000000000E+00  0.45593999997E+02  0.45594000000E+02  0.51100000000E-03 0. -1.
         11   -1    0    0    0    0 -0.00000000000E+00 -0.00000000000E+00 -0.45593999997E+02  0.45594000000E+02  0.51100000000E-03 0.  1.
    9900012    2    1    2    0    0  0.82613583495E+01 -0.28745966330E+02  0.31449046195E+02  0.47787272718E+02  0.20000007628E+02 0.  0.
        -12    1    1    2    0    0 -0.82613583495E+01  0.28745966330E+02 -0.31449046195E+02  0.43400727282E+02  0.00000000000E+00 0.  1.
         11    1    3    3    0    0  0.12290210868E+02 -0.15343913785E+02  0.13783242544E+02  0.24009638662E+02  0.51100000000E-03 0. -1.
        -11    1    3    3    0    0 -0.60334743041E+01 -0.12055313763E+02  0.14545132951E+02  0.19831648820E+02  0.51100000000E-03 0.  1.
        -12    1    3    3    0    0  0.20046217860E+01 -0.13467387824E+01  0.31206707012E+01  0.39459852354E+01  0.00000000000E+00 0.  1.
</event>
<event>
 7    1  0.2442667E-009  0.4778727E+02  0.7816164E-02  0.1312668E+00
        -11   -1    0    0    0    0  0.00000000000E+00  0.00000000000E+00  0.45593999997E+02  0.45594000000E+02  0.51100000000E-03 0. -1.
         11   -1    0    0    0    0 -0.00000000000E+00 -0.00000000000E+00 -0.45593999997E+02  0.45594000000E+02  0.51100000000E-03 0.  1.
    9900012    2    1    2    0    0  0.28761910885E+02  0.27712303348E+02  0.16982469102E+02  0.47787268078E+02  0.19999986475E+02 0.  0.
        -12    1    1    2    0    0 -0.28761910885E+02 -0.27712303348E+02 -0.16982469102E+02  0.43400731922E+02  0.00000000000E+00 0.  1.
         11    1    3    3    0    0  0.22573630057E+02  0.21871347999E+02  0.14253574169E+02  0.34512157483E+02  0.51100000000E-03 0. -1.
        -11    1    3    3    0    0  0.16313580764E+01  0.64220284694E+01 -0.17563116892E+01  0.68548092494E+01  0.51100000000E-03 0.  1.
         12    1    3    3    0    0  0.45569227511E+01 -0.58107312117E+00  0.44852066216E+01  0.64203013458E+01  0.00000000000E+00 0. -1.
</event>
<event>
 7    1  0.2442667E-009  0.4778727E+02  0.7816164E-02  0.1312668E+00
        -11   -1    0    0    0    0  0.00000000000E+00  0.00000000000E+00  0.45593999997E+02  0.45594000000E+02  0.51100000000E-03 0.  1.
         11   -1    0    0    0    0 -0.00000000000E+00 -0.00000000000E+00 -0.45593999997E+02  0.45594000000E+02  0.51100000000E-03 0. -1.
    9900012    2    1    2    0    0 -0.22501407278E+02  0.20369656596E+02 -0.31022359517E+02  0.47787273861E+02  0.20000012842E+02 0.  0.
        -12    1    1    2    0    0  0.22501407278E+02 -0.20369656596E+02  0.31022359517E+02  0.43400726139E+02  0.00000000000E+00 0.  1.
         11    1    3    3    0    0 -0.58462738640E+01  0.51077932963E+01 -0.55113057379E+01  0.95206597276E+01  0.51100000000E-03 0. -1.
        -11    1    3    3    0    0 -0.92042539667E+01  0.17010532182E+02 -0.12066754162E+02  0.22796557909E+02  0.51100000000E-03 0.  1.
        -12    1    3    3    0    0 -0.74508794477E+01 -0.17486688823E+01 -0.13444299617E+02  0.15470056225E+02  0.00000000000E+00 0.  1.
</event>
<event>
 7    1  0.2442667E-009  0.4778727E+02  0.7816164E-02  0.1312668E+00
        -11   -1    0    0    0    0  0.00000000000E+00  0.00000000000E+00  0.45593999997E+02  0.45594000000E+02  0.51100000000E-03 0.  1.
         11   -1    0    0    0    0 -0.00000000000E+00 -0.00000000000E+00 -0.45593999997E+02  0.45594000000E+02  0.51100000000E-03 0. -1.
    9900012    2    1    2    0    0 -0.11830769433E+02 -0.19614482952E+02 -0.36863640922E+02  0.47787273406E+02  0.20000010769E+02 0.  0.
        -12    1    1    2    0    0  0.11830769433E+02  0.19614482952E+02  0.36863640922E+02  0.43400726594E+02  0.00000000000E+00 0.  1.
         11    1    3    3    0    0 -0.66175073933E+01 -0.16126016588E+02 -0.35891874302E+02  0.39900707466E+02  0.51100000000E-03 0. -1.
        -11    1    3    3    0    0 -0.46060110294E+01 -0.95929636324E+00  0.75426658482E+00  0.47649244966E+01  0.51100000000E-03 0.  1.
         12    1    3    3    0    0 -0.60725101004E+00 -0.25291700009E+01 -0.17260332047E+01  0.31216414442E+01  0.00000000000E+00 0. -1.
</event>
<event>
 7    1  0.2442667E-009  0.4778726E+02  0.7816164E-02  0.1312668E+00
        -11   -1    0    0    0    0  0.00000000000E+00  0.00000000000E+00  0.45593999997E+02  0.45594000000E+02  0.51100000000E-03 0.  1.
         11   -1    0    0    0    0 -0.00000000000E+00 -0.00000000000E+00 -0.45593999997E+02  0.45594000000E+02  0.51100000000E-03 0. -1.
    9900012    2    1    2    0    0 -0.19299965898E+02  0.32928804028E+02  0.20659842497E+02  0.47787263712E+02  0.19999966568E+02 0.  0.
        -12    1    1    2    0    0  0.19299965898E+02 -0.32928804028E+02 -0.20659842497E+02  0.43400736288E+02  0.00000000000E+00 0.  1.
         11    1    3    3    0    0 -0.20755329878E+02  0.31214571606E+02  0.16545338189E+02  0.40974155452E+02  0.51100000000E-03 0. -1.
        -11    1    3    3    0    0  0.19559387865E+01  0.14714049810E+01  0.51138050282E+01  0.56693678027E+01  0.51100000000E-03 0.  1.
         12    1    3    3    0    0 -0.50057480706E+00  0.24282744019E+00 -0.99930072099E+00  0.11437404575E+01  0.00000000000E+00 0. -1.
</event>
<event>
 7    1  0.2442667E-009  0.4778727E+02  0.7816164E-02  0.1312668E+00
        -11   -1    0    0    0    0  0.00000000000E+00  0.00000000000E+00  0.45593999997E+02  0.45594000000E+02  0.51100000000E-03 0. -1.
         11   -1    0    0    0    0 -0.00000000000E+00 -0.00000000000E+00 -0.45593999997E+02  0.45594000000E+02  0.51100000000E-03 0.  1.
    9900012    2    1    2    0    0  0.39340337959E+02 -0.13457652995E+02  0.12443984298E+02  0.47787270051E+02  0.19999995471E+02 0.  0.
        -12    1    1    2    0    0 -0.39340337959E+02  0.13457652995E+02 -0.12443984298E+02  0.43400729949E+02  0.00000000000E+00 0.  1.
         11    1    3    3    0    0  0.13550598828E+02  0.29824665573E+01  0.95614759433E+01  0.16850390436E+02  0.51100000000E-03 0. -1.
        -11    1    3    3    0    0  0.17253367565E+02 -0.11124600172E+02  0.36528747562E+01  0.20851352848E+02  0.51100000000E-03 0.  1.
         12    1    3    3    0    0  0.85363715663E+01 -0.53155193796E+01 -0.77036640114E+00  0.10085526768E+02  0.00000000000E+00 0. -1.
</event>
<event>
 7    1  0.2442667E-009  0.4778728E+02  0.7816164E-02  0.1312668E+00
        -11   -1    0    0    0    0  0.00000000000E+00  0.00000000000E+00  0.45593999997E+02  0.45594000000E+02  0.51100000000E-03 0.  1.
         11   -1    0    0    0    0 -0.00000000000E+00 -0.00000000000E+00 -0.45593999997E+02  0.45594000000E+02  0.51100000000E-03 0. -1.
    9900012    2    1    2    0    0 -0.17552362331E+02  0.18955563363E+02 -0.34874397683E+02  0.47787280886E+02  0.20000044874E+02 0.  0.
        -12    1    1    2    0    0  0.17552362331E+02 -0.18955563363E+02  0.34874397683E+02  0.43400719114E+02  0.00000000000E+00 0.  1.
         11    1    3    3    0    0 -0.18138767126E+02  0.66968119216E+01 -0.16476580128E+02  0.25403540221E+02  0.51100000000E-03 0. -1.
        -11    1    3    3    0    0  0.23778185708E+00  0.46670797124E+01 -0.10117431613E+02  0.11144532111E+02  0.51100000000E-03 0.  1.
         12    1    3    3    0    0  0.34862293838E+00  0.75916717289E+01 -0.82803859420E+01  0.11239208555E+02  0.00000000000E+00 0. -1.
</event>
<event>
 7    1  0.2442667E-009  0.4778727E+02  0.7816164E-02  0.1312668E+00
        -11   -1    0    0    0    0  0.00000000000E+00  0.00000000000E+00  0.45593999997E+02  0.45594000000E+02  0.51100000000E-03 0. -1.
         11   -1    0    0    0    0 -0.00000000000E+00 -0.00000000000E+00 -0.45593999997E+02  0.45594000000E+02  0.51100000000E-03 0.  1.
    9900012    2    1    2    0    0 -0.25301583588E+02  0.29562883044E+02  0.19222105500E+02  0.47787268142E+02  0.19999986766E+02 0.  0.
        -12    1    1    2    0    0  0.25301583588E+02 -0.29562883044E+02 -0.19222105500E+02  0.43400731858E+02  0.00000000000E+00 0.  1.
         11    1    3    3    0    0 -0.20521514927E+01  0.54368194399E+01  0.43162004935E+00  0.58272315467E+01  0.51100000000E-03 0. -1.
        -11    1    3    3    0    0 -0.13684338964E+02  0.24344115470E+02  0.14634338902E+02  0.31528732393E+02  0.51100000000E-03 0.  1.
        -12    1    3    3    0    0 -0.95650931318E+01 -0.21805186611E+00  0.41561465484E+01  0.10431304203E+02  0.00000000000E+00 0.  1.
</event>
<event>
 7    1  0.2442667E-009  0.4778727E+02  0.7816164E-02  0.1312668E+00
        -11   -1    0    0    0    0  0.00000000000E+00  0.00000000000E+00  0.45593999997E+02  0.45594000000E+02  0.51100000000E-03 0.  1.
         11   -1    0    0    0    0 -0.00000000000E+00 -0.00000000000E+00 -0.45593999997E+02  0.45594000000E+02  0.51100000000E-03 0. -1.
    9900012    2    1    2    0    0 -0.12116121452E+02  0.40457644940E+02  0.10000082004E+02  0.47787273356E+02  0.20000010541E+02 0.  0.
        -12    1    1    2    0    0  0.12116121452E+02 -0.40457644940E+02 -0.10000082004E+02  0.43400726644E+02  0.00000000000E+00 0.  1.
         11    1    3    3    0    0 -0.54827380386E+01  0.11949991909E+02 -0.49399947322E+01  0.14045151164E+02  0.51100000000E-03 0.  1.
        -11    1    3    3    0    0 -0.54438221676E+00  0.50917020113E+01 -0.33054760581E+00  0.51313783091E+01  0.51100000000E-03 0. -1.
         12    1    3    3    0    0 -0.60890011965E+01  0.23415951020E+02  0.15270624342E+02  0.28610743883E+02  0.00000000000E+00 0. -1.
</event>
<event>
 7    1  0.2442667E-009  0.4778728E+02  0.7816164E-02  0.1312668E+00
        -11   -1    0    0    0    0  0.00000000000E+00  0.00000000000E+00  0.45593999997E+02  0.45594000000E+02  0.51100000000E-03 0. -1.
         11   -1    0    0    0    0 -0.00000000000E+00 -0.00000000000E+00 -0.45593999997E+02  0.45594000000E+02  0.51100000000E-03 0.  1.
    9900012    2    1    2    0    0  0.12097926566E+02  0.36586236869E+02  0.19967722279E+02  0.47787280092E+02  0.20000041254E+02 0.  0.
        -12    1    1    2    0    0 -0.12097926566E+02 -0.36586236869E+02 -0.19967722279E+02  0.43400719908E+02  0.00000000000E+00 0.  1.
         11    1    3    3    0    0  0.27716856186E+01 -0.13227903777E+01  0.45022292770E+00  0.31039839718E+01  0.51100000000E-03 0.  1.
        -11    1    3    3    0    0 -0.20194175099E+00  0.18258306175E+02  0.73466812796E+01  0.19681977821E+02  0.51100000000E-03 0. -1.
         12    1    3    3    0    0  0.95281826988E+01  0.19650721072E+02  0.12170818072E+02  0.25001318300E+02  0.00000000000E+00 0. -1.
</event>
<event>
 7    1  0.2442667E-009  0.4778725E+02  0.7816164E-02  0.1312668E+00
        -11   -1    0    0    0    0  0.00000000000E+00  0.00000000000E+00  0.45593999997E+02  0.45594000000E+02  0.51100000000E-03 0.  1.
         11   -1    0    0    0    0 -0.00000000000E+00 -0.00000000000E+00 -0.45593999997E+02  0.45594000000E+02  0.51100000000E-03 0. -1.
    9900012    2    1    2    0    0  0.10088319238E+02 -0.23476026065E+02 -0.35081716327E+02  0.47787253402E+02  0.19999919559E+02 0.  0.
        -12    1    1    2    0    0 -0.10088319238E+02  0.23476026065E+02  0.35081716327E+02  0.43400746598E+02  0.00000000000E+00 0.  1.
         11    1    3    3    0    0  0.62066015829E+01 -0.63599200678E+01 -0.11371252334E+02  0.14431765879E+02  0.51100000000E-03 0. -1.
        -11    1    3    3    0    0  0.86214331784E+01 -0.13869339642E+02 -0.11850452064E+02  0.20177237337E+02  0.51100000000E-03 0.  1.
        -12    1    3    3    0    0 -0.47397155235E+01 -0.32467663545E+01 -0.11860011929E+02  0.13178250186E+02  0.00000000000E+00 0.  1.
</event>
<event>
 7    1  0.2442667E-009  0.4778727E+02  0.7816164E-02  0.1312668E+00
        -11   -1    0    0    0    0  0.00000000000E+00  0.00000000000E+00  0.45593999997E+02  0.45594000000E+02  0.51100000000E-03 0.  1.
         11   -1    0    0    0    0 -0.00000000000E+00 -0.00000000000E+00 -0.45593999997E+02  0.45594000000E+02  0.51100000000E-03 0. -1.
    9900012    2    1    2    0    0  0.32119276688E+02 -0.51182619910E+01 -0.28736369131E+02  0.47787268997E+02  0.19999990665E+02 0.  0.
        -12    1    1    2    0    0 -0.32119276688E+02  0.51182619910E+01  0.28736369131E+02  0.43400731003E+02  0.00000000000E+00 0.  1.
         11    1    3    3    0    0  0.21865549808E+02  0.36514249377E+01 -0.18579312789E+02  0.28924488525E+02  0.51100000000E-03 0. -1.
        -11    1    3    3    0    0  0.84563973695E+01 -0.50732646793E+01 -0.25017775870E+01  0.10173866636E+02  0.51100000000E-03 0.  1.
         12    1    3    3    0    0  0.17973295099E+01 -0.36964222495E+01 -0.76552787557E+01  0.86889138355E+01  0.00000000000E+00 0. -1.
</event>
<event>
 7    1  0.2442667E-009  0.4778728E+02  0.7816164E-02  0.1312668E+00
        -11   -1    0    0    0    0  0.00000000000E+00  0.00000000000E+00  0.45593999997E+02  0.45594000000E+02  0.51100000000E-03 0. -1.
         11   -1    0    0    0    0 -0.00000000000E+00 -0.00000000000E+00 -0.45593999997E+02  0.45594000000E+02  0.51100000000E-03 0.  1.
    9900012    2    1    2    0    0  0.40297716150E+02 -0.16103826397E+02  0.61937875600E+00  0.47787276716E+02  0.20000025861E+02 0.  0.
        -12    1    1    2    0    0 -0.40297716150E+02  0.16103826397E+02 -0.61937875600E+00  0.43400723284E+02  0.00000000000E+00 0.  1.
         11    1    3    3    0    0  0.23909394812E+02 -0.16916278244E+01  0.48131384186E+01  0.24447639286E+02  0.51100000000E-03 0. -1.
        -11    1    3    3    0    0  0.27447002319E+01 -0.63934993317E+01 -0.26252871016E+01  0.74365546925E+01  0.51100000000E-03 0.  1.
         12    1    3    3    0    0  0.13643621106E+02 -0.80186992407E+01 -0.15684725609E+01  0.15903082738E+02  0.00000000000E+00 0. -1.
</event>
<event>
 7    1  0.2442667E-009  0.4778727E+02  0.7816164E-02  0.1312668E+00
        -11   -1    0    0    0    0  0.00000000000E+00  0.00000000000E+00  0.45593999997E+02  0.45594000000E+02  0.51100000000E-03 0. -1.
         11   -1    0    0    0    0 -0.00000000000E+00 -0.00000000000E+00 -0.45593999997E+02  0.45594000000E+02  0.51100000000E-03 0.  1.
    9900012    2    1    2    0    0 -0.23498693402E+02 -0.36405657319E+02  0.24622900235E+01  0.47787270183E+02  0.19999996073E+02 0.  0.
        -12    1    1    2    0    0  0.23498693402E+02  0.36405657319E+02 -0.24622900235E+01  0.43400729817E+02  0.00000000000E+00 0.  1.
         11    1    3    3    0    0  0.41818969116E+00  0.11361781041E+01  0.97328991693E+00  0.15534081323E+01  0.51100000000E-03 0. -1.
        -11    1    3    3    0    0 -0.75331987956E+01 -0.66338392058E+01 -0.40352636128E+01  0.10818514657E+02  0.51100000000E-03 0.  1.
         12    1    3    3    0    0 -0.16383684298E+02 -0.30907996218E+02  0.55242637195E+01  0.35415347394E+02  0.00000000000E+00 0. -1.
</event>
<event>
 7    1  0.2442667E-009  0.4778727E+02  0.7816164E-02  0.1312668E+00
        -11   -1    0    0    0    0  0.00000000000E+00  0.00000000000E+00  0.45593999997E+02  0.45594000000E+02  0.51100000000E-03 0.  1.
         11   -1    0    0    0    0 -0.00000000000E+00 -0.00000000000E+00 -0.45593999997E+02  0.45594000000E+02  0.51100000000E-03 0. -1.
    9900012    2    1    2    0    0  0.13195719243E+02 -0.14129890859E+02 -0.38856692232E+02  0.47787270130E+02  0.19999995831E+02 0.  0.
        -12    1    1    2    0    0 -0.13195719243E+02  0.14129890859E+02  0.38856692232E+02  0.43400729870E+02  0.00000000000E+00 0.  1.
         11    1    3    3    0    0  0.85535032956E+01  0.61541330253E+00 -0.22954281706E+02  0.24503881347E+02  0.51100000000E-03 0. -1.
        -11    1    3    3    0    0 -0.41601641545E+00 -0.96754890443E+01 -0.75405806593E+01  0.12273895667E+02  0.51100000000E-03 0.  1.
         12    1    3    3    0    0  0.50582323625E+01 -0.50698151171E+01 -0.83618298671E+01  0.11009493116E+02  0.00000000000E+00 0. -1.
</event>
<event>
 7    1  0.2442667E-009  0.4778727E+02  0.7816164E-02  0.1312668E+00
        -11   -1    0    0    0    0  0.00000000000E+00  0.00000000000E+00  0.45593999997E+02  0.45594000000E+02  0.51100000000E-03 0.  1.
         11   -1    0    0    0    0 -0.00000000000E+00 -0.00000000000E+00 -0.45593999997E+02  0.45594000000E+02  0.51100000000E-03 0. -1.
    9900012    2    1    2    0    0 -0.13258657440E+02  0.22866443438E+02 -0.34423200851E+02  0.47787274322E+02  0.20000014942E+02 0.  0.
        -12    1    1    2    0    0  0.13258657440E+02 -0.22866443438E+02  0.34423200851E+02  0.43400725678E+02  0.00000000000E+00 0.  1.
         11    1    3    3    0    0 -0.37361495952E+01  0.19022352534E+02 -0.12970588705E+02  0.23324769696E+02  0.51100000000E-03 0. -1.
        -11    1    3    3    0    0 -0.38375994705E+01  0.62951307220E-01 -0.13226521902E+02  0.13772146327E+02  0.51100000000E-03 0.  1.
         12    1    3    3    0    0 -0.56849083740E+01  0.37811395961E+01 -0.82260902430E+01  0.10690358299E+02  0.00000000000E+00 0. -1.
</event>
<event>
 7    1  0.2442667E-009  0.4778727E+02  0.7816164E-02  0.1312668E+00
        -11   -1    0    0    0    0  0.00000000000E+00  0.00000000000E+00  0.45593999997E+02  0.45594000000E+02  0.51100000000E-03 0.  1.
         11   -1    0    0    0    0 -0.00000000000E+00 -0.00000000000E+00 -0.45593999997E+02  0.45594000000E+02  0.51100000000E-03 0. -1.
    9900012    2    1    2    0    0  0.14075678872E+02  0.33747661754E+02 -0.23379354546E+02  0.47787266958E+02  0.19999981369E+02 0.  0.
        -12    1    1    2    0    0 -0.14075678872E+02 -0.33747661754E+02  0.23379354546E+02  0.43400733042E+02  0.00000000000E+00 0.  1.
         11    1    3    3    0    0 -0.12933416979E+01  0.17371123834E+02 -0.17144322010E+02  0.24440876691E+02  0.51100000000E-03 0. -1.
        -11    1    3    3    0    0  0.65418840330E+01  0.60314681692E+01 -0.23501747085E+01  0.92031612177E+01  0.51100000000E-03 0.  1.
         12    1    3    3    0    0  0.88271365373E+01  0.10345069751E+02 -0.38848578282E+01  0.14143229050E+02  0.00000000000E+00 0. -1.
</event>
<event>
 7    1  0.2442667E-009  0.4778729E+02  0.7816164E-02  0.1312668E+00
        -11   -1    0    0    0    0  0.00000000000E+00  0.00000000000E+00  0.45593999997E+02  0.45594000000E+02  0.51100000000E-03 0. -1.
         11   -1    0    0    0    0 -0.00000000000E+00 -0.00000000000E+00 -0.45593999997E+02  0.45594000000E+02  0.51100000000E-03 0.  1.
    9900012    2    1    2    0    0  0.27987204644E+02 -0.32838830473E+02  0.46850233300E+01  0.47787287399E+02  0.20000074569E+02 0.  0.
        -12    1    1    2    0    0 -0.27987204644E+02  0.32838830473E+02 -0.46850233300E+01  0.43400712601E+02  0.00000000000E+00 0.  1.
         11    1    3    3    0    0  0.21203706700E+02 -0.23091794320E+02  0.42414392928E+01  0.31635706888E+02  0.51100000000E-03 0. -1.
        -11    1    3    3    0    0 -0.13667981338E+01 -0.14370862223E+01  0.35835872502E+01  0.40957846366E+01  0.51100000000E-03 0.  1.
        -12    1    3    3    0    0  0.81502960778E+01 -0.83099499305E+01 -0.31400032129E+01  0.12055795875E+02  0.00000000000E+00 0.  1.
</event>
<event>
 7    1  0.2442667E-009  0.4778727E+02  0.7816164E-02  0.1312668E+00
        -11   -1    0    0    0    0  0.00000000000E+00  0.00000000000E+00  0.45593999997E+02  0.45594000000E+02  0.51100000000E-03 0.  1.
         11   -1    0    0    0    0 -0.00000000000E+00 -0.00000000000E+00 -0.45593999997E+02  0.45594000000E+02  0.51100000000E-03 0. -1.
    9900012    2    1    2    0    0 -0.89497655919E+01  0.30823996365E+02 -0.29213121711E+02  0.47787268023E+02  0.19999986224E+02 0.  0.
        -12    1    1    2    0    0  0.89497655919E+01 -0.30823996365E+02  0.29213121711E+02  0.43400731977E+02  0.00000000000E+00 0.  1.
         11    1    3    3    0    0 -0.95037583242E+01  0.16215004729E+02 -0.22557998995E+02  0.29361728824E+02  0.51100000000E-03 0. -1.
        -11    1    3    3    0    0  0.46926939861E+01  0.95447830240E+01 -0.43452086348E+01  0.11489347160E+02  0.51100000000E-03 0.  1.
        -12    1    3    3    0    0 -0.41387012538E+01  0.50642086123E+01 -0.23099140813E+01  0.69361920389E+01  0.00000000000E+00 0.  1.
</event>
<event>
 7    1  0.2442667E-009  0.4778727E+02  0.7816164E-02  0.1312668E+00
        -11   -1    0    0    0    0  0.00000000000E+00  0.00000000000E+00  0.45593999997E+02  0.45594000000E+02  0.51100000000E-03 0.  1.
         11   -1    0    0    0    0 -0.00000000000E+00 -0.00000000000E+00 -0.45593999997E+02  0.45594000000E+02  0.51100000000E-03 0. -1.
    9900012    2    1    2    0    0 -0.40394578121E+02 -0.13808018240E+02 -0.78255879784E+01  0.47787272627E+02  0.20000007217E+02 0.  0.
        -12    1    1    2    0    0  0.40394578121E+02  0.13808018240E+02  0.78255879784E+01  0.43400727373E+02  0.00000000000E+00 0.  1.
         11    1    3    3    0    0 -0.10749630280E+02  0.11442417432E+01  0.22128768798E+01  0.11034521497E+02  0.51100000000E-03 0. -1.
        -11    1    3    3    0    0 -0.89629712208E+01 -0.75352704085E+01 -0.89782534485E+01  0.14755479947E+02  0.51100000000E-03 0.  1.
        -12    1    3    3    0    0 -0.20681976620E+02 -0.74169895744E+01 -0.10602114098E+01  0.21997271183E+02  0.00000000000E+00 0.  1.
</event>
<event>
 7    1  0.2442667E-009  0.4778727E+02  0.7816164E-02  0.1312668E+00
        -11   -1    0    0    0    0  0.00000000000E+00  0.00000000000E+00  0.45593999997E+02  0.45594000000E+02  0.51100000000E-03 0. -1.
         11   -1    0    0    0    0 -0.00000000000E+00 -0.00000000000E+00 -0.45593999997E+02  0.45594000000E+02  0.51100000000E-03 0.  1.
    9900012    2    1    2    0    0  0.33640796714E+02  0.16183318151E+02  0.22136399507E+02  0.47787272206E+02  0.20000005296E+02 0.  0.
        -12    1    1    2    0    0 -0.33640796714E+02 -0.16183318151E+02 -0.22136399507E+02  0.43400727794E+02  0.00000000000E+00 0.  1.
         11    1    3    3    0    0  0.32658593882E+02  0.16900771473E+02  0.22391922859E+02  0.43053664656E+02  0.51100000000E-03 0. -1.
        -11    1    3    3    0    0  0.15401708015E+01 -0.20113922191E+01 -0.14212661966E+01  0.29047930424E+01  0.51100000000E-03 0.  1.
        -12    1    3    3    0    0 -0.55796796956E+00  0.12939388965E+01  0.11657428450E+01  0.18288145077E+01  0.00000000000E+00 0.  1.
</event>
<event>
 7    1  0.2442667E-009  0.4778727E+02  0.7816164E-02  0.1312668E+00
        -11   -1    0    0    0    0  0.00000000000E+00  0.00000000000E+00  0.45593999997E+02  0.45594000000E+02  0.51100000000E-03 0. -1.
         11   -1    0    0    0    0 -0.00000000000E+00 -0.00000000000E+00 -0.45593999997E+02  0.45594000000E+02  0.51100000000E-03 0.  1.
    9900012    2    1    2    0    0  0.28589543416E+02  0.11874872814E+02  0.30417901881E+02  0.47787270145E+02  0.19999995901E+02 0.  0.
        -12    1    1    2    0    0 -0.28589543416E+02 -0.11874872814E+02 -0.30417901881E+02  0.43400729855E+02  0.00000000000E+00 0.  1.
         11    1    3    3    0    0  0.18168093484E+01  0.16930499323E+01 -0.20606611537E+01  0.32270015391E+01  0.51100000000E-03 0. -1.
        -11    1    3    3    0    0 -0.11799330294E+00 -0.87699718933E+00  0.31092961622E+01  0.32327649737E+01  0.51100000000E-03 0.  1.
         12    1    3    3    0    0  0.26890727371E+02  0.11058820071E+02  0.29369266872E+02  0.41327503633E+02  0.00000000000E+00 0. -1.
</event>
<event>
 7    1  0.2442667E-009  0.4778727E+02  0.7816164E-02  0.1312668E+00
        -11   -1    0    0    0    0  0.00000000000E+00  0.00000000000E+00  0.45593999997E+02  0.45594000000E+02  0.51100000000E-03 0. -1.
         11   -1    0    0    0    0 -0.00000000000E+00 -0.00000000000E+00 -0.45593999997E+02  0.45594000000E+02  0.51100000000E-03 0.  1.
    9900012    2    1    2    0    0 -0.68153377170E+01  0.14239023775E+02  0.40428022219E+02  0.47787267209E+02  0.19999982512E+02 0.  0.
        -12    1    1    2    0    0  0.68153377170E+01 -0.14239023775E+02 -0.40428022219E+02  0.43400732791E+02  0.00000000000E+00 0.  1.
         11    1    3    3    0    0 -0.13119884453E+02  0.11290869754E+02  0.33498358259E+02  0.37706168118E+02  0.51100000000E-03 0. -1.
        -11    1    3    3    0    0  0.45720754755E+01  0.19125399699E+01  0.33836994513E+01  0.60009253893E+01  0.51100000000E-03 0.  1.
         12    1    3    3    0    0  0.17324712611E+01  0.10356140511E+01  0.35459645089E+01  0.40801737011E+01  0.00000000000E+00 0. -1.
</event>
<event>
 7    1  0.2442667E-009  0.4778727E+02  0.7816164E-02  0.1312668E+00
        -11   -1    0    0    0    0  0.00000000000E+00  0.00000000000E+00  0.45593999997E+02  0.45594000000E+02  0.51100000000E-03 0. -1.
         11   -1    0    0    0    0 -0.00000000000E+00 -0.00000000000E+00 -0.45593999997E+02  0.45594000000E+02  0.51100000000E-03 0.  1.
    9900012    2    1    2    0    0 -0.38056709585E+02 -0.19405326418E+01  0.20773645616E+02  0.47787272316E+02  0.20000005797E+02 0.  0.
        -12    1    1    2    0    0  0.38056709585E+02  0.19405326418E+01 -0.20773645616E+02  0.43400727684E+02  0.00000000000E+00 0.  1.
         11    1    3    3    0    0 -0.11662952632E+02 -0.75603561413E+01  0.10558637738E+02  0.17454749503E+02  0.51100000000E-03 0.  1.
        -11    1    3    3    0    0 -0.19741113913E+02  0.77271797163E+01  0.97625978356E+01  0.23339434476E+02  0.51100000000E-03 0. -1.
        -12    1    3    3    0    0 -0.66526430398E+01 -0.21073562167E+01  0.45241004225E+00  0.69930883368E+01  0.00000000000E+00 0.  1.
</event>
<event>
 7    1  0.2442667E-009  0.4778727E+02  0.7816164E-02  0.1312668E+00
        -11   -1    0    0    0    0  0.00000000000E+00  0.00000000000E+00  0.45593999997E+02  0.45594000000E+02  0.51100000000E-03 0.  1.
         11   -1    0    0    0    0 -0.00000000000E+00 -0.00000000000E+00 -0.45593999997E+02  0.45594000000E+02  0.51100000000E-03 0. -1.
    9900012    2    1    2    0    0  0.32728216072E+02  0.23953666619E+02 -0.15450211792E+02  0.47787270557E+02  0.19999997778E+02 0.  0.
        -12    1    1    2    0    0 -0.32728216072E+02 -0.23953666619E+02  0.15450211792E+02  0.43400729443E+02  0.00000000000E+00 0.  1.
         11    1    3    3    0    0  0.21466881071E+02  0.14877564897E+02 -0.13130539239E+02  0.29233199981E+02  0.51100000000E-03 0. -1.
        -11    1    3    3    0    0  0.54086467203E+00 -0.19569082516E+01  0.17066268124E+01  0.26522820055E+01  0.51100000000E-03 0.  1.
        -12    1    3    3    0    0  0.10720470329E+02  0.11033009974E+02 -0.40262993651E+01  0.15901788570E+02  0.00000000000E+00 0.  1.
</event>
<event>
 7    1  0.2442667E-009  0.4778730E+02  0.7816164E-02  0.1312668E+00
        -11   -1    0    0    0    0  0.00000000000E+00  0.00000000000E+00  0.45593999997E+02  0.45594000000E+02  0.51100000000E-03 0.  1.
         11   -1    0    0    0    0 -0.00000000000E+00 -0.00000000000E+00 -0.45593999997E+02  0.45594000000E+02  0.51100000000E-03 0. -1.
    9900012    2    1    2    0    0 -0.37342473960E+01  0.14866285807E+02 -0.40603813346E+02  0.47787300518E+02  0.20000134380E+02 0.  0.
        -12    1    1    2    0    0  0.37342473960E+01 -0.14866285807E+02  0.40603813346E+02  0.43400699482E+02  0.00000000000E+00 0.  1.
         11    1    3    3    0    0  0.17888542387E+00  0.30800719724E+01 -0.49319970995E+01  0.58175114095E+01  0.51100000000E-03 0. -1.
        -11    1    3    3    0    0  0.53079240215E+01  0.58584819353E+01 -0.26571698765E+02  0.27722753174E+02  0.51100000000E-03 0.  1.
        -12    1    3    3    0    0 -0.92210568413E+01  0.59277318990E+01 -0.91001174814E+01  0.14247035934E+02  0.00000000000E+00 0.  1.
</event>
<event>
 7    1  0.2442667E-009  0.4778727E+02  0.7816164E-02  0.1312668E+00
        -11   -1    0    0    0    0  0.00000000000E+00  0.00000000000E+00  0.45593999997E+02  0.45594000000E+02  0.51100000000E-03 0. -1.
         11   -1    0    0    0    0 -0.00000000000E+00 -0.00000000000E+00 -0.45593999997E+02  0.45594000000E+02  0.51100000000E-03 0.  1.
    9900012    2    1    2    0    0  0.28461311684E+02 -0.12207472512E+02  0.30406493637E+02  0.47787268403E+02  0.19999987955E+02 0.  0.
        -12    1    1    2    0    0 -0.28461311684E+02  0.12207472512E+02 -0.30406493637E+02  0.43400731597E+02  0.00000000000E+00 0.  1.
         11    1    3    3    0    0  0.11112483233E+02 -0.23492821714E+01  0.19799836603E+02  0.22826299308E+02  0.51100000000E-03 0. -1.
        -11    1    3    3    0    0  0.15147711706E+02 -0.40737217179E+01  0.46246847678E+01  0.16353473271E+02  0.51100000000E-03 0.  1.
        -12    1    3    3    0    0  0.22011167453E+01 -0.57844686225E+01  0.59819722654E+01  0.86074958237E+01  0.00000000000E+00 0.  1.
</event>
<event>
 7    1  0.2442667E-009  0.4778727E+02  0.7816164E-02  0.1312668E+00
        -11   -1    0    0    0    0  0.00000000000E+00  0.00000000000E+00  0.45593999997E+02  0.45594000000E+02  0.51100000000E-03 0.  1.
         11   -1    0    0    0    0 -0.00000000000E+00 -0.00000000000E+00 -0.45593999997E+02  0.45594000000E+02  0.51100000000E-03 0. -1.
    9900012    2    1    2    0    0 -0.13268526321E+02 -0.40370091985E+02 -0.88218513337E+01  0.47787272142E+02  0.20000005006E+02 0.  0.
        -12    1    1    2    0    0  0.13268526321E+02  0.40370091985E+02  0.88218513337E+01  0.43400727858E+02  0.00000000000E+00 0.  1.
         11    1    3    3    0    0 -0.33034695913E+01 -0.36173337522E+01 -0.21421070722E+01  0.53466473407E+01  0.51100000000E-03 0. -1.
        -11    1    3    3    0    0 -0.68492141109E+01 -0.37315732639E+02 -0.37451007419E+01  0.38123502150E+02  0.51100000000E-03 0.  1.
        -12    1    3    3    0    0 -0.31158426186E+01  0.56297440606E+00 -0.29346435196E+01  0.43171226521E+01  0.00000000000E+00 0.  1.
</event>
<event>
 7    1  0.2442667E-009  0.4778727E+02  0.7816164E-02  0.1312668E+00
        -11   -1    0    0    0    0  0.00000000000E+00  0.00000000000E+00  0.45593999997E+02  0.45594000000E+02  0.51100000000E-03 0. -1.
         11   -1    0    0    0    0 -0.00000000000E+00 -0.00000000000E+00 -0.45593999997E+02  0.45594000000E+02  0.51100000000E-03 0.  1.
    9900012    2    1    2    0    0 -0.20855281287E+02  0.38047401069E+02 -0.10373730293E+01  0.47787266959E+02  0.19999981374E+02 0.  0.
        -12    1    1    2    0    0  0.20855281287E+02 -0.38047401069E+02  0.10373730293E+01  0.43400733041E+02  0.00000000000E+00 0.  1.
         11    1    3    3    0    0 -0.53027944037E+01 -0.47918642529E+00 -0.24738432449E+00  0.53301451559E+01  0.51100000000E-03 0. -1.
        -11    1    3    3    0    0 -0.54703101799E+01  0.51543164716E+01 -0.10843388858E+01  0.75938832512E+01  0.51100000000E-03 0.  1.
         12    1    3    3    0    0 -0.10082176703E+02  0.33372271023E+02  0.29435018100E+00  0.34863238552E+02  0.00000000000E+00 0. -1.
</event>
<event>
 7    1  0.2442667E-009  0.4778728E+02  0.7816164E-02  0.1312668E+00
        -11   -1    0    0    0    0  0.00000000000E+00  0.00000000000E+00  0.45593999997E+02  0.45594000000E+02  0.51100000000E-03 0.  1.
         11   -1    0    0    0    0 -0.00000000000E+00 -0.00000000000E+00 -0.45593999997E+02  0.45594000000E+02  0.51100000000E-03 0. -1.
    9900012    2    1    2    0    0 -0.62434605067E+01  0.40219007998E+02  0.15068942254E+02  0.47787280835E+02  0.20000044637E+02 0.  0.
        -12    1    1    2    0    0  0.62434605067E+01 -0.40219007998E+02 -0.15068942254E+02  0.43400719165E+02  0.00000000000E+00 0.  1.
         11    1    3    3    0    0 -0.56328622002E+01  0.30958170415E+02  0.46064335755E+01  0.31801834578E+02  0.51100000000E-03 0. -1.
        -11    1    3    3    0    0  0.25280077654E+01  0.27225618561E+01  0.70523897012E+01  0.79711584529E+01  0.51100000000E-03 0.  1.
        -12    1    3    3    0    0 -0.31386060719E+01  0.65382757271E+01  0.34101189775E+01  0.80142878036E+01  0.00000000000E+00 0.  1.
</event>
<event>
 7    1  0.2442667E-009  0.4778730E+02  0.7816164E-02  0.1312668E+00
        -11   -1    0    0    0    0  0.00000000000E+00  0.00000000000E+00  0.45593999997E+02  0.45594000000E+02  0.51100000000E-03 0.  1.
         11   -1    0    0    0    0 -0.00000000000E+00 -0.00000000000E+00 -0.45593999997E+02  0.45594000000E+02  0.51100000000E-03 0. -1.
    9900012    2    1    2    0    0 -0.32776547857E+02 -0.16498319559E+02 -0.23175937358E+02  0.47787300581E+02  0.20000134667E+02 0.  0.
        -12    1    1    2    0    0  0.32776547857E+02  0.16498319559E+02  0.23175937358E+02  0.43400699419E+02  0.00000000000E+00 0.  1.
         11    1    3    3    0    0 -0.17107099101E+02 -0.10159735581E+02 -0.20836197102E+02  0.28810070751E+02  0.51100000000E-03 0. -1.
        -11    1    3    3    0    0 -0.64975054634E+01 -0.69747719479E+01 -0.18491508001E+00  0.95341079719E+01  0.51100000000E-03 0.  1.
         12    1    3    3    0    0 -0.91719432918E+01  0.63618796971E+00 -0.21548251758E+01  0.94431218577E+01  0.00000000000E+00 0. -1.
</event>
<event>
 7    1  0.2442667E-009  0.4778728E+02  0.7816164E-02  0.1312668E+00
        -11   -1    0    0    0    0  0.00000000000E+00  0.00000000000E+00  0.45593999997E+02  0.45594000000E+02  0.51100000000E-03 0. -1.
         11   -1    0    0    0    0 -0.00000000000E+00 -0.00000000000E+00 -0.45593999997E+02  0.45594000000E+02  0.51100000000E-03 0.  1.
    9900012    2    1    2    0    0 -0.32722067951E+01 -0.41878639354E+02  0.10913065132E+02  0.47787276941E+02  0.20000026886E+02 0.  0.
        -12    1    1    2    0    0  0.32722067951E+01  0.41878639354E+02 -0.10913065132E+02  0.43400723059E+02  0.00000000000E+00 0.  1.
         11    1    3    3    0    0  0.95450780448E+00 -0.24292984756E+02  0.19039849884E+01  0.24386171339E+02  0.51100000000E-03 0. -1.
        -11    1    3    3    0    0 -0.37552315932E+01 -0.87696148421E+00  0.48126579624E+01  0.61670497556E+01  0.51100000000E-03 0.  1.
        -12    1    3    3    0    0 -0.47148300645E+00 -0.16708693114E+02  0.41964221808E+01  0.17234055847E+02  0.00000000000E+00 0.  1.
</event>
<event>
 7    1  0.2442667E-009  0.4778727E+02  0.7816164E-02  0.1312668E+00
        -11   -1    0    0    0    0  0.00000000000E+00  0.00000000000E+00  0.45593999997E+02  0.45594000000E+02  0.51100000000E-03 0.  1.
         11   -1    0    0    0    0 -0.00000000000E+00 -0.00000000000E+00 -0.45593999997E+02  0.45594000000E+02  0.51100000000E-03 0. -1.
    9900012    2    1    2    0    0 -0.85139453771E+01  0.41877811831E+02 -0.75752847620E+01  0.47787270411E+02  0.19999997112E+02 0.  0.
        -12    1    1    2    0    0  0.85139453771E+01 -0.41877811831E+02  0.75752847620E+01  0.43400729589E+02  0.00000000000E+00 0.  1.
         11    1    3    3    0    0 -0.70423463866E+01  0.17757328871E+02 -0.33667068577E+01  0.19397218527E+02  0.51100000000E-03 0. -1.
        -11    1    3    3    0    0  0.46802783723E+01  0.98382102530E+01 -0.64769517624E+01  0.12674631790E+02  0.51100000000E-03 0.  1.
        -12    1    3    3    0    0 -0.61518773628E+01  0.14282272707E+02  0.22683738581E+01  0.15715420094E+02  0.00000000000E+00 0.  1.
</event>
<event>
 7    1  0.2442667E-009  0.4778728E+02  0.7816164E-02  0.1312668E+00
        -11   -1    0    0    0    0  0.00000000000E+00  0.00000000000E+00  0.45593999997E+02  0.45594000000E+02  0.51100000000E-03 0.  1.
         11   -1    0    0    0    0 -0.00000000000E+00 -0.00000000000E+00 -0.45593999997E+02  0.45594000000E+02  0.51100000000E-03 0. -1.
    9900012    2    1    2    0    0 -0.17609746795E+01 -0.40769000355E+02 -0.14778717624E+02  0.47787275163E+02  0.20000018779E+02 0.  0.
        -12    1    1    2    0    0  0.17609746795E+01  0.40769000355E+02  0.14778717624E+02  0.43400724837E+02  0.00000000000E+00 0.  1.
         11    1    3    3    0    0  0.18932818150E+00 -0.28253364324E+02 -0.66405483690E+01  0.29023875063E+02  0.51100000000E-03 0. -1.
        -11    1    3    3    0    0 -0.42648140126E+01 -0.26254521399E+01  0.99228391338E+00  0.51055132089E+01  0.51100000000E-03 0.  1.
        -12    1    3    3    0    0  0.23145111516E+01 -0.98901838911E+01 -0.91304531688E+01  0.13657886891E+02  0.00000000000E+00 0.  1.
</event>
<event>
 7    1  0.2442667E-009  0.4778727E+02  0.7816164E-02  0.1312668E+00
        -11   -1    0    0    0    0  0.00000000000E+00  0.00000000000E+00  0.45593999997E+02  0.45594000000E+02  0.51100000000E-03 0.  1.
         11   -1    0    0    0    0 -0.00000000000E+00 -0.00000000000E+00 -0.45593999997E+02  0.45594000000E+02  0.51100000000E-03 0. -1.
    9900012    2    1    2    0    0  0.33264424070E+02 -0.27866466905E+02 -0.74933533197E+00  0.47787269708E+02  0.19999993905E+02 0.  0.
        -12    1    1    2    0    0 -0.33264424070E+02  0.27866466905E+02  0.74933533197E+00  0.43400730292E+02  0.00000000000E+00 0.  1.
         11    1    3    3    0    0  0.16304548163E+02 -0.18305508783E+02  0.55436046604E+01  0.25132876785E+02  0.51100000000E-03 0. -1.
        -11    1    3    3    0    0  0.90641210935E+01 -0.15409556387E+00 -0.51038701630E+00  0.90797869913E+01  0.51100000000E-03 0.  1.
         12    1    3    3    0    0  0.78957548130E+01 -0.94068625587E+01 -0.57825529760E+01  0.13574605931E+02  0.00000000000E+00 0. -1.
</event>
<event>
 7    1  0.2442667E-009  0.4778727E+02  0.7816164E-02  0.1312668E+00
        -11   -1    0    0    0    0  0.00000000000E+00  0.00000000000E+00  0.45593999997E+02  0.45594000000E+02  0.51100000000E-03 0. -1.
         11   -1    0    0    0    0 -0.00000000000E+00 -0.00000000000E+00 -0.45593999997E+02  0.45594000000E+02  0.51100000000E-03 0.  1.
    9900012    2    1    2    0    0 -0.33844061552E+02  0.15432061836E+02  0.22361889715E+02  0.47787272512E+02  0.20000006691E+02 0.  0.
        -12    1    1    2    0    0  0.33844061552E+02 -0.15432061836E+02 -0.22361889715E+02  0.43400727488E+02  0.00000000000E+00 0.  1.
         11    1    3    3    0    0 -0.13925543241E+02  0.39036513026E+01  0.18381290152E+02  0.23388695474E+02  0.51100000000E-03 0. -1.
        -11    1    3    3    0    0 -0.17879379703E+02  0.73687845935E+01  0.40839688885E+01  0.19764868001E+02  0.51100000000E-03 0.  1.
         12    1    3    3    0    0 -0.20391386075E+01  0.41596259402E+01 -0.10336932536E+00  0.46337090371E+01  0.00000000000E+00 0. -1.
</event>
<event>
 7    1  0.2442667E-009  0.4778727E+02  0.7816164E-02  0.1312668E+00
        -11   -1    0    0    0    0  0.00000000000E+00  0.00000000000E+00  0.45593999997E+02  0.45594000000E+02  0.51100000000E-03 0. -1.
         11   -1    0    0    0    0 -0.00000000000E+00 -0.00000000000E+00 -0.45593999997E+02  0.45594000000E+02  0.51100000000E-03 0.  1.
    9900012    2    1    2    0    0  0.91245631205E+00 -0.11554492900E+02  0.41824451654E+02  0.47787266839E+02  0.19999980828E+02 0.  0.
        -12    1    1    2    0    0 -0.91245631205E+00  0.11554492900E+02 -0.41824451654E+02  0.43400733161E+02  0.00000000000E+00 0.  1.
         11    1    3    3    0    0 -0.60959901452E+01 -0.45144603774E+01  0.92882777078E+01  0.11992228791E+02  0.51100000000E-03 0. -1.
        -11    1    3    3    0    0 -0.26190935925E+01 -0.64996569508E+00  0.27815607282E+01  0.38754595852E+01  0.51100000000E-03 0.  1.
         12    1    3    3    0    0  0.96275400497E+01 -0.63900668278E+01  0.29754613218E+02  0.31919578463E+02  0.00000000000E+00 0. -1.
</event>
<event>
 7    1  0.2442667E-009  0.4778724E+02  0.7816164E-02  0.1312668E+00
        -11   -1    0    0    0    0  0.00000000000E+00  0.00000000000E+00  0.45593999997E+02  0.45594000000E+02  0.51100000000E-03 0.  1.
         11   -1    0    0    0    0 -0.00000000000E+00 -0.00000000000E+00 -0.45593999997E+02  0.45594000000E+02  0.51100000000E-03 0. -1.
    9900012    2    1    2    0    0 -0.37380655516E+02  0.12654468446E+02 -0.18060369219E+02  0.47787240619E+02  0.19999861280E+02 0.  0.
        -12    1    1    2    0    0  0.37380655516E+02 -0.12654468446E+02  0.18060369219E+02  0.43400759381E+02  0.00000000000E+00 0.  1.
         11    1    3    3    0    0 -0.25421644113E+02 -0.62877277127E+00 -0.13856404920E+02  0.28959545959E+02  0.51100000000E-03 0. -1.
        -11    1    3    3    0    0 -0.11795691893E+02  0.12935283588E+02 -0.47693225325E+01  0.18144044379E+02  0.51100000000E-03 0.  1.
         12    1    3    3    0    0 -0.16331951039E+00  0.34795762972E+00  0.56535823403E+00  0.68365028146E+00  0.00000000000E+00 0. -1.
</event>
<event>
 7    1  0.2442667E-009  0.4778728E+02  0.7816164E-02  0.1312668E+00
        -11   -1    0    0    0    0  0.00000000000E+00  0.00000000000E+00  0.45593999997E+02  0.45594000000E+02  0.51100000000E-03 0. -1.
         11   -1    0    0    0    0 -0.00000000000E+00 -0.00000000000E+00 -0.45593999997E+02  0.45594000000E+02  0.51100000000E-03 0.  1.
    9900012    2    1    2    0    0  0.38964952395E+02 -0.40834250549E+01 -0.18673000512E+02  0.47787276233E+02  0.20000023659E+02 0.  0.
        -12    1    1    2    0    0 -0.38964952395E+02  0.40834250549E+01  0.18673000512E+02  0.43400723767E+02  0.00000000000E+00 0.  1.
         11    1    3    3    0    0  0.73033551257E+01  0.47396897547E+01 -0.89720098340E+01  0.12502024467E+02  0.51100000000E-03 0.  1.
        -11    1    3    3    0    0  0.27745316304E+02 -0.53067938272E+01 -0.10117683886E+02  0.30005535573E+02  0.51100000000E-03 0. -1.
         12    1    3    3    0    0  0.39162809654E+01 -0.35163209824E+01  0.41669320774E+00  0.52797161932E+01  0.00000000000E+00 0. -1.
</event>
<event>
 7    1  0.2442667E-009  0.4778727E+02  0.7816164E-02  0.1312668E+00
        -11   -1    0    0    0    0  0.00000000000E+00  0.00000000000E+00  0.45593999997E+02  0.45594000000E+02  0.51100000000E-03 0.  1.
         11   -1    0    0    0    0 -0.00000000000E+00 -0.00000000000E+00 -0.45593999997E+02  0.45594000000E+02  0.51100000000E-03 0. -1.
    9900012    2    1    2    0    0 -0.27913510985E+02  0.17144960391E+02 -0.28469450286E+02  0.47787270031E+02  0.19999995377E+02 0.  0.
        -12    1    1    2    0    0  0.27913510985E+02 -0.17144960391E+02  0.28469450286E+02  0.43400729969E+02  0.00000000000E+00 0.  1.
         11    1    3    3    0    0  0.20138629063E+01  0.36020460497E+01 -0.50272166355E+01  0.65040977015E+01  0.51100000000E-03 0. -1.
        -11    1    3    3    0    0 -0.47602758625E+01 -0.10379778664E+01 -0.28327480063E+01  0.56357861800E+01  0.51100000000E-03 0.  1.
         12    1    3    3    0    0 -0.25167098029E+02  0.14580892207E+02 -0.20609485644E+02  0.35647386149E+02  0.00000000000E+00 0. -1.
</event>
<event>
 7    1  0.2442667E-009  0.4778729E+02  0.7816164E-02  0.1312668E+00
        -11   -1    0    0    0    0  0.00000000000E+00  0.00000000000E+00  0.45593999997E+02  0.45594000000E+02  0.51100000000E-03 0.  1.
         11   -1    0    0    0    0 -0.00000000000E+00 -0.00000000000E+00 -0.45593999997E+02  0.45594000000E+02  0.51100000000E-03 0. -1.
    9900012    2    1    2    0    0 -0.73132078141E+01 -0.29679725529E+02 -0.30809947008E+02  0.47787286289E+02  0.20000069505E+02 0.  0.
        -12    1    1    2    0    0  0.73132078141E+01  0.29679725529E+02  0.30809947008E+02  0.43400713711E+02  0.00000000000E+00 0.  1.
         11    1    3    3    0    0  0.37068432090E+01 -0.13461530194E+02 -0.15773570458E+02  0.21065588219E+02  0.51100000000E-03 0. -1.
        -11    1    3    3    0    0 -0.46080654978E+01 -0.18997809454E+00 -0.47771201423E+01  0.66401232235E+01  0.51100000000E-03 0.  1.
         12    1    3    3    0    0 -0.64119855254E+01 -0.16028217240E+02 -0.10259256408E+02  0.20081574847E+02  0.00000000000E+00 0. -1.
</event>
<event>
 7    1  0.2442667E-009  0.4778727E+02  0.7816164E-02  0.1312668E+00
        -11   -1    0    0    0    0  0.00000000000E+00  0.00000000000E+00  0.45593999997E+02  0.45594000000E+02  0.51100000000E-03 0.  1.
         11   -1    0    0    0    0 -0.00000000000E+00 -0.00000000000E+00 -0.45593999997E+02  0.45594000000E+02  0.51100000000E-03 0. -1.
    9900012    2    1    2    0    0 -0.33748190713E+02 -0.10813623812E+02 -0.25054905875E+02  0.47787272532E+02  0.20000006783E+02 0.  0.
        -12    1    1    2    0    0  0.33748190713E+02  0.10813623812E+02  0.25054905875E+02  0.43400727468E+02  0.00000000000E+00 0.  1.
         11    1    3    3    0    0 -0.24711796519E+02 -0.29346738774E+01 -0.89602128702E+01  0.26449397213E+02  0.51100000000E-03 0. -1.
        -11    1    3    3    0    0 -0.10154355173E+02 -0.61726002256E+01 -0.12825574480E+02  0.17484486939E+02  0.51100000000E-03 0.  1.
         12    1    3    3    0    0  0.11179609791E+01 -0.17063497087E+01 -0.32691185254E+01  0.38533883807E+01  0.00000000000E+00 0. -1.
</event>
<event>
 7    1  0.2442667E-009  0.4778727E+02  0.7816164E-02  0.1312668E+00
        -11   -1    0    0    0    0  0.00000000000E+00  0.00000000000E+00  0.45593999997E+02  0.45594000000E+02  0.51100000000E-03 0.  1.
         11   -1    0    0    0    0 -0.00000000000E+00 -0.00000000000E+00 -0.45593999997E+02  0.45594000000E+02  0.51100000000E-03 0. -1.
    9900012    2    1    2    0    0  0.80749491747E+01 -0.18858937992E+02 -0.38246037763E+02  0.47787265549E+02  0.19999974942E+02 0.  0.
        -12    1    1    2    0    0 -0.80749491747E+01  0.18858937992E+02  0.38246037763E+02  0.43400734451E+02  0.00000000000E+00 0.  1.
         11    1    3    3    0    0  0.44871349954E+01 -0.58517293799E+01 -0.17915285082E+02  0.19373553031E+02  0.51100000000E-03 0. -1.
        -11    1    3    3    0    0 -0.37887327783E+01 -0.35772696530E+01 -0.48092866902E+00  0.52328430974E+01  0.51100000000E-03 0.  1.
        -12    1    3    3    0    0  0.73765469576E+01 -0.94299389588E+01 -0.19849824012E+02  0.23180869420E+02  0.00000000000E+00 0.  1.
</event>
<event>
 7    1  0.2442667E-009  0.4778727E+02  0.7816164E-02  0.1312668E+00
        -11   -1    0    0    0    0  0.00000000000E+00  0.00000000000E+00  0.45593999997E+02  0.45594000000E+02  0.51100000000E-03 0. -1.
         11   -1    0    0    0    0 -0.00000000000E+00 -0.00000000000E+00 -0.45593999997E+02  0.45594000000E+02  0.51100000000E-03 0.  1.
    9900012    2    1    2    0    0 -0.20509126407E+02 -0.38232273018E+02  0.11367640536E+01  0.47787271911E+02  0.20000003952E+02 0.  0.
        -12    1    1    2    0    0  0.20509126407E+02  0.38232273018E+02 -0.11367640536E+01  0.43400728089E+02  0.00000000000E+00 0.  1.
         11    1    3    3    0    0 -0.89131608146E+01 -0.29018215541E+02 -0.21145846945E+01  0.30429800157E+02  0.51100000000E-03 0.  1.
        -11    1    3    3    0    0 -0.10469763911E+02 -0.93524330483E+01  0.53079634012E+01  0.15008612061E+02  0.51100000000E-03 0. -1.
        -12    1    3    3    0    0 -0.11262016808E+01  0.13837557135E+00 -0.20566146531E+01  0.23488596927E+01  0.00000000000E+00 0.  1.
</event>
<event>
 7    1  0.2442667E-009  0.4778725E+02  0.7816164E-02  0.1312668E+00
        -11   -1    0    0    0    0  0.00000000000E+00  0.00000000000E+00  0.45593999997E+02  0.45594000000E+02  0.51100000000E-03 0. -1.
         11   -1    0    0    0    0 -0.00000000000E+00 -0.00000000000E+00 -0.45593999997E+02  0.45594000000E+02  0.51100000000E-03 0.  1.
    9900012    2    1    2    0    0  0.30281241422E+01 -0.38647369693E+02 -0.19515036072E+02  0.47787247093E+02  0.19999890793E+02 0.  0.
        -12    1    1    2    0    0 -0.30281241422E+01  0.38647369693E+02  0.19515036072E+02  0.43400752907E+02  0.00000000000E+00 0.  1.
         11    1    3    3    0    0 -0.33954777105E+01 -0.83038829425E+00 -0.22874829732E+01  0.41774863513E+01  0.51100000000E-03 0. -1.
        -11    1    3    3    0    0  0.51506701698E+00 -0.30214019784E+02 -0.11079738597E+02  0.32185600712E+02  0.51100000000E-03 0.  1.
        -12    1    3    3    0    0  0.59085348357E+01 -0.76029616151E+01 -0.61478145020E+01  0.11424160029E+02  0.00000000000E+00 0.  1.
</event>
<event>
 7    1  0.2442667E-009  0.4778726E+02  0.7816164E-02  0.1312668E+00
        -11   -1    0    0    0    0  0.00000000000E+00  0.00000000000E+00  0.45593999997E+02  0.45594000000E+02  0.51100000000E-03 0.  1.
         11   -1    0    0    0    0 -0.00000000000E+00 -0.00000000000E+00 -0.45593999997E+02  0.45594000000E+02  0.51100000000E-03 0. -1.
    9900012    2    1    2    0    0  0.36405462203E+01  0.42747152463E+02 -0.65613517334E+01  0.47787263174E+02  0.19999964115E+02 0.  0.
        -12    1    1    2    0    0 -0.36405462203E+01 -0.42747152463E+02  0.65613517334E+01  0.43400736826E+02  0.00000000000E+00 0.  1.
         11    1    3    3    0    0  0.11831405543E+02  0.22186572723E+02 -0.44710626459E+01  0.25538531042E+02  0.51100000000E-03 0. -1.
        -11    1    3    3    0    0 -0.50369437043E+01  0.13531257177E+02 -0.10864656177E+01  0.14479161939E+02  0.51100000000E-03 0.  1.
         12    1    3    3    0    0 -0.31539156184E+01  0.70293225630E+01 -0.10038234698E+01  0.77695701929E+01  0.00000000000E+00 0. -1.
</event>
<event>
 7    1  0.2442667E-009  0.4778727E+02  0.7816164E-02  0.1312668E+00
        -11   -1    0    0    0    0  0.00000000000E+00  0.00000000000E+00  0.45593999997E+02  0.45594000000E+02  0.51100000000E-03 0.  1.
         11   -1    0    0    0    0 -0.00000000000E+00 -0.00000000000E+00 -0.45593999997E+02  0.45594000000E+02  0.51100000000E-03 0. -1.
    9900012    2    1    2    0    0  0.19070299196E+02 -0.37678966444E+02 -0.10012110320E+02  0.47787272163E+02  0.20000005101E+02 0.  0.
        -12    1    1    2    0    0 -0.19070299196E+02  0.37678966444E+02  0.10012110320E+02  0.43400727837E+02  0.00000000000E+00 0.  1.
         11    1    3    3    0    0 -0.13980684327E+01  0.52132884032E-01  0.14461251805E+01  0.20121111995E+01  0.51100000000E-03 0.  1.
        -11    1    3    3    0    0  0.21367134345E+02 -0.37210118392E+02 -0.12064423129E+02  0.44572386592E+02  0.51100000000E-03 0. -1.
         12    1    3    3    0    0 -0.89876671683E+00 -0.52098093641E+00  0.60618762845E+00  0.12027743713E+01  0.00000000000E+00 0. -1.
</event>
<event>
 7    1  0.2442667E-009  0.4778727E+02  0.7816164E-02  0.1312668E+00
        -11   -1    0    0    0    0  0.00000000000E+00  0.00000000000E+00  0.45593999997E+02  0.45594000000E+02  0.51100000000E-03 0. -1.
         11   -1    0    0    0    0 -0.00000000000E+00 -0.00000000000E+00 -0.45593999997E+02  0.45594000000E+02  0.51100000000E-03 0.  1.
    9900012    2    1    2    0    0  0.46330585218E+00 -0.39975131859E+02  0.16893706525E+02  0.47787272591E+02  0.20000007051E+02 0.  0.
        -12    1    1    2    0    0 -0.46330585218E+00  0.39975131859E+02 -0.16893706525E+02  0.43400727409E+02  0.00000000000E+00 0.  1.
         11    1    3    3    0    0  0.84607698873E+01 -0.19614508956E+02  0.61466665287E+01  0.22228250007E+02  0.51100000000E-03 0.  1.
        -11    1    3    3    0    0 -0.63589092299E+01 -0.19342056969E+02  0.73391108063E+01  0.21642861227E+02  0.51100000000E-03 0. -1.
        -12    1    3    3    0    0 -0.16385548052E+01 -0.10185659336E+01  0.34079291905E+01  0.39161613575E+01  0.00000000000E+00 0.  1.
</event>
<event>
 7    1  0.2442667E-009  0.4778726E+02  0.7816164E-02  0.1312668E+00
        -11   -1    0    0    0    0  0.00000000000E+00  0.00000000000E+00  0.45593999997E+02  0.45594000000E+02  0.51100000000E-03 0. -1.
         11   -1    0    0    0    0 -0.00000000000E+00 -0.00000000000E+00 -0.45593999997E+02  0.45594000000E+02  0.51100000000E-03 0.  1.
    9900012    2    1    2    0    0 -0.32480890726E+02  0.28782512961E+02  0.42721847859E+00  0.47787264634E+02  0.19999970771E+02 0.  0.
        -12    1    1    2    0    0  0.32480890726E+02 -0.28782512961E+02 -0.42721847859E+00  0.43400735366E+02  0.00000000000E+00 0.  1.
         11    1    3    3    0    0 -0.14417524104E+02  0.17906307283E+02  0.54248589013E+01  0.23620540556E+02  0.51100000000E-03 0. -1.
        -11    1    3    3    0    0 -0.15820647188E+02  0.54201030969E+01 -0.67174930960E+01  0.18022072822E+02  0.51100000000E-03 0.  1.
         12    1    3    3    0    0 -0.22427194333E+01  0.54561025818E+01  0.17198526733E+01  0.61446512560E+01  0.00000000000E+00 0. -1.
</event>
<event>
 7    1  0.2442667E-009  0.4778727E+02  0.7816164E-02  0.1312668E+00
        -11   -1    0    0    0    0  0.00000000000E+00  0.00000000000E+00  0.45593999997E+02  0.45594000000E+02  0.51100000000E-03 0.  1.
         11   -1    0    0    0    0 -0.00000000000E+00 -0.00000000000E+00 -0.45593999997E+02  0.45594000000E+02  0.51100000000E-03 0. -1.
    9900012    2    1    2    0    0 -0.10497495444E+02 -0.24885024715E+02 -0.33972948146E+02  0.47787273377E+02  0.20000010637E+02 0.  0.
        -12    1    1    2    0    0  0.10497495444E+02  0.24885024715E+02  0.33972948146E+02  0.43400726623E+02  0.00000000000E+00 0.  1.
         11    1    3    3    0    0 -0.24740903888E+01 -0.14909291258E+02 -0.98437458788E+01  0.18036280721E+02  0.51100000000E-03 0. -1.
        -11    1    3    3    0    0 -0.72402966940E+01 -0.67823188777E+01 -0.24509342066E+02  0.26441058873E+02  0.51100000000E-03 0.  1.
        -12    1    3    3    0    0 -0.78310836135E+00 -0.31934145792E+01  0.38013979908E+00  0.33099337829E+01  0.00000000000E+00 0.  1.
</event>
<event>
 7    1  0.2442667E-009  0.4778727E+02  0.7816164E-02  0.1312668E+00
        -11   -1    0    0    0    0  0.00000000000E+00  0.00000000000E+00  0.45593999997E+02  0.45594000000E+02  0.51100000000E-03 0. -1.
         11   -1    0    0    0    0 -0.00000000000E+00 -0.00000000000E+00 -0.45593999997E+02  0.45594000000E+02  0.51100000000E-03 0.  1.
    9900012    2    1    2    0    0  0.26574313224E+02  0.12432075377E+02  0.31982379791E+02  0.47787271451E+02  0.20000001855E+02 0.  0.
        -12    1    1    2    0    0 -0.26574313224E+02 -0.12432075377E+02 -0.31982379791E+02  0.43400728549E+02  0.00000000000E+00 0.  1.
         11    1    3    3    0    0  0.16418725226E+02  0.15277265793E+02  0.19853517322E+02  0.29952154154E+02  0.51100000000E-03 0. -1.
        -11    1    3    3    0    0  0.92793572965E+01 -0.40129578206E+01  0.12730063598E+02  0.16256224093E+02  0.51100000000E-03 0.  1.
         12    1    3    3    0    0  0.87623070100E+00  0.11677674044E+01 -0.60120112886E+00  0.15788932039E+01  0.00000000000E+00 0. -1.
</event>
<event>
 7    1  0.2442667E-009  0.4778727E+02  0.7816164E-02  0.1312668E+00
        -11   -1    0    0    0    0  0.00000000000E+00  0.00000000000E+00  0.45593999997E+02  0.45594000000E+02  0.51100000000E-03 0.  1.
         11   -1    0    0    0    0 -0.00000000000E+00 -0.00000000000E+00 -0.45593999997E+02  0.45594000000E+02  0.51100000000E-03 0. -1.
    9900012    2    1    2    0    0  0.29413107884E+02 -0.26193008550E+02 -0.18232345892E+02  0.47787273634E+02  0.20000011809E+02 0.  0.
        -12    1    1    2    0    0 -0.29413107884E+02  0.26193008550E+02  0.18232345892E+02  0.43400726366E+02  0.00000000000E+00 0.  1.
         11    1    3    3    0    0  0.10042586818E+02 -0.76830051837E-01 -0.13776606847E+01  0.10136932577E+02  0.51100000000E-03 0. -1.
        -11    1    3    3    0    0  0.58074217409E+01 -0.12344694860E+02 -0.32813752260E+01  0.14031573757E+02  0.51100000000E-03 0.  1.
         12    1    3    3    0    0  0.13563099325E+02 -0.13771483638E+02 -0.13573309981E+02  0.23618767300E+02  0.00000000000E+00 0. -1.
</event>
<event>
 7    1  0.2442667E-009  0.4778727E+02  0.7816164E-02  0.1312668E+00
        -11   -1    0    0    0    0  0.00000000000E+00  0.00000000000E+00  0.45593999997E+02  0.45594000000E+02  0.51100000000E-03 0.  1.
         11   -1    0    0    0    0 -0.00000000000E+00 -0.00000000000E+00 -0.45593999997E+02  0.45594000000E+02  0.51100000000E-03 0. -1.
    9900012    2    1    2    0    0 -0.28524546689E+02  0.26623133807E+02 -0.19004791740E+02  0.47787272741E+02  0.20000007735E+02 0.  0.
        -12    1    1    2    0    0  0.28524546689E+02 -0.26623133807E+02  0.19004791740E+02  0.43400727259E+02  0.00000000000E+00 0.  1.
         11    1    3    3    0    0 -0.77140052719E+01  0.49186355217E+01 -0.67933212449E+01  0.11395089580E+02  0.51100000000E-03 0. -1.
        -11    1    3    3    0    0 -0.14806341177E+02  0.37163953713E+01 -0.64525869068E+01  0.16573328322E+02  0.51100000000E-03 0.  1.
        -12    1    3    3    0    0 -0.60042002398E+01  0.17988102914E+02 -0.57588835887E+01  0.19818854839E+02  0.00000000000E+00 0.  1.
</event>
<event>
 7    1  0.2442667E-009  0.4778727E+02  0.7816164E-02  0.1312668E+00
        -11   -1    0    0    0    0  0.00000000000E+00  0.00000000000E+00  0.45593999997E+02  0.45594000000E+02  0.51100000000E-03 0. -1.
         11   -1    0    0    0    0 -0.00000000000E+00 -0.00000000000E+00 -0.45593999997E+02  0.45594000000E+02  0.51100000000E-03 0.  1.
    9900012    2    1    2    0    0  0.34568323475E+02 -0.26065874907E+02 -0.30371498253E+01  0.47787273029E+02  0.20000009048E+02 0.  0.
        -12    1    1    2    0    0 -0.34568323475E+02  0.26065874907E+02  0.30371498253E+01  0.43400726971E+02  0.00000000000E+00 0.  1.
         11    1    3    3    0    0  0.21950373459E+02 -0.24214567704E+02 -0.23295740237E+01  0.32765700046E+02  0.51100000000E-03 0. -1.
        -11    1    3    3    0    0  0.57686795332E+01 -0.95976446664E+00  0.36134289348E+01  0.68742767122E+01  0.51100000000E-03 0.  1.
         12    1    3    3    0    0  0.68492704829E+01 -0.89154273648E+00 -0.43210047364E+01  0.81472962712E+01  0.00000000000E+00 0. -1.
</event>
<event>
 7    1  0.2442667E-009  0.4778727E+02  0.7816164E-02  0.1312668E+00
        -11   -1    0    0    0    0  0.00000000000E+00  0.00000000000E+00  0.45593999997E+02  0.45594000000E+02  0.51100000000E-03 0. -1.
         11   -1    0    0    0    0 -0.00000000000E+00 -0.00000000000E+00 -0.45593999997E+02  0.45594000000E+02  0.51100000000E-03 0.  1.
    9900012    2    1    2    0    0  0.89286869548E+01  0.25858845011E+02  0.33693052137E+02  0.47787273297E+02  0.20000010271E+02 0.  0.
        -12    1    1    2    0    0 -0.89286869548E+01 -0.25858845011E+02 -0.33693052137E+02  0.43400726703E+02  0.00000000000E+00 0.  1.
         11    1    3    3    0    0  0.30469777340E+01  0.28665073413E+01  0.89155170620E+01  0.98482172191E+01  0.51100000000E-03 0. -1.
        -11    1    3    3    0    0 -0.26969034173E+00 -0.13877965668E+01  0.70091852026E+01  0.71503419259E+01  0.51100000000E-03 0.  1.
        -12    1    3    3    0    0  0.61513995625E+01  0.24380134237E+02  0.17768349872E+02  0.30788714152E+02  0.00000000000E+00 0.  1.
</event>
<event>
 7    1  0.2442667E-009  0.4778726E+02  0.7816164E-02  0.1312668E+00
        -11   -1    0    0    0    0  0.00000000000E+00  0.00000000000E+00  0.45593999997E+02  0.45594000000E+02  0.51100000000E-03 0. -1.
         11   -1    0    0    0    0 -0.00000000000E+00 -0.00000000000E+00 -0.45593999997E+02  0.45594000000E+02  0.51100000000E-03 0.  1.
    9900012    2    1    2    0    0 -0.11694530628E+02 -0.16213562537E+02  0.38522492709E+02  0.47787261512E+02  0.19999956538E+02 0.  0.
        -12    1    1    2    0    0  0.11694530628E+02  0.16213562537E+02 -0.38522492709E+02  0.43400738488E+02  0.00000000000E+00 0.  1.
         11    1    3    3    0    0 -0.52212838753E+01 -0.16458933059E+02  0.22966996123E+02  0.28733972818E+02  0.51100000000E-03 0. -1.
        -11    1    3    3    0    0  0.70789243274E+00 -0.27737426043E+01  0.22744523613E+01  0.36562130048E+01  0.51100000000E-03 0.  1.
         12    1    3    3    0    0 -0.71811391855E+01  0.30191131259E+01  0.13281044225E+02  0.15397075689E+02  0.00000000000E+00 0. -1.
</event>
<event>
 7    1  0.2442667E-009  0.4778728E+02  0.7816164E-02  0.1312668E+00
        -11   -1    0    0    0    0  0.00000000000E+00  0.00000000000E+00  0.45593999997E+02  0.45594000000E+02  0.51100000000E-03 0.  1.
         11   -1    0    0    0    0 -0.00000000000E+00 -0.00000000000E+00 -0.45593999997E+02  0.45594000000E+02  0.51100000000E-03 0. -1.
    9900012    2    1    2    0    0 -0.24592009754E+02  0.14303860961E+02 -0.32775828263E+02  0.47787282258E+02  0.20000051128E+02 0.  0.
        -12    1    1    2    0    0  0.24592009754E+02 -0.14303860961E+02  0.32775828263E+02  0.43400717742E+02  0.00000000000E+00 0.  1.
         11    1    3    3    0    0 -0.11049625145E+02  0.16828106439E+01 -0.21374613753E+02  0.24120534423E+02  0.51100000000E-03 0. -1.
        -11    1    3    3    0    0 -0.12955867453E+02  0.10683424002E+02 -0.12877025181E+02  0.21161470356E+02  0.51100000000E-03 0.  1.
         12    1    3    3    0    0 -0.58651715698E+00  0.19376263157E+01  0.14758106704E+01  0.25052774796E+01  0.00000000000E+00 0. -1.
</event>
<event>
 7    1  0.2442667E-009  0.4778728E+02  0.7816164E-02  0.1312668E+00
        -11   -1    0    0    0    0  0.00000000000E+00  0.00000000000E+00  0.45593999997E+02  0.45594000000E+02  0.51100000000E-03 0.  1.
         11   -1    0    0    0    0 -0.00000000000E+00 -0.00000000000E+00 -0.45593999997E+02  0.45594000000E+02  0.51100000000E-03 0. -1.
    9900012    2    1    2    0    0 -0.33809488383E+02 -0.26095664605E+02  0.77173129028E+01  0.47787284172E+02  0.20000059855E+02 0.  0.
        -12    1    1    2    0    0  0.33809488383E+02  0.26095664605E+02 -0.77173129028E+01  0.43400715828E+02  0.00000000000E+00 0.  1.
         11    1    3    3    0    0 -0.98218091866E+01 -0.75807003895E+01  0.49216477084E+01  0.13347567963E+02  0.51100000000E-03 0. -1.
        -11    1    3    3    0    0 -0.70842155464E+01 -0.14331154343E+01  0.69784691044E+01  0.10046838361E+02  0.51100000000E-03 0.  1.
        -12    1    3    3    0    0 -0.16903463650E+02 -0.17081848781E+02 -0.41828039100E+01  0.24392877848E+02  0.00000000000E+00 0.  1.
</event>
<event>
 7    1  0.2442667E-009  0.4778727E+02  0.7816164E-02  0.1312668E+00
        -11   -1    0    0    0    0  0.00000000000E+00  0.00000000000E+00  0.45593999997E+02  0.45594000000E+02  0.51100000000E-03 0. -1.
         11   -1    0    0    0    0 -0.00000000000E+00 -0.00000000000E+00 -0.45593999997E+02  0.45594000000E+02  0.51100000000E-03 0.  1.
    9900012    2    1    2    0    0  0.16141465884E+02 -0.26733158950E+01  0.40198629669E+02  0.47787269983E+02  0.19999995159E+02 0.  0.
        -12    1    1    2    0    0 -0.16141465884E+02  0.26733158950E+01 -0.40198629669E+02  0.43400730017E+02  0.00000000000E+00 0.  1.
         11    1    3    3    0    0 -0.17172924037E+01 -0.30352754264E+01  0.45869529691E+01  0.57621287660E+01  0.51100000000E-03 0.  1.
        -11    1    3    3    0    0  0.19989166481E+02 -0.40230941371E+00  0.31001116210E+02  0.36888993426E+02  0.51100000000E-03 0. -1.
         12    1    3    3    0    0 -0.21304081938E+01  0.76426894517E+00  0.46105604903E+01  0.51361477907E+01  0.00000000000E+00 0. -1.
</event>
<event>
 7    1  0.2442667E-009  0.4778727E+02  0.7816164E-02  0.1312668E+00
        -11   -1    0    0    0    0  0.00000000000E+00  0.00000000000E+00  0.45593999997E+02  0.45594000000E+02  0.51100000000E-03 0. -1.
         11   -1    0    0    0    0 -0.00000000000E+00 -0.00000000000E+00 -0.45593999997E+02  0.45594000000E+02  0.51100000000E-03 0.  1.
    9900012    2    1    2    0    0 -0.42452085273E+02 -0.63793785411E+01 -0.63833532301E+01  0.47787271745E+02  0.20000003194E+02 0.  0.
        -12    1    1    2    0    0  0.42452085273E+02  0.63793785411E+01  0.63833532301E+01  0.43400728255E+02  0.00000000000E+00 0.  1.
         11    1    3    3    0    0 -0.19922856632E+02 -0.66413835734E+01 -0.30968970367E+01  0.21227787536E+02  0.51100000000E-03 0. -1.
        -11    1    3    3    0    0 -0.24042125597E+02 -0.11761059954E+01 -0.38978773397E+01  0.24384431027E+02  0.51100000000E-03 0.  1.
        -12    1    3    3    0    0  0.15128969555E+01  0.14381110277E+01  0.61142114630E+00  0.21750531819E+01  0.00000000000E+00 0.  1.
</event>
<event>
 7    1  0.2442667E-009  0.4778727E+02  0.7816164E-02  0.1312668E+00
        -11   -1    0    0    0    0  0.00000000000E+00  0.00000000000E+00  0.45593999997E+02  0.45594000000E+02  0.51100000000E-03 0.  1.
         11   -1    0    0    0    0 -0.00000000000E+00 -0.00000000000E+00 -0.45593999997E+02  0.45594000000E+02  0.51100000000E-03 0. -1.
    9900012    2    1    2    0    0  0.67912836437E+01 -0.27330785466E+02 -0.33023172313E+02  0.47787271005E+02  0.19999999821E+02 0.  0.
        -12    1    1    2    0    0 -0.67912836437E+01  0.27330785466E+02  0.33023172313E+02  0.43400728995E+02  0.00000000000E+00 0.  1.
         11    1    3    3    0    0  0.48385881219E+01 -0.13862271185E+02 -0.10003946066E+02  0.17766638246E+02  0.51100000000E-03 0. -1.
        -11    1    3    3    0    0  0.23836730202E+01 -0.81858375755E+01 -0.23200337396E+02  0.24717311533E+02  0.51100000000E-03 0.  1.
        -12    1    3    3    0    0 -0.43097749839E+00 -0.52826767050E+01  0.18111114926E+00  0.53033212256E+01  0.00000000000E+00 0.  1.
</event>
<event>
 7    1  0.2442667E-009  0.4778727E+02  0.7816164E-02  0.1312668E+00
        -11   -1    0    0    0    0  0.00000000000E+00  0.00000000000E+00  0.45593999997E+02  0.45594000000E+02  0.51100000000E-03 0.  1.
         11   -1    0    0    0    0 -0.00000000000E+00 -0.00000000000E+00 -0.45593999997E+02  0.45594000000E+02  0.51100000000E-03 0. -1.
    9900012    2    1    2    0    0 -0.32249580302E+01 -0.34762593430E+02 -0.25783430468E+02  0.47787267945E+02  0.19999985866E+02 0.  0.
        -12    1    1    2    0    0  0.32249580302E+01  0.34762593430E+02  0.25783430468E+02  0.43400732055E+02  0.00000000000E+00 0.  1.
         11    1    3    3    0    0 -0.96684441405E+00 -0.13956339224E+02 -0.17716573814E+01  0.14101523421E+02  0.51100000000E-03 0.  1.
        -11    1    3    3    0    0 -0.14911515081E+01 -0.22070828598E+02 -0.22104842572E+02  0.31272497073E+02  0.51100000000E-03 0. -1.
        -12    1    3    3    0    0 -0.76696210804E+00  0.12645743921E+01 -0.19069305150E+01  0.24132474505E+01  0.00000000000E+00 0.  1.
</event>
<event>
 7    1  0.2442667E-009  0.4778727E+02  0.7816164E-02  0.1312668E+00
        -11   -1    0    0    0    0  0.00000000000E+00  0.00000000000E+00  0.45593999997E+02  0.45594000000E+02  0.51100000000E-03 0.  1.
         11   -1    0    0    0    0 -0.00000000000E+00 -0.00000000000E+00 -0.45593999997E+02  0.45594000000E+02  0.51100000000E-03 0. -1.
    9900012    2    1    2    0    0 -0.31871632812E+01 -0.21223109887E+02 -0.37723264850E+02  0.47787272886E+02  0.20000008399E+02 0.  0.
        -12    1    1    2    0    0  0.31871632812E+01  0.21223109887E+02  0.37723264850E+02  0.43400727114E+02  0.00000000000E+00 0.  1.
         11    1    3    3    0    0  0.18196196274E+01 -0.11164907467E+02 -0.19096444658E+02  0.22195503445E+02  0.51100000000E-03 0. -1.
        -11    1    3    3    0    0 -0.40680893299E+00 -0.54880800798E+01  0.37317371779E+00  0.55157751364E+01  0.51100000000E-03 0.  1.
        -12    1    3    3    0    0 -0.45999739756E+01 -0.45701223403E+01 -0.18999993909E+02  0.20075994305E+02  0.00000000000E+00 0.  1.
</event>
<event>
 7    1  0.2442667E-009  0.4778727E+02  0.7816164E-02  0.1312668E+00
        -11   -1    0    0    0    0  0.00000000000E+00  0.00000000000E+00  0.45593999997E+02  0.45594000000E+02  0.51100000000E-03 0.  1.
         11   -1    0    0    0    0 -0.00000000000E+00 -0.00000000000E+00 -0.45593999997E+02  0.45594000000E+02  0.51100000000E-03 0. -1.
    9900012    2    1    2    0    0  0.27305208721E+02 -0.77049292162E+01 -0.32843308982E+02  0.47787270716E+02  0.19999998500E+02 0.  0.
        -12    1    1    2    0    0 -0.27305208721E+02  0.77049292162E+01  0.32843308982E+02  0.43400729284E+02  0.00000000000E+00 0.  1.
         11    1    3    3    0    0  0.77945907484E+01 -0.41094111853E+01 -0.12301780286E+02  0.15131976199E+02  0.51100000000E-03 0. -1.
        -11    1    3    3    0    0  0.16275214730E+02  0.36338693591E+01 -0.17494390607E+02  0.24169015785E+02  0.51100000000E-03 0.  1.
        -12    1    3    3    0    0  0.32354032421E+01 -0.72293873900E+01 -0.30471380894E+01  0.84862787316E+01  0.00000000000E+00 0.  1.
</event>
<event>
 7    1  0.2442667E-009  0.4778727E+02  0.7816164E-02  0.1312668E+00
        -11   -1    0    0    0    0  0.00000000000E+00  0.00000000000E+00  0.45593999997E+02  0.45594000000E+02  0.51100000000E-03 0. -1.
         11   -1    0    0    0    0 -0.00000000000E+00 -0.00000000000E+00 -0.45593999997E+02  0.45594000000E+02  0.51100000000E-03 0.  1.
    9900012    2    1    2    0    0  0.11250117776E+02 -0.39838561999E+02  0.13036376685E+02  0.47787270868E+02  0.19999999196E+02 0.  0.
        -12    1    1    2    0    0 -0.11250117776E+02  0.39838561999E+02 -0.13036376685E+02  0.43400729132E+02  0.00000000000E+00 0.  1.
         11    1    3    3    0    0 -0.42834029982E+01 -0.13903422194E+02  0.25474553617E+01  0.14769638419E+02  0.51100000000E-03 0. -1.
        -11    1    3    3    0    0  0.74096318395E+01 -0.84063279527E+01  0.37840776930E+00  0.11212144592E+02  0.51100000000E-03 0.  1.
         12    1    3    3    0    0  0.81238889350E+01 -0.17528811852E+02  0.10110513554E+02  0.21805487857E+02  0.00000000000E+00 0. -1.
</event>
<event>
 7    1  0.2442667E-009  0.4778728E+02  0.7816164E-02  0.1312668E+00
        -11   -1    0    0    0    0  0.00000000000E+00  0.00000000000E+00  0.45593999997E+02  0.45594000000E+02  0.51100000000E-03 0.  1.
         11   -1    0    0    0    0 -0.00000000000E+00 -0.00000000000E+00 -0.45593999997E+02  0.45594000000E+02  0.51100000000E-03 0. -1.
    9900012    2    1    2    0    0  0.28447271406E+02  0.22294163821E+01 -0.32701760776E+02  0.47787277590E+02  0.20000029843E+02 0.  0.
        -12    1    1    2    0    0 -0.28447271406E+02 -0.22294163821E+01  0.32701760776E+02  0.43400722410E+02  0.00000000000E+00 0.  1.
         11    1    3    3    0    0  0.15024016144E+02  0.16628799811E+00 -0.16006703986E+02  0.21953662235E+02  0.51100000000E-03 0. -1.
        -11    1    3    3    0    0  0.73656903856E+01 -0.38612309416E+01 -0.15060887011E+02  0.17204441783E+02  0.51100000000E-03 0.  1.
        -12    1    3    3    0    0  0.60575648765E+01  0.59243593256E+01 -0.16341697790E+01  0.86291735710E+01  0.00000000000E+00 0.  1.
</event>
<event>
 7    1 -0.2442667E-009  0.4778727E+02  0.7816164E-02  0.1312668E+00
        -11   -1    0    0    0    0  0.00000000000E+00  0.00000000000E+00  0.45593999997E+02  0.45594000000E+02  0.51100000000E-03 0.  1.
         11   -1    0    0    0    0 -0.00000000000E+00 -0.00000000000E+00 -0.45593999997E+02  0.45594000000E+02  0.51100000000E-03 0. -1.
    9900012    2    1    2    0    0 -0.32581069775E+02  0.12258433022E+02 -0.25919641879E+02  0.47787272783E+02  0.20000007928E+02 0.  0.
        -12    1    1    2    0    0  0.32581069775E+02 -0.12258433022E+02  0.25919641879E+02  0.43400727217E+02  0.00000000000E+00 0.  1.
         11    1    3    3    0    0 -0.94844513326E+01  0.70153137250E+01 -0.17222265623E+02  0.20875245560E+02  0.51100000000E-03 0. -1.
        -11    1    3    3    0    0  0.83261813909E-01  0.33009408038E-01  0.11792667094E+01  0.11826632588E+01  0.51100000000E-03 0.  1.
         12    1    3    3    0    0 -0.23179880256E+02  0.52101098891E+01 -0.98766429646E+01  0.25729363964E+02  0.00000000000E+00 0. -1.
</event>
<event>
 7    1  0.2442667E-009  0.4778728E+02  0.7816164E-02  0.1312668E+00
        -11   -1    0    0    0    0  0.00000000000E+00  0.00000000000E+00  0.45593999997E+02  0.45594000000E+02  0.51100000000E-03 0. -1.
         11   -1    0    0    0    0 -0.00000000000E+00 -0.00000000000E+00 -0.45593999997E+02  0.45594000000E+02  0.51100000000E-03 0.  1.
    9900012    2    1    2    0    0  0.69711138319E+01 -0.17511417742E+02  0.39094458148E+02  0.47787276074E+02  0.20000022932E+02 0.  0.
        -12    1    1    2    0    0 -0.69711138319E+01  0.17511417742E+02 -0.39094458148E+02  0.43400723926E+02  0.00000000000E+00 0.  1.
         11    1    3    3    0    0 -0.37735781454E+01 -0.22953867660E+01  0.15777191470E+02  0.16383786601E+02  0.51100000000E-03 0. -1.
        -11    1    3    3    0    0  0.12617137243E+01  0.82068855797E+00  0.52104738777E+01  0.54235126553E+01  0.51100000000E-03 0.  1.
         12    1    3    3    0    0  0.94829782530E+01 -0.16036719534E+02  0.18106792800E+02  0.25979976818E+02  0.00000000000E+00 0. -1.
</event>
<event>
 7    1  0.2442667E-009  0.4778727E+02  0.7816164E-02  0.1312668E+00
        -11   -1    0    0    0    0  0.00000000000E+00  0.00000000000E+00  0.45593999997E+02  0.45594000000E+02  0.51100000000E-03 0.  1.
         11   -1    0    0    0    0 -0.00000000000E+00 -0.00000000000E+00 -0.45593999997E+02  0.45594000000E+02  0.51100000000E-03 0. -1.
    9900012    2    1    2    0    0  0.19690927474E+01 -0.36930951449E+02 -0.22712345951E+02  0.47787272359E+02  0.20000005992E+02 0.  0.
        -12    1    1    2    0    0 -0.19690927474E+01  0.36930951449E+02  0.22712345951E+02  0.43400727641E+02  0.00000000000E+00 0.  1.
         11    1    3    3    0    0  0.70434238096E+01 -0.29509543811E+02 -0.11188536295E+02  0.32335836769E+02  0.51100000000E-03 0. -1.
        -11    1    3    3    0    0 -0.12600118959E+01 -0.11515145925E+01 -0.60766674973E+01  0.63118542417E+01  0.51100000000E-03 0.  1.
         12    1    3    3    0    0 -0.38143191663E+01 -0.62698930459E+01 -0.54471421592E+01  0.91395813478E+01  0.00000000000E+00 0. -1.
</event>
<event>
 7    1  0.2442667E-009  0.4778727E+02  0.7816164E-02  0.1312668E+00
        -11   -1    0    0    0    0  0.00000000000E+00  0.00000000000E+00  0.45593999997E+02  0.45594000000E+02  0.51100000000E-03 0.  1.
         11   -1    0    0    0    0 -0.00000000000E+00 -0.00000000000E+00 -0.45593999997E+02  0.45594000000E+02  0.51100000000E-03 0. -1.
    9900012    2    1    2    0    0 -0.10260610005E+01 -0.34926280843E+02  0.25743454151E+02  0.47787270440E+02  0.19999997244E+02 0.  0.
        -12    1    1    2    0    0  0.10260610005E+01  0.34926280843E+02 -0.25743454151E+02  0.43400729560E+02  0.00000000000E+00 0.  1.
         11    1    3    3    0    0  0.47146424934E+01 -0.25978859721E+02  0.10906128576E+02  0.28566985263E+02  0.51100000000E-03 0. -1.
        -11    1    3    3    0    0 -0.48954133506E+01 -0.80789164673E+01  0.15251124881E+02  0.17939642515E+02  0.51100000000E-03 0.  1.
        -12    1    3    3    0    0 -0.84529014338E+00 -0.86850465509E+00 -0.41379930621E+00  0.12806426622E+01  0.00000000000E+00 0.  1.
</event>
<event>
 7    1  0.2442667E-009  0.4778727E+02  0.7816164E-02  0.1312668E+00
        -11   -1    0    0    0    0  0.00000000000E+00  0.00000000000E+00  0.45593999997E+02  0.45594000000E+02  0.51100000000E-03 0.  1.
         11   -1    0    0    0    0 -0.00000000000E+00 -0.00000000000E+00 -0.45593999997E+02  0.45594000000E+02  0.51100000000E-03 0. -1.
    9900012    2    1    2    0    0 -0.89320352114E+01 -0.31868993775E+02 -0.28075067033E+02  0.47787269520E+02  0.19999993051E+02 0.  0.
        -12    1    1    2    0    0  0.89320352114E+01  0.31868993775E+02  0.28075067033E+02  0.43400730480E+02  0.00000000000E+00 0.  1.
         11    1    3    3    0    0 -0.11383753638E+02 -0.12769404212E+02 -0.12283708429E+02  0.21060318703E+02  0.51100000000E-03 0. -1.
        -11    1    3    3    0    0  0.20006791250E+01 -0.18466296347E+02 -0.17072400447E+02  0.25228429896E+02  0.51100000000E-03 0.  1.
        -12    1    3    3    0    0  0.45103930193E+00 -0.63329321625E+00  0.12810418428E+01  0.14985209216E+01  0.00000000000E+00 0.  1.
</event>
<event>
 7    1  0.2442667E-009  0.4778727E+02  0.7816164E-02  0.1312668E+00
        -11   -1    0    0    0    0  0.00000000000E+00  0.00000000000E+00  0.45593999997E+02  0.45594000000E+02  0.51100000000E-03 0. -1.
         11   -1    0    0    0    0 -0.00000000000E+00 -0.00000000000E+00 -0.45593999997E+02  0.45594000000E+02  0.51100000000E-03 0.  1.
    9900012    2    1    2    0    0  0.31139942023E+02 -0.15905546932E+01  0.30189362017E+02  0.47787269218E+02  0.19999991673E+02 0.  0.
        -12    1    1    2    0    0 -0.31139942023E+02  0.15905546932E+01 -0.30189362017E+02  0.43400730782E+02  0.00000000000E+00 0.  1.
         11    1    3    3    0    0  0.85588341436E+01 -0.60077910858E+01  0.16213543643E+02  0.19293164420E+02  0.51100000000E-03 0.  1.
        -11    1    3    3    0    0 -0.21395162796E+00  0.17198088582E+01  0.25484090426E+00  0.17517025876E+01  0.51100000000E-03 0. -1.
         12    1    3    3    0    0  0.22795059507E+02  0.26974275344E+01  0.13720977470E+02  0.26742402210E+02  0.00000000000E+00 0. -1.
</event>
<event>
 7    1  0.2442667E-009  0.4778726E+02  0.7816164E-02  0.1312668E+00
        -11   -1    0    0    0    0  0.00000000000E+00  0.00000000000E+00  0.45593999997E+02  0.45594000000E+02  0.51100000000E-03 0.  1.
         11   -1    0    0    0    0 -0.00000000000E+00 -0.00000000000E+00 -0.45593999997E+02  0.45594000000E+02  0.51100000000E-03 0. -1.
    9900012    2    1    2    0    0 -0.31139971524E+02 -0.29049134416E+02 -0.83710344634E+01  0.47787259743E+02  0.19999948473E+02 0.  0.
        -12    1    1    2    0    0  0.31139971524E+02  0.29049134416E+02  0.83710344634E+01  0.43400740257E+02  0.00000000000E+00 0.  1.
         11    1    3    3    0    0 -0.13271842967E+02 -0.21408558706E+02  0.92251899313E+00  0.25205539930E+02  0.51100000000E-03 0. -1.
        -11    1    3    3    0    0 -0.12831455170E+02 -0.39806193349E+01 -0.93281355027E+01  0.16355601007E+02  0.51100000000E-03 0.  1.
        -12    1    3    3    0    0 -0.50366733863E+01 -0.36599563757E+01  0.34582046120E-01  0.62261188063E+01  0.00000000000E+00 0.  1.
</event>
<event>
 7    1  0.2442667E-009  0.4778727E+02  0.7816164E-02  0.1312668E+00
        -11   -1    0    0    0    0  0.00000000000E+00  0.00000000000E+00  0.45593999997E+02  0.45594000000E+02  0.51100000000E-03 0. -1.
         11   -1    0    0    0    0 -0.00000000000E+00 -0.00000000000E+00 -0.45593999997E+02  0.45594000000E+02  0.51100000000E-03 0.  1.
    9900012    2    1    2    0    0 -0.36225709523E+02 -0.16655368147E+02 -0.17144086825E+02  0.47787273835E+02  0.20000012725E+02 0.  0.
        -12    1    1    2    0    0  0.36225709523E+02  0.16655368147E+02  0.17144086825E+02  0.43400726165E+02  0.00000000000E+00 0.  1.
         11    1    3    3    0    0 -0.34011150296E+02 -0.15369767237E+02 -0.96028392144E+01  0.38538326515E+02  0.51100000000E-03 0. -1.
        -11    1    3    3    0    0 -0.33118462208E+01  0.29009358192E+00 -0.56392857358E+01  0.65462984615E+01  0.51100000000E-03 0.  1.
         12    1    3    3    0    0  0.10972869937E+01 -0.15756944926E+01 -0.19019618750E+01  0.27026488589E+01  0.00000000000E+00 0. -1.
</event>
<event>
 7    1  0.2442667E-009  0.4778727E+02  0.7816164E-02  0.1312668E+00
        -11   -1    0    0    0    0  0.00000000000E+00  0.00000000000E+00  0.45593999997E+02  0.45594000000E+02  0.51100000000E-03 0.  1.
         11   -1    0    0    0    0 -0.00000000000E+00 -0.00000000000E+00 -0.45593999997E+02  0.45594000000E+02  0.51100000000E-03 0. -1.
    9900012    2    1    2    0    0 -0.91750393964E-01 -0.38452484085E+02 -0.20125141809E+02  0.47787270936E+02  0.19999999505E+02 0.  0.
        -12    1    1    2    0    0  0.91750393964E-01  0.38452484085E+02  0.20125141809E+02  0.43400729064E+02  0.00000000000E+00 0.  1.
         11    1    3    3    0    0  0.53654327590E+01 -0.80975369090E+01 -0.38356267822E+01  0.10443658638E+02  0.51100000000E-03 0.  1.
        -11    1    3    3    0    0 -0.58332805345E+01 -0.17434026026E+02 -0.16066556944E+02  0.24415295976E+02  0.51100000000E-03 0. -1.
        -12    1    3    3    0    0  0.37609738153E+00 -0.12920921150E+02 -0.22295808273E+00  0.12928316322E+02  0.00000000000E+00 0.  1.
</event>
<event>
 7    1  0.2442667E-009  0.4778727E+02  0.7816164E-02  0.1312668E+00
        -11   -1    0    0    0    0  0.00000000000E+00  0.00000000000E+00  0.45593999997E+02  0.45594000000E+02  0.51100000000E-03 0. -1.
         11   -1    0    0    0    0 -0.00000000000E+00 -0.00000000000E+00 -0.45593999997E+02  0.45594000000E+02  0.51100000000E-03 0.  1.
    9900012    2    1    2    0    0 -0.38744997976E+02  0.28821830893E+01  0.19342738306E+02  0.47787269906E+02  0.19999994810E+02 0.  0.
        -12    1    1    2    0    0  0.38744997976E+02 -0.28821830893E+01 -0.19342738306E+02  0.43400730094E+02  0.00000000000E+00 0.  1.
         11    1    3    3    0    0 -0.14040346514E+02 -0.81003224725E+01  0.87604701294E+01  0.18425319306E+02  0.51100000000E-03 0. -1.
        -11    1    3    3    0    0 -0.19324230650E+02  0.10455999805E+02  0.88199025388E+01  0.23675821067E+02  0.51100000000E-03 0.  1.
        -12    1    3    3    0    0 -0.53804208118E+01  0.52650575686E+00  0.17623656378E+01  0.56861295329E+01  0.00000000000E+00 0.  1.
</event>
<event>
 7    1  0.2442667E-009  0.4778727E+02  0.7816164E-02  0.1312668E+00
        -11   -1    0    0    0    0  0.00000000000E+00  0.00000000000E+00  0.45593999997E+02  0.45594000000E+02  0.51100000000E-03 0.  1.
         11   -1    0    0    0    0 -0.00000000000E+00 -0.00000000000E+00 -0.45593999997E+02  0.45594000000E+02  0.51100000000E-03 0. -1.
    9900012    2    1    2    0    0  0.12475114961E+01  0.32591168900E+02 -0.28633596744E+02  0.47787269157E+02  0.19999991394E+02 0.  0.
        -12    1    1    2    0    0 -0.12475114961E+01 -0.32591168900E+02  0.28633596744E+02  0.43400730843E+02  0.00000000000E+00 0.  1.
         11    1    3    3    0    0  0.19533785252E+01  0.15545508181E+02 -0.13252111593E+02  0.20520647509E+02  0.51100000000E-03 0. -1.
        -11    1    3    3    0    0 -0.60915146104E+01  0.11968134426E+02 -0.14579007257E+02  0.19821459198E+02  0.51100000000E-03 0.  1.
        -12    1    3    3    0    0  0.53856475812E+01  0.50775262938E+01 -0.80247789420E+00  0.74451624498E+01  0.00000000000E+00 0.  1.
</event>
<event>
 7    1  0.2442667E-009  0.4778727E+02  0.7816164E-02  0.1312668E+00
        -11   -1    0    0    0    0  0.00000000000E+00  0.00000000000E+00  0.45593999997E+02  0.45594000000E+02  0.51100000000E-03 0. -1.
         11   -1    0    0    0    0 -0.00000000000E+00 -0.00000000000E+00 -0.45593999997E+02  0.45594000000E+02  0.51100000000E-03 0.  1.
    9900012    2    1    2    0    0  0.23724909174E+02 -0.15592598928E+02  0.32827165738E+02  0.47787271123E+02  0.20000000357E+02 0.  0.
        -12    1    1    2    0    0 -0.23724909174E+02  0.15592598928E+02 -0.32827165738E+02  0.43400728877E+02  0.00000000000E+00 0.  1.
         11    1    3    3    0    0  0.21955451704E+02 -0.14070087619E+02  0.35246965342E+02  0.43844700834E+02  0.51100000000E-03 0. -1.
        -11    1    3    3    0    0  0.10047641866E+01  0.30884076511E+00 -0.12713923490E+01  0.16496582843E+01  0.51100000000E-03 0.  1.
         12    1    3    3    0    0  0.76469328383E+00 -0.18313520742E+01 -0.11484072546E+01  0.22929120045E+01  0.00000000000E+00 0. -1.
</event>
<event>
 7    1  0.2442667E-009  0.4778727E+02  0.7816164E-02  0.1312668E+00
        -11   -1    0    0    0    0  0.00000000000E+00  0.00000000000E+00  0.45593999997E+02  0.45594000000E+02  0.51100000000E-03 0. -1.
         11   -1    0    0    0    0 -0.00000000000E+00 -0.00000000000E+00 -0.45593999997E+02  0.45594000000E+02  0.51100000000E-03 0.  1.
    9900012    2    1    2    0    0  0.14937458778E+02 -0.40297818955E+02 -0.60482571416E+01  0.47787270724E+02  0.19999998537E+02 0.  0.
        -12    1    1    2    0    0 -0.14937458778E+02  0.40297818955E+02  0.60482571416E+01  0.43400729276E+02  0.00000000000E+00 0.  1.
         11    1    3    3    0    0  0.13760018308E+02 -0.39184262550E+02 -0.55428147975E+00  0.41533742471E+02  0.51100000000E-03 0. -1.
        -11    1    3    3    0    0  0.18536949598E+01 -0.96777582591E+00 -0.49497027133E+01  0.53732980808E+01  0.51100000000E-03 0.  1.
         12    1    3    3    0    0 -0.67625449037E+00 -0.14578057922E+00 -0.54427294848E+00  0.88023017187E+00  0.00000000000E+00 0. -1.
</event>
<event>
 7    1  0.2442667E-009  0.4778728E+02  0.7816164E-02  0.1312668E+00
        -11   -1    0    0    0    0  0.00000000000E+00  0.00000000000E+00  0.45593999997E+02  0.45594000000E+02  0.51100000000E-03 0.  1.
         11   -1    0    0    0    0 -0.00000000000E+00 -0.00000000000E+00 -0.45593999997E+02  0.45594000000E+02  0.51100000000E-03 0. -1.
    9900012    2    1    2    0    0  0.25547520970E+02 -0.29540379654E+02 -0.18929159222E+02  0.47787275045E+02  0.20000018239E+02 0.  0.
        -12    1    1    2    0    0 -0.25547520970E+02  0.29540379654E+02  0.18929159222E+02  0.43400724955E+02  0.00000000000E+00 0.  1.
         11    1    3    3    0    0  0.50192752768E+01 -0.49819440176E+01 -0.11223091671E+02  0.13265393979E+02  0.51100000000E-03 0. -1.
        -11    1    3    3    0    0  0.94857786940E+01 -0.84606801444E+01  0.17507424981E+01  0.12830752335E+02  0.51100000000E-03 0.  1.
        -12    1    3    3    0    0  0.11042466999E+02 -0.16097755492E+02 -0.94568100486E+01  0.21691128730E+02  0.00000000000E+00 0.  1.
</event>
<event>
 7    1  0.2442667E-009  0.4778725E+02  0.7816164E-02  0.1312668E+00
        -11   -1    0    0    0    0  0.00000000000E+00  0.00000000000E+00  0.45593999997E+02  0.45594000000E+02  0.51100000000E-03 0.  1.
         11   -1    0    0    0    0 -0.00000000000E+00 -0.00000000000E+00 -0.45593999997E+02  0.45594000000E+02  0.51100000000E-03 0. -1.
    9900012    2    1    2    0    0 -0.22499367928E+02 -0.35434395005E+02 -0.11036618419E+02  0.47787252856E+02  0.19999917070E+02 0.  0.
        -12    1    1    2    0    0  0.22499367928E+02  0.35434395005E+02  0.11036618419E+02  0.43400747144E+02  0.00000000000E+00 0.  1.
         11    1    3    3    0    0 -0.18075195217E+02 -0.24266742954E+02 -0.10958185790E+02  0.32181816788E+02  0.51100000000E-03 0. -1.
        -11    1    3    3    0    0 -0.35101501535E+01 -0.27539707620E+01  0.41954498397E+01  0.61243210788E+01  0.51100000000E-03 0.  1.
         12    1    3    3    0    0 -0.91402255810E+00 -0.84136812894E+01 -0.42738824688E+01  0.94811149889E+01  0.00000000000E+00 0. -1.
</event>
<event>
 7    1  0.2442667E-009  0.4778727E+02  0.7816164E-02  0.1312668E+00
        -11   -1    0    0    0    0  0.00000000000E+00  0.00000000000E+00  0.45593999997E+02  0.45594000000E+02  0.51100000000E-03 0.  1.
         11   -1    0    0    0    0 -0.00000000000E+00 -0.00000000000E+00 -0.45593999997E+02  0.45594000000E+02  0.51100000000E-03 0. -1.
    9900012    2    1    2    0    0  0.20890527377E+02  0.37487571700E+02  0.64723329385E+01  0.47787271208E+02  0.20000000745E+02 0.  0.
        -12    1    1    2    0    0 -0.20890527377E+02 -0.37487571700E+02 -0.64723329385E+01  0.43400728792E+02  0.00000000000E+00 0.  1.
         11    1    3    3    0    0  0.18417471781E+02  0.28270202427E+02  0.70023538820E+01  0.34459259600E+02  0.51100000000E-03 0. -1.
        -11    1    3    3    0    0  0.30214966487E+00  0.10080204609E+02 -0.23639115055E+01  0.10358083667E+02  0.51100000000E-03 0.  1.
        -12    1    3    3    0    0  0.21709059313E+01 -0.86283533608E+00  0.18338905620E+01  0.29699279407E+01  0.00000000000E+00 0.  1.
</event>
<event>
 7    1  0.2442667E-009  0.4778726E+02  0.7816164E-02  0.1312668E+00
        -11   -1    0    0    0    0  0.00000000000E+00  0.00000000000E+00  0.45593999997E+02  0.45594000000E+02  0.51100000000E-03 0. -1.
         11   -1    0    0    0    0 -0.00000000000E+00 -0.00000000000E+00 -0.45593999997E+02  0.45594000000E+02  0.51100000000E-03 0.  1.
    9900012    2    1    2    0    0  0.20985230820E+02 -0.25477632573E+02  0.28180387174E+02  0.47787263885E+02  0.19999967355E+02 0.  0.
        -12    1    1    2    0    0 -0.20985230820E+02  0.25477632573E+02 -0.28180387174E+02  0.43400736115E+02  0.00000000000E+00 0.  1.
         11    1    3    3    0    0  0.70921011680E+00 -0.70796500581E+01 -0.10782578315E+01  0.71963229602E+01  0.51100000000E-03 0. -1.
        -11    1    3    3    0    0  0.10509054406E+02 -0.11796694738E+02  0.20616710594E+02  0.25974044491E+02  0.51100000000E-03 0.  1.
         12    1    3    3    0    0  0.97669662972E+01 -0.66012877769E+01  0.86419344113E+01  0.14616896433E+02  0.00000000000E+00 0. -1.
</event>
<event>
 7    1  0.2442667E-009  0.4778727E+02  0.7816164E-02  0.1312668E+00
        -11   -1    0    0    0    0  0.00000000000E+00  0.00000000000E+00  0.45593999997E+02  0.45594000000E+02  0.51100000000E-03 0. -1.
         11   -1    0    0    0    0 -0.00000000000E+00 -0.00000000000E+00 -0.45593999997E+02  0.45594000000E+02  0.51100000000E-03 0.  1.
    9900012    2    1    2    0    0 -0.10878535958E+02  0.34990533679E+01  0.41869292835E+02  0.47787267269E+02  0.19999982787E+02 0.  0.
        -12    1    1    2    0    0  0.10878535958E+02 -0.34990533679E+01 -0.41869292835E+02  0.43400732731E+02  0.00000000000E+00 0.  1.
         11    1    3    3    0    0 -0.31929028504E+01 -0.15817469043E+00  0.10292563006E+02  0.10777592557E+02  0.51100000000E-03 0. -1.
        -11    1    3    3    0    0 -0.11805281884E+01 -0.53429683669E+01  0.27625874915E+01  0.61296694595E+01  0.51100000000E-03 0.  1.
        -12    1    3    3    0    0 -0.65051049194E+01  0.90001964252E+01  0.28814142338E+02  0.30880005252E+02  0.00000000000E+00 0.  1.
</event>
<event>
 7    1  0.2442667E-009  0.4778727E+02  0.7816164E-02  0.1312668E+00
        -11   -1    0    0    0    0  0.00000000000E+00  0.00000000000E+00  0.45593999997E+02  0.45594000000E+02  0.51100000000E-03 0.  1.
         11   -1    0    0    0    0 -0.00000000000E+00 -0.00000000000E+00 -0.45593999997E+02  0.45594000000E+02  0.51100000000E-03 0. -1.
    9900012    2    1    2    0    0  0.20377381932E+02 -0.17787831187E+02 -0.33940814358E+02  0.47787268301E+02  0.19999987489E+02 0.  0.
        -12    1    1    2    0    0 -0.20377381932E+02  0.17787831187E+02  0.33940814358E+02  0.43400731699E+02  0.00000000000E+00 0.  1.
         11    1    3    3    0    0  0.16631392611E+02 -0.65372184260E+01 -0.16225876526E+02  0.24137471165E+02  0.51100000000E-03 0. -1.
        -11    1    3    3    0    0  0.33267224612E+01 -0.12226469769E+02 -0.10786373356E+02  0.16640297347E+02  0.51100000000E-03 0.  1.
        -12    1    3    3    0    0  0.41926686034E+00  0.97585700767E+00 -0.69285644755E+01  0.70094997889E+01  0.00000000000E+00 0.  1.
</event>
<event>
 7    1  0.2442667E-009  0.4778727E+02  0.7816164E-02  0.1312668E+00
        -11   -1    0    0    0    0  0.00000000000E+00  0.00000000000E+00  0.45593999997E+02  0.45594000000E+02  0.51100000000E-03 0.  1.
         11   -1    0    0    0    0 -0.00000000000E+00 -0.00000000000E+00 -0.45593999997E+02  0.45594000000E+02  0.51100000000E-03 0. -1.
    9900012    2    1    2    0    0 -0.35743520507E+02 -0.23767781416E+02 -0.64122217274E+01  0.47787270984E+02  0.19999999722E+02 0.  0.
        -12    1    1    2    0    0  0.35743520507E+02  0.23767781416E+02  0.64122217274E+01  0.43400729016E+02  0.00000000000E+00 0.  1.
         11    1    3    3    0    0 -0.18469901314E+02 -0.45883398764E+01 -0.69399355498E+01  0.20257167203E+02  0.51100000000E-03 0. -1.
        -11    1    3    3    0    0 -0.14317227655E+02 -0.15981310387E+02  0.41634002345E+01  0.21856788217E+02  0.51100000000E-03 0.  1.
        -12    1    3    3    0    0 -0.29563915377E+01 -0.31981311530E+01 -0.36356864121E+01  0.56733155635E+01  0.00000000000E+00 0.  1.
</event>
<event>
 7    1  0.2442667E-009  0.4778727E+02  0.7816164E-02  0.1312668E+00
        -11   -1    0    0    0    0  0.00000000000E+00  0.00000000000E+00  0.45593999997E+02  0.45594000000E+02  0.51100000000E-03 0. -1.
         11   -1    0    0    0    0 -0.00000000000E+00 -0.00000000000E+00 -0.45593999997E+02  0.45594000000E+02  0.51100000000E-03 0.  1.
    9900012    2    1    2    0    0 -0.16543900532E+02 -0.39089854124E+02  0.90501968735E+01  0.47787269548E+02  0.19999993179E+02 0.  0.
        -12    1    1    2    0    0  0.16543900532E+02  0.39089854124E+02 -0.90501968735E+01  0.43400730452E+02  0.00000000000E+00 0.  1.
         11    1    3    3    0    0 -0.29437404409E+01 -0.19652423717E+02 -0.21070484528E+01  0.19983068313E+02  0.51100000000E-03 0.  1.
        -11    1    3    3    0    0  0.87005213647E+00 -0.41647038837E+01  0.70793161372E+00  0.43131098513E+01  0.51100000000E-03 0. -1.
         12    1    3    3    0    0 -0.14470212227E+02 -0.15272726523E+02  0.10449313713E+02  0.23491091384E+02  0.00000000000E+00 0. -1.
</event>
<event>
 7    1  0.2442667E-009  0.4778727E+02  0.7816164E-02  0.1312668E+00
        -11   -1    0    0    0    0  0.00000000000E+00  0.00000000000E+00  0.45593999997E+02  0.45594000000E+02  0.51100000000E-03 0. -1.
         11   -1    0    0    0    0 -0.00000000000E+00 -0.00000000000E+00 -0.45593999997E+02  0.45594000000E+02  0.51100000000E-03 0.  1.
    9900012    2    1    2    0    0 -0.41071367652E+02  0.13525756603E+02  0.37175227930E+01  0.47787270649E+02  0.19999998196E+02 0.  0.
        -12    1    1    2    0    0  0.41071367652E+02 -0.13525756603E+02 -0.37175227930E+01  0.43400729351E+02  0.00000000000E+00 0.  1.
         11    1    3    3    0    0 -0.26511478991E+01  0.71407102839E+01 -0.17291298856E+01  0.78107758234E+01  0.51100000000E-03 0.  1.
        -11    1    3    3    0    0 -0.25272118567E+02  0.23297918164E+01  0.64330651859E+01  0.26181906629E+02  0.51100000000E-03 0. -1.
         12    1    3    3    0    0 -0.13148101186E+02  0.40552545025E+01 -0.98641250738E+00  0.13794588197E+02  0.00000000000E+00 0. -1.
</event>
<event>
 7    1  0.2442667E-009  0.4778727E+02  0.7816164E-02  0.1312668E+00
        -11   -1    0    0    0    0  0.00000000000E+00  0.00000000000E+00  0.45593999997E+02  0.45594000000E+02  0.51100000000E-03 0.  1.
         11   -1    0    0    0    0 -0.00000000000E+00 -0.00000000000E+00 -0.45593999997E+02  0.45594000000E+02  0.51100000000E-03 0. -1.
    9900012    2    1    2    0    0 -0.33312925997E+02 -0.24609653135E+02  0.12970632959E+02  0.47787269761E+02  0.19999994150E+02 0.  0.
        -12    1    1    2    0    0  0.33312925997E+02  0.24609653135E+02 -0.12970632959E+02  0.43400730239E+02  0.00000000000E+00 0.  1.
         11    1    3    3    0    0 -0.13021564656E+02 -0.17501208325E+02  0.69899263954E+01  0.22906604074E+02  0.51100000000E-03 0. -1.
        -11    1    3    3    0    0 -0.54469281848E+01  0.29498720005E+01  0.10384249661E+01  0.62808517050E+01  0.51100000000E-03 0.  1.
        -12    1    3    3    0    0 -0.14844433157E+02 -0.10058316810E+02  0.49422815976E+01  0.18599813982E+02  0.00000000000E+00 0.  1.
</event>
<event>
 7    1  0.2442667E-009  0.4778727E+02  0.7816164E-02  0.1312668E+00
        -11   -1    0    0    0    0  0.00000000000E+00  0.00000000000E+00  0.45593999997E+02  0.45594000000E+02  0.51100000000E-03 0. -1.
         11   -1    0    0    0    0 -0.00000000000E+00 -0.00000000000E+00 -0.45593999997E+02  0.45594000000E+02  0.51100000000E-03 0.  1.
    9900012    2    1    2    0    0 -0.40618030224E+02 -0.15264450960E+02  0.89179722260E+00  0.47787272533E+02  0.20000006786E+02 0.  0.
        -12    1    1    2    0    0  0.40618030224E+02  0.15264450960E+02 -0.89179722260E+00  0.43400727467E+02  0.00000000000E+00 0.  1.
         11    1    3    3    0    0 -0.31403264766E+02 -0.17316887873E+02 -0.39813585124E+01  0.36081724729E+02  0.51100000000E-03 0. -1.
        -11    1    3    3    0    0 -0.94836168897E+01  0.22535610826E+01  0.53523104276E+01  0.11120465549E+02  0.51100000000E-03 0.  1.
        -12    1    3    3    0    0  0.26885143192E+00 -0.20112417008E+00 -0.47915469258E+00  0.58508225375E+00  0.00000000000E+00 0.  1.
</event>
<event>
 7    1  0.2442667E-009  0.4778728E+02  0.7816164E-02  0.1312668E+00
        -11   -1    0    0    0    0  0.00000000000E+00  0.00000000000E+00  0.45593999997E+02  0.45594000000E+02  0.51100000000E-03 0.  1.
         11   -1    0    0    0    0 -0.00000000000E+00 -0.00000000000E+00 -0.45593999997E+02  0.45594000000E+02  0.51100000000E-03 0. -1.
    9900012    2    1    2    0    0  0.16325846219E+02  0.24046090395E+02 -0.32231582103E+02  0.47787278774E+02  0.20000035243E+02 0.  0.
        -12    1    1    2    0    0 -0.16325846219E+02 -0.24046090395E+02  0.32231582103E+02  0.43400721226E+02  0.00000000000E+00 0.  1.
         11    1    3    3    0    0  0.17540973926E+01  0.13401670018E+02 -0.23994823150E+02  0.27539665125E+02  0.51100000000E-03 0. -1.
        -11    1    3    3    0    0  0.96349385489E+01  0.49458602845E+01 -0.36819478440E+01  0.11438982253E+02  0.51100000000E-03 0.  1.
         12    1    3    3    0    0  0.49368102777E+01  0.56985600917E+01 -0.45548111095E+01  0.88086313965E+01  0.00000000000E+00 0. -1.
</event>
<event>
 7    1  0.2442667E-009  0.4778727E+02  0.7816164E-02  0.1312668E+00
        -11   -1    0    0    0    0  0.00000000000E+00  0.00000000000E+00  0.45593999997E+02  0.45594000000E+02  0.51100000000E-03 0.  1.
         11   -1    0    0    0    0 -0.00000000000E+00 -0.00000000000E+00 -0.45593999997E+02  0.45594000000E+02  0.51100000000E-03 0. -1.
    9900012    2    1    2    0    0  0.19903694663E+02  0.37506427372E+02 -0.89852233077E+01  0.47787269668E+02  0.19999993726E+02 0.  0.
        -12    1    1    2    0    0 -0.19903694663E+02 -0.37506427372E+02  0.89852233077E+01  0.43400730332E+02  0.00000000000E+00 0.  1.
         11    1    3    3    0    0  0.11383564526E+02  0.24126276858E+02 -0.10591573431E+02  0.28702686361E+02  0.51100000000E-03 0. -1.
        -11    1    3    3    0    0  0.94583290970E+01  0.52651563126E+01  0.13773059032E+01  0.10912324781E+02  0.51100000000E-03 0.  1.
        -12    1    3    3    0    0 -0.93819895969E+00  0.81149942016E+01  0.22904421964E+00  0.81722585271E+01  0.00000000000E+00 0.  1.
</event>
<event>
 7    1  0.2442667E-009  0.4778729E+02  0.7816164E-02  0.1312668E+00
        -11   -1    0    0    0    0  0.00000000000E+00  0.00000000000E+00  0.45593999997E+02  0.45594000000E+02  0.51100000000E-03 0.  1.
         11   -1    0    0    0    0 -0.00000000000E+00 -0.00000000000E+00 -0.45593999997E+02  0.45594000000E+02  0.51100000000E-03 0. -1.
    9900012    2    1    2    0    0 -0.20339215071E+02  0.32870398349E+02 -0.19735125587E+02  0.47787286420E+02  0.20000070103E+02 0.  0.
        -12    1    1    2    0    0  0.20339215071E+02 -0.32870398349E+02  0.19735125587E+02  0.43400713580E+02  0.00000000000E+00 0.  1.
         11    1    3    3    0    0 -0.12672161509E+02  0.30469594535E+02 -0.14562478621E+02  0.36070010428E+02  0.51100000000E-03 0. -1.
        -11    1    3    3    0    0 -0.36370657970E+00 -0.19503679315E+01 -0.64941657281E+00  0.20875726791E+01  0.51100000000E-03 0.  1.
         12    1    3    3    0    0 -0.73033469819E+01  0.43511717451E+01 -0.45232303937E+01  0.96297033126E+01  0.00000000000E+00 0. -1.
</event>
<event>
 7    1  0.2442667E-009  0.4778728E+02  0.7816164E-02  0.1312668E+00
        -11   -1    0    0    0    0  0.00000000000E+00  0.00000000000E+00  0.45593999997E+02  0.45594000000E+02  0.51100000000E-03 0.  1.
         11   -1    0    0    0    0 -0.00000000000E+00 -0.00000000000E+00 -0.45593999997E+02  0.45594000000E+02  0.51100000000E-03 0. -1.
    9900012    2    1    2    0    0 -0.48476104380E+01  0.22323169269E+02 -0.36902569009E+02  0.47787276358E+02  0.20000024226E+02 0.  0.
        -12    1    1    2    0    0  0.48476104380E+01 -0.22323169269E+02  0.36902569009E+02  0.43400723642E+02  0.00000000000E+00 0.  1.
         11    1    3    3    0    0 -0.66090146057E+01  0.12015298051E+02 -0.98060606565E+01  0.16858389222E+02  0.51100000000E-03 0. -1.
        -11    1    3    3    0    0 -0.40495284954E+01  0.33845167717E+01 -0.60799670866E+01  0.80510642059E+01  0.51100000000E-03 0.  1.
         12    1    3    3    0    0  0.58109326631E+01  0.69233544463E+01 -0.21016541266E+02  0.22877822930E+02  0.00000000000E+00 0. -1.
</event>
<event>
 7    1  0.2442667E-009  0.4778727E+02  0.7816164E-02  0.1312668E+00
        -11   -1    0    0    0    0  0.00000000000E+00  0.00000000000E+00  0.45593999997E+02  0.45594000000E+02  0.51100000000E-03 0.  1.
         11   -1    0    0    0    0 -0.00000000000E+00 -0.00000000000E+00 -0.45593999997E+02  0.45594000000E+02  0.51100000000E-03 0. -1.
    9900012    2    1    2    0    0 -0.42720523508E+02  0.72484649691E+01 -0.24576084708E+01  0.47787271750E+02  0.20000003218E+02 0.  0.
        -12    1    1    2    0    0  0.42720523508E+02 -0.72484649691E+01  0.24576084708E+01  0.43400728250E+02  0.00000000000E+00 0.  1.
         11    1    3    3    0    0 -0.11498605205E+02 -0.15478817498E+01 -0.16044221276E+01  0.11712729409E+02  0.51100000000E-03 0. -1.
        -11    1    3    3    0    0 -0.33260002544E+01 -0.78561554315E+00  0.49482669243E+01  0.60137189233E+01  0.51100000000E-03 0.  1.
        -12    1    3    3    0    0 -0.27895918048E+02  0.95819622621E+01 -0.58014532674E+01  0.30060823418E+02  0.00000000000E+00 0.  1.
</event>
<event>
 7    1  0.2442667E-009  0.4778727E+02  0.7816164E-02  0.1312668E+00
        -11   -1    0    0    0    0  0.00000000000E+00  0.00000000000E+00  0.45593999997E+02  0.45594000000E+02  0.51100000000E-03 0.  1.
         11   -1    0    0    0    0 -0.00000000000E+00 -0.00000000000E+00 -0.45593999997E+02  0.45594000000E+02  0.51100000000E-03 0. -1.
    9900012    2    1    2    0    0 -0.11919112870E+02  0.41676106841E+02  0.21588189687E+01  0.47787266914E+02  0.19999981167E+02 0.  0.
        -12    1    1    2    0    0  0.11919112870E+02 -0.41676106841E+02 -0.21588189687E+01  0.43400733086E+02  0.00000000000E+00 0.  1.
         11    1    3    3    0    0  0.23892382011E+01  0.69751662039E+01 -0.57151636787E+01  0.93286922389E+01  0.51100000000E-03 0. -1.
        -11    1    3    3    0    0 -0.80280742717E+01  0.23047703595E+02  0.50453240960E+01  0.24921916319E+02  0.51100000000E-03 0.  1.
         12    1    3    3    0    0 -0.62802767996E+01  0.11653237043E+02  0.28286585513E+01  0.13536658356E+02  0.00000000000E+00 0. -1.
</event>
<event>
 7    1  0.2442667E-009  0.4778726E+02  0.7816164E-02  0.1312668E+00
        -11   -1    0    0    0    0  0.00000000000E+00  0.00000000000E+00  0.45593999997E+02  0.45594000000E+02  0.51100000000E-03 0.  1.
         11   -1    0    0    0    0 -0.00000000000E+00 -0.00000000000E+00 -0.45593999997E+02  0.45594000000E+02  0.51100000000E-03 0. -1.
    9900012    2    1    2    0    0  0.88016427263E+01  0.40789477486E+02 -0.11932036037E+02  0.47787264151E+02  0.19999968569E+02 0.  0.
        -12    1    1    2    0    0 -0.88016427263E+01 -0.40789477486E+02  0.11932036037E+02  0.43400735849E+02  0.00000000000E+00 0.  1.
         11    1    3    3    0    0  0.78999983787E+01  0.10834920492E+02  0.10257748368E+01  0.13448334124E+02  0.51100000000E-03 0. -1.
        -11    1    3    3    0    0  0.30962692067E+01  0.44417682411E+01 -0.53832029118E+01  0.76351202976E+01  0.51100000000E-03 0.  1.
         12    1    3    3    0    0 -0.21946248591E+01  0.25512788753E+02 -0.75746079621E+01  0.26703809729E+02  0.00000000000E+00 0. -1.
</event>
<event>
 7    1  0.2442667E-009  0.4778727E+02  0.7816164E-02  0.1312668E+00
        -11   -1    0    0    0    0  0.00000000000E+00  0.00000000000E+00  0.45593999997E+02  0.45594000000E+02  0.51100000000E-03 0. -1.
         11   -1    0    0    0    0 -0.00000000000E+00 -0.00000000000E+00 -0.45593999997E+02  0.45594000000E+02  0.51100000000E-03 0.  1.
    9900012    2    1    2    0    0  0.18382551369E+02  0.90775627603E+01  0.38253139839E+02  0.47787273647E+02  0.20000011864E+02 0.  0.
        -12    1    1    2    0    0 -0.18382551369E+02 -0.90775627603E+01 -0.38253139839E+02  0.43400726353E+02  0.00000000000E+00 0.  1.
         11    1    3    3    0    0  0.58077619999E+01  0.12123812443E+02  0.10919990297E+02  0.17319443292E+02  0.51100000000E-03 0.  1.
        -11    1    3    3    0    0  0.79200542978E+01 -0.18053029634E+01  0.20958589675E+02  0.22477741441E+02  0.51100000000E-03 0. -1.
        -12    1    3    3    0    0  0.46547350712E+01 -0.12409467197E+01  0.63745598670E+01  0.79900889133E+01  0.00000000000E+00 0.  1.
</event>
<event>
 7    1  0.2442667E-009  0.4778727E+02  0.7816164E-02  0.1312668E+00
        -11   -1    0    0    0    0  0.00000000000E+00  0.00000000000E+00  0.45593999997E+02  0.45594000000E+02  0.51100000000E-03 0.  1.
         11   -1    0    0    0    0 -0.00000000000E+00 -0.00000000000E+00 -0.45593999997E+02  0.45594000000E+02  0.51100000000E-03 0. -1.
    9900012    2    1    2    0    0  0.36946094222E+02  0.18151468697E+02  0.13752581945E+02  0.47787271846E+02  0.20000003656E+02 0.  0.
        -12    1    1    2    0    0 -0.36946094222E+02 -0.18151468697E+02 -0.13752581945E+02  0.43400728154E+02  0.00000000000E+00 0.  1.
         11    1    3    3    0    0  0.98870725889E+01  0.35578656781E+01 -0.33487617851E+01  0.11028454938E+02  0.51100000000E-03 0. -1.
        -11    1    3    3    0    0  0.24577289139E+02  0.10744489464E+02  0.17704689478E+02  0.32139434112E+02  0.51100000000E-03 0.  1.
         12    1    3    3    0    0  0.24817324936E+01  0.38491135549E+01 -0.60334574719E+00  0.46193827963E+01  0.00000000000E+00 0. -1.
</event>
<event>
 7    1  0.2442667E-009  0.4778727E+02  0.7816164E-02  0.1312668E+00
        -11   -1    0    0    0    0  0.00000000000E+00  0.00000000000E+00  0.45593999997E+02  0.45594000000E+02  0.51100000000E-03 0.  1.
         11   -1    0    0    0    0 -0.00000000000E+00 -0.00000000000E+00 -0.45593999997E+02  0.45594000000E+02  0.51100000000E-03 0. -1.
    9900012    2    1    2    0    0  0.23815921467E+02  0.10203205075E+02 -0.34818385124E+02  0.47787268995E+02  0.19999990656E+02 0.  0.
        -12    1    1    2    0    0 -0.23815921467E+02 -0.10203205075E+02  0.34818385124E+02  0.43400731005E+02  0.00000000000E+00 0.  1.
         11    1    3    3    0    0  0.19561524086E+02  0.59976441628E+01 -0.18224722982E+02  0.27400100148E+02  0.51100000000E-03 0. -1.
        -11    1    3    3    0    0 -0.23589845033E+00  0.33656017201E+00 -0.13849378465E+02  0.13855475630E+02  0.51100000000E-03 0.  1.
        -12    1    3    3    0    0  0.44902958308E+01  0.38690007405E+01 -0.27442836778E+01  0.65316932171E+01  0.00000000000E+00 0.  1.
</event>
<event>
 7    1  0.2442667E-009  0.4778727E+02  0.7816164E-02  0.1312668E+00
        -11   -1    0    0    0    0  0.00000000000E+00  0.00000000000E+00  0.45593999997E+02  0.45594000000E+02  0.51100000000E-03 0.  1.
         11   -1    0    0    0    0 -0.00000000000E+00 -0.00000000000E+00 -0.45593999997E+02  0.45594000000E+02  0.51100000000E-03 0. -1.
    9900012    2    1    2    0    0 -0.60385823913E+01 -0.13269029896E+02 -0.40878988096E+02  0.47787270750E+02  0.19999998659E+02 0.  0.
        -12    1    1    2    0    0  0.60385823913E+01  0.13269029896E+02  0.40878988096E+02  0.43400729250E+02  0.00000000000E+00 0.  1.
         11    1    3    3    0    0 -0.79267713815E+01 -0.64012884149E+01 -0.37110471608E+02  0.38483727745E+02  0.51100000000E-03 0. -1.
        -11    1    3    3    0    0  0.20963866381E+01 -0.17695160417E+01  0.32423301169E+00  0.27624538485E+01  0.51100000000E-03 0.  1.
        -12    1    3    3    0    0 -0.20819764789E+00 -0.50982254396E+01 -0.40927494992E+01  0.65410891567E+01  0.00000000000E+00 0.  1.
</event>
<event>
 7    1  0.3316543E-009  0.4778727E+02  0.7816164E-02  0.1312668E+00
        -11   -1    0    0    0    0  0.00000000000E+00  0.00000000000E+00  0.45593999997E+02  0.45594000000E+02  0.51100000000E-03 0. -1.
         11   -1    0    0    0    0 -0.00000000000E+00 -0.00000000000E+00 -0.45593999997E+02  0.45594000000E+02  0.51100000000E-03 0.  1.
    9900012    2    1    2    0    0  0.28945969983E+02 -0.12215246859E+02  0.29942306125E+02  0.47787272700E+02  0.20000007549E+02 0.  0.
        -12    1    1    2    0    0 -0.28945969983E+02  0.12215246859E+02 -0.29942306125E+02  0.43400727300E+02  0.00000000000E+00 0.  1.
         11    1    3    3    0    0  0.22265309710E+02 -0.12634470454E+02  0.25693757037E+02  0.36270415094E+02  0.51100000000E-03 0. -1.
        -11    1    3    3    0    0  0.71065222424E+01 -0.24664757056E+00 -0.85509065516E-01  0.71113153121E+01  0.51100000000E-03 0.  1.
        -12    1    3    3    0    0 -0.42586196953E+00  0.66587116635E+00  0.43340581532E+01  0.44055422938E+01  0.00000000000E+00 0.  1.
</event>
<event>
 7    1  0.2442667E-009  0.4778728E+02  0.7816164E-02  0.1312668E+00
        -11   -1    0    0    0    0  0.00000000000E+00  0.00000000000E+00  0.45593999997E+02  0.45594000000E+02  0.51100000000E-03 0.  1.
         11   -1    0    0    0    0 -0.00000000000E+00 -0.00000000000E+00 -0.45593999997E+02  0.45594000000E+02  0.51100000000E-03 0. -1.
    9900012    2    1    2    0    0  0.18295703837E+01  0.15626135459E+02 -0.40448719043E+02  0.47787282156E+02  0.20000050663E+02 0.  0.
        -12    1    1    2    0    0 -0.18295703837E+01 -0.15626135459E+02  0.40448719043E+02  0.43400717844E+02  0.00000000000E+00 0.  1.
         11    1    3    3    0    0 -0.23028227159E+01  0.10432022948E+02 -0.17258290760E+02  0.20297258324E+02  0.51100000000E-03 0. -1.
        -11    1    3    3    0    0  0.14544591371E+00 -0.39635851982E+01 -0.30303770003E+01  0.49914273672E+01  0.51100000000E-03 0.  1.
        -12    1    3    3    0    0  0.39869471860E+01  0.91576977092E+01 -0.20160051283E+02  0.22498596465E+02  0.00000000000E+00 0.  1.
</event>
<event>
 7    1  0.2442667E-009  0.4778727E+02  0.7816164E-02  0.1312668E+00
        -11   -1    0    0    0    0  0.00000000000E+00  0.00000000000E+00  0.45593999997E+02  0.45594000000E+02  0.51100000000E-03 0.  1.
         11   -1    0    0    0    0 -0.00000000000E+00 -0.00000000000E+00 -0.45593999997E+02  0.45594000000E+02  0.51100000000E-03 0. -1.
    9900012    2    1    2    0    0  0.15643554056E+02 -0.14614389859E+02 -0.37753435114E+02  0.47787273769E+02  0.20000012424E+02 0.  0.
        -12    1    1    2    0    0 -0.15643554056E+02  0.14614389859E+02  0.37753435114E+02  0.43400726231E+02  0.00000000000E+00 0.  1.
         11    1    3    3    0    0 -0.23720884559E+01 -0.31987289174E+01 -0.34639597903E+01  0.52780382738E+01  0.51100000000E-03 0. -1.
        -11    1    3    3    0    0  0.10530996100E+02  0.80725006767E+00 -0.11754425535E+02  0.15802533070E+02  0.51100000000E-03 0.  1.
        -12    1    3    3    0    0  0.74846464115E+01 -0.12222911009E+02 -0.22535049789E+02  0.26706702425E+02  0.00000000000E+00 0.  1.
</event>
<event>
 7    1  0.2442667E-009  0.4778727E+02  0.7816164E-02  0.1312668E+00
        -11   -1    0    0    0    0  0.00000000000E+00  0.00000000000E+00  0.45593999997E+02  0.45594000000E+02  0.51100000000E-03 0. -1.
         11   -1    0    0    0    0 -0.00000000000E+00 -0.00000000000E+00 -0.45593999997E+02  0.45594000000E+02  0.51100000000E-03 0.  1.
    9900012    2    1    2    0    0  0.37342808952E+02 -0.66591569636E+01  0.21090130661E+02  0.47787270016E+02  0.19999995309E+02 0.  0.
        -12    1    1    2    0    0 -0.37342808952E+02  0.66591569636E+01 -0.21090130661E+02  0.43400729984E+02  0.00000000000E+00 0.  1.
         11    1    3    3    0    0  0.27712516201E+02 -0.57363275415E+01  0.14667247247E+02  0.31875023920E+02  0.51100000000E-03 0. -1.
        -11    1    3    3    0    0  0.94657334803E+00 -0.22663990332E+01 -0.24185142752E+01  0.34469953933E+01  0.51100000000E-03 0.  1.
         12    1    3    3    0    0  0.86837194032E+01  0.13435696111E+01  0.88413976883E+01  0.12465250702E+02  0.00000000000E+00 0. -1.
</event>
<event>
 7    1  0.2442667E-009  0.4778727E+02  0.7816164E-02  0.1312668E+00
        -11   -1    0    0    0    0  0.00000000000E+00  0.00000000000E+00  0.45593999997E+02  0.45594000000E+02  0.51100000000E-03 0.  1.
         11   -1    0    0    0    0 -0.00000000000E+00 -0.00000000000E+00 -0.45593999997E+02  0.45594000000E+02  0.51100000000E-03 0. -1.
    9900012    2    1    2    0    0 -0.42216384851E+02  0.90815438331E+01 -0.43503578704E+01  0.47787271874E+02  0.20000003780E+02 0.  0.
        -12    1    1    2    0    0  0.42216384851E+02 -0.90815438331E+01  0.43503578704E+01  0.43400728126E+02  0.00000000000E+00 0.  1.
         11    1    3    3    0    0 -0.22412196116E+02 -0.38042501487E+00  0.24439080518E+01  0.22548258131E+02  0.51100000000E-03 0.  1.
        -11    1    3    3    0    0 -0.11054135604E+02  0.10282985752E+02 -0.20042453560E+01  0.15229928091E+02  0.51100000000E-03 0. -1.
        -12    1    3    3    0    0 -0.87500531316E+01 -0.82101690434E+00 -0.47900205662E+01  0.10009085652E+02  0.00000000000E+00 0.  1.
</event>
<event>
 7    1  0.2442667E-009  0.4778726E+02  0.7816164E-02  0.1312668E+00
        -11   -1    0    0    0    0  0.00000000000E+00  0.00000000000E+00  0.45593999997E+02  0.45594000000E+02  0.51100000000E-03 0.  1.
         11   -1    0    0    0    0 -0.00000000000E+00 -0.00000000000E+00 -0.45593999997E+02  0.45594000000E+02  0.51100000000E-03 0. -1.
    9900012    2    1    2    0    0 -0.38123686466E+02 -0.17604531147E+02 -0.10967636309E+02  0.47787262300E+02  0.19999960132E+02 0.  0.
        -12    1    1    2    0    0  0.38123686466E+02  0.17604531147E+02  0.10967636309E+02  0.43400737700E+02  0.00000000000E+00 0.  1.
         11    1    3    3    0    0 -0.59428941394E+01 -0.26869728274E+01 -0.58690552950E+01  0.87740312311E+01  0.51100000000E-03 0.  1.
        -11    1    3    3    0    0 -0.23413453152E+02 -0.17831203461E+02 -0.42493149529E+01  0.29735471800E+02  0.51100000000E-03 0. -1.
        -12    1    3    3    0    0 -0.87673391745E+01  0.29136451408E+01 -0.84926606136E+00  0.92777592689E+01  0.00000000000E+00 0.  1.
</event>
<event>
 7    1  0.2442667E-009  0.4778726E+02  0.7816164E-02  0.1312668E+00
        -11   -1    0    0    0    0  0.00000000000E+00  0.00000000000E+00  0.45593999997E+02  0.45594000000E+02  0.51100000000E-03 0. -1.
         11   -1    0    0    0    0 -0.00000000000E+00 -0.00000000000E+00 -0.45593999997E+02  0.45594000000E+02  0.51100000000E-03 0.  1.
    9900012    2    1    2    0    0  0.36044908507E+02 -0.23840669256E+02  0.40013888668E+01  0.47787262072E+02  0.19999959089E+02 0.  0.
        -12    1    1    2    0    0 -0.36044908507E+02  0.23840669256E+02 -0.40013888668E+01  0.43400737928E+02  0.00000000000E+00 0.  1.
         11    1    3    3    0    0  0.65031215480E+01 -0.10810547263E+02  0.77049734892E+01  0.14782595805E+02  0.51100000000E-03 0.  1.
        -11    1    3    3    0    0  0.11520197961E+02 -0.58705899200E+01 -0.42351850833E+01  0.13605718651E+02  0.51100000000E-03 0. -1.
        -12    1    3    3    0    0  0.18021588999E+02 -0.71595320724E+01  0.53160046094E+00  0.19398947616E+02  0.00000000000E+00 0.  1.
</event>
<event>
 7    1  0.2442667E-009  0.4778727E+02  0.7816164E-02  0.1312668E+00
        -11   -1    0    0    0    0  0.00000000000E+00  0.00000000000E+00  0.45593999997E+02  0.45594000000E+02  0.51100000000E-03 0.  1.
         11   -1    0    0    0    0 -0.00000000000E+00 -0.00000000000E+00 -0.45593999997E+02  0.45594000000E+02  0.51100000000E-03 0. -1.
    9900012    2    1    2    0    0 -0.24515623374E+02 -0.17391398192E+02 -0.31307296389E+02  0.47787270424E+02  0.19999997173E+02 0.  0.
        -12    1    1    2    0    0  0.24515623374E+02  0.17391398192E+02  0.31307296389E+02  0.43400729576E+02  0.00000000000E+00 0.  1.
         11    1    3    3    0    0 -0.13333209094E+02 -0.41669295717E+00 -0.66773396443E+01  0.14917605799E+02  0.51100000000E-03 0. -1.
        -11    1    3    3    0    0 -0.17108239072E+01 -0.82950085912E-01 -0.24516162432E+00  0.17302900454E+01  0.51100000000E-03 0.  1.
         12    1    3    3    0    0 -0.94715903724E+01 -0.16891755149E+02 -0.24384795121E+02  0.31139374581E+02  0.00000000000E+00 0. -1.
</event>
<event>
 7    1  0.2442667E-009  0.4778727E+02  0.7816164E-02  0.1312668E+00
        -11   -1    0    0    0    0  0.00000000000E+00  0.00000000000E+00  0.45593999997E+02  0.45594000000E+02  0.51100000000E-03 0. -1.
         11   -1    0    0    0    0 -0.00000000000E+00 -0.00000000000E+00 -0.45593999997E+02  0.45594000000E+02  0.51100000000E-03 0.  1.
    9900012    2    1    2    0    0  0.42395097488E+02  0.29307627707E+00  0.92840301274E+01  0.47787269590E+02  0.19999993370E+02 0.  0.
        -12    1    1    2    0    0 -0.42395097488E+02 -0.29307627707E+00 -0.92840301274E+01  0.43400730410E+02  0.00000000000E+00 0.  1.
         11    1    3    3    0    0  0.82288675646E+01  0.60691623521E+01  0.58387813556E+01  0.11774564155E+02  0.51100000000E-03 0. -1.
        -11    1    3    3    0    0  0.12795417900E+02 -0.42595869031E+01 -0.26377164871E+01  0.13741337211E+02  0.51100000000E-03 0.  1.
         12    1    3    3    0    0  0.21370812023E+02 -0.15164991719E+01  0.60829652589E+01  0.22271368225E+02  0.00000000000E+00 0. -1.
</event>
<event>
 7    1  0.2442667E-009  0.4778727E+02  0.7816164E-02  0.1312668E+00
        -11   -1    0    0    0    0  0.00000000000E+00  0.00000000000E+00  0.45593999997E+02  0.45594000000E+02  0.51100000000E-03 0. -1.
         11   -1    0    0    0    0 -0.00000000000E+00 -0.00000000000E+00 -0.45593999997E+02  0.45594000000E+02  0.51100000000E-03 0.  1.
    9900012    2    1    2    0    0  0.10686685774E+02 -0.41836263006E+02  0.43755142488E+01  0.47787270973E+02  0.19999999676E+02 0.  0.
        -12    1    1    2    0    0 -0.10686685774E+02  0.41836263006E+02 -0.43755142488E+01  0.43400729027E+02  0.00000000000E+00 0.  1.
         11    1    3    3    0    0  0.77147435274E+01 -0.21009313197E+02 -0.53198756914E+01  0.23004555774E+02  0.51100000000E-03 0. -1.
        -11    1    3    3    0    0  0.11901306596E+01 -0.12644924491E+01 -0.13926243948E+01  0.22259279205E+01  0.51100000000E-03 0.  1.
         12    1    3    3    0    0  0.17818115869E+01 -0.19562457359E+02  0.11088014335E+02  0.22556787279E+02  0.00000000000E+00 0. -1.
</event>
<event>
 7    1  0.2442667E-009  0.4778727E+02  0.7816164E-02  0.1312668E+00
        -11   -1    0    0    0    0  0.00000000000E+00  0.00000000000E+00  0.45593999997E+02  0.45594000000E+02  0.51100000000E-03 0.  1.
         11   -1    0    0    0    0 -0.00000000000E+00 -0.00000000000E+00 -0.45593999997E+02  0.45594000000E+02  0.51100000000E-03 0. -1.
    9900012    2    1    2    0    0  0.75777477712E+01  0.14606474594E+02 -0.40160331724E+02  0.47787267223E+02  0.19999982578E+02 0.  0.
        -12    1    1    2    0    0 -0.75777477712E+01 -0.14606474594E+02  0.40160331724E+02  0.43400732777E+02  0.00000000000E+00 0.  1.
         11    1    3    3    0    0  0.10484889026E+02  0.11090688897E+02 -0.24348151893E+02  0.28736192841E+02  0.51100000000E-03 0. -1.
        -11    1    3    3    0    0 -0.32728320933E+01 -0.92351663009E+00 -0.13710271463E+02  0.14125716149E+02  0.51100000000E-03 0.  1.
        -12    1    3    3    0    0  0.36569083803E+00  0.44393023271E+01 -0.21019083680E+01  0.49253582334E+01  0.00000000000E+00 0.  1.
</event>
<event>
 7    1  0.2442667E-009  0.4778727E+02  0.7816164E-02  0.1312668E+00
        -11   -1    0    0    0    0  0.00000000000E+00  0.00000000000E+00  0.45593999997E+02  0.45594000000E+02  0.51100000000E-03 0. -1.
         11   -1    0    0    0    0 -0.00000000000E+00 -0.00000000000E+00 -0.45593999997E+02  0.45594000000E+02  0.51100000000E-03 0.  1.
    9900012    2    1    2    0    0  0.31294095454E+02 -0.25108565720E+02  0.16548795040E+02  0.47787273047E+02  0.20000009131E+02 0.  0.
        -12    1    1    2    0    0 -0.31294095454E+02  0.25108565720E+02 -0.16548795040E+02  0.43400726953E+02  0.00000000000E+00 0.  1.
         11    1    3    3    0    0  0.20995120702E+01 -0.50698222297E+01  0.12296833870E+01  0.56234482186E+01  0.51100000000E-03 0. -1.
        -11    1    3    3    0    0  0.32172324721E+01 -0.71358045636E+01 -0.23843595037E+01  0.81826317315E+01  0.51100000000E-03 0.  1.
        -12    1    3    3    0    0  0.25977350911E+02 -0.12902938926E+02  0.17703471156E+02  0.33981193097E+02  0.00000000000E+00 0.  1.
</event>
<event>
 7    1  0.2442667E-009  0.4778728E+02  0.7816164E-02  0.1312668E+00
        -11   -1    0    0    0    0  0.00000000000E+00  0.00000000000E+00  0.45593999997E+02  0.45594000000E+02  0.51100000000E-03 0. -1.
         11   -1    0    0    0    0 -0.00000000000E+00 -0.00000000000E+00 -0.45593999997E+02  0.45594000000E+02  0.51100000000E-03 0.  1.
    9900012    2    1    2    0    0  0.52244937965E+01 -0.37360291269E+02 -0.21460107522E+02  0.47787275191E+02  0.20000018906E+02 0.  0.
        -12    1    1    2    0    0 -0.52244937965E+01  0.37360291269E+02  0.21460107522E+02  0.43400724809E+02  0.00000000000E+00 0.  1.
         11    1    3    3    0    0  0.13514863677E+01 -0.30955929457E+02 -0.17383598193E+02  0.35528658437E+02  0.51100000000E-03 0. -1.
        -11    1    3    3    0    0  0.55324564062E+00  0.22342316029E+01 -0.95299315815E+00  0.24911980682E+01  0.51100000000E-03 0.  1.
        -12    1    3    3    0    0  0.33197617882E+01 -0.86385934144E+01 -0.31235161709E+01  0.97674186856E+01  0.00000000000E+00 0.  1.
</event>
<event>
 7    1  0.2442667E-009  0.4778731E+02  0.7816164E-02  0.1312668E+00
        -11   -1    0    0    0    0  0.00000000000E+00  0.00000000000E+00  0.45593999997E+02  0.45594000000E+02  0.51100000000E-03 0.  1.
         11   -1    0    0    0    0 -0.00000000000E+00 -0.00000000000E+00 -0.45593999997E+02  0.45594000000E+02  0.51100000000E-03 0. -1.
    9900012    2    1    2    0    0  0.33922163365E+02  0.26723347691E+02 -0.43324153257E+01  0.47787305285E+02  0.20000156117E+02 0.  0.
        -12    1    1    2    0    0 -0.33922163365E+02 -0.26723347691E+02  0.43324153257E+01  0.43400694715E+02  0.00000000000E+00 0.  1.
         11    1    3    3    0    0  0.82949060042E+01  0.25486935395E+01  0.22555568879E+01  0.89659824622E+01  0.51100000000E-03 0. -1.
        -11    1    3    3    0    0  0.44712319035E+01 -0.80009213746E+00 -0.38883227843E+01  0.59792237372E+01  0.51100000000E-03 0.  1.
        -12    1    3    3    0    0  0.21156025457E+02  0.24974746289E+02 -0.26996494293E+01  0.32842099086E+02  0.00000000000E+00 0.  1.
</event>
<event>
 7    1  0.2442667E-009  0.4778727E+02  0.7816164E-02  0.1312668E+00
        -11   -1    0    0    0    0  0.00000000000E+00  0.00000000000E+00  0.45593999997E+02  0.45594000000E+02  0.51100000000E-03 0.  1.
         11   -1    0    0    0    0 -0.00000000000E+00 -0.00000000000E+00 -0.45593999997E+02  0.45594000000E+02  0.51100000000E-03 0. -1.
    9900012    2    1    2    0    0  0.25150836411E+02  0.34778545547E+02 -0.64429307764E+01  0.47787272362E+02  0.20000006007E+02 0.  0.
        -12    1    1    2    0    0 -0.25150836411E+02 -0.34778545547E+02  0.64429307764E+01  0.43400727638E+02  0.00000000000E+00 0.  1.
         11    1    3    3    0    0  0.21281051566E+02  0.27104431093E+02 -0.11299971365E+02  0.36265999141E+02  0.51100000000E-03 0. -1.
        -11    1    3    3    0    0  0.28807994894E+01  0.85860538349E+01  0.45763792635E+01  0.10147047530E+02  0.51100000000E-03 0.  1.
        -12    1    3    3    0    0  0.98898535617E+00 -0.91193938106E+00  0.28066132465E+00  0.13742256906E+01  0.00000000000E+00 0.  1.
</event>
<event>
 7    1  0.2442667E-009  0.4778722E+02  0.7816164E-02  0.1312668E+00
        -11   -1    0    0    0    0  0.00000000000E+00  0.00000000000E+00  0.45593999997E+02  0.45594000000E+02  0.51100000000E-03 0.  1.
         11   -1    0    0    0    0 -0.00000000000E+00 -0.00000000000E+00 -0.45593999997E+02  0.45594000000E+02  0.51100000000E-03 0. -1.
    9900012    2    1    2    0    0  0.40833689969E+02  0.11960429700E+02 -0.85548337245E+01  0.47787224717E+02  0.19999788776E+02 0.  0.
        -12    1    1    2    0    0 -0.40833689969E+02 -0.11960429700E+02  0.85548337245E+01  0.43400775283E+02  0.00000000000E+00 0.  1.
         11    1    3    3    0    0  0.51292396027E+01  0.30981880689E+01  0.45785171441E+01  0.75412656572E+01  0.51100000000E-03 0. -1.
        -11    1    3    3    0    0  0.31123108876E+02  0.52145404239E+01 -0.82412580393E+01  0.32615298132E+02  0.51100000000E-03 0.  1.
        -12    1    3    3    0    0  0.45813414904E+01  0.36477012073E+01 -0.48920928293E+01  0.76306609281E+01  0.00000000000E+00 0.  1.
</event>
<event>
 7    1  0.2442667E-009  0.4778728E+02  0.7816164E-02  0.1312668E+00
        -11   -1    0    0    0    0  0.00000000000E+00  0.00000000000E+00  0.45593999997E+02  0.45594000000E+02  0.51100000000E-03 0.  1.
         11   -1    0    0    0    0 -0.00000000000E+00 -0.00000000000E+00 -0.45593999997E+02  0.45594000000E+02  0.51100000000E-03 0. -1.
    9900012    2    1    2    0    0 -0.23133055265E+02  0.28107443262E+02  0.23631677875E+02  0.47787276367E+02  0.20000024269E+02 0.  0.
        -12    1    1    2    0    0  0.23133055265E+02 -0.28107443262E+02 -0.23631677875E+02  0.43400723633E+02  0.00000000000E+00 0.  1.
         11    1    3    3    0    0 -0.73320154212E+01  0.95370864497E+01  0.36944494077E+01  0.12584253048E+02  0.51100000000E-03 0. -1.
        -11    1    3    3    0    0  0.45370905756E+00  0.83892076191E+01  0.13779670898E+01  0.85137212749E+01  0.51100000000E-03 0.  1.
         12    1    3    3    0    0 -0.16254748901E+02  0.10181149194E+02  0.18559261378E+02  0.26689302045E+02  0.00000000000E+00 0. -1.
</event>
<event>
 7    1  0.2442667E-009  0.4778727E+02  0.7816164E-02  0.1312668E+00
        -11   -1    0    0    0    0  0.00000000000E+00  0.00000000000E+00  0.45593999997E+02  0.45594000000E+02  0.51100000000E-03 0.  1.
         11   -1    0    0    0    0 -0.00000000000E+00 -0.00000000000E+00 -0.45593999997E+02  0.45594000000E+02  0.51100000000E-03 0. -1.
    9900012    2    1    2    0    0  0.31765309738E+02 -0.10283928048E+02 -0.27727775720E+02  0.47787266997E+02  0.19999981545E+02 0.  0.
        -12    1    1    2    0    0 -0.31765309738E+02  0.10283928048E+02  0.27727775720E+02  0.43400733003E+02  0.00000000000E+00 0.  1.
         11    1    3    3    0    0  0.30873371244E+01  0.90184629165E+00 -0.35074296602E+01  0.47588906623E+01  0.51100000000E-03 0. -1.
        -11    1    3    3    0    0  0.37381802752E+01  0.30508399774E+01 -0.97340368254E+01  0.10864303453E+02  0.51100000000E-03 0.  1.
        -12    1    3    3    0    0  0.24939792338E+02 -0.14236614317E+02 -0.14486309235E+02  0.32164072881E+02  0.00000000000E+00 0.  1.
</event>
<event>
 7    1  0.2442667E-009  0.4778728E+02  0.7816164E-02  0.1312668E+00
        -11   -1    0    0    0    0  0.00000000000E+00  0.00000000000E+00  0.45593999997E+02  0.45594000000E+02  0.51100000000E-03 0.  1.
         11   -1    0    0    0    0 -0.00000000000E+00 -0.00000000000E+00 -0.45593999997E+02  0.45594000000E+02  0.51100000000E-03 0. -1.
    9900012    2    1    2    0    0 -0.14739711205E+02 -0.20017579427E+02 -0.35576118814E+02  0.47787276476E+02  0.20000024763E+02 0.  0.
        -12    1    1    2    0    0  0.14739711205E+02  0.20017579427E+02  0.35576118814E+02  0.43400723524E+02  0.00000000000E+00 0.  1.
         11    1    3    3    0    0 -0.15612425852E+02 -0.88314515330E+01 -0.22498312079E+02  0.28773536867E+02  0.51100000000E-03 0. -1.
        -11    1    3    3    0    0  0.44733478566E+01 -0.63705480199E+01 -0.71287440704E+01  0.10555269556E+02  0.51100000000E-03 0.  1.
        -12    1    3    3    0    0 -0.36006332100E+01 -0.48155798742E+01 -0.59490626648E+01  0.84584700524E+01  0.00000000000E+00 0.  1.
</event>
<event>
 7    1  0.2442667E-009  0.4778727E+02  0.7816164E-02  0.1312668E+00
        -11   -1    0    0    0    0  0.00000000000E+00  0.00000000000E+00  0.45593999997E+02  0.45594000000E+02  0.51100000000E-03 0.  1.
         11   -1    0    0    0    0 -0.00000000000E+00 -0.00000000000E+00 -0.45593999997E+02  0.45594000000E+02  0.51100000000E-03 0. -1.
    9900012    2    1    2    0    0  0.16880399142E+01  0.37481699057E+01 -0.43205613440E+02  0.47787270869E+02  0.19999999200E+02 0.  0.
        -12    1    1    2    0    0 -0.16880399142E+01 -0.37481699057E+01  0.43205613440E+02  0.43400729131E+02  0.00000000000E+00 0.  1.
         11    1    3    3    0    0 -0.98095076525E+00 -0.29914398536E+01 -0.98654081209E+01  0.10355542210E+02  0.51100000000E-03 0. -1.
        -11    1    3    3    0    0  0.48145612453E+01 -0.34322756387E+01 -0.17615478321E+02  0.18581323763E+02  0.51100000000E-03 0.  1.
         12    1    3    3    0    0 -0.21455705658E+01  0.10171885398E+02 -0.15724726998E+02  0.18850404896E+02  0.00000000000E+00 0. -1.
</event>
<event>
 7    1  0.2442667E-009  0.4778728E+02  0.7816164E-02  0.1312668E+00
        -11   -1    0    0    0    0  0.00000000000E+00  0.00000000000E+00  0.45593999997E+02  0.45594000000E+02  0.51100000000E-03 0. -1.
         11   -1    0    0    0    0 -0.00000000000E+00 -0.00000000000E+00 -0.45593999997E+02  0.45594000000E+02  0.51100000000E-03 0.  1.
    9900012    2    1    2    0    0 -0.40642306793E+02 -0.11846782277E+02  0.95644527900E+01  0.47787284465E+02  0.20000061189E+02 0.  0.
        -12    1    1    2    0    0  0.40642306793E+02  0.11846782277E+02 -0.95644527900E+01  0.43400715535E+02  0.00000000000E+00 0.  1.
         11    1    3    3    0    0 -0.31858397954E+02 -0.82132820154E+01  0.73380431927E+01  0.33708491509E+02  0.51100000000E-03 0. -1.
        -11    1    3    3    0    0 -0.41985580212E+01  0.93149135386E+00 -0.34172580843E+01  0.54930154447E+01  0.51100000000E-03 0.  1.
        -12    1    3    3    0    0 -0.45853508182E+01 -0.45649916154E+01  0.56436676816E+01  0.85857775114E+01  0.00000000000E+00 0.  1.
</event>
<event>
 7    1  0.2442667E-009  0.4778726E+02  0.7816164E-02  0.1312668E+00
        -11   -1    0    0    0    0  0.00000000000E+00  0.00000000000E+00  0.45593999997E+02  0.45594000000E+02  0.51100000000E-03 0.  1.
         11   -1    0    0    0    0 -0.00000000000E+00 -0.00000000000E+00 -0.45593999997E+02  0.45594000000E+02  0.51100000000E-03 0. -1.
    9900012    2    1    2    0    0  0.32812405256E+02  0.15511092693E+02 -0.23798653404E+02  0.47787264533E+02  0.19999970312E+02 0.  0.
        -12    1    1    2    0    0 -0.32812405256E+02 -0.15511092693E+02  0.23798653404E+02  0.43400735467E+02  0.00000000000E+00 0.  1.
         11    1    3    3    0    0  0.12353490756E+02  0.12298892972E+02 -0.93537780224E+01  0.19782938754E+02  0.51100000000E-03 0. -1.
        -11    1    3    3    0    0  0.69488131620E+01 -0.17834134875E+01 -0.11100651884E+02  0.13217073827E+02  0.51100000000E-03 0.  1.
        -12    1    3    3    0    0  0.13510101338E+02  0.49956132084E+01 -0.33442234975E+01  0.14787251952E+02  0.00000000000E+00 0.  1.
</event>
<event>
 7    1  0.2442667E-009  0.4778727E+02  0.7816164E-02  0.1312668E+00
        -11   -1    0    0    0    0  0.00000000000E+00  0.00000000000E+00  0.45593999997E+02  0.45594000000E+02  0.51100000000E-03 0.  1.
         11   -1    0    0    0    0 -0.00000000000E+00 -0.00000000000E+00 -0.45593999997E+02  0.45594000000E+02  0.51100000000E-03 0. -1.
    9900012    2    1    2    0    0 -0.36880175135E+02 -0.12659184385E+02 -0.19058356594E+02  0.47787271626E+02  0.20000002653E+02 0.  0.
        -12    1    1    2    0    0  0.36880175135E+02  0.12659184385E+02  0.19058356594E+02  0.43400728374E+02  0.00000000000E+00 0.  1.
         11    1    3    3    0    0 -0.20485585331E+02  0.36775427388E+00 -0.77100770361E+01  0.21891544892E+02  0.51100000000E-03 0. -1.
        -11    1    3    3    0    0 -0.13411216362E+02 -0.14643940166E+02 -0.10116881262E+02  0.22285802534E+02  0.51100000000E-03 0.  1.
         12    1    3    3    0    0 -0.29833734422E+01  0.16170015066E+01 -0.12313982964E+01  0.36099242004E+01  0.00000000000E+00 0. -1.
</event>
<event>
 7    1  0.2442667E-009  0.4778726E+02  0.7816164E-02  0.1312668E+00
        -11   -1    0    0    0    0  0.00000000000E+00  0.00000000000E+00  0.45593999997E+02  0.45594000000E+02  0.51100000000E-03 0.  1.
         11   -1    0    0    0    0 -0.00000000000E+00 -0.00000000000E+00 -0.45593999997E+02  0.45594000000E+02  0.51100000000E-03 0. -1.
    9900012    2    1    2    0    0  0.75019703805E+01 -0.12016227828E+02 -0.41023829875E+02  0.47787263735E+02  0.19999966671E+02 0.  0.
        -12    1    1    2    0    0 -0.75019703805E+01  0.12016227828E+02  0.41023829875E+02  0.43400736265E+02  0.00000000000E+00 0.  1.
         11    1    3    3    0    0  0.13287952813E+02 -0.56823547900E+01 -0.27997280152E+02  0.31507245867E+02  0.51100000000E-03 0. -1.
        -11    1    3    3    0    0 -0.27048438086E+01 -0.10546203684E+01 -0.15841365113E+01  0.33072485388E+01  0.51100000000E-03 0.  1.
         12    1    3    3    0    0 -0.30811386240E+01 -0.52792526691E+01 -0.11442413211E+02  0.12972769329E+02  0.00000000000E+00 0. -1.
</event>
<event>
 7    1  0.2442667E-009  0.4778727E+02  0.7816164E-02  0.1312668E+00
        -11   -1    0    0    0    0  0.00000000000E+00  0.00000000000E+00  0.45593999997E+02  0.45594000000E+02  0.51100000000E-03 0.  1.
         11   -1    0    0    0    0 -0.00000000000E+00 -0.00000000000E+00 -0.45593999997E+02  0.45594000000E+02  0.51100000000E-03 0. -1.
    9900012    2    1    2    0    0 -0.37855863808E+02  0.21169157892E+02 -0.15567967952E+01  0.47787270896E+02  0.19999999324E+02 0.  0.
        -12    1    1    2    0    0  0.37855863808E+02 -0.21169157892E+02  0.15567967952E+01  0.43400729104E+02  0.00000000000E+00 0.  1.
         11    1    3    3    0    0 -0.25372282694E+02  0.18626759498E+02  0.28939415028E+01  0.31608286828E+02  0.51100000000E-03 0. -1.
        -11    1    3    3    0    0 -0.57405541269E+01  0.52637445566E+01 -0.43199605900E+01  0.89063476353E+01  0.51100000000E-03 0.  1.
         12    1    3    3    0    0 -0.67430269867E+01 -0.27213461627E+01 -0.13077770809E+00  0.72726364332E+01  0.00000000000E+00 0. -1.
</event>
<event>
 7    1  0.2442667E-009  0.4778731E+02  0.7816164E-02  0.1312668E+00
        -11   -1    0    0    0    0  0.00000000000E+00  0.00000000000E+00  0.45593999997E+02  0.45594000000E+02  0.51100000000E-03 0.  1.
         11   -1    0    0    0    0 -0.00000000000E+00 -0.00000000000E+00 -0.45593999997E+02  0.45594000000E+02  0.51100000000E-03 0. -1.
    9900012    2    1    2    0    0  0.12601117109E+02 -0.28101828482E+02 -0.30579709601E+02  0.47787313879E+02  0.20000195301E+02 0.  0.
        -12    1    1    2    0    0 -0.12601117109E+02  0.28101828482E+02  0.30579709601E+02  0.43400686121E+02  0.00000000000E+00 0.  1.
         11    1    3    3    0    0  0.22307111259E+01 -0.37305137423E+01 -0.16084037276E+02  0.16661004179E+02  0.51100000000E-03 0.  1.
        -11    1    3    3    0    0  0.10942081521E+02 -0.24428021361E+02 -0.14673556816E+02  0.30524918436E+02  0.51100000000E-03 0. -1.
         12    1    3    3    0    0 -0.57167553797E+00  0.56706621120E-01  0.17788449002E+00  0.60139126481E+00  0.00000000000E+00 0. -1.
</event>
<event>
 7    1  0.2442667E-009  0.4778727E+02  0.7816164E-02  0.1312668E+00
        -11   -1    0    0    0    0  0.00000000000E+00  0.00000000000E+00  0.45593999997E+02  0.45594000000E+02  0.51100000000E-03 0.  1.
         11   -1    0    0    0    0 -0.00000000000E+00 -0.00000000000E+00 -0.45593999997E+02  0.45594000000E+02  0.51100000000E-03 0. -1.
    9900012    2    1    2    0    0  0.25903871838E+02 -0.62416696963E+01 -0.34258638905E+02  0.47787270093E+02  0.19999995664E+02 0.  0.
        -12    1    1    2    0    0 -0.25903871838E+02  0.62416696963E+01  0.34258638905E+02  0.43400729907E+02  0.00000000000E+00 0.  1.
         11    1    3    3    0    0  0.88089380508E+01 -0.35208634024E+01 -0.20441119575E+02  0.22535155611E+02  0.51100000000E-03 0. -1.
        -11    1    3    3    0    0  0.38203467461E+01  0.35612841826E+01 -0.20376248692E+00  0.52267880866E+01  0.51100000000E-03 0.  1.
        -12    1    3    3    0    0  0.13274587041E+02 -0.62820904765E+01 -0.13613756843E+02  0.20025326395E+02  0.00000000000E+00 0.  1.
</event>
<event>
 7    1  0.2442667E-009  0.4778728E+02  0.7816164E-02  0.1312668E+00
        -11   -1    0    0    0    0  0.00000000000E+00  0.00000000000E+00  0.45593999997E+02  0.45594000000E+02  0.51100000000E-03 0.  1.
         11   -1    0    0    0    0 -0.00000000000E+00 -0.00000000000E+00 -0.45593999997E+02  0.45594000000E+02  0.51100000000E-03 0. -1.
    9900012    2    1    2    0    0  0.16260502196E+02 -0.32543268602E+02 -0.23667586511E+02  0.47787275188E+02  0.20000018892E+02 0.  0.
        -12    1    1    2    0    0 -0.16260502196E+02  0.32543268602E+02  0.23667586511E+02  0.43400724812E+02  0.00000000000E+00 0.  1.
         11    1    3    3    0    0  0.16956766222E+01  0.20435643804E+01 -0.42845073005E+00  0.26898038726E+01  0.51100000000E-03 0. -1.
        -11    1    3    3    0    0 -0.10075479073E+01 -0.37154818175E+01 -0.39003339963E+01  0.54801973930E+01  0.51100000000E-03 0.  1.
         12    1    3    3    0    0  0.15572373481E+02 -0.30871351165E+02 -0.19338801785E+02  0.39617273922E+02  0.00000000000E+00 0. -1.
</event>
<event>
 7    1  0.2442667E-009  0.4778727E+02  0.7816164E-02  0.1312668E+00
        -11   -1    0    0    0    0  0.00000000000E+00  0.00000000000E+00  0.45593999997E+02  0.45594000000E+02  0.51100000000E-03 0.  1.
         11   -1    0    0    0    0 -0.00000000000E+00 -0.00000000000E+00 -0.45593999997E+02  0.45594000000E+02  0.51100000000E-03 0. -1.
    9900012    2    1    2    0    0 -0.10275745188E+02 -0.18724463467E+02 -0.37781307012E+02  0.47787266932E+02  0.19999981249E+02 0.  0.
        -12    1    1    2    0    0  0.10275745188E+02  0.18724463467E+02  0.37781307012E+02  0.43400733068E+02  0.00000000000E+00 0.  1.
         11    1    3    3    0    0 -0.12054601323E+02 -0.68314740483E+01 -0.16737170693E+02  0.21728215155E+02  0.51100000000E-03 0. -1.
        -11    1    3    3    0    0  0.40649979622E+01 -0.20701834080E+01 -0.10601918204E+02  0.11541686949E+02  0.51100000000E-03 0.  1.
        -12    1    3    3    0    0 -0.22861418272E+01 -0.98228060107E+01 -0.10442218115E+02  0.14517364828E+02  0.00000000000E+00 0.  1.
</event>
<event>
 7    1  0.2442667E-009  0.4778725E+02  0.7816164E-02  0.1312668E+00
        -11   -1    0    0    0    0  0.00000000000E+00  0.00000000000E+00  0.45593999997E+02  0.45594000000E+02  0.51100000000E-03 0.  1.
         11   -1    0    0    0    0 -0.00000000000E+00 -0.00000000000E+00 -0.45593999997E+02  0.45594000000E+02  0.51100000000E-03 0. -1.
    9900012    2    1    2    0    0 -0.38624968912E+02 -0.13560012458E+02 -0.14417444993E+02  0.47787252524E+02  0.19999915558E+02 0.  0.
        -12    1    1    2    0    0  0.38624968912E+02  0.13560012458E+02  0.14417444993E+02  0.43400747476E+02  0.00000000000E+00 0.  1.
         11    1    3    3    0    0 -0.20203563270E+02 -0.32932483433E+01 -0.78490584717E+01  0.21923438886E+02  0.51100000000E-03 0. -1.
        -11    1    3    3    0    0 -0.22249813906E+01 -0.76468709467E+01  0.54193025427E+00  0.79824097944E+01  0.51100000000E-03 0.  1.
        -12    1    3    3    0    0 -0.16196424252E+02 -0.26198931676E+01 -0.71103167754E+01  0.17881403843E+02  0.00000000000E+00 0.  1.
</event>
<event>
 7    1  0.2442667E-009  0.4778727E+02  0.7816164E-02  0.1312668E+00
        -11   -1    0    0    0    0  0.00000000000E+00  0.00000000000E+00  0.45593999997E+02  0.45594000000E+02  0.51100000000E-03 0. -1.
         11   -1    0    0    0    0 -0.00000000000E+00 -0.00000000000E+00 -0.45593999997E+02  0.45594000000E+02  0.51100000000E-03 0.  1.
    9900012    2    1    2    0    0 -0.24412270847E+02 -0.35867856203E+02  0.10776005771E+01  0.47787270749E+02  0.19999998653E+02 0.  0.
        -12    1    1    2    0    0  0.24412270847E+02  0.35867856203E+02 -0.10776005771E+01  0.43400729251E+02  0.00000000000E+00 0.  1.
         11    1    3    3    0    0 -0.20064394402E+02 -0.15609970304E+02  0.51005416776E+01  0.25928104853E+02  0.51100000000E-03 0. -1.
        -11    1    3    3    0    0 -0.47809734763E+00 -0.81674100274E+01 -0.41285185951E+01  0.91640509427E+01  0.51100000000E-03 0.  1.
         12    1    3    3    0    0 -0.38697790981E+01 -0.12090475872E+02  0.10557749460E+00  0.12695114953E+02  0.00000000000E+00 0. -1.
</event>
<event>
 7    1  0.2442667E-009  0.4778727E+02  0.7816164E-02  0.1312668E+00
        -11   -1    0    0    0    0  0.00000000000E+00  0.00000000000E+00  0.45593999997E+02  0.45594000000E+02  0.51100000000E-03 0.  1.
         11   -1    0    0    0    0 -0.00000000000E+00 -0.00000000000E+00 -0.45593999997E+02  0.45594000000E+02  0.51100000000E-03 0. -1.
    9900012    2    1    2    0    0 -0.28932016409E+02 -0.13699725313E+02 -0.29306643446E+02  0.47787269623E+02  0.19999993520E+02 0.  0.
        -12    1    1    2    0    0  0.28932016409E+02  0.13699725313E+02  0.29306643446E+02  0.43400730377E+02  0.00000000000E+00 0.  1.
         11    1    3    3    0    0 -0.23099506015E+02 -0.27362837586E+01 -0.14069007393E+02  0.27184764046E+02  0.51100000000E-03 0. -1.
        -11    1    3    3    0    0 -0.71467682696E+01 -0.95633131266E+01 -0.12888228282E+02  0.17568143987E+02  0.51100000000E-03 0.  1.
         12    1    3    3    0    0  0.13142578761E+01 -0.14001284281E+01 -0.23494077717E+01  0.30343615898E+01  0.00000000000E+00 0. -1.
</event>
<event>
 7    1  0.2442667E-009  0.4778727E+02  0.7816164E-02  0.1312668E+00
        -11   -1    0    0    0    0  0.00000000000E+00  0.00000000000E+00  0.45593999997E+02  0.45594000000E+02  0.51100000000E-03 0. -1.
         11   -1    0    0    0    0 -0.00000000000E+00 -0.00000000000E+00 -0.45593999997E+02  0.45594000000E+02  0.51100000000E-03 0.  1.
    9900012    2    1    2    0    0  0.35952069717E+02 -0.21217721828E+02 -0.11869292946E+02  0.47787272454E+02  0.20000006426E+02 0.  0.
        -12    1    1    2    0    0 -0.35952069717E+02  0.21217721828E+02  0.11869292946E+02  0.43400727546E+02  0.00000000000E+00 0.  1.
         11    1    3    3    0    0  0.66482737070E+01 -0.58902444722E+01 -0.20894041340E+01  0.91246990702E+01  0.51100000000E-03 0. -1.
        -11    1    3    3    0    0  0.13273739914E+02 -0.12977199669E+02  0.19429244877E+01  0.18664802125E+02  0.51100000000E-03 0.  1.
        -12    1    3    3    0    0  0.16030056095E+02 -0.23502776873E+01 -0.11722813300E+02  0.19997771258E+02  0.00000000000E+00 0.  1.
</event>
<event>
 7    1  0.2442667E-009  0.4778727E+02  0.7816164E-02  0.1312668E+00
        -11   -1    0    0    0    0  0.00000000000E+00  0.00000000000E+00  0.45593999997E+02  0.45594000000E+02  0.51100000000E-03 0. -1.
         11   -1    0    0    0    0 -0.00000000000E+00 -0.00000000000E+00 -0.45593999997E+02  0.45594000000E+02  0.51100000000E-03 0.  1.
    9900012    2    1    2    0    0  0.14045672610E+01 -0.20586340317E+02  0.38181841021E+02  0.47787271888E+02  0.20000003848E+02 0.  0.
        -12    1    1    2    0    0 -0.14045672610E+01  0.20586340317E+02 -0.38181841021E+02  0.43400728112E+02  0.00000000000E+00 0.  1.
         11    1    3    3    0    0  0.59898345275E+01 -0.49108322416E+01  0.88280217131E+01  0.11744290468E+02  0.51100000000E-03 0. -1.
        -11    1    3    3    0    0 -0.63985873205E+01 -0.11215302787E+02  0.10674740019E+02  0.16753358202E+02  0.51100000000E-03 0.  1.
        -12    1    3    3    0    0  0.18133200540E+01 -0.44602052886E+01  0.18679079289E+02  0.19289623219E+02  0.00000000000E+00 0.  1.
</event>
<event>
 7    1  0.2442667E-009  0.4778728E+02  0.7816164E-02  0.1312668E+00
        -11   -1    0    0    0    0  0.00000000000E+00  0.00000000000E+00  0.45593999997E+02  0.45594000000E+02  0.51100000000E-03 0.  1.
         11   -1    0    0    0    0 -0.00000000000E+00 -0.00000000000E+00 -0.45593999997E+02  0.45594000000E+02  0.51100000000E-03 0. -1.
    9900012    2    1    2    0    0 -0.20660964696E+02 -0.21828411864E+02 -0.31309229133E+02  0.47787275863E+02  0.20000021971E+02 0.  0.
        -12    1    1    2    0    0  0.20660964696E+02  0.21828411864E+02  0.31309229133E+02  0.43400724137E+02  0.00000000000E+00 0.  1.
         11    1    3    3    0    0  0.19505760864E+01 -0.69415840238E+01 -0.55644207530E+01  0.91078600344E+01  0.51100000000E-03 0. -1.
        -11    1    3    3    0    0 -0.12249070234E+02 -0.50454660363E+01 -0.66329069977E+01  0.14815259182E+02  0.51100000000E-03 0.  1.
        -12    1    3    3    0    0 -0.10362470548E+02 -0.98413618041E+01 -0.19111901382E+02  0.23864156647E+02  0.00000000000E+00 0.  1.
</event>
<event>
 7    1  0.2442667E-009  0.4778727E+02  0.7816164E-02  0.1312668E+00
        -11   -1    0    0    0    0  0.00000000000E+00  0.00000000000E+00  0.45593999997E+02  0.45594000000E+02  0.51100000000E-03 0.  1.
         11   -1    0    0    0    0 -0.00000000000E+00 -0.00000000000E+00 -0.45593999997E+02  0.45594000000E+02  0.51100000000E-03 0. -1.
    9900012    2    1    2    0    0  0.17428442260E+02  0.16837471240E+02 -0.36005169145E+02  0.47787271406E+02  0.20000001647E+02 0.  0.
        -12    1    1    2    0    0 -0.17428442260E+02 -0.16837471240E+02  0.36005169145E+02  0.43400728594E+02  0.00000000000E+00 0.  1.
         11    1    3    3    0    0  0.59345317527E+01  0.78139010802E+01 -0.17168782951E+02  0.19774802793E+02  0.51100000000E-03 0. -1.
        -11    1    3    3    0    0 -0.10529116169E+01  0.80447232876E+01 -0.81902529060E+01  0.11528505479E+02  0.51100000000E-03 0.  1.
        -12    1    3    3    0    0  0.12546822124E+02  0.97884687185E+00 -0.10646133288E+02  0.16483963134E+02  0.00000000000E+00 0.  1.
</event>
<event>
 7    1  0.2442667E-009  0.4778727E+02  0.7816164E-02  0.1312668E+00
        -11   -1    0    0    0    0  0.00000000000E+00  0.00000000000E+00  0.45593999997E+02  0.45594000000E+02  0.51100000000E-03 0.  1.
         11   -1    0    0    0    0 -0.00000000000E+00 -0.00000000000E+00 -0.45593999997E+02  0.45594000000E+02  0.51100000000E-03 0. -1.
    9900012    2    1    2    0    0 -0.20044755482E+02 -0.15737977879E+02 -0.35130426042E+02  0.47787274154E+02  0.20000014180E+02 0.  0.
        -12    1    1    2    0    0  0.20044755482E+02  0.15737977879E+02  0.35130426042E+02  0.43400725846E+02  0.00000000000E+00 0.  1.
         11    1    3    3    0    0 -0.77278492453E+01 -0.15712789882E+02 -0.18501321093E+02  0.25473717873E+02  0.51100000000E-03 0. -1.
        -11    1    3    3    0    0 -0.52648664486E+01  0.31356401064E+01 -0.34407609361E+01  0.70277943680E+01  0.51100000000E-03 0.  1.
         12    1    3    3    0    0 -0.70520397879E+01 -0.31608281036E+01 -0.13188344013E+02  0.15285761914E+02  0.00000000000E+00 0. -1.
</event>
<event>
 7    1  0.2442667E-009  0.4778728E+02  0.7816164E-02  0.1312668E+00
        -11   -1    0    0    0    0  0.00000000000E+00  0.00000000000E+00  0.45593999997E+02  0.45594000000E+02  0.51100000000E-03 0.  1.
         11   -1    0    0    0    0 -0.00000000000E+00 -0.00000000000E+00 -0.45593999997E+02  0.45594000000E+02  0.51100000000E-03 0. -1.
    9900012    2    1    2    0    0  0.29648769475E+02  0.28084185058E+02 -0.14691899424E+02  0.47787275462E+02  0.20000020140E+02 0.  0.
        -12    1    1    2    0    0 -0.29648769475E+02 -0.28084185058E+02  0.14691899424E+02  0.43400724538E+02  0.00000000000E+00 0.  1.
         11    1    3    3    0    0  0.53732559181E+01  0.83492052575E+01 -0.75811084951E+01  0.12492170102E+02  0.51100000000E-03 0. -1.
        -11    1    3    3    0    0  0.22798883173E+02  0.11825742589E+02 -0.19954846331E+01  0.25760807846E+02  0.51100000000E-03 0.  1.
        -12    1    3    3    0    0  0.14766303842E+01  0.79092372118E+01 -0.51153062960E+01  0.95342975130E+01  0.00000000000E+00 0.  1.
</event>
<event>
 7    1  0.2442667E-009  0.4778727E+02  0.7816164E-02  0.1312668E+00
        -11   -1    0    0    0    0  0.00000000000E+00  0.00000000000E+00  0.45593999997E+02  0.45594000000E+02  0.51100000000E-03 0.  1.
         11   -1    0    0    0    0 -0.00000000000E+00 -0.00000000000E+00 -0.45593999997E+02  0.45594000000E+02  0.51100000000E-03 0. -1.
    9900012    2    1    2    0    0 -0.29730145024E+02 -0.16440509045E+02  0.27008356107E+02  0.47787272352E+02  0.20000005962E+02 0.  0.
        -12    1    1    2    0    0  0.29730145024E+02  0.16440509045E+02 -0.27008356107E+02  0.43400727648E+02  0.00000000000E+00 0.  1.
         11    1    3    3    0    0 -0.79467961734E+01 -0.55169260319E+01  0.17185973470E+02  0.19721706991E+02  0.51100000000E-03 0. -1.
        -11    1    3    3    0    0 -0.10843978538E+02 -0.81663006825E+00  0.14248137196E+01  0.10967627346E+02  0.51100000000E-03 0.  1.
         12    1    3    3    0    0 -0.10939370312E+02 -0.10106952945E+02  0.83975689174E+01  0.17097938015E+02  0.00000000000E+00 0. -1.
</event>
<event>
 7    1  0.2442667E-009  0.4778727E+02  0.7816164E-02  0.1312668E+00
        -11   -1    0    0    0    0  0.00000000000E+00  0.00000000000E+00  0.45593999997E+02  0.45594000000E+02  0.51100000000E-03 0.  1.
         11   -1    0    0    0    0 -0.00000000000E+00 -0.00000000000E+00 -0.45593999997E+02  0.45594000000E+02  0.51100000000E-03 0. -1.
    9900012    2    1    2    0    0 -0.65074478608E+01 -0.39279838479E+02 -0.17273418589E+02  0.47787267537E+02  0.19999984007E+02 0.  0.
        -12    1    1    2    0    0  0.65074478608E+01  0.39279838479E+02  0.17273418589E+02  0.43400732463E+02  0.00000000000E+00 0.  1.
         11    1    3    3    0    0 -0.66953973091E+01 -0.15419736457E+02 -0.12157657049E+02  0.20746210322E+02  0.51100000000E-03 0. -1.
        -11    1    3    3    0    0 -0.57474962821E+00 -0.34256093490E+01  0.34271221618E+01  0.48795802197E+01  0.51100000000E-03 0.  1.
         12    1    3    3    0    0  0.76269907651E+00 -0.20434492673E+02 -0.85428837012E+01  0.22161476995E+02  0.00000000000E+00 0. -1.
</event>
<event>
 7    1  0.2442667E-009  0.4778727E+02  0.7816164E-02  0.1312668E+00
        -11   -1    0    0    0    0  0.00000000000E+00  0.00000000000E+00  0.45593999997E+02  0.45594000000E+02  0.51100000000E-03 0. -1.
         11   -1    0    0    0    0 -0.00000000000E+00 -0.00000000000E+00 -0.45593999997E+02  0.45594000000E+02  0.51100000000E-03 0.  1.
    9900012    2    1    2    0    0 -0.10313761004E+02 -0.22841748908E+02  0.35433093515E+02  0.47787271028E+02  0.19999999926E+02 0.  0.
        -12    1    1    2    0    0  0.10313761004E+02  0.22841748908E+02 -0.35433093515E+02  0.43400728972E+02  0.00000000000E+00 0.  1.
         11    1    3    3    0    0 -0.11161745024E+02 -0.98008111053E+01  0.19053460808E+02  0.24159362974E+02  0.51100000000E-03 0. -1.
        -11    1    3    3    0    0  0.37938437211E+01 -0.36815261162E+00  0.22753172123E+01  0.44391277525E+01  0.51100000000E-03 0.  1.
         12    1    3    3    0    0 -0.29458597012E+01 -0.12672785191E+02  0.14104315495E+02  0.19188780301E+02  0.00000000000E+00 0. -1.
</event>
<event>
 7    1  0.2442667E-009  0.4778727E+02  0.7816164E-02  0.1312668E+00
        -11   -1    0    0    0    0  0.00000000000E+00  0.00000000000E+00  0.45593999997E+02  0.45594000000E+02  0.51100000000E-03 0.  1.
         11   -1    0    0    0    0 -0.00000000000E+00 -0.00000000000E+00 -0.45593999997E+02  0.45594000000E+02  0.51100000000E-03 0. -1.
    9900012    2    1    2    0    0  0.40829117281E+02  0.14713046828E+02 -0.36420092969E+00  0.47787271812E+02  0.20000003501E+02 0.  0.
        -12    1    1    2    0    0 -0.40829117281E+02 -0.14713046828E+02  0.36420092969E+00  0.43400728188E+02  0.00000000000E+00 0.  1.
         11    1    3    3    0    0  0.22827057447E+02  0.42539628075E+01 -0.29409830081E+00  0.23221913042E+02  0.51100000000E-03 0. -1.
        -11    1    3    3    0    0  0.43475896715E+01  0.91282208234E+01  0.29204543592E+01  0.10524020395E+02  0.51100000000E-03 0.  1.
        -12    1    3    3    0    0  0.13654470162E+02  0.13308631969E+01 -0.29905569881E+01  0.14041338375E+02  0.00000000000E+00 0.  1.
</event>
<event>
 7    1  0.2442667E-009  0.4778727E+02  0.7816164E-02  0.1312668E+00
        -11   -1    0    0    0    0  0.00000000000E+00  0.00000000000E+00  0.45593999997E+02  0.45594000000E+02  0.51100000000E-03 0.  1.
         11   -1    0    0    0    0 -0.00000000000E+00 -0.00000000000E+00 -0.45593999997E+02  0.45594000000E+02  0.51100000000E-03 0. -1.
    9900012    2    1    2    0    0 -0.22072497552E+02  0.37363389596E+02  0.63661563534E+00  0.47787270631E+02  0.19999998116E+02 0.  0.
        -12    1    1    2    0    0  0.22072497552E+02 -0.37363389596E+02 -0.63661563534E+00  0.43400729369E+02  0.00000000000E+00 0.  1.
         11    1    3    3    0    0 -0.21044281694E+02  0.30488888451E+02  0.74689551300E+01  0.37791790140E+02  0.51100000000E-03 0. -1.
        -11    1    3    3    0    0 -0.14839502961E+01  0.36783516299E+01 -0.45810603071E+01  0.60595786151E+01  0.51100000000E-03 0.  1.
         12    1    3    3    0    0  0.45573443760E+00  0.31961495153E+01 -0.22512791875E+01  0.39359018765E+01  0.00000000000E+00 0. -1.
</event>
<event>
 7    1  0.2442667E-009  0.4778726E+02  0.7816164E-02  0.1312668E+00
        -11   -1    0    0    0    0  0.00000000000E+00  0.00000000000E+00  0.45593999997E+02  0.45594000000E+02  0.51100000000E-03 0. -1.
         11   -1    0    0    0    0 -0.00000000000E+00 -0.00000000000E+00 -0.45593999997E+02  0.45594000000E+02  0.51100000000E-03 0.  1.
    9900012    2    1    2    0    0  0.43101345995E+02  0.32522705730E+01  0.39142045388E+01  0.47787259366E+02  0.19999946751E+02 0.  0.
        -12    1    1    2    0    0 -0.43101345995E+02 -0.32522705730E+01 -0.39142045388E+01  0.43400740634E+02  0.00000000000E+00 0.  1.
         11    1    3    3    0    0  0.57864129190E+01 -0.84558112758E+00  0.29453397326E+01  0.65477177943E+01  0.51100000000E-03 0. -1.
        -11    1    3    3    0    0  0.33891252959E+01  0.18986792424E+01  0.57176188687E+01  0.69124756004E+01  0.51100000000E-03 0.  1.
        -12    1    3    3    0    0  0.33925807780E+02  0.21991724582E+01 -0.47487540625E+01  0.34327065971E+02  0.00000000000E+00 0.  1.
</event>
<event>
 7    1  0.2442667E-009  0.4778727E+02  0.7816164E-02  0.1312668E+00
        -11   -1    0    0    0    0  0.00000000000E+00  0.00000000000E+00  0.45593999997E+02  0.45594000000E+02  0.51100000000E-03 0. -1.
         11   -1    0    0    0    0 -0.00000000000E+00 -0.00000000000E+00 -0.45593999997E+02  0.45594000000E+02  0.51100000000E-03 0.  1.
    9900012    2    1    2    0    0  0.25456630789E+02 -0.28114701612E+02  0.21098499204E+02  0.47787272282E+02  0.20000005640E+02 0.  0.
        -12    1    1    2    0    0 -0.25456630789E+02  0.28114701612E+02 -0.21098499204E+02  0.43400727718E+02  0.00000000000E+00 0.  1.
         11    1    3    3    0    0  0.16841431245E+02 -0.23253514762E+02  0.13562732995E+02  0.31753857746E+02  0.51100000000E-03 0. -1.
        -11    1    3    3    0    0 -0.11918712390E+01  0.18447760380E+01  0.18051524437E+01  0.28429441231E+01  0.51100000000E-03 0.  1.
        -12    1    3    3    0    0  0.98070707828E+01 -0.67059628880E+01  0.57306137644E+01  0.13190470413E+02  0.00000000000E+00 0.  1.
</event>
<event>
 7    1  0.2442667E-009  0.4778726E+02  0.7816164E-02  0.1312668E+00
        -11   -1    0    0    0    0  0.00000000000E+00  0.00000000000E+00  0.45593999997E+02  0.45594000000E+02  0.51100000000E-03 0.  1.
         11   -1    0    0    0    0 -0.00000000000E+00 -0.00000000000E+00 -0.45593999997E+02  0.45594000000E+02  0.51100000000E-03 0. -1.
    9900012    2    1    2    0    0  0.14473751626E+02  0.31274660562E+02 -0.26382379611E+02  0.47787264599E+02  0.19999970615E+02 0.  0.
        -12    1    1    2    0    0 -0.14473751626E+02 -0.31274660562E+02  0.26382379611E+02  0.43400735401E+02  0.00000000000E+00 0.  1.
         11    1    3    3    0    0 -0.39988235650E+01  0.29721754148E+01 -0.26275489326E+01  0.56327995042E+01  0.51100000000E-03 0. -1.
        -11    1    3    3    0    0  0.10301575549E+02  0.10606522118E+02 -0.13983912559E+02  0.20351181316E+02  0.51100000000E-03 0.  1.
         12    1    3    3    0    0  0.81709996420E+01  0.17695963029E+02 -0.97709181188E+01  0.21803283779E+02  0.00000000000E+00 0. -1.
</event>
<event>
 7    1  0.2442667E-009  0.4778727E+02  0.7816164E-02  0.1312668E+00
        -11   -1    0    0    0    0  0.00000000000E+00  0.00000000000E+00  0.45593999997E+02  0.45594000000E+02  0.51100000000E-03 0.  1.
         11   -1    0    0    0    0 -0.00000000000E+00 -0.00000000000E+00 -0.45593999997E+02  0.45594000000E+02  0.51100000000E-03 0. -1.
    9900012    2    1    2    0    0  0.42417972606E+02  0.75503073040E+01 -0.52279854323E+01  0.47787269913E+02  0.19999994842E+02 0.  0.
        -12    1    1    2    0    0 -0.42417972606E+02 -0.75503073040E+01  0.52279854323E+01  0.43400730087E+02  0.00000000000E+00 0.  1.
         11    1    3    3    0    0  0.18837234103E+02 -0.10938378627E+01 -0.10621400440E+02  0.21652990960E+02  0.51100000000E-03 0. -1.
        -11    1    3    3    0    0  0.92000659455E+01  0.56666550884E+01  0.12626992390E+01  0.10878722486E+02  0.51100000000E-03 0.  1.
         12    1    3    3    0    0  0.14380672557E+02  0.29774900783E+01  0.41307157690E+01  0.15255556467E+02  0.00000000000E+00 0. -1.
</event>
<event>
 7    1  0.2442667E-009  0.4778727E+02  0.7816164E-02  0.1312668E+00
        -11   -1    0    0    0    0  0.00000000000E+00  0.00000000000E+00  0.45593999997E+02  0.45594000000E+02  0.51100000000E-03 0. -1.
         11   -1    0    0    0    0 -0.00000000000E+00 -0.00000000000E+00 -0.45593999997E+02  0.45594000000E+02  0.51100000000E-03 0.  1.
    9900012    2    1    2    0    0  0.32062441885E+02  0.29174315309E+02  0.21171475260E+01  0.47787272275E+02  0.20000005610E+02 0.  0.
        -12    1    1    2    0    0 -0.32062441885E+02 -0.29174315309E+02 -0.21171475260E+01  0.43400727725E+02  0.00000000000E+00 0.  1.
         11    1    3    3    0    0  0.18683769567E+02  0.26749115707E+02  0.21568681873E+01  0.32699396279E+02  0.51100000000E-03 0. -1.
        -11    1    3    3    0    0  0.27302713911E+01 -0.18850793635E+01 -0.12304752457E+01  0.35386403699E+01  0.51100000000E-03 0.  1.
         12    1    3    3    0    0  0.10648400927E+02  0.43102789657E+01  0.11907545844E+01  0.11549235626E+02  0.00000000000E+00 0. -1.
</event>
<event>
 7    1  0.2442667E-009  0.4778726E+02  0.7816164E-02  0.1312668E+00
        -11   -1    0    0    0    0  0.00000000000E+00  0.00000000000E+00  0.45593999997E+02  0.45594000000E+02  0.51100000000E-03 0.  1.
         11   -1    0    0    0    0 -0.00000000000E+00 -0.00000000000E+00 -0.45593999997E+02  0.45594000000E+02  0.51100000000E-03 0. -1.
    9900012    2    1    2    0    0 -0.16625525211E+02 -0.25968446213E+02  0.30542686529E+02  0.47787262821E+02  0.19999962508E+02 0.  0.
        -12    1    1    2    0    0  0.16625525211E+02  0.25968446213E+02 -0.30542686529E+02  0.43400737179E+02  0.00000000000E+00 0.  1.
         11    1    3    3    0    0  0.21852176497E+01  0.82030174373E+00 -0.70629056396E+00  0.24386303019E+01  0.51100000000E-03 0. -1.
        -11    1    3    3    0    0 -0.11054033436E+02 -0.17450162426E+02  0.21061090222E+02  0.29500327888E+02  0.51100000000E-03 0.  1.
        -12    1    3    3    0    0 -0.77567094243E+01 -0.93385855303E+01  0.10187886871E+02  0.15848304631E+02  0.00000000000E+00 0.  1.
</event>
<event>
 7    1  0.2442667E-009  0.4778727E+02  0.7816164E-02  0.1312668E+00
        -11   -1    0    0    0    0  0.00000000000E+00  0.00000000000E+00  0.45593999997E+02  0.45594000000E+02  0.51100000000E-03 0. -1.
         11   -1    0    0    0    0 -0.00000000000E+00 -0.00000000000E+00 -0.45593999997E+02  0.45594000000E+02  0.51100000000E-03 0.  1.
    9900012    2    1    2    0    0  0.12069635619E+02 -0.38862799138E+02  0.15087418462E+02  0.47787268938E+02  0.19999990397E+02 0.  0.
        -12    1    1    2    0    0 -0.12069635619E+02  0.38862799138E+02 -0.15087418462E+02  0.43400731062E+02  0.00000000000E+00 0.  1.
         11    1    3    3    0    0  0.13748018801E+02 -0.35753921160E+02  0.12587993513E+02  0.40321315458E+02  0.51100000000E-03 0. -1.
        -11    1    3    3    0    0 -0.62691598017E-01 -0.16066545602E+01  0.43175082546E+01  0.46071842704E+01  0.51100000000E-03 0.  1.
         12    1    3    3    0    0 -0.16156915839E+01 -0.15022234177E+01 -0.18180833052E+01  0.28587692099E+01  0.00000000000E+00 0. -1.
</event>
<event>
 7    1  0.2442667E-009  0.4778727E+02  0.7816164E-02  0.1312668E+00
        -11   -1    0    0    0    0  0.00000000000E+00  0.00000000000E+00  0.45593999997E+02  0.45594000000E+02  0.51100000000E-03 0. -1.
         11   -1    0    0    0    0 -0.00000000000E+00 -0.00000000000E+00 -0.45593999997E+02  0.45594000000E+02  0.51100000000E-03 0.  1.
    9900012    2    1    2    0    0 -0.13282531874E+02  0.40800120379E+02 -0.65228868215E+01  0.47787268112E+02  0.19999986631E+02 0.  0.
        -12    1    1    2    0    0  0.13282531874E+02 -0.40800120379E+02  0.65228868215E+01  0.43400731888E+02  0.00000000000E+00 0.  1.
         11    1    3    3    0    0 -0.26263777091E+01  0.17863698517E+02 -0.10910055757E+02  0.21095945143E+02  0.51100000000E-03 0.  1.
        -11    1    3    3    0    0 -0.19005225000E+01  0.71090103226E+01  0.44574061175E+01  0.86033995082E+01  0.51100000000E-03 0. -1.
         12    1    3    3    0    0 -0.87556316649E+01  0.15827411539E+02 -0.70237181644E-01  0.18087923461E+02  0.00000000000E+00 0. -1.
</event>
<event>
 7    1  0.2442667E-009  0.4778727E+02  0.7816164E-02  0.1312668E+00
        -11   -1    0    0    0    0  0.00000000000E+00  0.00000000000E+00  0.45593999997E+02  0.45594000000E+02  0.51100000000E-03 0. -1.
         11   -1    0    0    0    0 -0.00000000000E+00 -0.00000000000E+00 -0.45593999997E+02  0.45594000000E+02  0.51100000000E-03 0.  1.
    9900012    2    1    2    0    0  0.36520919237E+02 -0.30605963804E+01  0.23248193160E+02  0.47787271005E+02  0.19999999820E+02 0.  0.
        -12    1    1    2    0    0 -0.36520919237E+02  0.30605963804E+01 -0.23248193160E+02  0.43400728995E+02  0.00000000000E+00 0.  1.
         11    1    3    3    0    0  0.29299266200E+02 -0.77330433109E+01  0.12206277937E+02  0.32668642152E+02  0.51100000000E-03 0. -1.
        -11    1    3    3    0    0  0.57304576577E+00  0.33160189276E+01  0.24110313731E+01  0.41397385812E+01  0.51100000000E-03 0.  1.
         12    1    3    3    0    0  0.66486072705E+01  0.13564280030E+01  0.86308838497E+01  0.10978890271E+02  0.00000000000E+00 0. -1.
</event>
<event>
 7    1  0.2442667E-009  0.4778727E+02  0.7816164E-02  0.1312668E+00
        -11   -1    0    0    0    0  0.00000000000E+00  0.00000000000E+00  0.45593999997E+02  0.45594000000E+02  0.51100000000E-03 0.  1.
         11   -1    0    0    0    0 -0.00000000000E+00 -0.00000000000E+00 -0.45593999997E+02  0.45594000000E+02  0.51100000000E-03 0. -1.
    9900012    2    1    2    0    0  0.43272534972E+02 -0.33332785915E+01 -0.27429258359E-01  0.47787265197E+02  0.19999973339E+02 0.  0.
        -12    1    1    2    0    0 -0.43272534972E+02  0.33332785915E+01  0.27429258359E-01  0.43400734803E+02  0.00000000000E+00 0.  1.
         11    1    3    3    0    0  0.10967762815E+02 -0.76504144640E+00  0.10435639943E+01  0.11043827944E+02  0.51100000000E-03 0. -1.
        -11    1    3    3    0    0  0.14243825808E+02  0.29979054750E+01  0.70499757568E+01  0.16173316584E+02  0.51100000000E-03 0.  1.
        -12    1    3    3    0    0  0.18060946349E+02 -0.55661426200E+01 -0.81209690095E+01  0.20570120669E+02  0.00000000000E+00 0.  1.
</event>
<event>
 7    1  0.2442667E-009  0.4778727E+02  0.7816164E-02  0.1312668E+00
        -11   -1    0    0    0    0  0.00000000000E+00  0.00000000000E+00  0.45593999997E+02  0.45594000000E+02  0.51100000000E-03 0. -1.
         11   -1    0    0    0    0 -0.00000000000E+00 -0.00000000000E+00 -0.45593999997E+02  0.45594000000E+02  0.51100000000E-03 0.  1.
    9900012    2    1    2    0    0 -0.40348147512E+02  0.96849784445E+01  0.12722085015E+02  0.47787271178E+02  0.20000000611E+02 0.  0.
        -12    1    1    2    0    0  0.40348147512E+02 -0.96849784445E+01 -0.12722085015E+02  0.43400728822E+02  0.00000000000E+00 0.  1.
         11    1    3    3    0    0 -0.16328855798E+02  0.45997261053E+01  0.60028853572E+01  0.17995100578E+02  0.51100000000E-03 0. -1.
        -11    1    3    3    0    0 -0.35179175740E+01 -0.31549250151E+01 -0.30597394759E+01  0.56295028049E+01  0.51100000000E-03 0.  1.
        -12    1    3    3    0    0 -0.20501374139E+02  0.82401773543E+01  0.97789391335E+01  0.24162667796E+02  0.00000000000E+00 0.  1.
</event>
<event>
 7    1  0.2442667E-009  0.4778730E+02  0.7816164E-02  0.1312668E+00
        -11   -1    0    0    0    0  0.00000000000E+00  0.00000000000E+00  0.45593999997E+02  0.45594000000E+02  0.51100000000E-03 0.  1.
         11   -1    0    0    0    0 -0.00000000000E+00 -0.00000000000E+00 -0.45593999997E+02  0.45594000000E+02  0.51100000000E-03 0. -1.
    9900012    2    1    2    0    0  0.17627363041E+01 -0.34158848519E+02 -0.26714921334E+02  0.47787295014E+02  0.20000109285E+02 0.  0.
        -12    1    1    2    0    0 -0.17627363041E+01  0.34158848519E+02  0.26714921334E+02  0.43400704986E+02  0.00000000000E+00 0.  1.
         11    1    3    3    0    0 -0.53418635460E+01 -0.26727281743E+01 -0.19584119147E+01  0.62860448237E+01  0.51100000000E-03 0.  1.
        -11    1    3    3    0    0  0.62137761046E+01 -0.10787258459E+02 -0.11170742019E+02  0.16726070550E+02  0.51100000000E-03 0. -1.
         12    1    3    3    0    0  0.89082374547E+00 -0.20698861886E+02 -0.13585767401E+02  0.24775179640E+02  0.00000000000E+00 0. -1.
</event>
<event>
 7    1  0.2442667E-009  0.4778727E+02  0.7816164E-02  0.1312668E+00
        -11   -1    0    0    0    0  0.00000000000E+00  0.00000000000E+00  0.45593999997E+02  0.45594000000E+02  0.51100000000E-03 0.  1.
         11   -1    0    0    0    0 -0.00000000000E+00 -0.00000000000E+00 -0.45593999997E+02  0.45594000000E+02  0.51100000000E-03 0. -1.
    9900012    2    1    2    0    0 -0.21089678086E+02 -0.13352310513E+02 -0.35504429221E+02  0.47787271756E+02  0.20000003245E+02 0.  0.
        -12    1    1    2    0    0  0.21089678086E+02  0.13352310513E+02  0.35504429221E+02  0.43400728244E+02  0.00000000000E+00 0.  1.
         11    1    3    3    0    0 -0.39830698917E+01 -0.87519686752E+01 -0.10027896221E+02  0.13893181937E+02  0.51100000000E-03 0. -1.
        -11    1    3    3    0    0 -0.17946656197E+02 -0.44516635239E+01 -0.16214588259E+02  0.24592939016E+02  0.51100000000E-03 0.  1.
        -12    1    3    3    0    0  0.84004800195E+00 -0.14867831411E+00 -0.92619447404E+01  0.93011508030E+01  0.00000000000E+00 0.  1.
</event>
<event>
 7    1  0.2442667E-009  0.4778727E+02  0.7816164E-02  0.1312668E+00
        -11   -1    0    0    0    0  0.00000000000E+00  0.00000000000E+00  0.45593999997E+02  0.45594000000E+02  0.51100000000E-03 0.  1.
         11   -1    0    0    0    0 -0.00000000000E+00 -0.00000000000E+00 -0.45593999997E+02  0.45594000000E+02  0.51100000000E-03 0. -1.
    9900012    2    1    2    0    0  0.27304635239E+02  0.65711340418E+01 -0.33089275997E+02  0.47787273115E+02  0.20000009440E+02 0.  0.
        -12    1    1    2    0    0 -0.27304635239E+02 -0.65711340418E+01  0.33089275997E+02  0.43400726885E+02  0.00000000000E+00 0.  1.
         11    1    3    3    0    0  0.60890562381E+00  0.21860921333E+01 -0.99623405866E+00  0.24783557926E+01  0.51100000000E-03 0. -1.
        -11    1    3    3    0    0  0.14286559612E+02  0.79923257874E+01 -0.26672112078E+02  0.31295121345E+02  0.51100000000E-03 0.  1.
        -12    1    3    3    0    0  0.12409170003E+02 -0.36072838788E+01 -0.54209298609E+01  0.14013795978E+02  0.00000000000E+00 0.  1.
</event>
<event>
 7    1  0.2442667E-009  0.4778728E+02  0.7816164E-02  0.1312668E+00
        -11   -1    0    0    0    0  0.00000000000E+00  0.00000000000E+00  0.45593999997E+02  0.45594000000E+02  0.51100000000E-03 0.  1.
         11   -1    0    0    0    0 -0.00000000000E+00 -0.00000000000E+00 -0.45593999997E+02  0.45594000000E+02  0.51100000000E-03 0. -1.
    9900012    2    1    2    0    0  0.15154649052E+02 -0.26319600593E+02 -0.31003839942E+02  0.47787275877E+02  0.20000022033E+02 0.  0.
        -12    1    1    2    0    0 -0.15154649052E+02  0.26319600593E+02  0.31003839942E+02  0.43400724123E+02  0.00000000000E+00 0.  1.
         11    1    3    3    0    0  0.10784182919E+02 -0.86710372490E+01 -0.13297465467E+02  0.19191354207E+02  0.51100000000E-03 0. -1.
        -11    1    3    3    0    0 -0.84486907931E+00 -0.75051383108E+01 -0.15119054465E+02  0.16900494460E+02  0.51100000000E-03 0.  1.
        -12    1    3    3    0    0  0.52153352126E+01 -0.10143425033E+02 -0.25873200107E+01  0.11695427210E+02  0.00000000000E+00 0.  1.
</event>
<event>
 7    1  0.2442667E-009  0.4778728E+02  0.7816164E-02  0.1312668E+00
        -11   -1    0    0    0    0  0.00000000000E+00  0.00000000000E+00  0.45593999997E+02  0.45594000000E+02  0.51100000000E-03 0. -1.
         11   -1    0    0    0    0 -0.00000000000E+00 -0.00000000000E+00 -0.45593999997E+02  0.45594000000E+02  0.51100000000E-03 0.  1.
    9900012    2    1    2    0    0 -0.20662693173E+02  0.38107289216E+02  0.21237813339E+01  0.47787276185E+02  0.20000023436E+02 0.  0.
        -12    1    1    2    0    0  0.20662693173E+02 -0.38107289216E+02 -0.21237813339E+01  0.43400723815E+02  0.00000000000E+00 0.  1.
         11    1    3    3    0    0 -0.19106483018E+02  0.17992724454E+02 -0.10956997859E+01  0.26267782260E+02  0.51100000000E-03 0. -1.
        -11    1    3    3    0    0  0.21009671710E+01  0.24342204414E+01  0.68759421646E+00  0.32882028950E+01  0.51100000000E-03 0.  1.
         12    1    3    3    0    0 -0.36571773255E+01  0.17680344321E+02  0.25318869034E+01  0.18231291029E+02  0.00000000000E+00 0. -1.
</event>
<event>
 7    1  0.2442667E-009  0.4778727E+02  0.7816164E-02  0.1312668E+00
        -11   -1    0    0    0    0  0.00000000000E+00  0.00000000000E+00  0.45593999997E+02  0.45594000000E+02  0.51100000000E-03 0. -1.
         11   -1    0    0    0    0 -0.00000000000E+00 -0.00000000000E+00 -0.45593999997E+02  0.45594000000E+02  0.51100000000E-03 0.  1.
    9900012    2    1    2    0    0 -0.17251791469E+02 -0.70143729433E+00  0.39818422602E+02  0.47787273028E+02  0.20000009046E+02 0.  0.
        -12    1    1    2    0    0  0.17251791469E+02  0.70143729433E+00 -0.39818422602E+02  0.43400726972E+02  0.00000000000E+00 0.  1.
         11    1    3    3    0    0 -0.57971687408E+01 -0.67352526157E+01  0.26650216156E+02  0.28092789371E+02  0.51100000000E-03 0. -1.
        -11    1    3    3    0    0 -0.42208237830E+01  0.31257462083E+01  0.11623708734E+01  0.53792889004E+01  0.51100000000E-03 0.  1.
        -12    1    3    3    0    0 -0.72337989455E+01  0.29080691131E+01  0.12005835572E+02  0.14315194757E+02  0.00000000000E+00 0.  1.
</event>
<event>
 7    1  0.2442667E-009  0.4778727E+02  0.7816164E-02  0.1312668E+00
        -11   -1    0    0    0    0  0.00000000000E+00  0.00000000000E+00  0.45593999997E+02  0.45594000000E+02  0.51100000000E-03 0. -1.
         11   -1    0    0    0    0 -0.00000000000E+00 -0.00000000000E+00 -0.45593999997E+02  0.45594000000E+02  0.51100000000E-03 0.  1.
    9900012    2    1    2    0    0  0.17699304088E+02 -0.32880065037E+02  0.22119210595E+02  0.47787268216E+02  0.19999987106E+02 0.  0.
        -12    1    1    2    0    0 -0.17699304088E+02  0.32880065037E+02 -0.22119210595E+02  0.43400731784E+02  0.00000000000E+00 0.  1.
         11    1    3    3    0    0 -0.13621903374E+01 -0.30244914237E+00 -0.18540588841E+01  0.23204681868E+01  0.51100000000E-03 0. -1.
        -11    1    3    3    0    0  0.21596321453E+00 -0.16518601095E+01  0.34725229602E+01  0.38514539984E+01  0.51100000000E-03 0.  1.
         12    1    3    3    0    0  0.18845531211E+02 -0.30925755785E+02  0.20500746518E+02  0.41615346031E+02  0.00000000000E+00 0. -1.
</event>
<event>
 7    1  0.2442667E-009  0.4778727E+02  0.7816164E-02  0.1312668E+00
        -11   -1    0    0    0    0  0.00000000000E+00  0.00000000000E+00  0.45593999997E+02  0.45594000000E+02  0.51100000000E-03 0.  1.
         11   -1    0    0    0    0 -0.00000000000E+00 -0.00000000000E+00 -0.45593999997E+02  0.45594000000E+02  0.51100000000E-03 0. -1.
    9900012    2    1    2    0    0 -0.25459730647E+02 -0.34761067434E+02 -0.52051984984E+01  0.47787265154E+02  0.19999973144E+02 0.  0.
        -12    1    1    2    0    0  0.25459730647E+02  0.34761067434E+02  0.52051984984E+01  0.43400734846E+02  0.00000000000E+00 0.  1.
         11    1    3    3    0    0 -0.15633313215E+02 -0.31931204824E+02  0.61995193039E+00  0.35558215144E+02  0.51100000000E-03 0. -1.
        -11    1    3    3    0    0 -0.65658384857E+01 -0.10612177845E+01 -0.21065519719E+01  0.69766739696E+01  0.51100000000E-03 0.  1.
         12    1    3    3    0    0 -0.32605789465E+01 -0.17686448252E+01 -0.37185984569E+01  0.52523760402E+01  0.00000000000E+00 0. -1.
</event>
<event>
 7    1  0.2442667E-009  0.4778727E+02  0.7816164E-02  0.1312668E+00
        -11   -1    0    0    0    0  0.00000000000E+00  0.00000000000E+00  0.45593999997E+02  0.45594000000E+02  0.51100000000E-03 0.  1.
         11   -1    0    0    0    0 -0.00000000000E+00 -0.00000000000E+00 -0.45593999997E+02  0.45594000000E+02  0.51100000000E-03 0. -1.
    9900012    2    1    2    0    0  0.14729436524E+02  0.21826561335E+02 -0.34500265400E+02  0.47787269675E+02  0.19999993758E+02 0.  0.
        -12    1    1    2    0    0 -0.14729436524E+02 -0.21826561335E+02  0.34500265400E+02  0.43400730325E+02  0.00000000000E+00 0.  1.
         11    1    3    3    0    0  0.95447506699E+01  0.97804797640E+01 -0.22839962525E+02  0.26616234485E+02  0.51100000000E-03 0. -1.
        -11    1    3    3    0    0 -0.25036193130E+01  0.53888606873E+01 -0.33769280482E+00  0.59516355620E+01  0.51100000000E-03 0.  1.
        -12    1    3    3    0    0  0.76883051669E+01  0.66572208841E+01 -0.11322610070E+02  0.15219399628E+02  0.00000000000E+00 0.  1.
</event>
<event>
 7    1  0.2442667E-009  0.4778728E+02  0.7816164E-02  0.1312668E+00
        -11   -1    0    0    0    0  0.00000000000E+00  0.00000000000E+00  0.45593999997E+02  0.45594000000E+02  0.51100000000E-03 0.  1.
         11   -1    0    0    0    0 -0.00000000000E+00 -0.00000000000E+00 -0.45593999997E+02  0.45594000000E+02  0.51100000000E-03 0. -1.
    9900012    2    1    2    0    0 -0.37898226746E+02 -0.20639816959E+02  0.46200702106E+01  0.47787277848E+02  0.20000031019E+02 0.  0.
        -12    1    1    2    0    0  0.37898226746E+02  0.20639816959E+02 -0.46200702106E+01  0.43400722152E+02  0.00000000000E+00 0.  1.
         11    1    3    3    0    0 -0.37734156916E+02 -0.20460194781E+02  0.28106082160E+01  0.43016109627E+02  0.51100000000E-03 0. -1.
        -11    1    3    3    0    0 -0.22597787135E+00  0.12352450970E+01  0.27826025886E+01  0.30528304694E+01  0.51100000000E-03 0.  1.
         12    1    3    3    0    0  0.61908041574E-01 -0.14148672753E+01 -0.97314059393E+00  0.17183377514E+01  0.00000000000E+00 0. -1.
</event>
<event>
 7    1  0.2442667E-009  0.4778727E+02  0.7816164E-02  0.1312668E+00
        -11   -1    0    0    0    0  0.00000000000E+00  0.00000000000E+00  0.45593999997E+02  0.45594000000E+02  0.51100000000E-03 0.  1.
         11   -1    0    0    0    0 -0.00000000000E+00 -0.00000000000E+00 -0.45593999997E+02  0.45594000000E+02  0.51100000000E-03 0. -1.
    9900012    2    1    2    0    0  0.74433581323E+01 -0.42266800774E+01 -0.42548264390E+02  0.47787271811E+02  0.20000003494E+02 0.  0.
        -12    1    1    2    0    0 -0.74433581323E+01  0.42266800774E+01  0.42548264390E+02  0.43400728189E+02  0.00000000000E+00 0.  1.
         11    1    3    3    0    0  0.72079736184E+01  0.61226032482E+00 -0.23802761560E+02  0.24877725067E+02  0.51100000000E-03 0. -1.
        -11    1    3    3    0    0 -0.16898270672E+01 -0.79729968148E+01 -0.16969227061E+02  0.18824953149E+02  0.51100000000E-03 0.  1.
        -12    1    3    3    0    0  0.19252115811E+01  0.31340564126E+01 -0.17762757688E+01  0.40845935950E+01  0.00000000000E+00 0.  1.
</event>
<event>
 7    1  0.2442667E-009  0.4778728E+02  0.7816164E-02  0.1312668E+00
        -11   -1    0    0    0    0  0.00000000000E+00  0.00000000000E+00  0.45593999997E+02  0.45594000000E+02  0.51100000000E-03 0.  1.
         11   -1    0    0    0    0 -0.00000000000E+00 -0.00000000000E+00 -0.45593999997E+02  0.45594000000E+02  0.51100000000E-03 0. -1.
    9900012    2    1    2    0    0 -0.80649626446E+01 -0.14201932978E+02 -0.40210492627E+02  0.47787282955E+02  0.20000054303E+02 0.  0.
        -12    1    1    2    0    0  0.80649626446E+01  0.14201932978E+02  0.40210492627E+02  0.43400717045E+02  0.00000000000E+00 0.  1.
         11    1    3    3    0    0  0.36010484093E+01 -0.92867154981E+01 -0.15225098305E+02  0.18193797103E+02  0.51100000000E-03 0. -1.
        -11    1    3    3    0    0 -0.94290757851E+01 -0.58721004075E+01 -0.11880055494E+02  0.16264216924E+02  0.51100000000E-03 0.  1.
         12    1    3    3    0    0 -0.22369352687E+01  0.95688292766E+00 -0.13105338828E+02  0.13329268927E+02  0.00000000000E+00 0. -1.
</event>
<event>
 7    1  0.2442667E-009  0.4778727E+02  0.7816164E-02  0.1312668E+00
        -11   -1    0    0    0    0  0.00000000000E+00  0.00000000000E+00  0.45593999997E+02  0.45594000000E+02  0.51100000000E-03 0.  1.
         11   -1    0    0    0    0 -0.00000000000E+00 -0.00000000000E+00 -0.45593999997E+02  0.45594000000E+02  0.51100000000E-03 0. -1.
    9900012    2    1    2    0    0 -0.23618200897E+02 -0.35440229497E+02 -0.83542806271E+01  0.47787270914E+02  0.19999999405E+02 0.  0.
        -12    1    1    2    0    0  0.23618200897E+02  0.35440229497E+02  0.83542806271E+01  0.43400729086E+02  0.00000000000E+00 0.  1.
         11    1    3    3    0    0 -0.13193615099E+02 -0.13706206910E+02 -0.12013573251E+00  0.19024878978E+02  0.51100000000E-03 0. -1.
        -11    1    3    3    0    0 -0.51796729751E+01 -0.12137254802E+02 -0.11333586335E+02  0.17395175933E+02  0.51100000000E-03 0.  1.
        -12    1    3    3    0    0 -0.52449128229E+01 -0.95967677838E+01  0.30994414408E+01  0.11367216003E+02  0.00000000000E+00 0.  1.
</event>
<event>
 7    1  0.2442667E-009  0.4778727E+02  0.7816164E-02  0.1312668E+00
        -11   -1    0    0    0    0  0.00000000000E+00  0.00000000000E+00  0.45593999997E+02  0.45594000000E+02  0.51100000000E-03 0. -1.
         11   -1    0    0    0    0 -0.00000000000E+00 -0.00000000000E+00 -0.45593999997E+02  0.45594000000E+02  0.51100000000E-03 0.  1.
    9900012    2    1    2    0    0  0.19193294414E+02  0.12703472673E+02  0.36794875058E+02  0.47787267300E+02  0.19999982926E+02 0.  0.
        -12    1    1    2    0    0 -0.19193294414E+02 -0.12703472673E+02 -0.36794875058E+02  0.43400732700E+02  0.00000000000E+00 0.  1.
         11    1    3    3    0    0 -0.42594323828E+00  0.37643454396E+01  0.15045211029E+01  0.40761879545E+01  0.51100000000E-03 0. -1.
        -11    1    3    3    0    0  0.14983243343E+02  0.24581284470E+01  0.12827485339E+02  0.19876729030E+02  0.51100000000E-03 0.  1.
        -12    1    3    3    0    0  0.46359943088E+01  0.64809987863E+01  0.22462868616E+02  0.23834350315E+02  0.00000000000E+00 0.  1.
</event>
<event>
 7    1  0.2442667E-009  0.4778727E+02  0.7816164E-02  0.1312668E+00
        -11   -1    0    0    0    0  0.00000000000E+00  0.00000000000E+00  0.45593999997E+02  0.45594000000E+02  0.51100000000E-03 0. -1.
         11   -1    0    0    0    0 -0.00000000000E+00 -0.00000000000E+00 -0.45593999997E+02  0.45594000000E+02  0.51100000000E-03 0.  1.
    9900012    2    1    2    0    0  0.36070605335E+02  0.11750688379E+02  0.21082125008E+02  0.47787271418E+02  0.20000001703E+02 0.  0.
        -12    1    1    2    0    0 -0.36070605335E+02 -0.11750688379E+02 -0.21082125008E+02  0.43400728582E+02  0.00000000000E+00 0.  1.
         11    1    3    3    0    0  0.11241474199E+02 -0.34344565215E+00 -0.35683247072E+00  0.11252378715E+02  0.51100000000E-03 0. -1.
        -11    1    3    3    0    0  0.15395854557E+01  0.46622304841E+01  0.53899597445E+01  0.72909795481E+01  0.51100000000E-03 0.  1.
        -12    1    3    3    0    0  0.23289545680E+02  0.74319035470E+01  0.16048997734E+02  0.29243913154E+02  0.00000000000E+00 0.  1.
</event>
<event>
 7    1  0.2442667E-009  0.4778727E+02  0.7816164E-02  0.1312668E+00
        -11   -1    0    0    0    0  0.00000000000E+00  0.00000000000E+00  0.45593999997E+02  0.45594000000E+02  0.51100000000E-03 0. -1.
         11   -1    0    0    0    0 -0.00000000000E+00 -0.00000000000E+00 -0.45593999997E+02  0.45594000000E+02  0.51100000000E-03 0.  1.
    9900012    2    1    2    0    0  0.38655529941E+02 -0.19000428735E+02 -0.53251129882E+01  0.47787272869E+02  0.20000008319E+02 0.  0.
        -12    1    1    2    0    0 -0.38655529941E+02  0.19000428735E+02  0.53251129882E+01  0.43400727131E+02  0.00000000000E+00 0.  1.
         11    1    3    3    0    0  0.20217693938E+02 -0.70398969979E+01  0.26070784166E+00  0.21409887126E+02  0.51100000000E-03 0. -1.
        -11    1    3    3    0    0  0.50596577658E+01 -0.56199656220E+01 -0.84056089796E+01  0.11306565034E+02  0.51100000000E-03 0.  1.
        -12    1    3    3    0    0  0.13378178237E+02 -0.63405661155E+01  0.28197881497E+01  0.15070820708E+02  0.00000000000E+00 0.  1.
</event>
<event>
 7    1  0.2442667E-009  0.4778732E+02  0.7816164E-02  0.1312668E+00
        -11   -1    0    0    0    0  0.00000000000E+00  0.00000000000E+00  0.45593999997E+02  0.45594000000E+02  0.51100000000E-03 0. -1.
         11   -1    0    0    0    0 -0.00000000000E+00 -0.00000000000E+00 -0.45593999997E+02  0.45594000000E+02  0.51100000000E-03 0.  1.
    9900012    2    1    2    0    0 -0.58007587490E+01  0.12619473793E+02  0.41118351066E+02  0.47787323562E+02  0.20000239449E+02 0.  0.
        -12    1    1    2    0    0  0.58007587490E+01 -0.12619473793E+02 -0.41118351066E+02  0.43400676438E+02  0.00000000000E+00 0.  1.
         11    1    3    3    0    0 -0.62095934614E+01  0.15064943890E+02  0.19165223415E+02  0.25155861627E+02  0.51100000000E-03 0. -1.
        -11    1    3    3    0    0  0.66118120869E+00 -0.32823721895E+01  0.21242959310E+02  0.21505219094E+02  0.51100000000E-03 0.  1.
        -12    1    3    3    0    0 -0.25234649627E+00  0.83690209209E+00  0.71016834055E+00  0.11262428414E+01  0.00000000000E+00 0.  1.
</event>
<event>
 7    1  0.2442667E-009  0.4778726E+02  0.7816164E-02  0.1312668E+00
        -11   -1    0    0    0    0  0.00000000000E+00  0.00000000000E+00  0.45593999997E+02  0.45594000000E+02  0.51100000000E-03 0.  1.
         11   -1    0    0    0    0 -0.00000000000E+00 -0.00000000000E+00 -0.45593999997E+02  0.45594000000E+02  0.51100000000E-03 0. -1.
    9900012    2    1    2    0    0  0.39533253792E+02  0.39375399583E+01 -0.17471171053E+02  0.47787260441E+02  0.19999951654E+02 0.  0.
        -12    1    1    2    0    0 -0.39533253792E+02 -0.39375399583E+01  0.17471171053E+02  0.43400739559E+02  0.00000000000E+00 0.  1.
         11    1    3    3    0    0  0.12536421411E+02  0.49844486321E+01  0.29233065864E+01  0.13804068662E+02  0.51100000000E-03 0. -1.
        -11    1    3    3    0    0  0.18725088710E+02  0.16793226514E+00 -0.12747244619E+02  0.22652801020E+02  0.51100000000E-03 0.  1.
         12    1    3    3    0    0  0.82717436716E+01 -0.12148409389E+01 -0.76472330203E+01  0.11330390759E+02  0.00000000000E+00 0. -1.
</event>
<event>
 7    1  0.2442667E-009  0.4778727E+02  0.7816164E-02  0.1312668E+00
        -11   -1    0    0    0    0  0.00000000000E+00  0.00000000000E+00  0.45593999997E+02  0.45594000000E+02  0.51100000000E-03 0.  1.
         11   -1    0    0    0    0 -0.00000000000E+00 -0.00000000000E+00 -0.45593999997E+02  0.45594000000E+02  0.51100000000E-03 0. -1.
    9900012    2    1    2    0    0  0.10609590369E+02  0.19686954449E+02 -0.37195210643E+02  0.47787270997E+02  0.19999999783E+02 0.  0.
        -12    1    1    2    0    0 -0.10609590369E+02 -0.19686954449E+02  0.37195210643E+02  0.43400729003E+02  0.00000000000E+00 0.  1.
         11    1    3    3    0    0  0.12710108605E+02  0.12013250917E+02 -0.18589153792E+02  0.25522964117E+02  0.51100000000E-03 0. -1.
        -11    1    3    3    0    0  0.10716615618E+01  0.21641578757E+01  0.18977261327E+00  0.24224061839E+01  0.51100000000E-03 0.  1.
         12    1    3    3    0    0 -0.31721797975E+01  0.55095456561E+01 -0.18795829464E+02  0.19841900696E+02  0.00000000000E+00 0. -1.
</event>
<event>
 7    1  0.2442667E-009  0.4778727E+02  0.7816164E-02  0.1312668E+00
        -11   -1    0    0    0    0  0.00000000000E+00  0.00000000000E+00  0.45593999997E+02  0.45594000000E+02  0.51100000000E-03 0.  1.
         11   -1    0    0    0    0 -0.00000000000E+00 -0.00000000000E+00 -0.45593999997E+02  0.45594000000E+02  0.51100000000E-03 0. -1.
    9900012    2    1    2    0    0  0.19489227963E+02  0.31117460352E+02 -0.23140805046E+02  0.47787271855E+02  0.20000003697E+02 0.  0.
        -12    1    1    2    0    0 -0.19489227963E+02 -0.31117460352E+02  0.23140805046E+02  0.43400728145E+02  0.00000000000E+00 0.  1.
         11    1    3    3    0    0  0.12269802108E+01  0.49134748289E+01 -0.55515378001E+01  0.75144718736E+01  0.51100000000E-03 0. -1.
        -11    1    3    3    0    0  0.16484582738E+02  0.18333490695E+02 -0.20113510980E+02  0.31818417203E+02  0.51100000000E-03 0.  1.
        -12    1    3    3    0    0  0.17776650142E+01  0.78704948279E+01  0.25242437341E+01  0.84543827787E+01  0.00000000000E+00 0.  1.
</event>
<event>
 7    1  0.2442667E-009  0.4778727E+02  0.7816164E-02  0.1312668E+00
        -11   -1    0    0    0    0  0.00000000000E+00  0.00000000000E+00  0.45593999997E+02  0.45594000000E+02  0.51100000000E-03 0. -1.
         11   -1    0    0    0    0 -0.00000000000E+00 -0.00000000000E+00 -0.45593999997E+02  0.45594000000E+02  0.51100000000E-03 0.  1.
    9900012    2    1    2    0    0  0.25546665430E+02  0.23176463414E+02  0.26340903932E+02  0.47787265088E+02  0.19999972842E+02 0.  0.
        -12    1    1    2    0    0 -0.25546665430E+02 -0.23176463414E+02 -0.26340903932E+02  0.43400734912E+02  0.00000000000E+00 0.  1.
         11    1    3    3    0    0  0.21169178091E+02  0.91981498118E+01  0.15895407392E+02  0.28025060882E+02  0.51100000000E-03 0. -1.
        -11    1    3    3    0    0  0.82224518131E+00 -0.81866690567E+00  0.21171215253E+01  0.24142299921E+01  0.51100000000E-03 0.  1.
         12    1    3    3    0    0  0.35552421577E+01  0.14796980508E+02  0.83283750139E+01  0.17347974214E+02  0.00000000000E+00 0. -1.
</event>
<event>
 7    1  0.2442667E-009  0.4778727E+02  0.7816164E-02  0.1312668E+00
        -11   -1    0    0    0    0  0.00000000000E+00  0.00000000000E+00  0.45593999997E+02  0.45594000000E+02  0.51100000000E-03 0. -1.
         11   -1    0    0    0    0 -0.00000000000E+00 -0.00000000000E+00 -0.45593999997E+02  0.45594000000E+02  0.51100000000E-03 0.  1.
    9900012    2    1    2    0    0  0.36904488305E+02  0.12649712937E+02  0.19017537775E+02  0.47787271464E+02  0.20000001911E+02 0.  0.
        -12    1    1    2    0    0 -0.36904488305E+02 -0.12649712937E+02 -0.19017537775E+02  0.43400728536E+02  0.00000000000E+00 0.  1.
         11    1    3    3    0    0  0.97305191770E+01  0.59674257137E+01  0.64638621420E+01  0.13117724161E+02  0.51100000000E-03 0. -1.
        -11    1    3    3    0    0  0.27206726140E+02  0.94780985607E+01  0.90737376602E+01  0.30205512989E+02  0.51100000000E-03 0.  1.
        -12    1    3    3    0    0 -0.32757011477E-01 -0.27958113374E+01  0.34799379732E+01  0.44640343137E+01  0.00000000000E+00 0.  1.
</event>
<event>
 7    1  0.2442667E-009  0.4778727E+02  0.7816164E-02  0.1312668E+00
        -11   -1    0    0    0    0  0.00000000000E+00  0.00000000000E+00  0.45593999997E+02  0.45594000000E+02  0.51100000000E-03 0.  1.
         11   -1    0    0    0    0 -0.00000000000E+00 -0.00000000000E+00 -0.45593999997E+02  0.45594000000E+02  0.51100000000E-03 0. -1.
    9900012    2    1    2    0    0  0.18790007417E+02 -0.20081220409E+02 -0.33575341161E+02  0.47787270445E+02  0.19999997266E+02 0.  0.
        -12    1    1    2    0    0 -0.18790007417E+02  0.20081220409E+02  0.33575341161E+02  0.43400729555E+02  0.00000000000E+00 0.  1.
         11    1    3    3    0    0  0.97286396031E+01 -0.61699667657E+01 -0.50169735572E+01  0.12565227509E+02  0.51100000000E-03 0. -1.
        -11    1    3    3    0    0 -0.75174893376E+00 -0.49883682701E+01 -0.16649181420E+02  0.17396671713E+02  0.51100000000E-03 0.  1.
        -12    1    3    3    0    0  0.98131167478E+01 -0.89228853736E+01 -0.11909186183E+02  0.17825371223E+02  0.00000000000E+00 0.  1.
</event>
<event>
 7    1  0.2442667E-009  0.4778727E+02  0.7816164E-02  0.1312668E+00
        -11   -1    0    0    0    0  0.00000000000E+00  0.00000000000E+00  0.45593999997E+02  0.45594000000E+02  0.51100000000E-03 0.  1.
         11   -1    0    0    0    0 -0.00000000000E+00 -0.00000000000E+00 -0.45593999997E+02  0.45594000000E+02  0.51100000000E-03 0. -1.
    9900012    2    1    2    0    0  0.38066955672E+02 -0.13408827625E+02 -0.15960375823E+02  0.47787269951E+02  0.19999995012E+02 0.  0.
        -12    1    1    2    0    0 -0.38066955672E+02  0.13408827625E+02  0.15960375823E+02  0.43400730049E+02  0.00000000000E+00 0.  1.
         11    1    3    3    0    0  0.14802584391E+02  0.20293932511E+01 -0.87538376741E+01  0.17316599432E+02  0.51100000000E-03 0. -1.
        -11    1    3    3    0    0  0.16330559437E+01  0.13686067074E+01  0.54970413611E-01  0.21314262930E+01  0.51100000000E-03 0.  1.
         12    1    3    3    0    0  0.21631315338E+02 -0.16806827584E+02 -0.72615085626E+01  0.28339244225E+02  0.00000000000E+00 0. -1.
</event>
<event>
 7    1  0.2442667E-009  0.4778728E+02  0.7816164E-02  0.1312668E+00
        -11   -1    0    0    0    0  0.00000000000E+00  0.00000000000E+00  0.45593999997E+02  0.45594000000E+02  0.51100000000E-03 0. -1.
         11   -1    0    0    0    0 -0.00000000000E+00 -0.00000000000E+00 -0.45593999997E+02  0.45594000000E+02  0.51100000000E-03 0.  1.
    9900012    2    1    2    0    0 -0.19694043374E+02  0.60358511803E+01  0.38201250361E+02  0.47787281423E+02  0.20000047320E+02 0.  0.
        -12    1    1    2    0    0  0.19694043374E+02 -0.60358511803E+01 -0.38201250361E+02  0.43400718577E+02  0.00000000000E+00 0.  1.
         11    1    3    3    0    0 -0.15141243385E+02  0.46635823571E+01  0.37077158791E+02  0.40320242508E+02  0.51100000000E-03 0. -1.
        -11    1    3    3    0    0 -0.16751342821E+01  0.24707558412E+01 -0.15718728392E+01  0.33736469545E+01  0.51100000000E-03 0.  1.
        -12    1    3    3    0    0 -0.28776657069E+01 -0.10984870179E+01  0.26959644089E+01  0.40933919606E+01  0.00000000000E+00 0.  1.
</event>
<event>
 7    1  0.2442667E-009  0.4778728E+02  0.7816164E-02  0.1312668E+00
        -11   -1    0    0    0    0  0.00000000000E+00  0.00000000000E+00  0.45593999997E+02  0.45594000000E+02  0.51100000000E-03 0.  1.
         11   -1    0    0    0    0 -0.00000000000E+00 -0.00000000000E+00 -0.45593999997E+02  0.45594000000E+02  0.51100000000E-03 0. -1.
    9900012    2    1    2    0    0  0.27880597157E+02 -0.14121631968E+02 -0.30114361021E+02  0.47787275041E+02  0.20000018221E+02 0.  0.
        -12    1    1    2    0    0 -0.27880597157E+02  0.14121631968E+02  0.30114361021E+02  0.43400724959E+02  0.00000000000E+00 0.  1.
         11    1    3    3    0    0  0.15014473276E+02 -0.75918370918E+01 -0.27024456246E+02  0.31833812744E+02  0.51100000000E-03 0. -1.
        -11    1    3    3    0    0  0.12640987282E+02 -0.44991681467E+01 -0.35063872264E+01  0.13868375000E+02  0.51100000000E-03 0.  1.
         12    1    3    3    0    0  0.22513659890E+00 -0.20306267297E+01  0.41648245166E+00  0.20850872970E+01  0.00000000000E+00 0. -1.
</event>
<event>
 7    1  0.2442667E-009  0.4778727E+02  0.7816164E-02  0.1312668E+00
        -11   -1    0    0    0    0  0.00000000000E+00  0.00000000000E+00  0.45593999997E+02  0.45594000000E+02  0.51100000000E-03 0.  1.
         11   -1    0    0    0    0 -0.00000000000E+00 -0.00000000000E+00 -0.45593999997E+02  0.45594000000E+02  0.51100000000E-03 0. -1.
    9900012    2    1    2    0    0  0.24682232187E+02 -0.17390218189E+01 -0.35656508203E+02  0.47787270054E+02  0.19999995484E+02 0.  0.
        -12    1    1    2    0    0 -0.24682232187E+02  0.17390218189E+01  0.35656508203E+02  0.43400729946E+02  0.00000000000E+00 0.  1.
         11    1    3    3    0    0  0.18840612650E+01 -0.24714997747E+01 -0.13547869418E+02  0.13899739710E+02  0.51100000000E-03 0. -1.
        -11    1    3    3    0    0  0.89063420383E+01  0.31030356674E+01 -0.25308531949E+01  0.97650897083E+01  0.51100000000E-03 0.  1.
        -12    1    3    3    0    0  0.13891828883E+02 -0.23705577116E+01 -0.19577785590E+02  0.24122440635E+02  0.00000000000E+00 0.  1.
</event>
<event>
 7    1  0.2442667E-009  0.4778727E+02  0.7816164E-02  0.1312668E+00
        -11   -1    0    0    0    0  0.00000000000E+00  0.00000000000E+00  0.45593999997E+02  0.45594000000E+02  0.51100000000E-03 0. -1.
         11   -1    0    0    0    0 -0.00000000000E+00 -0.00000000000E+00 -0.45593999997E+02  0.45594000000E+02  0.51100000000E-03 0.  1.
    9900012    2    1    2    0    0 -0.38447560740E+02  0.15428097279E+02 -0.12937619764E+02  0.47787272844E+02  0.20000008203E+02 0.  0.
        -12    1    1    2    0    0  0.38447560740E+02 -0.15428097279E+02  0.12937619764E+02  0.43400727156E+02  0.00000000000E+00 0.  1.
         11    1    3    3    0    0 -0.61855325411E+01  0.19653761843E+01 -0.72716515893E+01  0.97468165808E+01  0.51100000000E-03 0.  1.
        -11    1    3    3    0    0 -0.92656853767E+01  0.10174195615E+01  0.40265308266E+01  0.10153867186E+02  0.51100000000E-03 0. -1.
        -12    1    3    3    0    0 -0.22996342823E+02  0.12445301533E+02 -0.96924990011E+01  0.27886589077E+02  0.00000000000E+00 0.  1.
</event>
<event>
 7    1  0.2442667E-009  0.4778727E+02  0.7816164E-02  0.1312668E+00
        -11   -1    0    0    0    0  0.00000000000E+00  0.00000000000E+00  0.45593999997E+02  0.45594000000E+02  0.51100000000E-03 0.  1.
         11   -1    0    0    0    0 -0.00000000000E+00 -0.00000000000E+00 -0.45593999997E+02  0.45594000000E+02  0.51100000000E-03 0. -1.
    9900012    2    1    2    0    0  0.11144461728E+02  0.34770296487E+02 -0.23461684031E+02  0.47787272327E+02  0.20000005846E+02 0.  0.
        -12    1    1    2    0    0 -0.11144461728E+02 -0.34770296487E+02  0.23461684031E+02  0.43400727673E+02  0.00000000000E+00 0.  1.
         11    1    3    3    0    0  0.12184533093E+02  0.30606078930E+02 -0.14315682165E+02  0.35918430788E+02  0.51100000000E-03 0. -1.
        -11    1    3    3    0    0  0.48402931777E+00  0.30812859041E+01 -0.67148631373E+00  0.31905330799E+01  0.51100000000E-03 0.  1.
         12    1    3    3    0    0 -0.15241006823E+01  0.10829316523E+01 -0.84745155523E+01  0.86783084584E+01  0.00000000000E+00 0. -1.
</event>
<event>
 7    1  0.2442667E-009  0.4778727E+02  0.7816164E-02  0.1312668E+00
        -11   -1    0    0    0    0  0.00000000000E+00  0.00000000000E+00  0.45593999997E+02  0.45594000000E+02  0.51100000000E-03 0. -1.
         11   -1    0    0    0    0 -0.00000000000E+00 -0.00000000000E+00 -0.45593999997E+02  0.45594000000E+02  0.51100000000E-03 0.  1.
    9900012    2    1    2    0    0 -0.88470984619E+00 -0.42785114785E+02  0.72301084103E+01  0.47787271592E+02  0.20000002499E+02 0.  0.
        -12    1    1    2    0    0  0.88470984619E+00  0.42785114785E+02 -0.72301084103E+01  0.43400728408E+02  0.00000000000E+00 0.  1.
         11    1    3    3    0    0 -0.14244509225E+01 -0.29726965924E+02  0.84017729015E+01  0.30924284173E+02  0.51100000000E-03 0. -1.
        -11    1    3    3    0    0  0.54312731057E+00 -0.59298066331E+00 -0.40007872954E+01  0.40807980331E+01  0.51100000000E-03 0.  1.
        -12    1    3    3    0    0 -0.33862342713E-02 -0.12465168198E+02  0.28291228042E+01  0.12782189386E+02  0.00000000000E+00 0.  1.
</event>
<event>
 7    1  0.2442667E-009  0.4778728E+02  0.7816164E-02  0.1312668E+00
        -11   -1    0    0    0    0  0.00000000000E+00  0.00000000000E+00  0.45593999997E+02  0.45594000000E+02  0.51100000000E-03 0. -1.
         11   -1    0    0    0    0 -0.00000000000E+00 -0.00000000000E+00 -0.45593999997E+02  0.45594000000E+02  0.51100000000E-03 0.  1.
    9900012    2    1    2    0    0 -0.28477617310E+02 -0.32536599490E+02  0.37439896132E+01  0.47787280510E+02  0.20000043156E+02 0.  0.
        -12    1    1    2    0    0  0.28477617310E+02  0.32536599490E+02 -0.37439896132E+01  0.43400719490E+02  0.00000000000E+00 0.  1.
         11    1    3    3    0    0 -0.45599606272E+01 -0.13545624203E+02  0.64139520320E+01  0.15665757463E+02  0.51100000000E-03 0. -1.
        -11    1    3    3    0    0 -0.23112369077E+02 -0.18637797524E+02 -0.40695725392E+00  0.29693681405E+02  0.51100000000E-03 0.  1.
         12    1    3    3    0    0 -0.80528760556E+00 -0.35317776345E+00 -0.22630051649E+01  0.24278416416E+01  0.00000000000E+00 0. -1.
</event>
<event>
 7    1  0.2442667E-009  0.4778727E+02  0.7816164E-02  0.1312668E+00
        -11   -1    0    0    0    0  0.00000000000E+00  0.00000000000E+00  0.45593999997E+02  0.45594000000E+02  0.51100000000E-03 0.  1.
         11   -1    0    0    0    0 -0.00000000000E+00 -0.00000000000E+00 -0.45593999997E+02  0.45594000000E+02  0.51100000000E-03 0. -1.
    9900012    2    1    2    0    0  0.13683154864E+02 -0.38634599260E+02 -0.14274541727E+02  0.47787268111E+02  0.19999986625E+02 0.  0.
        -12    1    1    2    0    0 -0.13683154864E+02  0.38634599260E+02  0.14274541727E+02  0.43400731889E+02  0.00000000000E+00 0.  1.
         11    1    3    3    0    0  0.10390615029E+02 -0.26275796764E+02 -0.15831742899E+02  0.32388677956E+02  0.51100000000E-03 0. -1.
        -11    1    3    3    0    0  0.31372699874E+01 -0.13009377895E+02  0.30828050803E+01  0.13732809749E+02  0.51100000000E-03 0.  1.
        -12    1    3    3    0    0  0.15526984779E+00  0.65057539900E+00 -0.15256039083E+01  0.16657804058E+01  0.00000000000E+00 0.  1.
</event>
<event>
 7    1  0.2442667E-009  0.4778729E+02  0.7816164E-02  0.1312668E+00
        -11   -1    0    0    0    0  0.00000000000E+00  0.00000000000E+00  0.45593999997E+02  0.45594000000E+02  0.51100000000E-03 0. -1.
         11   -1    0    0    0    0 -0.00000000000E+00 -0.00000000000E+00 -0.45593999997E+02  0.45594000000E+02  0.51100000000E-03 0.  1.
    9900012    2    1    2    0    0 -0.22658032398E+02  0.32999677810E+02 -0.16770707699E+02  0.47787287974E+02  0.20000077187E+02 0.  0.
        -12    1    1    2    0    0  0.22658032398E+02 -0.32999677810E+02  0.16770707699E+02  0.43400712026E+02  0.00000000000E+00 0.  1.
         11    1    3    3    0    0 -0.36809658773E+01  0.21286975604E+02 -0.40899482797E+01  0.21986644067E+02  0.51100000000E-03 0. -1.
        -11    1    3    3    0    0 -0.93132806160E+01  0.41662588222E+01 -0.54771428814E+01  0.11579896494E+02  0.51100000000E-03 0.  1.
         12    1    3    3    0    0 -0.96637859047E+01  0.75464433837E+01 -0.72036165374E+01  0.14220747413E+02  0.00000000000E+00 0. -1.
</event>
<event>
 7    1  0.2442667E-009  0.4778727E+02  0.7816164E-02  0.1312668E+00
        -11   -1    0    0    0    0  0.00000000000E+00  0.00000000000E+00  0.45593999997E+02  0.45594000000E+02  0.51100000000E-03 0.  1.
         11   -1    0    0    0    0 -0.00000000000E+00 -0.00000000000E+00 -0.45593999997E+02  0.45594000000E+02  0.51100000000E-03 0. -1.
    9900012    2    1    2    0    0 -0.53364157777E+01  0.39702777041E+02  0.16698363228E+02  0.47787272211E+02  0.20000005321E+02 0.  0.
        -12    1    1    2    0    0  0.53364157777E+01 -0.39702777041E+02 -0.16698363228E+02  0.43400727789E+02  0.00000000000E+00 0.  1.
         11    1    3    3    0    0  0.28679758593E+01  0.11211811451E+02  0.40456222723E+01  0.12259570195E+02  0.51100000000E-03 0. -1.
        -11    1    3    3    0    0 -0.10212951977E+02  0.15966940964E+02  0.21798196760E+01  0.19078763218E+02  0.51100000000E-03 0.  1.
        -12    1    3    3    0    0  0.20085603403E+01  0.12524024626E+02  0.10472921280E+02  0.16448938799E+02  0.00000000000E+00 0.  1.
</event>
<event>
 7    1  0.2442667E-009  0.4778725E+02  0.7816164E-02  0.1312668E+00
        -11   -1    0    0    0    0  0.00000000000E+00  0.00000000000E+00  0.45593999997E+02  0.45594000000E+02  0.51100000000E-03 0.  1.
         11   -1    0    0    0    0 -0.00000000000E+00 -0.00000000000E+00 -0.45593999997E+02  0.45594000000E+02  0.51100000000E-03 0. -1.
    9900012    2    1    2    0    0 -0.31469940475E+02 -0.26511921839E+02  0.13798044019E+02  0.47787249179E+02  0.19999900308E+02 0.  0.
        -12    1    1    2    0    0  0.31469940475E+02  0.26511921839E+02 -0.13798044019E+02  0.43400750821E+02  0.00000000000E+00 0.  1.
         11    1    3    3    0    0 -0.43966141778E+01 -0.66796246372E+01 -0.34738426864E+01  0.87186687513E+01  0.51100000000E-03 0. -1.
        -11    1    3    3    0    0 -0.22460811754E+02 -0.11408382044E+02  0.10375673035E+02  0.27245069952E+02  0.51100000000E-03 0.  1.
        -12    1    3    3    0    0 -0.46125145431E+01 -0.84239151574E+01  0.68962136701E+01  0.11823510476E+02  0.00000000000E+00 0.  1.
</event>
<event>
 7    1  0.2442667E-009  0.4778727E+02  0.7816164E-02  0.1312668E+00
        -11   -1    0    0    0    0  0.00000000000E+00  0.00000000000E+00  0.45593999997E+02  0.45594000000E+02  0.51100000000E-03 0.  1.
         11   -1    0    0    0    0 -0.00000000000E+00 -0.00000000000E+00 -0.45593999997E+02  0.45594000000E+02  0.51100000000E-03 0. -1.
    9900012    2    1    2    0    0  0.39811547319E+02  0.16967607483E+02 -0.32809127263E+01  0.47787269684E+02  0.19999993797E+02 0.  0.
        -12    1    1    2    0    0 -0.39811547319E+02 -0.16967607483E+02  0.32809127263E+01  0.43400730316E+02  0.00000000000E+00 0.  1.
         11    1    3    3    0    0  0.14526401477E+02  0.10828487893E+02 -0.16428489880E+01  0.18192620564E+02  0.51100000000E-03 0. -1.
        -11    1    3    3    0    0  0.13014155385E+02 -0.28558270193E+01  0.30608837477E+01  0.13670881388E+02  0.51100000000E-03 0.  1.
        -12    1    3    3    0    0  0.12270990457E+02  0.89949466096E+01 -0.46989474860E+01  0.15923767732E+02  0.00000000000E+00 0.  1.
</event>
<event>
 7    1  0.2442667E-009  0.4778727E+02  0.7816164E-02  0.1312668E+00
        -11   -1    0    0    0    0  0.00000000000E+00  0.00000000000E+00  0.45593999997E+02  0.45594000000E+02  0.51100000000E-03 0.  1.
         11   -1    0    0    0    0 -0.00000000000E+00 -0.00000000000E+00 -0.45593999997E+02  0.45594000000E+02  0.51100000000E-03 0. -1.
    9900012    2    1    2    0    0  0.34571552926E+02  0.22631718186E+02  0.13275399555E+02  0.47787272205E+02  0.20000005292E+02 0.  0.
        -12    1    1    2    0    0 -0.34571552926E+02 -0.22631718186E+02 -0.13275399555E+02  0.43400727795E+02  0.00000000000E+00 0.  1.
         11    1    3    3    0    0  0.70405211341E+01  0.27251411528E+01 -0.31580896799E+01  0.81834505455E+01  0.51100000000E-03 0. -1.
        -11    1    3    3    0    0  0.91400417465E+01  0.95282367861E+01  0.12383116415E+02  0.18101636164E+02  0.51100000000E-03 0.  1.
        -12    1    3    3    0    0  0.18390990045E+02  0.10378340248E+02  0.40503728197E+01  0.21502185496E+02  0.00000000000E+00 0.  1.
</event>
<event>
 7    1  0.2442667E-009  0.4778727E+02  0.7816164E-02  0.1312668E+00
        -11   -1    0    0    0    0  0.00000000000E+00  0.00000000000E+00  0.45593999997E+02  0.45594000000E+02  0.51100000000E-03 0.  1.
         11   -1    0    0    0    0 -0.00000000000E+00 -0.00000000000E+00 -0.45593999997E+02  0.45594000000E+02  0.51100000000E-03 0. -1.
    9900012    2    1    2    0    0 -0.40706659259E+02 -0.14270212807E+02 -0.47908306101E+01  0.47787272592E+02  0.20000007057E+02 0.  0.
        -12    1    1    2    0    0  0.40706659259E+02  0.14270212807E+02  0.47908306101E+01  0.43400727408E+02  0.00000000000E+00 0.  1.
         11    1    3    3    0    0 -0.24587275370E+02 -0.17060426006E+02 -0.57150362412E+01  0.30467259232E+02  0.51100000000E-03 0. -1.
        -11    1    3    3    0    0 -0.10310030757E+02  0.18112459571E+01  0.32880891325E+01  0.10972186497E+02  0.51100000000E-03 0.  1.
        -12    1    3    3    0    0 -0.58093531321E+01  0.97896724168E+00 -0.23638835013E+01  0.63478268629E+01  0.00000000000E+00 0.  1.
</event>
<event>
 7    1  0.2442667E-009  0.4778727E+02  0.7816164E-02  0.1312668E+00
        -11   -1    0    0    0    0  0.00000000000E+00  0.00000000000E+00  0.45593999997E+02  0.45594000000E+02  0.51100000000E-03 0.  1.
         11   -1    0    0    0    0 -0.00000000000E+00 -0.00000000000E+00 -0.45593999997E+02  0.45594000000E+02  0.51100000000E-03 0. -1.
    9900012    2    1    2    0    0 -0.37795571375E+02 -0.11949593388E+01 -0.21299996817E+02  0.47787274110E+02  0.20000013977E+02 0.  0.
        -12    1    1    2    0    0  0.37795571375E+02  0.11949593388E+01  0.21299996817E+02  0.43400725890E+02  0.00000000000E+00 0.  1.
         11    1    3    3    0    0 -0.23369083581E+02  0.39839075308E+01 -0.82984669752E+01  0.25116730302E+02  0.51100000000E-03 0. -1.
        -11    1    3    3    0    0 -0.51743528958E+01 -0.39981125924E+00 -0.10863948129E+02  0.12039898096E+02  0.51100000000E-03 0.  1.
        -12    1    3    3    0    0 -0.92521348978E+01 -0.47790556103E+01 -0.21375817124E+01  0.10630645713E+02  0.00000000000E+00 0.  1.
</event>
<event>
 7    1  0.2442667E-009  0.4778727E+02  0.7816164E-02  0.1312668E+00
        -11   -1    0    0    0    0  0.00000000000E+00  0.00000000000E+00  0.45593999997E+02  0.45594000000E+02  0.51100000000E-03 0. -1.
         11   -1    0    0    0    0 -0.00000000000E+00 -0.00000000000E+00 -0.45593999997E+02  0.45594000000E+02  0.51100000000E-03 0.  1.
    9900012    2    1    2    0    0  0.17653179340E+02  0.32741604140E+02 -0.22360144980E+02  0.47787268831E+02  0.19999989908E+02 0.  0.
        -12    1    1    2    0    0 -0.17653179340E+02 -0.32741604140E+02  0.22360144980E+02  0.43400731169E+02  0.00000000000E+00 0.  1.
         11    1    3    3    0    0  0.51608379435E+01  0.23192805616E+02 -0.71214038240E+01  0.24804331744E+02  0.51100000000E-03 0. -1.
        -11    1    3    3    0    0  0.55112204625E+01  0.36472665430E+01 -0.11166393318E+02  0.12975532521E+02  0.51100000000E-03 0.  1.
         12    1    3    3    0    0  0.69811209336E+01  0.59015319815E+01 -0.40723478389E+01  0.10007404566E+02  0.00000000000E+00 0. -1.
</event>
<event>
 7    1  0.2442667E-009  0.4778728E+02  0.7816164E-02  0.1312668E+00
        -11   -1    0    0    0    0  0.00000000000E+00  0.00000000000E+00  0.45593999997E+02  0.45594000000E+02  0.51100000000E-03 0. -1.
         11   -1    0    0    0    0 -0.00000000000E+00 -0.00000000000E+00 -0.45593999997E+02  0.45594000000E+02  0.51100000000E-03 0.  1.
    9900012    2    1    2    0    0  0.53905661697E+00  0.24904352323E+02  0.35540195548E+02  0.47787275971E+02  0.20000022463E+02 0.  0.
        -12    1    1    2    0    0 -0.53905661697E+00 -0.24904352323E+02 -0.35540195548E+02  0.43400724029E+02  0.00000000000E+00 0.  1.
         11    1    3    3    0    0  0.14550526861E+01  0.43632302649E+01  0.23782623495E+01  0.51779425188E+01  0.51100000000E-03 0. -1.
        -11    1    3    3    0    0 -0.53961941132E+01  0.26240664710E+00  0.36399238951E+01  0.65143544867E+01  0.51100000000E-03 0.  1.
        -12    1    3    3    0    0  0.44801980441E+01  0.20278715411E+02  0.29522009303E+02  0.36094978966E+02  0.00000000000E+00 0.  1.
</event>
<event>
 7    1  0.2442667E-009  0.4778727E+02  0.7816164E-02  0.1312668E+00
        -11   -1    0    0    0    0  0.00000000000E+00  0.00000000000E+00  0.45593999997E+02  0.45594000000E+02  0.51100000000E-03 0. -1.
         11   -1    0    0    0    0 -0.00000000000E+00 -0.00000000000E+00 -0.45593999997E+02  0.45594000000E+02  0.51100000000E-03 0.  1.
    9900012    2    1    2    0    0 -0.36626286012E+02 -0.13920174561E+02  0.18664597787E+02  0.47787270773E+02  0.19999998764E+02 0.  0.
        -12    1    1    2    0    0  0.36626286012E+02  0.13920174561E+02 -0.18664597787E+02  0.43400729227E+02  0.00000000000E+00 0.  1.
         11    1    3    3    0    0 -0.66029730093E+01 -0.75585499572E+01  0.12702596346E+02  0.16189097696E+02  0.51100000000E-03 0. -1.
        -11    1    3    3    0    0 -0.17020860603E+02 -0.56910518114E+01  0.44531368311E+01  0.18491300503E+02  0.51100000000E-03 0.  1.
         12    1    3    3    0    0 -0.13002452400E+02 -0.67057279257E+00  0.15088646098E+01  0.13106872575E+02  0.00000000000E+00 0. -1.
</event>
<event>
 7    1  0.2442667E-009  0.4778727E+02  0.7816164E-02  0.1312668E+00
        -11   -1    0    0    0    0  0.00000000000E+00  0.00000000000E+00  0.45593999997E+02  0.45594000000E+02  0.51100000000E-03 0. -1.
         11   -1    0    0    0    0 -0.00000000000E+00 -0.00000000000E+00 -0.45593999997E+02  0.45594000000E+02  0.51100000000E-03 0.  1.
    9900012    2    1    2    0    0 -0.22570796496E+02  0.25598348558E+01  0.36981478895E+02  0.47787269704E+02  0.19999993890E+02 0.  0.
        -12    1    1    2    0    0  0.22570796496E+02 -0.25598348558E+01 -0.36981478895E+02  0.43400730296E+02  0.00000000000E+00 0.  1.
         11    1    3    3    0    0 -0.16524068947E+01  0.54400329277E+01  0.12074856904E+02  0.13346406869E+02  0.51100000000E-03 0. -1.
        -11    1    3    3    0    0 -0.30665084126E+01  0.33184667295E+01  0.26282239902E+01  0.52271652818E+01  0.51100000000E-03 0.  1.
         12    1    3    3    0    0 -0.17851881188E+02 -0.61986648014E+01  0.22278398001E+02  0.29213697554E+02  0.00000000000E+00 0. -1.
</event>
<event>
 7    1  0.2442667E-009  0.4778726E+02  0.7816164E-02  0.1312668E+00
        -11   -1    0    0    0    0  0.00000000000E+00  0.00000000000E+00  0.45593999997E+02  0.45594000000E+02  0.51100000000E-03 0.  1.
         11   -1    0    0    0    0 -0.00000000000E+00 -0.00000000000E+00 -0.45593999997E+02  0.45594000000E+02  0.51100000000E-03 0. -1.
    9900012    2    1    2    0    0  0.51896253625E+01 -0.35358796147E+02 -0.24626148611E+02  0.47787264156E+02  0.19999968595E+02 0.  0.
        -12    1    1    2    0    0 -0.51896253625E+01  0.35358796147E+02  0.24626148611E+02  0.43400735844E+02  0.00000000000E+00 0.  1.
         11    1    3    3    0    0 -0.35101941241E+01 -0.33892057261E+00 -0.24379019751E+01  0.42871547960E+01  0.51100000000E-03 0. -1.
        -11    1    3    3    0    0  0.76557296425E+01 -0.32698123976E+02 -0.23139450430E+02  0.40782492253E+02  0.51100000000E-03 0.  1.
        -12    1    3    3    0    0  0.10440898441E+01 -0.23217515981E+01  0.95120379373E+00  0.27176171075E+01  0.00000000000E+00 0.  1.
</event>
<event>
 7    1  0.2442667E-009  0.4778727E+02  0.7816164E-02  0.1312668E+00
        -11   -1    0    0    0    0  0.00000000000E+00  0.00000000000E+00  0.45593999997E+02  0.45594000000E+02  0.51100000000E-03 0.  1.
         11   -1    0    0    0    0 -0.00000000000E+00 -0.00000000000E+00 -0.45593999997E+02  0.45594000000E+02  0.51100000000E-03 0. -1.
    9900012    2    1    2    0    0 -0.16634953399E+02 -0.27850696334E+02 -0.28831237219E+02  0.47787271890E+02  0.20000003856E+02 0.  0.
        -12    1    1    2    0    0  0.16634953399E+02  0.27850696334E+02  0.28831237219E+02  0.43400728110E+02  0.00000000000E+00 0.  1.
         11    1    3    3    0    0 -0.54708343592E+01 -0.10050348645E+01 -0.27085665721E+01  0.61867969743E+01  0.51100000000E-03 0. -1.
        -11    1    3    3    0    0 -0.11883778344E+02 -0.28163864223E+02 -0.25932876557E+02  0.40086675124E+02  0.51100000000E-03 0.  1.
        -12    1    3    3    0    0  0.71965930446E+00  0.13182027534E+01 -0.18979409017E+00  0.15137997920E+01  0.00000000000E+00 0.  1.
</event>
<event>
 7    1  0.2442667E-009  0.4778727E+02  0.7816164E-02  0.1312668E+00
        -11   -1    0    0    0    0  0.00000000000E+00  0.00000000000E+00  0.45593999997E+02  0.45594000000E+02  0.51100000000E-03 0.  1.
         11   -1    0    0    0    0 -0.00000000000E+00 -0.00000000000E+00 -0.45593999997E+02  0.45594000000E+02  0.51100000000E-03 0. -1.
    9900012    2    1    2    0    0 -0.34361037602E+02  0.14967383390E+02 -0.21884236195E+02  0.47787271152E+02  0.20000000492E+02 0.  0.
        -12    1    1    2    0    0  0.34361037602E+02 -0.14967383390E+02  0.21884236195E+02  0.43400728848E+02  0.00000000000E+00 0.  1.
         11    1    3    3    0    0 -0.16750840730E+02  0.12372104404E+02 -0.97476215882E+01  0.22992950212E+02  0.51100000000E-03 0. -1.
        -11    1    3    3    0    0 -0.93396698416E+00 -0.27504403648E+01  0.81075268762E+00  0.30157149583E+01  0.51100000000E-03 0.  1.
        -12    1    3    3    0    0 -0.16676229888E+02  0.53457193503E+01 -0.12947367295E+02  0.21778605982E+02  0.00000000000E+00 0.  1.
</event>
<event>
 7    1  0.2442667E-009  0.4778727E+02  0.7816164E-02  0.1312668E+00
        -11   -1    0    0    0    0  0.00000000000E+00  0.00000000000E+00  0.45593999997E+02  0.45594000000E+02  0.51100000000E-03 0.  1.
         11   -1    0    0    0    0 -0.00000000000E+00 -0.00000000000E+00 -0.45593999997E+02  0.45594000000E+02  0.51100000000E-03 0. -1.
    9900012    2    1    2    0    0 -0.26562064032E+01 -0.43291774311E+02 -0.15460220414E+01  0.47787270287E+02  0.19999996548E+02 0.  0.
        -12    1    1    2    0    0  0.26562064032E+01  0.43291774311E+02  0.15460220414E+01  0.43400729713E+02  0.00000000000E+00 0.  1.
         11    1    3    3    0    0  0.31810067023E+01 -0.12975535542E+02  0.25207154639E+01  0.13595489435E+02  0.51100000000E-03 0. -1.
        -11    1    3    3    0    0 -0.48369685176E+01 -0.18887444531E+02 -0.92770674677E+01  0.21591567947E+02  0.51100000000E-03 0.  1.
        -12    1    3    3    0    0 -0.10002445879E+01 -0.11428794237E+02  0.52103299623E+01  0.12600212905E+02  0.00000000000E+00 0.  1.
</event>
<event>
 7    1  0.2442667E-009  0.4778726E+02  0.7816164E-02  0.1312668E+00
        -11   -1    0    0    0    0  0.00000000000E+00  0.00000000000E+00  0.45593999997E+02  0.45594000000E+02  0.51100000000E-03 0. -1.
         11   -1    0    0    0    0 -0.00000000000E+00 -0.00000000000E+00 -0.45593999997E+02  0.45594000000E+02  0.51100000000E-03 0.  1.
    9900012    2    1    2    0    0 -0.42132141404E+02 -0.52739644257E+01  0.89828630527E+01  0.47787264192E+02  0.19999968756E+02 0.  0.
        -12    1    1    2    0    0  0.42132141404E+02  0.52739644257E+01 -0.89828630527E+01  0.43400735808E+02  0.00000000000E+00 0.  1.
         11    1    3    3    0    0 -0.14497897890E+02  0.33914235559E+01  0.69973473466E+01  0.16451555158E+02  0.51100000000E-03 0. -1.
        -11    1    3    3    0    0 -0.74200106470E+01 -0.30977099507E+01 -0.47186498480E+01  0.93229835133E+01  0.51100000000E-03 0.  1.
         12    1    3    3    0    0 -0.20214232867E+02 -0.55676780310E+01  0.67041655541E+01  0.22012725520E+02  0.00000000000E+00 0. -1.
</event>
<event>
 7    1  0.2442667E-009  0.4778727E+02  0.7816164E-02  0.1312668E+00
        -11   -1    0    0    0    0  0.00000000000E+00  0.00000000000E+00  0.45593999997E+02  0.45594000000E+02  0.51100000000E-03 0.  1.
         11   -1    0    0    0    0 -0.00000000000E+00 -0.00000000000E+00 -0.45593999997E+02  0.45594000000E+02  0.51100000000E-03 0. -1.
    9900012    2    1    2    0    0  0.29727199376E+02  0.29627109190E+02 -0.11052211563E+02  0.47787270027E+02  0.19999995362E+02 0.  0.
        -12    1    1    2    0    0 -0.29727199376E+02 -0.29627109190E+02  0.11052211563E+02  0.43400729973E+02  0.00000000000E+00 0.  1.
         11    1    3    3    0    0  0.16176913201E+02  0.21220529133E+02 -0.15801148482E+02  0.31010960498E+02  0.51100000000E-03 0. -1.
        -11    1    3    3    0    0  0.92018958191E+01  0.65629120724E+01  0.26566687692E+01  0.11610537918E+02  0.51100000000E-03 0.  1.
         12    1    3    3    0    0  0.43483903566E+01  0.18436679851E+01  0.20922681500E+01  0.51657716117E+01  0.00000000000E+00 0. -1.
</event>
<event>
 7    1  0.2442667E-009  0.4778727E+02  0.7816164E-02  0.1312668E+00
        -11   -1    0    0    0    0  0.00000000000E+00  0.00000000000E+00  0.45593999997E+02  0.45594000000E+02  0.51100000000E-03 0.  1.
         11   -1    0    0    0    0 -0.00000000000E+00 -0.00000000000E+00 -0.45593999997E+02  0.45594000000E+02  0.51100000000E-03 0. -1.
    9900012    2    1    2    0    0 -0.52714305167E+01 -0.41893662538E+02 -0.10037751022E+02  0.47787269751E+02  0.19999994104E+02 0.  0.
        -12    1    1    2    0    0  0.52714305167E+01  0.41893662538E+02  0.10037751022E+02  0.43400730249E+02  0.00000000000E+00 0.  1.
         11    1    3    3    0    0 -0.54982500777E+01 -0.10811324570E+01 -0.82852550918E+00  0.56644554979E+01  0.51100000000E-03 0. -1.
        -11    1    3    3    0    0 -0.11819030990E+01 -0.23699300426E+02 -0.32670678702E+01  0.23952608800E+02  0.51100000000E-03 0.  1.
         12    1    3    3    0    0  0.14087226601E+01 -0.17113229655E+02 -0.59421576423E+01  0.18170205453E+02  0.00000000000E+00 0. -1.
</event>
<event>
 7    1  0.2442667E-009  0.4778727E+02  0.7816164E-02  0.1312668E+00
        -11   -1    0    0    0    0  0.00000000000E+00  0.00000000000E+00  0.45593999997E+02  0.45594000000E+02  0.51100000000E-03 0.  1.
         11   -1    0    0    0    0 -0.00000000000E+00 -0.00000000000E+00 -0.45593999997E+02  0.45594000000E+02  0.51100000000E-03 0. -1.
    9900012    2    1    2    0    0 -0.37166554158E+02 -0.16371438687E+02 -0.15305108101E+02  0.47787273201E+02  0.20000009835E+02 0.  0.
        -12    1    1    2    0    0  0.37166554158E+02  0.16371438687E+02  0.15305108101E+02  0.43400726799E+02  0.00000000000E+00 0.  1.
         11    1    3    3    0    0 -0.35195641751E+01 -0.34630536147E+01  0.56543641196E+00  0.49698884211E+01  0.51100000000E-03 0. -1.
        -11    1    3    3    0    0 -0.26594713488E+02 -0.78691027861E+01 -0.38540230948E+01  0.28000983169E+02  0.51100000000E-03 0.  1.
        -12    1    3    3    0    0 -0.70522764951E+01 -0.50392822866E+01 -0.12016521418E+02  0.14816401612E+02  0.00000000000E+00 0.  1.
</event>
<event>
 7    1  0.2442667E-009  0.4778727E+02  0.7816164E-02  0.1312668E+00
        -11   -1    0    0    0    0  0.00000000000E+00  0.00000000000E+00  0.45593999997E+02  0.45594000000E+02  0.51100000000E-03 0.  1.
         11   -1    0    0    0    0 -0.00000000000E+00 -0.00000000000E+00 -0.45593999997E+02  0.45594000000E+02  0.51100000000E-03 0. -1.
    9900012    2    1    2    0    0 -0.94787611944E+01 -0.34533525974E+02 -0.24519620903E+02  0.47787272596E+02  0.20000007076E+02 0.  0.
        -12    1    1    2    0    0  0.94787611944E+01  0.34533525974E+02  0.24519620903E+02  0.43400727404E+02  0.00000000000E+00 0.  1.
         11    1    3    3    0    0 -0.27117259268E+01 -0.53120525514E+01 -0.37893656347E+01  0.70661624652E+01  0.51100000000E-03 0. -1.
        -11    1    3    3    0    0 -0.12931675697E+01  0.17524404002E+01 -0.52092765976E+01  0.56462281791E+01  0.51100000000E-03 0.  1.
        -12    1    3    3    0    0 -0.54738676979E+01 -0.30973913822E+02 -0.15520978671E+02  0.35074881952E+02  0.00000000000E+00 0.  1.
</event>
<event>
 7    1  0.2442667E-009  0.4778727E+02  0.7816164E-02  0.1312668E+00
        -11   -1    0    0    0    0  0.00000000000E+00  0.00000000000E+00  0.45593999997E+02  0.45594000000E+02  0.51100000000E-03 0.  1.
         11   -1    0    0    0    0 -0.00000000000E+00 -0.00000000000E+00 -0.45593999997E+02  0.45594000000E+02  0.51100000000E-03 0. -1.
    9900012    2    1    2    0    0 -0.91025290628E+01 -0.38772349845E+02 -0.17247370384E+02  0.47787274972E+02  0.20000017906E+02 0.  0.
        -12    1    1    2    0    0  0.91025290628E+01  0.38772349845E+02  0.17247370384E+02  0.43400725028E+02  0.00000000000E+00 0.  1.
         11    1    3    3    0    0 -0.81073487207E+01 -0.31206449743E+02 -0.99972910589E+01  0.33756739144E+02  0.51100000000E-03 0. -1.
        -11    1    3    3    0    0  0.36624850930E+01 -0.72212070974E+00 -0.21774790449E+01  0.43216513774E+01  0.51100000000E-03 0.  1.
         12    1    3    3    0    0 -0.46576654351E+01 -0.68437793922E+01 -0.50726002802E+01  0.97088844507E+01  0.00000000000E+00 0. -1.
</event>
<event>
 7    1  0.2442667E-009  0.4778727E+02  0.7816164E-02  0.1312668E+00
        -11   -1    0    0    0    0  0.00000000000E+00  0.00000000000E+00  0.45593999997E+02  0.45594000000E+02  0.51100000000E-03 0. -1.
         11   -1    0    0    0    0 -0.00000000000E+00 -0.00000000000E+00 -0.45593999997E+02  0.45594000000E+02  0.51100000000E-03 0.  1.
    9900012    2    1    2    0    0 -0.26803375834E+01 -0.39895068061E+02 -0.16876680790E+02  0.47787273973E+02  0.20000013354E+02 0.  0.
        -12    1    1    2    0    0  0.26803375834E+01  0.39895068061E+02  0.16876680790E+02  0.43400726027E+02  0.00000000000E+00 0.  1.
         11    1    3    3    0    0 -0.22738568610E+01 -0.28957010100E+02 -0.11495676975E+02  0.31238268971E+02  0.51100000000E-03 0. -1.
        -11    1    3    3    0    0  0.13482504654E+01 -0.12026429745E+02 -0.69501769505E+01  0.13955563465E+02  0.51100000000E-03 0.  1.
         12    1    3    3    0    0 -0.17547311878E+01  0.10883717836E+01  0.15691731346E+01  0.25934415373E+01  0.00000000000E+00 0. -1.
</event>
<event>
 7    1  0.2442667E-009  0.4778726E+02  0.7816164E-02  0.1312668E+00
        -11   -1    0    0    0    0  0.00000000000E+00  0.00000000000E+00  0.45593999997E+02  0.45594000000E+02  0.51100000000E-03 0.  1.
         11   -1    0    0    0    0 -0.00000000000E+00 -0.00000000000E+00 -0.45593999997E+02  0.45594000000E+02  0.51100000000E-03 0. -1.
    9900012    2    1    2    0    0  0.36601367387E+02  0.11007638441E+02  0.20561997542E+02  0.47787263353E+02  0.19999964930E+02 0.  0.
        -12    1    1    2    0    0 -0.36601367387E+02 -0.11007638441E+02 -0.20561997542E+02  0.43400736647E+02  0.00000000000E+00 0.  1.
         11    1    3    3    0    0  0.28708863195E+02  0.92940980845E+01  0.12000791719E+02  0.32474576014E+02  0.51100000000E-03 0. -1.
        -11    1    3    3    0    0 -0.20035541700E+01  0.10865028011E+01  0.35081335599E+01  0.41835055855E+01  0.51100000000E-03 0.  1.
        -12    1    3    3    0    0  0.98960583618E+01  0.62703755502E+00  0.50530722630E+01  0.11129181753E+02  0.00000000000E+00 0.  1.
</event>
<event>
 7    1  0.2442667E-009  0.4778727E+02  0.7816164E-02  0.1312668E+00
        -11   -1    0    0    0    0  0.00000000000E+00  0.00000000000E+00  0.45593999997E+02  0.45594000000E+02  0.51100000000E-03 0. -1.
         11   -1    0    0    0    0 -0.00000000000E+00 -0.00000000000E+00 -0.45593999997E+02  0.45594000000E+02  0.51100000000E-03 0.  1.
    9900012    2    1    2    0    0  0.39176992844E+02 -0.14652001671E+02 -0.11580384009E+02  0.47787271722E+02  0.20000003091E+02 0.  0.
        -12    1    1    2    0    0 -0.39176992844E+02  0.14652001671E+02  0.11580384009E+02  0.43400728278E+02  0.00000000000E+00 0.  1.
         11    1    3    3    0    0  0.28079850219E+02 -0.10265324176E+02 -0.10274200654E+02  0.31613510847E+02  0.51100000000E-03 0. -1.
        -11    1    3    3    0    0  0.90318412357E+00  0.32186165684E+01 -0.83989109362E+00  0.34468320943E+01  0.51100000000E-03 0.  1.
         12    1    3    3    0    0  0.10193958501E+02 -0.76052940635E+01 -0.46629226076E+00  0.12726928781E+02  0.00000000000E+00 0. -1.
</event>
<event>
 7    1  0.2442667E-009  0.4778727E+02  0.7816164E-02  0.1312668E+00
        -11   -1    0    0    0    0  0.00000000000E+00  0.00000000000E+00  0.45593999997E+02  0.45594000000E+02  0.51100000000E-03 0.  1.
         11   -1    0    0    0    0 -0.00000000000E+00 -0.00000000000E+00 -0.45593999997E+02  0.45594000000E+02  0.51100000000E-03 0. -1.
    9900012    2    1    2    0    0  0.61995036106E+01 -0.42736958534E+02  0.43292295324E+01  0.47787266157E+02  0.19999977715E+02 0.  0.
        -12    1    1    2    0    0 -0.61995036106E+01  0.42736958534E+02 -0.43292295324E+01  0.43400733843E+02  0.00000000000E+00 0.  1.
         11    1    3    3    0    0 -0.20341344409E+01 -0.61828170597E+01 -0.49087327910E+01  0.81523363272E+01  0.51100000000E-03 0. -1.
        -11    1    3    3    0    0  0.60053440963E+01 -0.10617121210E+02  0.62234006112E+00  0.12213710653E+02  0.51100000000E-03 0.  1.
         12    1    3    3    0    0  0.22282939552E+01 -0.25937020265E+02  0.86156222622E+01  0.27421219177E+02  0.00000000000E+00 0. -1.
</event>
<event>
 7    1  0.2442667E-009  0.4778727E+02  0.7816164E-02  0.1312668E+00
        -11   -1    0    0    0    0  0.00000000000E+00  0.00000000000E+00  0.45593999997E+02  0.45594000000E+02  0.51100000000E-03 0.  1.
         11   -1    0    0    0    0 -0.00000000000E+00 -0.00000000000E+00 -0.45593999997E+02  0.45594000000E+02  0.51100000000E-03 0. -1.
    9900012    2    1    2    0    0  0.19740991056E+01 -0.21262833341E+02 -0.37783831166E+02  0.47787273664E+02  0.20000011942E+02 0.  0.
        -12    1    1    2    0    0 -0.19740991056E+01  0.21262833341E+02  0.37783831166E+02  0.43400726336E+02  0.00000000000E+00 0.  1.
         11    1    3    3    0    0  0.78063951440E+01 -0.81526615139E+01 -0.18961173053E+02  0.22066530735E+02  0.51100000000E-03 0. -1.
        -11    1    3    3    0    0 -0.40593583110E+00  0.15474441593E+01 -0.34258913484E+01  0.37810182647E+01  0.51100000000E-03 0.  1.
         12    1    3    3    0    0 -0.54263602074E+01 -0.14657615986E+02 -0.15396766765E+02  0.21939724663E+02  0.00000000000E+00 0. -1.
</event>
<event>
 7    1  0.2442667E-009  0.4778727E+02  0.7816164E-02  0.1312668E+00
        -11   -1    0    0    0    0  0.00000000000E+00  0.00000000000E+00  0.45593999997E+02  0.45594000000E+02  0.51100000000E-03 0.  1.
         11   -1    0    0    0    0 -0.00000000000E+00 -0.00000000000E+00 -0.45593999997E+02  0.45594000000E+02  0.51100000000E-03 0. -1.
    9900012    2    1    2    0    0  0.36479322158E+02  0.47830285193E+01 -0.23021847171E+02  0.47787265512E+02  0.19999974777E+02 0.  0.
        -12    1    1    2    0    0 -0.36479322158E+02 -0.47830285193E+01  0.23021847171E+02  0.43400734488E+02  0.00000000000E+00 0.  1.
         11    1    3    3    0    0  0.24984261520E+02  0.61870896838E+01 -0.12096024921E+02  0.28439536241E+02  0.51100000000E-03 0. -1.
        -11    1    3    3    0    0  0.95939980665E+01  0.31789320828E+01 -0.40948138572E+01  0.10904948825E+02  0.51100000000E-03 0.  1.
         12    1    3    3    0    0  0.19010625715E+01 -0.45829932474E+01 -0.68310083925E+01  0.84427804464E+01  0.00000000000E+00 0. -1.
</event>
<event>
 7    1  0.2442667E-009  0.4778726E+02  0.7816164E-02  0.1312668E+00
        -11   -1    0    0    0    0  0.00000000000E+00  0.00000000000E+00  0.45593999997E+02  0.45594000000E+02  0.51100000000E-03 0. -1.
         11   -1    0    0    0    0 -0.00000000000E+00 -0.00000000000E+00 -0.45593999997E+02  0.45594000000E+02  0.51100000000E-03 0.  1.
    9900012    2    1    2    0    0  0.25862014109E+02 -0.34573123150E+02 -0.44135977708E+01  0.47787257340E+02  0.19999937517E+02 0.  0.
        -12    1    1    2    0    0 -0.25862014109E+02  0.34573123150E+02  0.44135977708E+01  0.43400742660E+02  0.00000000000E+00 0.  1.
         11    1    3    3    0    0  0.19706658539E+02 -0.11811929695E+02  0.13192333679E+01  0.23013353750E+02  0.51100000000E-03 0. -1.
        -11    1    3    3    0    0 -0.63781696685E+00 -0.56471306693E+01 -0.15762816031E+01  0.58975892730E+01  0.51100000000E-03 0.  1.
         12    1    3    3    0    0  0.67931725375E+01 -0.17114062786E+02 -0.41565495356E+01  0.18876314317E+02  0.00000000000E+00 0. -1.
</event>
<event>
 7    1  0.2442667E-009  0.4778727E+02  0.7816164E-02  0.1312668E+00
        -11   -1    0    0    0    0  0.00000000000E+00  0.00000000000E+00  0.45593999997E+02  0.45594000000E+02  0.51100000000E-03 0. -1.
         11   -1    0    0    0    0 -0.00000000000E+00 -0.00000000000E+00 -0.45593999997E+02  0.45594000000E+02  0.51100000000E-03 0.  1.
    9900012    2    1    2    0    0  0.97130401566E+01  0.38918372698E+02  0.16572272821E+02  0.47787272944E+02  0.20000008660E+02 0.  0.
        -12    1    1    2    0    0 -0.97130401566E+01 -0.38918372698E+02 -0.16572272821E+02  0.43400727056E+02  0.00000000000E+00 0.  1.
         11    1    3    3    0    0 -0.46342071436E+01  0.48445548237E+01  0.67553654011E+00  0.67380959601E+01  0.51100000000E-03 0.  1.
        -11    1    3    3    0    0  0.11896095105E+02  0.19520931676E+02  0.11837857416E+02  0.25743323808E+02  0.51100000000E-03 0. -1.
         12    1    3    3    0    0  0.24511521949E+01  0.14552886198E+02  0.40588788656E+01  0.15305853175E+02  0.00000000000E+00 0. -1.
</event>
<event>
 7    1  0.2442667E-009  0.4778727E+02  0.7816164E-02  0.1312668E+00
        -11   -1    0    0    0    0  0.00000000000E+00  0.00000000000E+00  0.45593999997E+02  0.45594000000E+02  0.51100000000E-03 0.  1.
         11   -1    0    0    0    0 -0.00000000000E+00 -0.00000000000E+00 -0.45593999997E+02  0.45594000000E+02  0.51100000000E-03 0. -1.
    9900012    2    1    2    0    0 -0.14067522514E+02 -0.54891596575E+01 -0.40689034726E+02  0.47787267168E+02  0.19999982325E+02 0.  0.
        -12    1    1    2    0    0  0.14067522514E+02  0.54891596575E+01  0.40689034726E+02  0.43400732832E+02  0.00000000000E+00 0.  1.
         11    1    3    3    0    0 -0.24873193112E+01  0.34055260551E+01 -0.38097530606E+01  0.56831842933E+01  0.51100000000E-03 0. -1.
        -11    1    3    3    0    0 -0.89855760737E+01 -0.12787873098E+02 -0.27923669125E+02  0.32000024585E+02  0.51100000000E-03 0.  1.
        -12    1    3    3    0    0 -0.25946271288E+01  0.38931873852E+01 -0.89556125401E+01  0.10104058290E+02  0.00000000000E+00 0.  1.
</event>
<event>
 7    1  0.2442667E-009  0.4778727E+02  0.7816164E-02  0.1312668E+00
        -11   -1    0    0    0    0  0.00000000000E+00  0.00000000000E+00  0.45593999997E+02  0.45594000000E+02  0.51100000000E-03 0.  1.
         11   -1    0    0    0    0 -0.00000000000E+00 -0.00000000000E+00 -0.45593999997E+02  0.45594000000E+02  0.51100000000E-03 0. -1.
    9900012    2    1    2    0    0  0.26864581791E+02 -0.15162450874E+02 -0.30528960884E+02  0.47787272772E+02  0.20000007875E+02 0.  0.
        -12    1    1    2    0    0 -0.26864581791E+02  0.15162450874E+02  0.30528960884E+02  0.43400727228E+02  0.00000000000E+00 0.  1.
         11    1    3    3    0    0  0.13586100356E+02  0.23723761208E+01 -0.13713767702E+02  0.19449362873E+02  0.51100000000E-03 0. -1.
        -11    1    3    3    0    0  0.93429292657E+01 -0.12400226157E+02 -0.15070593243E+02  0.21637437856E+02  0.51100000000E-03 0.  1.
        -12    1    3    3    0    0  0.39355521699E+01 -0.51346008376E+01 -0.17445999381E+01  0.67004720422E+01  0.00000000000E+00 0.  1.
</event>
<event>
 7    1 -0.5498231E-009  0.4778727E+02  0.7816164E-02  0.1312668E+00
        -11   -1    0    0    0    0  0.00000000000E+00  0.00000000000E+00  0.45593999997E+02  0.45594000000E+02  0.51100000000E-03 0.  1.
         11   -1    0    0    0    0 -0.00000000000E+00 -0.00000000000E+00 -0.45593999997E+02  0.45594000000E+02  0.51100000000E-03 0. -1.
    9900012    2    1    2    0    0  0.37785203699E+02  0.15429049319E+02 -0.14759608194E+02  0.47787271717E+02  0.20000003067E+02 0.  0.
        -12    1    1    2    0    0 -0.37785203699E+02 -0.15429049319E+02  0.14759608194E+02  0.43400728283E+02  0.00000000000E+00 0.  1.
         11    1    3    3    0    0  0.34122888466E+01  0.67086440661E+01  0.15896948573E+01  0.76926426135E+01  0.51100000000E-03 0. -1.
        -11    1    3    3    0    0  0.58476068667E+01  0.26355129422E+01 -0.69336674695E+01  0.94454316670E+01  0.51100000000E-03 0.  1.
         12    1    3    3    0    0  0.28525307985E+02  0.60848923107E+01 -0.94156355817E+01  0.30649197437E+02  0.00000000000E+00 0. -1.
</event>
<event>
 7    1  0.2442667E-009  0.4778727E+02  0.7816164E-02  0.1312668E+00
        -11   -1    0    0    0    0  0.00000000000E+00  0.00000000000E+00  0.45593999997E+02  0.45594000000E+02  0.51100000000E-03 0.  1.
         11   -1    0    0    0    0 -0.00000000000E+00 -0.00000000000E+00 -0.45593999997E+02  0.45594000000E+02  0.51100000000E-03 0. -1.
    9900012    2    1    2    0    0  0.18793180613E+02 -0.12382883935E+02 -0.37109350087E+02  0.47787270559E+02  0.19999997787E+02 0.  0.
        -12    1    1    2    0    0 -0.18793180613E+02  0.12382883935E+02  0.37109350087E+02  0.43400729441E+02  0.00000000000E+00 0.  1.
         11    1    3    3    0    0  0.13533740031E+02 -0.19244832515E+01 -0.30635777192E+02  0.33547229385E+02  0.51100000000E-03 0. -1.
        -11    1    3    3    0    0  0.50069807357E+01 -0.78716973487E+01 -0.28004731220E+01  0.97404376291E+01  0.51100000000E-03 0.  1.
        -12    1    3    3    0    0  0.25245984629E+00 -0.25867033346E+01 -0.36730997736E+01  0.44996035450E+01  0.00000000000E+00 0.  1.
</event>
<event>
 7    1  0.2442667E-009  0.4778727E+02  0.7816164E-02  0.1312668E+00
        -11   -1    0    0    0    0  0.00000000000E+00  0.00000000000E+00  0.45593999997E+02  0.45594000000E+02  0.51100000000E-03 0.  1.
         11   -1    0    0    0    0 -0.00000000000E+00 -0.00000000000E+00 -0.45593999997E+02  0.45594000000E+02  0.51100000000E-03 0. -1.
    9900012    2    1    2    0    0  0.31732858806E+02  0.27125447540E+02 -0.11868405580E+02  0.47787270936E+02  0.19999999507E+02 0.  0.
        -12    1    1    2    0    0 -0.31732858806E+02 -0.27125447540E+02  0.11868405580E+02  0.43400729064E+02  0.00000000000E+00 0.  1.
         11    1    3    3    0    0  0.17867832000E+02  0.22937026727E+02 -0.10951746403E+02  0.31069395955E+02  0.51100000000E-03 0. -1.
        -11    1    3    3    0    0  0.14856195820E+02  0.46731871965E+01 -0.10347924795E+01  0.15608203887E+02  0.51100000000E-03 0.  1.
         12    1    3    3    0    0 -0.99116901484E+00 -0.48476638313E+00  0.11813330275E+00  0.11096710951E+01  0.00000000000E+00 0. -1.
</event>
<event>
 7    1  0.2442667E-009  0.4778727E+02  0.7816164E-02  0.1312668E+00
        -11   -1    0    0    0    0  0.00000000000E+00  0.00000000000E+00  0.45593999997E+02  0.45594000000E+02  0.51100000000E-03 0.  1.
         11   -1    0    0    0    0 -0.00000000000E+00 -0.00000000000E+00 -0.45593999997E+02  0.45594000000E+02  0.51100000000E-03 0. -1.
    9900012    2    1    2    0    0  0.37606318234E+02 -0.17766840757E+02  0.12398676774E+02  0.47787274345E+02  0.20000015049E+02 0.  0.
        -12    1    1    2    0    0 -0.37606318234E+02  0.17766840757E+02 -0.12398676774E+02  0.43400725655E+02  0.00000000000E+00 0.  1.
         11    1    3    3    0    0  0.23419584174E+02 -0.16171977899E+02  0.15547154464E+02  0.32430291461E+02  0.51100000000E-03 0. -1.
        -11    1    3    3    0    0  0.71347084052E+01  0.93775708029E+00 -0.31714399378E+01  0.78639356501E+01  0.51100000000E-03 0.  1.
         12    1    3    3    0    0  0.70520256548E+01 -0.25326199385E+01  0.22962248630E-01  0.74930472342E+01  0.00000000000E+00 0. -1.
</event>
<event>
 7    1  0.2442667E-009  0.4778727E+02  0.7816164E-02  0.1312668E+00
        -11   -1    0    0    0    0  0.00000000000E+00  0.00000000000E+00  0.45593999997E+02  0.45594000000E+02  0.51100000000E-03 0.  1.
         11   -1    0    0    0    0 -0.00000000000E+00 -0.00000000000E+00 -0.45593999997E+02  0.45594000000E+02  0.51100000000E-03 0. -1.
    9900012    2    1    2    0    0 -0.23524966882E+02 -0.10679897767E+02 -0.34873189853E+02  0.47787266670E+02  0.19999980055E+02 0.  0.
        -12    1    1    2    0    0  0.23524966882E+02  0.10679897767E+02  0.34873189853E+02  0.43400733330E+02  0.00000000000E+00 0.  1.
         11    1    3    3    0    0 -0.13478526762E+02 -0.62627505003E+01 -0.27667222109E+02  0.31406494663E+02  0.51100000000E-03 0. -1.
        -11    1    3    3    0    0 -0.66628579873E+01  0.15746974724E+01 -0.65388641440E+01  0.94673171091E+01  0.51100000000E-03 0.  1.
         12    1    3    3    0    0 -0.33835821318E+01 -0.59918447389E+01 -0.66710359957E+00  0.69134548982E+01  0.00000000000E+00 0. -1.
</event>
<event>
 7    1  0.2442667E-009  0.4778727E+02  0.7816164E-02  0.1312668E+00
        -11   -1    0    0    0    0  0.00000000000E+00  0.00000000000E+00  0.45593999997E+02  0.45594000000E+02  0.51100000000E-03 0.  1.
         11   -1    0    0    0    0 -0.00000000000E+00 -0.00000000000E+00 -0.45593999997E+02  0.45594000000E+02  0.51100000000E-03 0. -1.
    9900012    2    1    2    0    0 -0.40220818746E+02 -0.14902380948E+01 -0.16238487153E+02  0.47787268034E+02  0.19999986274E+02 0.  0.
        -12    1    1    2    0    0  0.40220818746E+02  0.14902380948E+01  0.16238487153E+02  0.43400731966E+02  0.00000000000E+00 0.  1.
         11    1    3    3    0    0 -0.15384843950E+02  0.58136445421E-01 -0.10609913358E+02  0.18688688155E+02  0.51100000000E-03 0. -1.
        -11    1    3    3    0    0 -0.33213793400E+01  0.26393214340E+01  0.33569653946E+01  0.54098794140E+01  0.51100000000E-03 0.  1.
        -12    1    3    3    0    0 -0.21514595456E+02 -0.41876959743E+01 -0.89855391894E+01  0.23688700465E+02  0.00000000000E+00 0.  1.
</event>
<event>
 7    1  0.2442667E-009  0.4778727E+02  0.7816164E-02  0.1312668E+00
        -11   -1    0    0    0    0  0.00000000000E+00  0.00000000000E+00  0.45593999997E+02  0.45594000000E+02  0.51100000000E-03 0. -1.
         11   -1    0    0    0    0 -0.00000000000E+00 -0.00000000000E+00 -0.45593999997E+02  0.45594000000E+02  0.51100000000E-03 0.  1.
    9900012    2    1    2    0    0  0.41998858562E+02 -0.61542770392E+01  0.90467937615E+01  0.47787265862E+02  0.19999976371E+02 0.  0.
        -12    1    1    2    0    0 -0.41998858562E+02  0.61542770392E+01 -0.90467937615E+01  0.43400734138E+02  0.00000000000E+00 0.  1.
         11    1    3    3    0    0  0.24416985142E+01 -0.84561050573E+00  0.48231887473E+01  0.54717546285E+01  0.51100000000E-03 0. -1.
        -11    1    3    3    0    0  0.30368348294E+02 -0.32390952258E+01 -0.26497082193E+01  0.30655330204E+02  0.51100000000E-03 0.  1.
        -12    1    3    3    0    0  0.91888117530E+01 -0.20695713077E+01  0.68733132335E+01  0.11660181029E+02  0.00000000000E+00 0.  1.
</event>
<event>
 7    1  0.2442667E-009  0.4778728E+02  0.7816164E-02  0.1312668E+00
        -11   -1    0    0    0    0  0.00000000000E+00  0.00000000000E+00  0.45593999997E+02  0.45594000000E+02  0.51100000000E-03 0.  1.
         11   -1    0    0    0    0 -0.00000000000E+00 -0.00000000000E+00 -0.45593999997E+02  0.45594000000E+02  0.51100000000E-03 0. -1.
    9900012    2    1    2    0    0 -0.18967215588E+02  0.28927856286E+02 -0.26211576472E+02  0.47787275610E+02  0.20000020815E+02 0.  0.
        -12    1    1    2    0    0  0.18967215588E+02 -0.28927856286E+02  0.26211576472E+02  0.43400724390E+02  0.00000000000E+00 0.  1.
         11    1    3    3    0    0 -0.12366305023E+02  0.28383798784E+02 -0.25427725270E+02  0.40064132912E+02  0.51100000000E-03 0. -1.
        -11    1    3    3    0    0 -0.16151787257E+01  0.95464058993E+00  0.13222036108E+01  0.22952916201E+01  0.51100000000E-03 0.  1.
         12    1    3    3    0    0 -0.49857318392E+01 -0.41058308809E+00 -0.21060548128E+01  0.54278510775E+01  0.00000000000E+00 0. -1.
</event>
<event>
 7    1  0.2442667E-009  0.4778723E+02  0.7816164E-02  0.1312668E+00
        -11   -1    0    0    0    0  0.00000000000E+00  0.00000000000E+00  0.45593999997E+02  0.45594000000E+02  0.51100000000E-03 0. -1.
         11   -1    0    0    0    0 -0.00000000000E+00 -0.00000000000E+00 -0.45593999997E+02  0.45594000000E+02  0.51100000000E-03 0.  1.
    9900012    2    1    2    0    0  0.42073175053E+02 -0.11553705340E+01  0.10589599668E+02  0.47787233172E+02  0.19999827326E+02 0.  0.
        -12    1    1    2    0    0 -0.42073175053E+02  0.11553705340E+01 -0.10589599668E+02  0.43400766828E+02  0.00000000000E+00 0.  1.
         11    1    3    3    0    0  0.25274440203E+02 -0.91660092366E+01  0.11040737631E+02  0.29063911309E+02  0.51100000000E-03 0. -1.
        -11    1    3    3    0    0  0.49127121109E+00  0.21145242326E+00 -0.36333652285E+00  0.64658581805E+00  0.51100000000E-03 0.  1.
         12    1    3    3    0    0  0.16307463639E+02  0.77991862794E+01 -0.87801440393E-01  0.18076736045E+02  0.00000000000E+00 0. -1.
</event>
<event>
 7    1  0.2442667E-009  0.4778727E+02  0.7816164E-02  0.1312668E+00
        -11   -1    0    0    0    0  0.00000000000E+00  0.00000000000E+00  0.45593999997E+02  0.45594000000E+02  0.51100000000E-03 0.  1.
         11   -1    0    0    0    0 -0.00000000000E+00 -0.00000000000E+00 -0.45593999997E+02  0.45594000000E+02  0.51100000000E-03 0. -1.
    9900012    2    1    2    0    0 -0.30221480275E+02  0.22503250314E+02 -0.21538089296E+02  0.47787269186E+02  0.19999991527E+02 0.  0.
        -12    1    1    2    0    0  0.30221480275E+02 -0.22503250314E+02  0.21538089296E+02  0.43400730814E+02  0.00000000000E+00 0.  1.
         11    1    3    3    0    0 -0.47266279017E+01  0.39355824535E+01 -0.10985001706E+02  0.12589681621E+02  0.51100000000E-03 0. -1.
        -11    1    3    3    0    0 -0.26403222093E+02  0.16452944573E+02 -0.88810427778E+01  0.32352781072E+02  0.51100000000E-03 0.  1.
        -12    1    3    3    0    0  0.90836972020E+00  0.21147232867E+01 -0.16720448117E+01  0.28448064926E+01  0.00000000000E+00 0.  1.
</event>
<event>
 7    1  0.2442667E-009  0.4778726E+02  0.7816164E-02  0.1312668E+00
        -11   -1    0    0    0    0  0.00000000000E+00  0.00000000000E+00  0.45593999997E+02  0.45594000000E+02  0.51100000000E-03 0.  1.
         11   -1    0    0    0    0 -0.00000000000E+00 -0.00000000000E+00 -0.45593999997E+02  0.45594000000E+02  0.51100000000E-03 0. -1.
    9900012    2    1    2    0    0  0.30194240425E+02  0.20114044745E+02 -0.23819266748E+02  0.47787257849E+02  0.19999939838E+02 0.  0.
        -12    1    1    2    0    0 -0.30194240425E+02 -0.20114044745E+02  0.23819266748E+02  0.43400742151E+02  0.00000000000E+00 0.  1.
         11    1    3    3    0    0  0.15022234515E+02 -0.46531002851E+00 -0.91163116116E+01  0.17578144979E+02  0.51100000000E-03 0. -1.
        -11    1    3    3    0    0  0.23717168733E+01  0.79902292558E+01 -0.34515238299E+01  0.90211873662E+01  0.51100000000E-03 0.  1.
         12    1    3    3    0    0  0.12800289036E+02  0.12589125518E+02 -0.11251431306E+02  0.21187925504E+02  0.00000000000E+00 0. -1.
</event>
<event>
 7    1  0.2442667E-009  0.4778727E+02  0.7816164E-02  0.1312668E+00
        -11   -1    0    0    0    0  0.00000000000E+00  0.00000000000E+00  0.45593999997E+02  0.45594000000E+02  0.51100000000E-03 0.  1.
         11   -1    0    0    0    0 -0.00000000000E+00 -0.00000000000E+00 -0.45593999997E+02  0.45594000000E+02  0.51100000000E-03 0. -1.
    9900012    2    1    2    0    0  0.43042178882E+02 -0.50355501244E+01 -0.23743000285E+01  0.47787271566E+02  0.20000002378E+02 0.  0.
        -12    1    1    2    0    0 -0.43042178882E+02  0.50355501244E+01  0.23743000285E+01  0.43400728434E+02  0.00000000000E+00 0.  1.
         11    1    3    3    0    0  0.57885015737E+01 -0.18838245400E+01 -0.67560013318E+01  0.90939045312E+01  0.51100000000E-03 0. -1.
        -11    1    3    3    0    0  0.15994879175E+02 -0.27929312320E+01  0.61398236969E+01  0.17358976352E+02  0.51100000000E-03 0.  1.
        -12    1    3    3    0    0  0.21258798133E+02 -0.35879435245E+00 -0.17581223936E+01  0.21334390683E+02  0.00000000000E+00 0.  1.
</event>
<event>
 7    1  0.2442667E-009  0.4778727E+02  0.7816164E-02  0.1312668E+00
        -11   -1    0    0    0    0  0.00000000000E+00  0.00000000000E+00  0.45593999997E+02  0.45594000000E+02  0.51100000000E-03 0.  1.
         11   -1    0    0    0    0 -0.00000000000E+00 -0.00000000000E+00 -0.45593999997E+02  0.45594000000E+02  0.51100000000E-03 0. -1.
    9900012    2    1    2    0    0  0.30178828465E+02  0.14503330725E+02 -0.27613672374E+02  0.47787271992E+02  0.20000004321E+02 0.  0.
        -12    1    1    2    0    0 -0.30178828465E+02 -0.14503330725E+02  0.27613672374E+02  0.43400728008E+02  0.00000000000E+00 0.  1.
         11    1    3    3    0    0  0.44779864181E+01  0.11108259656E+02 -0.81449963024E+01  0.14484017398E+02  0.51100000000E-03 0.  1.
        -11    1    3    3    0    0  0.18889976097E+02  0.56323459970E+01 -0.12734394222E+02  0.23467409632E+02  0.51100000000E-03 0. -1.
         12    1    3    3    0    0  0.68108659500E+01 -0.22372749286E+01 -0.67342818491E+01  0.98358449621E+01  0.00000000000E+00 0. -1.
</event>
<event>
 7    1  0.2442667E-009  0.4778727E+02  0.7816164E-02  0.1312668E+00
        -11   -1    0    0    0    0  0.00000000000E+00  0.00000000000E+00  0.45593999997E+02  0.45594000000E+02  0.51100000000E-03 0.  1.
         11   -1    0    0    0    0 -0.00000000000E+00 -0.00000000000E+00 -0.45593999997E+02  0.45594000000E+02  0.51100000000E-03 0. -1.
    9900012    2    1    2    0    0 -0.41191427509E+02 -0.13646643634E+02  0.81158609121E+00  0.47787271265E+02  0.20000001006E+02 0.  0.
        -12    1    1    2    0    0  0.41191427509E+02  0.13646643634E+02 -0.81158609121E+00  0.43400728735E+02  0.00000000000E+00 0.  1.
         11    1    3    3    0    0  0.14814592956E-01 -0.12482406241E+01  0.77431079968E-01  0.12507277726E+01  0.51100000000E-03 0.  1.
        -11    1    3    3    0    0 -0.25610102084E+02 -0.15397150620E+02  0.44872532351E+01  0.30217296666E+02  0.51100000000E-03 0. -1.
        -12    1    3    3    0    0 -0.15596140018E+02  0.29987476101E+01 -0.37530982238E+01  0.16319246826E+02  0.00000000000E+00 0.  1.
</event>
<event>
 7    1  0.2442667E-009  0.4778727E+02  0.7816164E-02  0.1312668E+00
        -11   -1    0    0    0    0  0.00000000000E+00  0.00000000000E+00  0.45593999997E+02  0.45594000000E+02  0.51100000000E-03 0.  1.
         11   -1    0    0    0    0 -0.00000000000E+00 -0.00000000000E+00 -0.45593999997E+02  0.45594000000E+02  0.51100000000E-03 0. -1.
    9900012    2    1    2    0    0  0.61936935196E+01 -0.42128539258E+02 -0.83933121232E+01  0.47787270192E+02  0.19999996114E+02 0.  0.
        -12    1    1    2    0    0 -0.61936935196E+01  0.42128539258E+02  0.83933121232E+01  0.43400729808E+02  0.00000000000E+00 0.  1.
         11    1    3    3    0    0  0.10674250906E+02 -0.15432135841E+02 -0.65868449718E+01  0.19886602927E+02  0.51100000000E-03 0. -1.
        -11    1    3    3    0    0 -0.25550742241E+01 -0.14394927112E+02  0.22785548261E+01  0.14796423325E+02  0.51100000000E-03 0.  1.
        -12    1    3    3    0    0 -0.19254831626E+01 -0.12301476305E+02 -0.40850219774E+01  0.13104243941E+02  0.00000000000E+00 0.  1.
</event>
<event>
 7    1  0.2442667E-009  0.4778727E+02  0.7816164E-02  0.1312668E+00
        -11   -1    0    0    0    0  0.00000000000E+00  0.00000000000E+00  0.45593999997E+02  0.45594000000E+02  0.51100000000E-03 0. -1.
         11   -1    0    0    0    0 -0.00000000000E+00 -0.00000000000E+00 -0.45593999997E+02  0.45594000000E+02  0.51100000000E-03 0.  1.
    9900012    2    1    2    0    0  0.25120283788E+02  0.33583973003E+02  0.11167424644E+02  0.47787271049E+02  0.20000000023E+02 0.  0.
        -12    1    1    2    0    0 -0.25120283788E+02 -0.33583973003E+02 -0.11167424644E+02  0.43400728951E+02  0.00000000000E+00 0.  1.
         11    1    3    3    0    0  0.18183374395E+02  0.11394425325E+02  0.81238168363E+01  0.22944812771E+02  0.51100000000E-03 0.  1.
        -11    1    3    3    0    0 -0.11941659404E+01  0.81559077626E+01  0.25025738784E+01  0.86143914471E+01  0.51100000000E-03 0. -1.
        -12    1    3    3    0    0  0.81310753341E+01  0.14033639915E+02  0.54103392873E+00  0.16228066831E+02  0.00000000000E+00 0.  1.
</event>
<event>
 7    1  0.2442667E-009  0.4778727E+02  0.7816164E-02  0.1312668E+00
        -11   -1    0    0    0    0  0.00000000000E+00  0.00000000000E+00  0.45593999997E+02  0.45594000000E+02  0.51100000000E-03 0.  1.
         11   -1    0    0    0    0 -0.00000000000E+00 -0.00000000000E+00 -0.45593999997E+02  0.45594000000E+02  0.51100000000E-03 0. -1.
    9900012    2    1    2    0    0 -0.24051583656E+02  0.30951953481E+01 -0.35993949336E+02  0.47787270750E+02  0.19999998659E+02 0.  0.
        -12    1    1    2    0    0  0.24051583656E+02 -0.30951953481E+01  0.35993949336E+02  0.43400729250E+02  0.00000000000E+00 0.  1.
         11    1    3    3    0    0 -0.74906399188E+01  0.68850362568E+01 -0.52728298227E+01  0.11459325689E+02  0.51100000000E-03 0. -1.
        -11    1    3    3    0    0 -0.16339912049E+02 -0.28483085069E+01 -0.31133897614E+02  0.35276410929E+02  0.51100000000E-03 0.  1.
        -12    1    3    3    0    0 -0.22103168879E+00 -0.94153240184E+00  0.41277810084E+00  0.10515341324E+01  0.00000000000E+00 0.  1.
</event>
<event>
 7    1  0.2442667E-009  0.4778728E+02  0.7816164E-02  0.1312668E+00
        -11   -1    0    0    0    0  0.00000000000E+00  0.00000000000E+00  0.45593999997E+02  0.45594000000E+02  0.51100000000E-03 0.  1.
         11   -1    0    0    0    0 -0.00000000000E+00 -0.00000000000E+00 -0.45593999997E+02  0.45594000000E+02  0.51100000000E-03 0. -1.
    9900012    2    1    2    0    0 -0.96872572880E+01  0.34498566657E+02 -0.24487319991E+02  0.47787275404E+02  0.20000019876E+02 0.  0.
        -12    1    1    2    0    0  0.96872572880E+01 -0.34498566657E+02  0.24487319991E+02  0.43400724596E+02  0.00000000000E+00 0.  1.
         11    1    3    3    0    0 -0.99777297058E+00  0.28426334003E+02 -0.11264584608E+02  0.30593183593E+02  0.51100000000E-03 0. -1.
        -11    1    3    3    0    0 -0.87360039819E+01  0.53163275408E+01 -0.12149240315E+02  0.15880338302E+02  0.51100000000E-03 0.  1.
         12    1    3    3    0    0  0.46519664412E-01  0.75590511311E+00 -0.10734950687E+01  0.13137535088E+01  0.00000000000E+00 0. -1.
</event>
<event>
 7    1  0.2442667E-009  0.4778727E+02  0.7816164E-02  0.1312668E+00
        -11   -1    0    0    0    0  0.00000000000E+00  0.00000000000E+00  0.45593999997E+02  0.45594000000E+02  0.51100000000E-03 0.  1.
         11   -1    0    0    0    0 -0.00000000000E+00 -0.00000000000E+00 -0.45593999997E+02  0.45594000000E+02  0.51100000000E-03 0. -1.
    9900012    2    1    2    0    0  0.12665291184E+02  0.25458423570E+02 -0.32788451894E+02  0.47787268335E+02  0.19999987647E+02 0.  0.
        -12    1    1    2    0    0 -0.12665291184E+02 -0.25458423570E+02  0.32788451894E+02  0.43400731665E+02  0.00000000000E+00 0.  1.
         11    1    3    3    0    0  0.95800482462E+01  0.12843712121E+02 -0.22910964025E+02  0.27958013847E+02  0.51100000000E-03 0. -1.
        -11    1    3    3    0    0  0.44315962236E+01  0.73628890537E+01 -0.36640530820E-01  0.85937490710E+01  0.51100000000E-03 0.  1.
        -12    1    3    3    0    0 -0.13463532860E+01  0.52518223953E+01 -0.98408473383E+01  0.11235505417E+02  0.00000000000E+00 0.  1.
</event>
<event>
 7    1  0.2442667E-009  0.4778727E+02  0.7816164E-02  0.1312668E+00
        -11   -1    0    0    0    0  0.00000000000E+00  0.00000000000E+00  0.45593999997E+02  0.45594000000E+02  0.51100000000E-03 0. -1.
         11   -1    0    0    0    0 -0.00000000000E+00 -0.00000000000E+00 -0.45593999997E+02  0.45594000000E+02  0.51100000000E-03 0.  1.
    9900012    2    1    2    0    0 -0.67005009371E+01  0.30461311550E+02  0.30180041702E+02  0.47787272687E+02  0.20000007491E+02 0.  0.
        -12    1    1    2    0    0  0.67005009371E+01 -0.30461311550E+02 -0.30180041702E+02  0.43400727313E+02  0.00000000000E+00 0.  1.
         11    1    3    3    0    0 -0.73236361723E+01  0.10411040411E+02  0.12041358885E+02  0.17521978578E+02  0.51100000000E-03 0. -1.
        -11    1    3    3    0    0  0.30839333639E+01  0.17702965848E+02  0.81834937493E+01  0.19745258039E+02  0.51100000000E-03 0.  1.
        -12    1    3    3    0    0 -0.24607981287E+01  0.23473052904E+01  0.99551890675E+01  0.10520036071E+02  0.00000000000E+00 0.  1.
</event>
<event>
 7    1  0.2442667E-009  0.4778727E+02  0.7816164E-02  0.1312668E+00
        -11   -1    0    0    0    0  0.00000000000E+00  0.00000000000E+00  0.45593999997E+02  0.45594000000E+02  0.51100000000E-03 0.  1.
         11   -1    0    0    0    0 -0.00000000000E+00 -0.00000000000E+00 -0.45593999997E+02  0.45594000000E+02  0.51100000000E-03 0. -1.
    9900012    2    1    2    0    0 -0.14525360958E+02  0.33376133665E+02  0.23636225642E+02  0.47787267610E+02  0.19999984341E+02 0.  0.
        -12    1    1    2    0    0  0.14525360958E+02 -0.33376133665E+02 -0.23636225642E+02  0.43400732390E+02  0.00000000000E+00 0.  1.
         11    1    3    3    0    0 -0.16366170285E+02  0.21048352536E+02  0.11548867392E+02  0.29056169957E+02  0.51100000000E-03 0. -1.
        -11    1    3    3    0    0 -0.19392149028E+01  0.21424531066E+01  0.49513703861E+01  0.57329511348E+01  0.51100000000E-03 0.  1.
         12    1    3    3    0    0  0.37800242303E+01  0.10185328023E+02  0.71359878639E+01  0.12998146518E+02  0.00000000000E+00 0. -1.
</event>
<event>
 7    1  0.2442667E-009  0.4778729E+02  0.7816164E-02  0.1312668E+00
        -11   -1    0    0    0    0  0.00000000000E+00  0.00000000000E+00  0.45593999997E+02  0.45594000000E+02  0.51100000000E-03 0.  1.
         11   -1    0    0    0    0 -0.00000000000E+00 -0.00000000000E+00 -0.45593999997E+02  0.45594000000E+02  0.51100000000E-03 0. -1.
    9900012    2    1    2    0    0 -0.27697957957E+02  0.50186334203E+01 -0.33034197021E+02  0.47787288840E+02  0.20000081137E+02 0.  0.
        -12    1    1    2    0    0  0.27697957957E+02 -0.50186334203E+01  0.33034197021E+02  0.43400711160E+02  0.00000000000E+00 0.  1.
         11    1    3    3    0    0 -0.18942099750E+02  0.41906960582E+01 -0.31292782943E+02  0.36818518994E+02  0.51100000000E-03 0. -1.
        -11    1    3    3    0    0 -0.94794809958E+01  0.66532531937E+00 -0.25824256778E+01  0.98474433419E+01  0.51100000000E-03 0.  1.
        -12    1    3    3    0    0  0.72362278907E+00  0.16261204276E+00  0.84101159958E+00  0.11213265037E+01  0.00000000000E+00 0.  1.
</event>
<event>
 7    1  0.2442667E-009  0.4778727E+02  0.7816164E-02  0.1312668E+00
        -11   -1    0    0    0    0  0.00000000000E+00  0.00000000000E+00  0.45593999997E+02  0.45594000000E+02  0.51100000000E-03 0.  1.
         11   -1    0    0    0    0 -0.00000000000E+00 -0.00000000000E+00 -0.45593999997E+02  0.45594000000E+02  0.51100000000E-03 0. -1.
    9900012    2    1    2    0    0  0.24126986779E+02 -0.29607393109E+02 -0.20613447564E+02  0.47787269151E+02  0.19999991366E+02 0.  0.
        -12    1    1    2    0    0 -0.24126986779E+02  0.29607393109E+02  0.20613447564E+02  0.43400730849E+02  0.00000000000E+00 0.  1.
         11    1    3    3    0    0  0.13437777660E+02 -0.79047477779E+01 -0.60057876312E+01  0.16707135936E+02  0.51100000000E-03 0. -1.
        -11    1    3    3    0    0 -0.17791692043E+01 -0.10309657930E+02 -0.67625908033E+01  0.12457412425E+02  0.51100000000E-03 0.  1.
        -12    1    3    3    0    0  0.12468378324E+02 -0.11392987401E+02 -0.78450691298E+01  0.18622720789E+02  0.00000000000E+00 0.  1.
</event>
<event>
 7    1  0.2442667E-009  0.4778727E+02  0.7816164E-02  0.1312668E+00
        -11   -1    0    0    0    0  0.00000000000E+00  0.00000000000E+00  0.45593999997E+02  0.45594000000E+02  0.51100000000E-03 0.  1.
         11   -1    0    0    0    0 -0.00000000000E+00 -0.00000000000E+00 -0.45593999997E+02  0.45594000000E+02  0.51100000000E-03 0. -1.
    9900012    2    1    2    0    0 -0.73396080417E+01 -0.39859617518E+01 -0.42589500357E+02  0.47787270998E+02  0.19999999786E+02 0.  0.
        -12    1    1    2    0    0  0.73396080417E+01  0.39859617518E+01  0.42589500357E+02  0.43400729002E+02  0.00000000000E+00 0.  1.
         11    1    3    3    0    0 -0.72330727069E+01  0.13129388104E+00 -0.31908782833E+02  0.32718572723E+02  0.51100000000E-03 0. -1.
        -11    1    3    3    0    0  0.14211657564E+01  0.29541089358E+01 -0.23403073820E+01  0.40278419302E+01  0.51100000000E-03 0.  1.
         12    1    3    3    0    0 -0.15277010913E+01 -0.70713645686E+01 -0.83404101421E+01  0.11040856345E+02  0.00000000000E+00 0. -1.
</event>
<event>
 7    1  0.2442667E-009  0.4778727E+02  0.7816164E-02  0.1312668E+00
        -11   -1    0    0    0    0  0.00000000000E+00  0.00000000000E+00  0.45593999997E+02  0.45594000000E+02  0.51100000000E-03 0.  1.
         11   -1    0    0    0    0 -0.00000000000E+00 -0.00000000000E+00 -0.45593999997E+02  0.45594000000E+02  0.51100000000E-03 0. -1.
    9900012    2    1    2    0    0 -0.25622109783E+02 -0.33562830247E+02  0.10033324459E+02  0.47787266324E+02  0.19999978477E+02 0.  0.
        -12    1    1    2    0    0  0.25622109783E+02  0.33562830247E+02 -0.10033324459E+02  0.43400733676E+02  0.00000000000E+00 0.  1.
         11    1    3    3    0    0 -0.15629665146E+02 -0.23011859112E+02  0.29594986309E+01  0.27974823051E+02  0.51100000000E-03 0. -1.
        -11    1    3    3    0    0 -0.11142557264E+02 -0.10602555947E+02  0.31196033115E+01  0.15694033900E+02  0.51100000000E-03 0.  1.
         12    1    3    3    0    0  0.11501126261E+01  0.51584811835E-01  0.39542225168E+01  0.41184093723E+01  0.00000000000E+00 0. -1.
</event>
<event>
 7    1  0.2881272E-009  0.4778727E+02  0.7816164E-02  0.1312668E+00
        -11   -1    0    0    0    0  0.00000000000E+00  0.00000000000E+00  0.45593999997E+02  0.45594000000E+02  0.51100000000E-03 0. -1.
         11   -1    0    0    0    0 -0.00000000000E+00 -0.00000000000E+00 -0.45593999997E+02  0.45594000000E+02  0.51100000000E-03 0.  1.
    9900012    2    1    2    0    0 -0.21280147221E+02  0.37799071643E+02 -0.14172125562E+01  0.47787274497E+02  0.20000015740E+02 0.  0.
        -12    1    1    2    0    0  0.21280147221E+02 -0.37799071643E+02  0.14172125562E+01  0.43400725503E+02  0.00000000000E+00 0.  1.
         11    1    3    3    0    0 -0.91891933752E+01  0.16592118687E+02  0.14040838201E+01  0.19018704715E+02  0.51100000000E-03 0. -1.
        -11    1    3    3    0    0 -0.13226443604E+01  0.28359756769E+01  0.51541259507E+01  0.60296899357E+01  0.51100000000E-03 0.  1.
        -12    1    3    3    0    0 -0.10768309485E+02  0.18370977279E+02 -0.79754223270E+01  0.22738879846E+02  0.00000000000E+00 0.  1.
</event>
<event>
 7    1  0.2442667E-009  0.4778728E+02  0.7816164E-02  0.1312668E+00
        -11   -1    0    0    0    0  0.00000000000E+00  0.00000000000E+00  0.45593999997E+02  0.45594000000E+02  0.51100000000E-03 0. -1.
         11   -1    0    0    0    0 -0.00000000000E+00 -0.00000000000E+00 -0.45593999997E+02  0.45594000000E+02  0.51100000000E-03 0.  1.
    9900012    2    1    2    0    0  0.38353262455E+02  0.13021331542E+02  0.15591506002E+02  0.47787275634E+02  0.20000020926E+02 0.  0.
        -12    1    1    2    0    0 -0.38353262455E+02 -0.13021331542E+02 -0.15591506002E+02  0.43400724366E+02  0.00000000000E+00 0.  1.
         11    1    3    3    0    0  0.31863667155E+01  0.16768486401E+01  0.22750037309E+01  0.42591544283E+01  0.51100000000E-03 0. -1.
        -11    1    3    3    0    0  0.20448855862E+02  0.10051920472E+02  0.16846873829E+02  0.28337501113E+02  0.51100000000E-03 0.  1.
        -12    1    3    3    0    0  0.14718039878E+02  0.12925624301E+01 -0.35303715582E+01  0.15190620093E+02  0.00000000000E+00 0.  1.
</event>
<event>
 7    1  0.2442667E-009  0.4778727E+02  0.7816164E-02  0.1312668E+00
        -11   -1    0    0    0    0  0.00000000000E+00  0.00000000000E+00  0.45593999997E+02  0.45594000000E+02  0.51100000000E-03 0.  1.
         11   -1    0    0    0    0 -0.00000000000E+00 -0.00000000000E+00 -0.45593999997E+02  0.45594000000E+02  0.51100000000E-03 0. -1.
    9900012    2    1    2    0    0 -0.14307950548E+01 -0.19841946432E+02 -0.38572962758E+02  0.47787268801E+02  0.19999989770E+02 0.  0.
        -12    1    1    2    0    0  0.14307950548E+01  0.19841946432E+02  0.38572962758E+02  0.43400731199E+02  0.00000000000E+00 0.  1.
         11    1    3    3    0    0 -0.47263154823E+01 -0.17389962514E+02 -0.19391940260E+02  0.26472555631E+02  0.51100000000E-03 0. -1.
        -11    1    3    3    0    0  0.40237935717E+00 -0.33848774764E+01 -0.17524288399E+02  0.17852730571E+02  0.51100000000E-03 0.  1.
         12    1    3    3    0    0  0.28931410703E+01  0.93289355892E+00 -0.16567340988E+01  0.34619825995E+01  0.00000000000E+00 0. -1.
</event>
<event>
 7    1  0.2442667E-009  0.4778727E+02  0.7816164E-02  0.1312668E+00
        -11   -1    0    0    0    0  0.00000000000E+00  0.00000000000E+00  0.45593999997E+02  0.45594000000E+02  0.51100000000E-03 0.  1.
         11   -1    0    0    0    0 -0.00000000000E+00 -0.00000000000E+00 -0.45593999997E+02  0.45594000000E+02  0.51100000000E-03 0. -1.
    9900012    2    1    2    0    0 -0.18988313477E+02 -0.48081142294E+01 -0.38729179011E+02  0.47787270536E+02  0.19999997684E+02 0.  0.
        -12    1    1    2    0    0  0.18988313477E+02  0.48081142294E+01  0.38729179011E+02  0.43400729464E+02  0.00000000000E+00 0.  1.
         11    1    3    3    0    0 -0.13886597149E+02  0.41291456555E+01 -0.31097061458E+02  0.34306189759E+02  0.51100000000E-03 0.  1.
        -11    1    3    3    0    0 -0.52693347053E+01 -0.62092587343E+01 -0.44284248280E+01  0.92699368383E+01  0.51100000000E-03 0. -1.
        -12    1    3    3    0    0  0.16761837802E+00 -0.27280011506E+01 -0.32036927248E+01  0.42111439388E+01  0.00000000000E+00 0.  1.
</event>
<event>
 7    1  0.2442667E-009  0.4778727E+02  0.7816164E-02  0.1312668E+00
        -11   -1    0    0    0    0  0.00000000000E+00  0.00000000000E+00  0.45593999997E+02  0.45594000000E+02  0.51100000000E-03 0.  1.
         11   -1    0    0    0    0 -0.00000000000E+00 -0.00000000000E+00 -0.45593999997E+02  0.45594000000E+02  0.51100000000E-03 0. -1.
    9900012    2    1    2    0    0 -0.69304300004E+00 -0.12232028573E+00 -0.43395025266E+02  0.47787268570E+02  0.19999988717E+02 0.  0.
        -12    1    1    2    0    0  0.69304300004E+00  0.12232028573E+00  0.43395025266E+02  0.43400731430E+02  0.00000000000E+00 0.  1.
         11    1    3    3    0    0  0.31354715426E+01 -0.70622122217E+00 -0.25457443199E+02  0.25659527367E+02  0.51100000000E-03 0. -1.
        -11    1    3    3    0    0 -0.60565019655E+01 -0.44038715735E+01 -0.10044896892E+02  0.12528976603E+02  0.51100000000E-03 0.  1.
        -12    1    3    3    0    0  0.22279874228E+01  0.49877725099E+01 -0.78926851752E+01  0.95987645997E+01  0.00000000000E+00 0.  1.
</event>
<event>
 7    1  0.2442667E-009  0.4778727E+02  0.7816164E-02  0.1312668E+00
        -11   -1    0    0    0    0  0.00000000000E+00  0.00000000000E+00  0.45593999997E+02  0.45594000000E+02  0.51100000000E-03 0.  1.
         11   -1    0    0    0    0 -0.00000000000E+00 -0.00000000000E+00 -0.45593999997E+02  0.45594000000E+02  0.51100000000E-03 0. -1.
    9900012    2    1    2    0    0  0.24493262752E+02  0.41296240242E+01 -0.35590021369E+02  0.47787270330E+02  0.19999996742E+02 0.  0.
        -12    1    1    2    0    0 -0.24493262752E+02 -0.41296240242E+01  0.35590021369E+02  0.43400729670E+02  0.00000000000E+00 0.  1.
         11    1    3    3    0    0  0.12124886795E+02 -0.33981864891E+01 -0.25265391480E+02  0.28229427166E+02  0.51100000000E-03 0. -1.
        -11    1    3    3    0    0  0.57912325725E+01  0.64166998054E+01 -0.94885669510E+01  0.12835315117E+02  0.51100000000E-03 0.  1.
         12    1    3    3    0    0  0.65771433847E+01  0.11111107079E+01 -0.83606293815E+00  0.67225280472E+01  0.00000000000E+00 0. -1.
</event>
<event>
 7    1  0.2442667E-009  0.4778726E+02  0.7816164E-02  0.1312668E+00
        -11   -1    0    0    0    0  0.00000000000E+00  0.00000000000E+00  0.45593999997E+02  0.45594000000E+02  0.51100000000E-03 0.  1.
         11   -1    0    0    0    0 -0.00000000000E+00 -0.00000000000E+00 -0.45593999997E+02  0.45594000000E+02  0.51100000000E-03 0. -1.
    9900012    2    1    2    0    0  0.22574817316E+00  0.21956760345E+02 -0.37436265660E+02  0.47787259526E+02  0.19999947485E+02 0.  0.
        -12    1    1    2    0    0 -0.22574817316E+00 -0.21956760345E+02  0.37436265660E+02  0.43400740474E+02  0.00000000000E+00 0.  1.
         11    1    3    3    0    0  0.12131165219E+01  0.11241739485E+02 -0.45774064456E+01  0.12198401878E+02  0.51100000000E-03 0. -1.
        -11    1    3    3    0    0 -0.11605972560E+00  0.10071421029E+02 -0.32994100419E+02  0.34497212266E+02  0.51100000000E-03 0.  1.
        -12    1    3    3    0    0 -0.87130862310E+00  0.64359983126E+00  0.13524120413E+00  0.10916453833E+01  0.00000000000E+00 0.  1.
</event>
<event>
 7    1  0.2442667E-009  0.4778727E+02  0.7816164E-02  0.1312668E+00
        -11   -1    0    0    0    0  0.00000000000E+00  0.00000000000E+00  0.45593999997E+02  0.45594000000E+02  0.51100000000E-03 0.  1.
         11   -1    0    0    0    0 -0.00000000000E+00 -0.00000000000E+00 -0.45593999997E+02  0.45594000000E+02  0.51100000000E-03 0. -1.
    9900012    2    1    2    0    0 -0.19968795304E+02  0.49249149526E+01 -0.38218007633E+02  0.47787266359E+02  0.19999978636E+02 0.  0.
        -12    1    1    2    0    0  0.19968795304E+02 -0.49249149526E+01  0.38218007633E+02  0.43400733641E+02  0.00000000000E+00 0.  1.
         11    1    3    3    0    0  0.11064557682E+01 -0.30151150346E+00 -0.18320379618E+01  0.21613692207E+01  0.51100000000E-03 0. -1.
        -11    1    3    3    0    0 -0.62307722420E+01  0.25138121956E+01 -0.27070665346E+02  0.27891982665E+02  0.51100000000E-03 0.  1.
        -12    1    3    3    0    0 -0.14844478830E+02  0.27126142604E+01 -0.93153043254E+01  0.17733914473E+02  0.00000000000E+00 0.  1.
</event>
<event>
 7    1  0.2442667E-009  0.4778727E+02  0.7816164E-02  0.1312668E+00
        -11   -1    0    0    0    0  0.00000000000E+00  0.00000000000E+00  0.45593999997E+02  0.45594000000E+02  0.51100000000E-03 0.  1.
         11   -1    0    0    0    0 -0.00000000000E+00 -0.00000000000E+00 -0.45593999997E+02  0.45594000000E+02  0.51100000000E-03 0. -1.
    9900012    2    1    2    0    0 -0.21074953811E+02 -0.22878334182E+02 -0.30266336187E+02  0.47787274669E+02  0.20000016525E+02 0.  0.
        -12    1    1    2    0    0  0.21074953811E+02  0.22878334182E+02  0.30266336187E+02  0.43400725331E+02  0.00000000000E+00 0.  1.
         11    1    3    3    0    0 -0.16437895028E+02 -0.13535831027E+02 -0.24871809667E+02  0.32741869692E+02  0.51100000000E-03 0. -1.
        -11    1    3    3    0    0  0.24156045620E+01 -0.12842790847E+00 -0.12591334339E+01  0.27270966967E+01  0.51100000000E-03 0.  1.
        -12    1    3    3    0    0 -0.70526633452E+01 -0.92140752465E+01 -0.41353930860E+01  0.12318308280E+02  0.00000000000E+00 0.  1.
</event>
<event>
 7    1  0.2442667E-009  0.4778727E+02  0.7816164E-02  0.1312668E+00
        -11   -1    0    0    0    0  0.00000000000E+00  0.00000000000E+00  0.45593999997E+02  0.45594000000E+02  0.51100000000E-03 0.  1.
         11   -1    0    0    0    0 -0.00000000000E+00 -0.00000000000E+00 -0.45593999997E+02  0.45594000000E+02  0.51100000000E-03 0. -1.
    9900012    2    1    2    0    0  0.15019957171E+02 -0.18818039051E+02 -0.36109634456E+02  0.47787269503E+02  0.19999992971E+02 0.  0.
        -12    1    1    2    0    0 -0.15019957171E+02  0.18818039051E+02  0.36109634456E+02  0.43400730497E+02  0.00000000000E+00 0.  1.
         11    1    3    3    0    0  0.99759098317E-01 -0.90451765960E+01 -0.14834691770E+02  0.17375075588E+02  0.51100000000E-03 0. -1.
        -11    1    3    3    0    0 -0.83862438984E+00 -0.36145084039E+01 -0.82962213677E+01  0.90881929508E+01  0.51100000000E-03 0.  1.
         12    1    3    3    0    0  0.15758822463E+02 -0.61583540509E+01 -0.12978721318E+02  0.21324000963E+02  0.00000000000E+00 0. -1.
</event>
<event>
 7    1  0.2442667E-009  0.4778727E+02  0.7816164E-02  0.1312668E+00
        -11   -1    0    0    0    0  0.00000000000E+00  0.00000000000E+00  0.45593999997E+02  0.45594000000E+02  0.51100000000E-03 0.  1.
         11   -1    0    0    0    0 -0.00000000000E+00 -0.00000000000E+00 -0.45593999997E+02  0.45594000000E+02  0.51100000000E-03 0. -1.
    9900012    2    1    2    0    0 -0.16718165393E+02  0.37549249920E+02 -0.13934866573E+02  0.47787265789E+02  0.19999976038E+02 0.  0.
        -12    1    1    2    0    0  0.16718165393E+02 -0.37549249920E+02  0.13934866573E+02  0.43400734211E+02  0.00000000000E+00 0.  1.
         11    1    3    3    0    0 -0.11163300364E+01  0.17716829425E+02  0.70471206028E+00  0.17765946555E+02  0.51100000000E-03 0. -1.
        -11    1    3    3    0    0 -0.11336487762E+02  0.16043570488E+02 -0.78550881022E+01  0.21156902376E+02  0.51100000000E-03 0.  1.
         12    1    3    3    0    0 -0.42653475939E+01  0.37888500070E+01 -0.67844905312E+01  0.88644168584E+01  0.00000000000E+00 0. -1.
</event>
<event>
 7    1  0.2442667E-009  0.4778727E+02  0.7816164E-02  0.1312668E+00
        -11   -1    0    0    0    0  0.00000000000E+00  0.00000000000E+00  0.45593999997E+02  0.45594000000E+02  0.51100000000E-03 0.  1.
         11   -1    0    0    0    0 -0.00000000000E+00 -0.00000000000E+00 -0.45593999997E+02  0.45594000000E+02  0.51100000000E-03 0. -1.
    9900012    2    1    2    0    0  0.12352598655E+02 -0.30645490674E+02 -0.28140550585E+02  0.47787269829E+02  0.19999994458E+02 0.  0.
        -12    1    1    2    0    0 -0.12352598655E+02  0.30645490674E+02  0.28140550585E+02  0.43400730171E+02  0.00000000000E+00 0.  1.
         11    1    3    3    0    0 -0.88013600614E+00 -0.79946750414E+01 -0.69015977294E+01  0.10598184745E+02  0.51100000000E-03 0. -1.
        -11    1    3    3    0    0 -0.20501803461E+01 -0.47959533221E+01 -0.96850913749E+01  0.11000245585E+02  0.51100000000E-03 0.  1.
        -12    1    3    3    0    0  0.15282915007E+02 -0.17854862310E+02 -0.11553861480E+02  0.26188839500E+02  0.00000000000E+00 0.  1.
</event>
<event>
 7    1  0.2442667E-009  0.4778727E+02  0.7816164E-02  0.1312668E+00
        -11   -1    0    0    0    0  0.00000000000E+00  0.00000000000E+00  0.45593999997E+02  0.45594000000E+02  0.51100000000E-03 0.  1.
         11   -1    0    0    0    0 -0.00000000000E+00 -0.00000000000E+00 -0.45593999997E+02  0.45594000000E+02  0.51100000000E-03 0. -1.
    9900012    2    1    2    0    0 -0.16500036993E+02  0.39332736726E+02 -0.80192213397E+01  0.47787270628E+02  0.19999998099E+02 0.  0.
        -12    1    1    2    0    0  0.16500036993E+02 -0.39332736726E+02  0.80192213397E+01  0.43400729372E+02  0.00000000000E+00 0.  1.
         11    1    3    3    0    0  0.18987279222E+01  0.10018178543E+02 -0.50066250791E+01  0.11359373398E+02  0.51100000000E-03 0.  1.
        -11    1    3    3    0    0 -0.13879052102E+02  0.26504958913E+02 -0.57140853459E+01  0.30459673436E+02  0.51100000000E-03 0. -1.
         12    1    3    3    0    0 -0.45197128132E+01  0.28095992699E+01  0.27014890852E+01  0.59682237935E+01  0.00000000000E+00 0. -1.
</event>
<event>
 7    1  0.2442667E-009  0.4778727E+02  0.7816164E-02  0.1312668E+00
        -11   -1    0    0    0    0  0.00000000000E+00  0.00000000000E+00  0.45593999997E+02  0.45594000000E+02  0.51100000000E-03 0.  1.
         11   -1    0    0    0    0 -0.00000000000E+00 -0.00000000000E+00 -0.45593999997E+02  0.45594000000E+02  0.51100000000E-03 0. -1.
    9900012    2    1    2    0    0  0.26030564836E+02  0.34625156592E+02  0.26705120031E+01  0.47787269487E+02  0.19999992901E+02 0.  0.
        -12    1    1    2    0    0 -0.26030564836E+02 -0.34625156592E+02 -0.26705120031E+01  0.43400730513E+02  0.00000000000E+00 0.  1.
         11    1    3    3    0    0  0.14269145134E+02  0.20044908905E+02  0.45996423412E+01  0.25031252182E+02  0.51100000000E-03 0. -1.
        -11    1    3    3    0    0  0.13970761865E+02  0.11231010615E+02  0.73394814714E+00  0.17940358599E+02  0.51100000000E-03 0.  1.
         12    1    3    3    0    0 -0.22093421632E+01  0.33492370717E+01 -0.26630784853E+01  0.48156587062E+01  0.00000000000E+00 0. -1.
</event>
<event>
 7    1  0.2442667E-009  0.4778727E+02  0.7816164E-02  0.1312668E+00
        -11   -1    0    0    0    0  0.00000000000E+00  0.00000000000E+00  0.45593999997E+02  0.45594000000E+02  0.51100000000E-03 0.  1.
         11   -1    0    0    0    0 -0.00000000000E+00 -0.00000000000E+00 -0.45593999997E+02  0.45594000000E+02  0.51100000000E-03 0. -1.
    9900012    2    1    2    0    0 -0.40772916426E+02  0.81841680380E+01 -0.12418211359E+02  0.47787270816E+02  0.19999998959E+02 0.  0.
        -12    1    1    2    0    0  0.40772916426E+02 -0.81841680380E+01  0.12418211359E+02  0.43400729184E+02  0.00000000000E+00 0.  1.
         11    1    3    3    0    0 -0.18693469421E+02  0.96855710413E+01 -0.48106375646E+01  0.21596257070E+02  0.51100000000E-03 0. -1.
        -11    1    3    3    0    0 -0.64466700438E+01 -0.59249347770E+01 -0.18096438397E+01  0.89408734391E+01  0.51100000000E-03 0.  1.
         12    1    3    3    0    0 -0.15632776961E+02  0.44235317738E+01 -0.57979299543E+01  0.17250140307E+02  0.00000000000E+00 0. -1.
</event>
<event>
 7    1  0.2442667E-009  0.4778727E+02  0.7816164E-02  0.1312668E+00
        -11   -1    0    0    0    0  0.00000000000E+00  0.00000000000E+00  0.45593999997E+02  0.45594000000E+02  0.51100000000E-03 0.  1.
         11   -1    0    0    0    0 -0.00000000000E+00 -0.00000000000E+00 -0.45593999997E+02  0.45594000000E+02  0.51100000000E-03 0. -1.
    9900012    2    1    2    0    0 -0.17498143002E+02 -0.24834560392E+01 -0.39639255908E+02  0.47787272225E+02  0.20000005385E+02 0.  0.
        -12    1    1    2    0    0  0.17498143002E+02  0.24834560392E+01  0.39639255908E+02  0.43400727775E+02  0.00000000000E+00 0.  1.
         11    1    3    3    0    0 -0.10730863880E+02 -0.38216439580E+01 -0.30577933672E+02  0.32630758956E+02  0.51100000000E-03 0. -1.
        -11    1    3    3    0    0  0.24097051581E+01  0.17193404904E+01 -0.23870259710E+01  0.38027232240E+01  0.51100000000E-03 0.  1.
         12    1    3    3    0    0 -0.91769842802E+01 -0.38115257158E+00 -0.66742962656E+01  0.11353790046E+02  0.00000000000E+00 0. -1.
</event>
<event>
 7    1  0.2442667E-009  0.4778727E+02  0.7816164E-02  0.1312668E+00
        -11   -1    0    0    0    0  0.00000000000E+00  0.00000000000E+00  0.45593999997E+02  0.45594000000E+02  0.51100000000E-03 0.  1.
         11   -1    0    0    0    0 -0.00000000000E+00 -0.00000000000E+00 -0.45593999997E+02  0.45594000000E+02  0.51100000000E-03 0. -1.
    9900012    2    1    2    0    0  0.22406983792E+00 -0.41260791141E+02  0.13458094633E+02  0.47787269545E+02  0.19999993165E+02 0.  0.
        -12    1    1    2    0    0 -0.22406983792E+00  0.41260791141E+02 -0.13458094633E+02  0.43400730455E+02  0.00000000000E+00 0.  1.
         11    1    3    3    0    0 -0.12756431534E+01 -0.38984981209E+02  0.15976135341E+02  0.42150835413E+02  0.51100000000E-03 0. -1.
        -11    1    3    3    0    0 -0.65695137385E+00  0.86883738569E+00 -0.11534605874E+01  0.15864851396E+01  0.51100000000E-03 0.  1.
         12    1    3    3    0    0  0.21566643652E+01 -0.31446473171E+01 -0.13645801211E+01  0.40499489922E+01  0.00000000000E+00 0. -1.
</event>
<event>
 7    1  0.2442667E-009  0.4778727E+02  0.7816164E-02  0.1312668E+00
        -11   -1    0    0    0    0  0.00000000000E+00  0.00000000000E+00  0.45593999997E+02  0.45594000000E+02  0.51100000000E-03 0. -1.
         11   -1    0    0    0    0 -0.00000000000E+00 -0.00000000000E+00 -0.45593999997E+02  0.45594000000E+02  0.51100000000E-03 0.  1.
    9900012    2    1    2    0    0  0.86068748551E+01  0.44545916399E+01  0.42304867453E+02  0.47787268536E+02  0.19999988561E+02 0.  0.
        -12    1    1    2    0    0 -0.86068748551E+01 -0.44545916399E+01 -0.42304867453E+02  0.43400731464E+02  0.00000000000E+00 0.  1.
         11    1    3    3    0    0  0.17044351295E+01 -0.20871523724E+01  0.29202677974E+02  0.29326740447E+02  0.51100000000E-03 0. -1.
        -11    1    3    3    0    0  0.58915221786E+01  0.86743840732E+01  0.11716940417E+02  0.15723920173E+02  0.51100000000E-03 0.  1.
         12    1    3    3    0    0  0.10109175470E+01 -0.21326400609E+01  0.13852490616E+01  0.27366079147E+01  0.00000000000E+00 0. -1.
</event>
<event>
 7    1  0.2442667E-009  0.4778727E+02  0.7816164E-02  0.1312668E+00
        -11   -1    0    0    0    0  0.00000000000E+00  0.00000000000E+00  0.45593999997E+02  0.45594000000E+02  0.51100000000E-03 0.  1.
         11   -1    0    0    0    0 -0.00000000000E+00 -0.00000000000E+00 -0.45593999997E+02  0.45594000000E+02  0.51100000000E-03 0. -1.
    9900012    2    1    2    0    0 -0.32777411274E+02  0.22416646337E+02 -0.17514527193E+02  0.47787269757E+02  0.19999994129E+02 0.  0.
        -12    1    1    2    0    0  0.32777411274E+02 -0.22416646337E+02  0.17514527193E+02  0.43400730243E+02  0.00000000000E+00 0.  1.
         11    1    3    3    0    0 -0.24987780216E+01  0.18676491462E+01  0.34119572945E+01  0.46231437113E+01  0.51100000000E-03 0.  1.
        -11    1    3    3    0    0 -0.19311999786E+02  0.17894152188E+02 -0.16326001451E+02  0.30978901561E+02  0.51100000000E-03 0. -1.
         12    1    3    3    0    0 -0.10966633466E+02  0.26548450030E+01 -0.46004830371E+01  0.12185224485E+02  0.00000000000E+00 0. -1.
</event>
<event>
 7    1  0.2442667E-009  0.4778727E+02  0.7816164E-02  0.1312668E+00
        -11   -1    0    0    0    0  0.00000000000E+00  0.00000000000E+00  0.45593999997E+02  0.45594000000E+02  0.51100000000E-03 0.  1.
         11   -1    0    0    0    0 -0.00000000000E+00 -0.00000000000E+00 -0.45593999997E+02  0.45594000000E+02  0.51100000000E-03 0. -1.
    9900012    2    1    2    0    0  0.14750274537E+02  0.21042929791E+02 -0.34974963663E+02  0.47787267560E+02  0.19999984113E+02 0.  0.
        -12    1    1    2    0    0 -0.14750274537E+02 -0.21042929791E+02  0.34974963663E+02  0.43400732440E+02  0.00000000000E+00 0.  1.
         11    1    3    3    0    0  0.45494718315E+01  0.64512093805E+01 -0.22926694633E+02  0.24247662227E+02  0.51100000000E-03 0. -1.
        -11    1    3    3    0    0  0.49190541869E+01  0.13987463788E+02 -0.97643953279E+01  0.17753581433E+02  0.51100000000E-03 0.  1.
        -12    1    3    3    0    0  0.52817485191E+01  0.60425662239E+00 -0.22838737016E+01  0.57860238998E+01  0.00000000000E+00 0.  1.
</event>
<event>
 7    1  0.2442667E-009  0.4778726E+02  0.7816164E-02  0.1312668E+00
        -11   -1    0    0    0    0  0.00000000000E+00  0.00000000000E+00  0.45593999997E+02  0.45594000000E+02  0.51100000000E-03 0.  1.
         11   -1    0    0    0    0 -0.00000000000E+00 -0.00000000000E+00 -0.45593999997E+02  0.45594000000E+02  0.51100000000E-03 0. -1.
    9900012    2    1    2    0    0 -0.26637253422E+02 -0.20016300441E+02 -0.27810579841E+02  0.47787263782E+02  0.19999966889E+02 0.  0.
        -12    1    1    2    0    0  0.26637253422E+02  0.20016300441E+02  0.27810579841E+02  0.43400736218E+02  0.00000000000E+00 0.  1.
         11    1    3    3    0    0 -0.17398959328E+02 -0.10812898828E+02 -0.20930116581E+02  0.29286726467E+02  0.51100000000E-03 0. -1.
        -11    1    3    3    0    0 -0.51406391285E+00  0.24751506347E+01 -0.44953758463E+00  0.25676286086E+01  0.51100000000E-03 0.  1.
        -12    1    3    3    0    0 -0.87242301804E+01 -0.11678552247E+02 -0.64309256746E+01  0.15932908707E+02  0.00000000000E+00 0.  1.
</event>
<event>
 7    1  0.2442667E-009  0.4778727E+02  0.7816164E-02  0.1312668E+00
        -11   -1    0    0    0    0  0.00000000000E+00  0.00000000000E+00  0.45593999997E+02  0.45594000000E+02  0.51100000000E-03 0.  1.
         11   -1    0    0    0    0 -0.00000000000E+00 -0.00000000000E+00 -0.45593999997E+02  0.45594000000E+02  0.51100000000E-03 0. -1.
    9900012    2    1    2    0    0 -0.52490538418E+01 -0.72944364196E+01 -0.42460119595E+02  0.47787272761E+02  0.20000007824E+02 0.  0.
        -12    1    1    2    0    0  0.52490538418E+01  0.72944364196E+01  0.42460119595E+02  0.43400727239E+02  0.00000000000E+00 0.  1.
         11    1    3    3    0    0 -0.29599711061E+00 -0.37387055408E+01 -0.31596867058E+02  0.31818666558E+02  0.51100000000E-03 0. -1.
        -11    1    3    3    0    0  0.16890255146E+01  0.12659344659E-01  0.96220093364E+00  0.19439131528E+01  0.51100000000E-03 0.  1.
         12    1    3    3    0    0 -0.66420822458E+01 -0.35683902235E+01 -0.11825453471E+02  0.14024693050E+02  0.00000000000E+00 0. -1.
</event>
<event>
 7    1  0.2442667E-009  0.4778728E+02  0.7816164E-02  0.1312668E+00
        -11   -1    0    0    0    0  0.00000000000E+00  0.00000000000E+00  0.45593999997E+02  0.45594000000E+02  0.51100000000E-03 0.  1.
         11   -1    0    0    0    0 -0.00000000000E+00 -0.00000000000E+00 -0.45593999997E+02  0.45594000000E+02  0.51100000000E-03 0. -1.
    9900012    2    1    2    0    0 -0.89948443476E+01  0.19902792825E+02 -0.37504586616E+02  0.47787281062E+02  0.20000045676E+02 0.  0.
        -12    1    1    2    0    0  0.89948443476E+01 -0.19902792825E+02  0.37504586616E+02  0.43400718938E+02  0.00000000000E+00 0.  1.
         11    1    3    3    0    0 -0.53006010173E+01  0.14627821407E+02 -0.31066519526E+02  0.34744757388E+02  0.51100000000E-03 0. -1.
        -11    1    3    3    0    0 -0.13476008846E+01  0.43965149662E+01  0.14055328782E+01  0.48084191711E+01  0.51100000000E-03 0.  1.
        -12    1    3    3    0    0 -0.23466424457E+01  0.87845645192E+00 -0.78435999682E+01  0.82341045030E+01  0.00000000000E+00 0.  1.
</event>
<event>
 7    1  0.2442667E-009  0.4778727E+02  0.7816164E-02  0.1312668E+00
        -11   -1    0    0    0    0  0.00000000000E+00  0.00000000000E+00  0.45593999997E+02  0.45594000000E+02  0.51100000000E-03 0.  1.
         11   -1    0    0    0    0 -0.00000000000E+00 -0.00000000000E+00 -0.45593999997E+02  0.45594000000E+02  0.51100000000E-03 0. -1.
    9900012    2    1    2    0    0 -0.33966870318E+02  0.25312524091E+02 -0.94419834574E+01  0.47787271819E+02  0.20000003531E+02 0.  0.
        -12    1    1    2    0    0  0.33966870318E+02 -0.25312524091E+02  0.94419834574E+01  0.43400728181E+02  0.00000000000E+00 0.  1.
         11    1    3    3    0    0 -0.17815195593E+02  0.17196281650E+02  0.38690062452E+01  0.25061175275E+02  0.51100000000E-03 0. -1.
        -11    1    3    3    0    0 -0.73431900683E+01  0.20921650520E+01 -0.68052589327E+01  0.10227958955E+02  0.51100000000E-03 0.  1.
         12    1    3    3    0    0 -0.88084846565E+01  0.60240773891E+01 -0.65057307699E+01  0.12498137589E+02  0.00000000000E+00 0. -1.
</event>
<event>
 7    1  0.2442667E-009  0.4778727E+02  0.7816164E-02  0.1312668E+00
        -11   -1    0    0    0    0  0.00000000000E+00  0.00000000000E+00  0.45593999997E+02  0.45594000000E+02  0.51100000000E-03 0.  1.
         11   -1    0    0    0    0 -0.00000000000E+00 -0.00000000000E+00 -0.45593999997E+02  0.45594000000E+02  0.51100000000E-03 0. -1.
    9900012    2    1    2    0    0 -0.27535591016E+02  0.22905119007E+02 -0.24510617698E+02  0.47787266951E+02  0.19999981335E+02 0.  0.
        -12    1    1    2    0    0  0.27535591016E+02 -0.22905119007E+02  0.24510617698E+02  0.43400733049E+02  0.00000000000E+00 0.  1.
         11    1    3    3    0    0 -0.95827600093E+01 -0.20821756095E+01 -0.31630696111E+01  0.10303870840E+02  0.51100000000E-03 0. -1.
        -11    1    3    3    0    0 -0.90930009734E+01  0.13019704949E+02 -0.11965685066E+02  0.19883988610E+02  0.51100000000E-03 0.  1.
         12    1    3    3    0    0 -0.88598300329E+01  0.11967589667E+02 -0.93818630210E+01  0.17599407501E+02  0.00000000000E+00 0. -1.
</event>
<event>
 7    1  0.2442667E-009  0.4778727E+02  0.7816164E-02  0.1312668E+00
        -11   -1    0    0    0    0  0.00000000000E+00  0.00000000000E+00  0.45593999997E+02  0.45594000000E+02  0.51100000000E-03 0. -1.
         11   -1    0    0    0    0 -0.00000000000E+00 -0.00000000000E+00 -0.45593999997E+02  0.45594000000E+02  0.51100000000E-03 0.  1.
    9900012    2    1    2    0    0  0.35146046321E+02 -0.12703990869E+02  0.22067790545E+02  0.47787270334E+02  0.19999996761E+02 0.  0.
        -12    1    1    2    0    0 -0.35146046321E+02  0.12703990869E+02 -0.22067790545E+02  0.43400729666E+02  0.00000000000E+00 0.  1.
         11    1    3    3    0    0 -0.69396119611E+00  0.25102602163E+01  0.18997912973E+01  0.32236928715E+01  0.51100000000E-03 0. -1.
        -11    1    3    3    0    0  0.28826899246E+01 -0.35000342715E+01  0.39320406787E+01  0.60017568480E+01  0.51100000000E-03 0.  1.
         12    1    3    3    0    0  0.32957317592E+02 -0.11714216814E+02  0.16235958569E+02  0.38561820615E+02  0.00000000000E+00 0. -1.
</event>
<event>
 7    1  0.2442667E-009  0.4778727E+02  0.7816164E-02  0.1312668E+00
        -11   -1    0    0    0    0  0.00000000000E+00  0.00000000000E+00  0.45593999997E+02  0.45594000000E+02  0.51100000000E-03 0. -1.
         11   -1    0    0    0    0 -0.00000000000E+00 -0.00000000000E+00 -0.45593999997E+02  0.45594000000E+02  0.51100000000E-03 0.  1.
    9900012    2    1    2    0    0  0.26263996319E+02 -0.32012859040E+02  0.13000111368E+02  0.47787267954E+02  0.19999985911E+02 0.  0.
        -12    1    1    2    0    0 -0.26263996319E+02  0.32012859040E+02 -0.13000111368E+02  0.43400732046E+02  0.00000000000E+00 0.  1.
         11    1    3    3    0    0  0.13971245106E+02 -0.10324283472E+02  0.13456658107E+01  0.17424044759E+02  0.51100000000E-03 0. -1.
        -11    1    3    3    0    0  0.49896629924E+01 -0.17146700851E+02  0.12384542087E+02  0.21732072377E+02  0.51100000000E-03 0.  1.
        -12    1    3    3    0    0  0.73030882210E+01 -0.45418747166E+01 -0.73009652998E+00  0.86311508183E+01  0.00000000000E+00 0.  1.
</event>
<event>
 7    1  0.2442667E-009  0.4778732E+02  0.7816164E-02  0.1312668E+00
        -11   -1    0    0    0    0  0.00000000000E+00  0.00000000000E+00  0.45593999997E+02  0.45594000000E+02  0.51100000000E-03 0. -1.
         11   -1    0    0    0    0 -0.00000000000E+00 -0.00000000000E+00 -0.45593999997E+02  0.45594000000E+02  0.51100000000E-03 0.  1.
    9900012    2    1    2    0    0 -0.15516888056E+01 -0.16007501496E+02  0.40310936435E+02  0.47787315230E+02  0.20000201458E+02 0.  0.
        -12    1    1    2    0    0  0.15516888056E+01  0.16007501496E+02 -0.40310936435E+02  0.43400684770E+02  0.00000000000E+00 0.  1.
         11    1    3    3    0    0 -0.42938386715E+01  0.36966053108E+01  0.80824521699E+01  0.98705610124E+01  0.51100000000E-03 0. -1.
        -11    1    3    3    0    0  0.18328999664E+01 -0.16420562321E+02  0.27634749777E+02  0.32197418914E+02  0.51100000000E-03 0.  1.
         12    1    3    3    0    0  0.90924989939E+00 -0.32835444854E+01  0.45937344874E+01  0.57193353030E+01  0.00000000000E+00 0. -1.
</event>
<event>
 7    1  0.2442667E-009  0.4778727E+02  0.7816164E-02  0.1312668E+00
        -11   -1    0    0    0    0  0.00000000000E+00  0.00000000000E+00  0.45593999997E+02  0.45594000000E+02  0.51100000000E-03 0. -1.
         11   -1    0    0    0    0 -0.00000000000E+00 -0.00000000000E+00 -0.45593999997E+02  0.45594000000E+02  0.51100000000E-03 0.  1.
    9900012    2    1    2    0    0  0.14143412178E+02 -0.46553598408E+01  0.40766592841E+02  0.47787267574E+02  0.19999984175E+02 0.  0.
        -12    1    1    2    0    0 -0.14143412178E+02  0.46553598408E+01 -0.40766592841E+02  0.43400732426E+02  0.00000000000E+00 0.  1.
         11    1    3    3    0    0  0.28779234546E+01 -0.20632671682E+01  0.82420944084E+01  0.89705983812E+01  0.51100000000E-03 0. -1.
        -11    1    3    3    0    0  0.12815611964E+02 -0.49755172861E+01  0.33165714476E+02  0.35902093243E+02  0.51100000000E-03 0.  1.
        -12    1    3    3    0    0 -0.15501232406E+01  0.23834246134E+01 -0.64121604356E+00  0.29145759492E+01  0.00000000000E+00 0.  1.
</event>
<event>
 7    1  0.2442667E-009  0.4778726E+02  0.7816164E-02  0.1312668E+00
        -11   -1    0    0    0    0  0.00000000000E+00  0.00000000000E+00  0.45593999997E+02  0.45594000000E+02  0.51100000000E-03 0.  1.
         11   -1    0    0    0    0 -0.00000000000E+00 -0.00000000000E+00 -0.45593999997E+02  0.45594000000E+02  0.51100000000E-03 0. -1.
    9900012    2    1    2    0    0 -0.20578112097E+02 -0.35283694464E+02 -0.14670597453E+02  0.47787260120E+02  0.19999950190E+02 0.  0.
        -12    1    1    2    0    0  0.20578112097E+02  0.35283694464E+02  0.14670597453E+02  0.43400739880E+02  0.00000000000E+00 0.  1.
         11    1    3    3    0    0 -0.19927342636E+02 -0.21907686783E+02 -0.79673870265E+01  0.30667979734E+02  0.51100000000E-03 0. -1.
        -11    1    3    3    0    0 -0.84710697534E+00 -0.12653911839E+02 -0.84360663910E+01  0.15231752738E+02  0.51100000000E-03 0.  1.
         12    1    3    3    0    0  0.19633751434E+00 -0.72209584209E+00  0.17328559646E+01  0.18875276472E+01  0.00000000000E+00 0. -1.
</event>
<event>
 7    1  0.2442667E-009  0.4778728E+02  0.7816164E-02  0.1312668E+00
        -11   -1    0    0    0    0  0.00000000000E+00  0.00000000000E+00  0.45593999997E+02  0.45594000000E+02  0.51100000000E-03 0.  1.
         11   -1    0    0    0    0 -0.00000000000E+00 -0.00000000000E+00 -0.45593999997E+02  0.45594000000E+02  0.51100000000E-03 0. -1.
    9900012    2    1    2    0    0  0.29609388310E+02  0.29659348730E+02 -0.11279619541E+02  0.47787278115E+02  0.20000032236E+02 0.  0.
        -12    1    1    2    0    0 -0.29609388310E+02 -0.29659348730E+02  0.11279619541E+02  0.43400721885E+02  0.00000000000E+00 0.  1.
         11    1    3    3    0    0  0.29878191426E+02  0.26776705117E+02 -0.67532033771E+01  0.40685427562E+02  0.51100000000E-03 0. -1.
        -11    1    3    3    0    0 -0.10417333598E+01 -0.10174659990E+00  0.53498472026E+00  0.11754869950E+01  0.51100000000E-03 0.  1.
         12    1    3    3    0    0  0.77293024374E+00  0.29843902130E+01 -0.50614008844E+01  0.59263635577E+01  0.00000000000E+00 0. -1.
</event>
<event>
 7    1  0.2442667E-009  0.4778728E+02  0.7816164E-02  0.1312668E+00
        -11   -1    0    0    0    0  0.00000000000E+00  0.00000000000E+00  0.45593999997E+02  0.45594000000E+02  0.51100000000E-03 0. -1.
         11   -1    0    0    0    0 -0.00000000000E+00 -0.00000000000E+00 -0.45593999997E+02  0.45594000000E+02  0.51100000000E-03 0.  1.
    9900012    2    1    2    0    0 -0.32648386661E+01  0.32073877394E+02  0.29055629355E+02  0.47787281344E+02  0.20000046962E+02 0.  0.
        -12    1    1    2    0    0  0.32648386661E+01 -0.32073877394E+02 -0.29055629355E+02  0.43400718656E+02  0.00000000000E+00 0.  1.
         11    1    3    3    0    0  0.14785505432E+01  0.36567161279E+01  0.92692949094E+01  0.10073604763E+02  0.51100000000E-03 0. -1.
        -11    1    3    3    0    0 -0.43397599213E+01  0.27513877604E+02  0.21865503189E+02  0.35411116997E+02  0.51100000000E-03 0.  1.
        -12    1    3    3    0    0 -0.40362928801E+00  0.90328366226E+00 -0.20791687435E+01  0.23025595846E+01  0.00000000000E+00 0.  1.
</event>
<event>
 7    1  0.2442667E-009  0.4778727E+02  0.7816164E-02  0.1312668E+00
        -11   -1    0    0    0    0  0.00000000000E+00  0.00000000000E+00  0.45593999997E+02  0.45594000000E+02  0.51100000000E-03 0.  1.
         11   -1    0    0    0    0 -0.00000000000E+00 -0.00000000000E+00 -0.45593999997E+02  0.45594000000E+02  0.51100000000E-03 0. -1.
    9900012    2    1    2    0    0  0.32511300120E+02  0.34398319908E+00 -0.28749264722E+02  0.47787272103E+02  0.20000004829E+02 0.  0.
        -12    1    1    2    0    0 -0.32511300120E+02 -0.34398319908E+00  0.28749264722E+02  0.43400727897E+02  0.00000000000E+00 0.  1.
         11    1    3    3    0    0  0.26143585445E+02 -0.12448493300E+00 -0.21619575964E+02  0.33925044164E+02  0.51100000000E-03 0. -1.
        -11    1    3    3    0    0 -0.32743305177E+00  0.90986057230E+00 -0.70867404740E+01  0.71524086483E+01  0.51100000000E-03 0.  1.
        -12    1    3    3    0    0  0.66951477264E+01 -0.44139244022E+00 -0.42948283898E-01  0.67098192911E+01  0.00000000000E+00 0.  1.
</event>
<event>
 7    1  0.2442667E-009  0.4778727E+02  0.7816164E-02  0.1312668E+00
        -11   -1    0    0    0    0  0.00000000000E+00  0.00000000000E+00  0.45593999997E+02  0.45594000000E+02  0.51100000000E-03 0.  1.
         11   -1    0    0    0    0 -0.00000000000E+00 -0.00000000000E+00 -0.45593999997E+02  0.45594000000E+02  0.51100000000E-03 0. -1.
    9900012    2    1    2    0    0  0.31349168655E+02 -0.28277443206E+02  0.10061764359E+02  0.47787271070E+02  0.20000000117E+02 0.  0.
        -12    1    1    2    0    0 -0.31349168655E+02  0.28277443206E+02 -0.10061764359E+02  0.43400728930E+02  0.00000000000E+00 0.  1.
         11    1    3    3    0    0  0.21164143453E+02 -0.25896000971E+02  0.33352990671E+01  0.33610237347E+02  0.51100000000E-03 0. -1.
        -11    1    3    3    0    0  0.62615987678E+01  0.58425828458E+00  0.59514292091E+00  0.63168957748E+01  0.51100000000E-03 0.  1.
         12    1    3    3    0    0  0.39234264338E+01 -0.29657005197E+01  0.61313223705E+01  0.78601379482E+01  0.00000000000E+00 0. -1.
</event>
<event>
 7    1  0.2442667E-009  0.4778730E+02  0.7816164E-02  0.1312668E+00
        -11   -1    0    0    0    0  0.00000000000E+00  0.00000000000E+00  0.45593999997E+02  0.45594000000E+02  0.51100000000E-03 0.  1.
         11   -1    0    0    0    0 -0.00000000000E+00 -0.00000000000E+00 -0.45593999997E+02  0.45594000000E+02  0.51100000000E-03 0. -1.
    9900012    2    1    2    0    0  0.16839220609E+02 -0.97772291868E+01 -0.38787466901E+02  0.47787295514E+02  0.20000111567E+02 0.  0.
        -12    1    1    2    0    0 -0.16839220609E+02  0.97772291868E+01  0.38787466901E+02  0.43400704486E+02  0.00000000000E+00 0.  1.
         11    1    3    3    0    0  0.25791772622E+01 -0.12364624725E+02 -0.12965608620E+02  0.18100914537E+02  0.51100000000E-03 0. -1.
        -11    1    3    3    0    0  0.10854147885E+02  0.28625185032E+01 -0.20085810643E+02  0.23009700736E+02  0.51100000000E-03 0.  1.
         12    1    3    3    0    0  0.34058954617E+01 -0.27512296523E+00 -0.57360476375E+01  0.66766802410E+01  0.00000000000E+00 0. -1.
</event>
<event>
 7    1  0.2442667E-009  0.4778728E+02  0.7816164E-02  0.1312668E+00
        -11   -1    0    0    0    0  0.00000000000E+00  0.00000000000E+00  0.45593999997E+02  0.45594000000E+02  0.51100000000E-03 0. -1.
         11   -1    0    0    0    0 -0.00000000000E+00 -0.00000000000E+00 -0.45593999997E+02  0.45594000000E+02  0.51100000000E-03 0.  1.
    9900012    2    1    2    0    0  0.58221149395E+01 -0.13473637374E+02  0.40843439178E+02  0.47787280532E+02  0.20000043257E+02 0.  0.
        -12    1    1    2    0    0 -0.58221149395E+01  0.13473637374E+02 -0.40843439178E+02  0.43400719468E+02  0.00000000000E+00 0.  1.
         11    1    3    3    0    0  0.39918022179E+01 -0.76288328819E+00  0.12288640347E+02  0.12943228257E+02  0.51100000000E-03 0. -1.
        -11    1    3    3    0    0 -0.31154247972E+01 -0.11144864594E+02  0.91347752220E+01  0.14743066069E+02  0.51100000000E-03 0.  1.
        -12    1    3    3    0    0  0.49457375188E+01 -0.15658894922E+01  0.19420023609E+02  0.20100986207E+02  0.00000000000E+00 0.  1.
</event>
<event>
 7    1  0.2442667E-009  0.4778727E+02  0.7816164E-02  0.1312668E+00
        -11   -1    0    0    0    0  0.00000000000E+00  0.00000000000E+00  0.45593999997E+02  0.45594000000E+02  0.51100000000E-03 0.  1.
         11   -1    0    0    0    0 -0.00000000000E+00 -0.00000000000E+00 -0.45593999997E+02  0.45594000000E+02  0.51100000000E-03 0. -1.
    9900012    2    1    2    0    0 -0.32088003495E+02 -0.23263041578E+02 -0.17686545483E+02  0.47787274627E+02  0.20000016333E+02 0.  0.
        -12    1    1    2    0    0  0.32088003495E+02  0.23263041578E+02  0.17686545483E+02  0.43400725373E+02  0.00000000000E+00 0.  1.
         11    1    3    3    0    0 -0.15964099441E+02 -0.13725551692E+02 -0.23492919031E+01  0.21184013145E+02  0.51100000000E-03 0. -1.
        -11    1    3    3    0    0 -0.27765042420E+01 -0.61763779994E+01 -0.94670468499E+01  0.11639656237E+02  0.51100000000E-03 0.  1.
        -12    1    3    3    0    0 -0.13347399812E+02 -0.33611118868E+01 -0.58702067303E+01  0.14963605245E+02  0.00000000000E+00 0.  1.
</event>
<event>
 7    1  0.2442667E-009  0.4778727E+02  0.7816164E-02  0.1312668E+00
        -11   -1    0    0    0    0  0.00000000000E+00  0.00000000000E+00  0.45593999997E+02  0.45594000000E+02  0.51100000000E-03 0.  1.
         11   -1    0    0    0    0 -0.00000000000E+00 -0.00000000000E+00 -0.45593999997E+02  0.45594000000E+02  0.51100000000E-03 0. -1.
    9900012    2    1    2    0    0  0.67767942695E+01 -0.36755728772E+02 -0.22061607058E+02  0.47787273692E+02  0.20000012070E+02 0.  0.
        -12    1    1    2    0    0 -0.67767942695E+01  0.36755728772E+02  0.22061607058E+02  0.43400726308E+02  0.00000000000E+00 0.  1.
         11    1    3    3    0    0  0.21980524232E+01 -0.74703173011E+01 -0.64182932577E+01  0.10091162650E+02  0.51100000000E-03 0. -1.
        -11    1    3    3    0    0  0.10814579890E+02 -0.22951965217E+02 -0.10812421693E+02  0.27579998343E+02  0.51100000000E-03 0.  1.
        -12    1    3    3    0    0 -0.62358380438E+01 -0.63334462540E+01 -0.48308921076E+01  0.10116112698E+02  0.00000000000E+00 0.  1.
</event>
<event>
 7    1  0.2442667E-009  0.4778727E+02  0.7816164E-02  0.1312668E+00
        -11   -1    0    0    0    0  0.00000000000E+00  0.00000000000E+00  0.45593999997E+02  0.45594000000E+02  0.51100000000E-03 0.  1.
         11   -1    0    0    0    0 -0.00000000000E+00 -0.00000000000E+00 -0.45593999997E+02  0.45594000000E+02  0.51100000000E-03 0. -1.
    9900012    2    1    2    0    0 -0.12792008155E+02 -0.34066585541E+02 -0.23652815393E+02  0.47787269602E+02  0.19999993423E+02 0.  0.
        -12    1    1    2    0    0  0.12792008155E+02  0.34066585541E+02  0.23652815393E+02  0.43400730398E+02  0.00000000000E+00 0.  1.
         11    1    3    3    0    0 -0.60691013959E+01 -0.26824911583E+02 -0.98636117795E+01  0.29218157210E+02  0.51100000000E-03 0. -1.
        -11    1    3    3    0    0 -0.47562606948E+01 -0.15703864856E-01 -0.69865860465E+01  0.84519019903E+01  0.51100000000E-03 0.  1.
         12    1    3    3    0    0 -0.19666460644E+01 -0.72259700939E+01 -0.68026175669E+01  0.10117210401E+02  0.00000000000E+00 0. -1.
</event>
<event>
 7    1  0.2442667E-009  0.4778727E+02  0.7816164E-02  0.1312668E+00
        -11   -1    0    0    0    0  0.00000000000E+00  0.00000000000E+00  0.45593999997E+02  0.45594000000E+02  0.51100000000E-03 0. -1.
         11   -1    0    0    0    0 -0.00000000000E+00 -0.00000000000E+00 -0.45593999997E+02  0.45594000000E+02  0.51100000000E-03 0.  1.
    9900012    2    1    2    0    0  0.14771008062E+02 -0.60123741561E+01  0.40364490549E+02  0.47787269368E+02  0.19999992355E+02 0.  0.
        -12    1    1    2    0    0 -0.14771008062E+02  0.60123741561E+01 -0.40364490549E+02  0.43400730632E+02  0.00000000000E+00 0.  1.
         11    1    3    3    0    0  0.14868043838E+02 -0.36670843619E+01  0.28559179937E+02  0.32405755572E+02  0.51100000000E-03 0. -1.
        -11    1    3    3    0    0 -0.20938021270E+01 -0.16336120087E+01 -0.66062753416E+00  0.27366264893E+01  0.51100000000E-03 0.  1.
         12    1    3    3    0    0  0.19967663517E+01 -0.71167778555E+00  0.12465938146E+02  0.12644887306E+02  0.00000000000E+00 0. -1.
</event>
<event>
 7    1  0.2442667E-009  0.4778727E+02  0.7816164E-02  0.1312668E+00
        -11   -1    0    0    0    0  0.00000000000E+00  0.00000000000E+00  0.45593999997E+02  0.45594000000E+02  0.51100000000E-03 0.  1.
         11   -1    0    0    0    0 -0.00000000000E+00 -0.00000000000E+00 -0.45593999997E+02  0.45594000000E+02  0.51100000000E-03 0. -1.
    9900012    2    1    2    0    0 -0.13757631643E+02  0.78048302330E-01 -0.41162422615E+02  0.47787267801E+02  0.19999985210E+02 0.  0.
        -12    1    1    2    0    0  0.13757631643E+02 -0.78048302330E-01  0.41162422615E+02  0.43400732199E+02  0.00000000000E+00 0.  1.
         11    1    3    3    0    0  0.10840481551E+01  0.38521019966E+01 -0.59046727089E+01  0.71329524220E+01  0.51100000000E-03 0. -1.
        -11    1    3    3    0    0 -0.15498550370E+02 -0.54695384510E+00 -0.21510044853E+02  0.26517659247E+02  0.51100000000E-03 0.  1.
        -12    1    3    3    0    0  0.65687057200E+00 -0.32270998491E+01 -0.13747705052E+02  0.14136656132E+02  0.00000000000E+00 0.  1.
</event>
<event>
 7    1  0.2442667E-009  0.4778729E+02  0.7816164E-02  0.1312668E+00
        -11   -1    0    0    0    0  0.00000000000E+00  0.00000000000E+00  0.45593999997E+02  0.45594000000E+02  0.51100000000E-03 0.  1.
         11   -1    0    0    0    0 -0.00000000000E+00 -0.00000000000E+00 -0.45593999997E+02  0.45594000000E+02  0.51100000000E-03 0. -1.
    9900012    2    1    2    0    0  0.49103843818E+01 -0.12864398169E+02 -0.41158436243E+02  0.47787291607E+02  0.20000093754E+02 0.  0.
        -12    1    1    2    0    0 -0.49103843818E+01  0.12864398169E+02  0.41158436243E+02  0.43400708393E+02  0.00000000000E+00 0.  1.
         11    1    3    3    0    0  0.32296658087E+01 -0.49008945242E+01 -0.23377546892E+02  0.24103095389E+02  0.51100000000E-03 0. -1.
        -11    1    3    3    0    0 -0.26289715729E+01 -0.92759244579E+01 -0.67514290244E+01  0.11770134248E+02  0.51100000000E-03 0.  1.
        -12    1    3    3    0    0  0.43096901460E+01  0.13124208129E+01 -0.11029460327E+02  0.11914061971E+02  0.00000000000E+00 0.  1.
</event>
<event>
 7    1  0.2442667E-009  0.4778727E+02  0.7816164E-02  0.1312668E+00
        -11   -1    0    0    0    0  0.00000000000E+00  0.00000000000E+00  0.45593999997E+02  0.45594000000E+02  0.51100000000E-03 0.  1.
         11   -1    0    0    0    0 -0.00000000000E+00 -0.00000000000E+00 -0.45593999997E+02  0.45594000000E+02  0.51100000000E-03 0. -1.
    9900012    2    1    2    0    0  0.42615413584E+02 -0.28928845774E+01 -0.76929158416E+01  0.47787271777E+02  0.20000003341E+02 0.  0.
        -12    1    1    2    0    0 -0.42615413584E+02  0.28928845774E+01  0.76929158416E+01  0.43400728223E+02  0.00000000000E+00 0.  1.
         11    1    3    3    0    0  0.96701997198E+01 -0.58302696372E+01  0.35884182758E+01  0.11848272138E+02  0.51100000000E-03 0. -1.
        -11    1    3    3    0    0  0.65496176551E+01 -0.64843721863E+00  0.90901513800E+00  0.66441155195E+01  0.51100000000E-03 0.  1.
         12    1    3    3    0    0  0.26395596209E+02  0.35858222784E+01 -0.12190349255E+02  0.29294884120E+02  0.00000000000E+00 0. -1.
</event>
<event>
 7    1  0.2442667E-009  0.4778727E+02  0.7816164E-02  0.1312668E+00
        -11   -1    0    0    0    0  0.00000000000E+00  0.00000000000E+00  0.45593999997E+02  0.45594000000E+02  0.51100000000E-03 0.  1.
         11   -1    0    0    0    0 -0.00000000000E+00 -0.00000000000E+00 -0.45593999997E+02  0.45594000000E+02  0.51100000000E-03 0. -1.
    9900012    2    1    2    0    0  0.14893466518E+02 -0.15856323415E+01 -0.40734432339E+02  0.47787267831E+02  0.19999985347E+02 0.  0.
        -12    1    1    2    0    0 -0.14893466518E+02  0.15856323415E+01  0.40734432339E+02  0.43400732169E+02  0.00000000000E+00 0.  1.
         11    1    3    3    0    0  0.16612914315E+02 -0.16617993090E+01 -0.26327627329E+02  0.31175221892E+02  0.51100000000E-03 0. -1.
        -11    1    3    3    0    0 -0.34526256974E+01 -0.15840578702E+01 -0.26967689507E+01  0.46585863282E+01  0.51100000000E-03 0.  1.
         12    1    3    3    0    0  0.17331779002E+01  0.16602248378E+01 -0.11710036060E+02  0.11953459611E+02  0.00000000000E+00 0. -1.
</event>
<event>
 7    1  0.2442667E-009  0.4778727E+02  0.7816164E-02  0.1312668E+00
        -11   -1    0    0    0    0  0.00000000000E+00  0.00000000000E+00  0.45593999997E+02  0.45594000000E+02  0.51100000000E-03 0. -1.
         11   -1    0    0    0    0 -0.00000000000E+00 -0.00000000000E+00 -0.45593999997E+02  0.45594000000E+02  0.51100000000E-03 0.  1.
    9900012    2    1    2    0    0 -0.32650499425E+02 -0.27917678673E+02 -0.61782769273E+01  0.47787274189E+02  0.20000014335E+02 0.  0.
        -12    1    1    2    0    0  0.32650499425E+02  0.27917678673E+02  0.61782769273E+01  0.43400725811E+02  0.00000000000E+00 0.  1.
         11    1    3    3    0    0 -0.28049246063E+01 -0.74857674316E+00  0.43505408665E+01  0.52302175174E+01  0.51100000000E-03 0. -1.
        -11    1    3    3    0    0 -0.18467466649E+02 -0.15908020025E+02 -0.10521943856E+02  0.26548516499E+02  0.51100000000E-03 0.  1.
         12    1    3    3    0    0 -0.11378108170E+02 -0.11261081905E+02 -0.68739378694E-02  0.16008540172E+02  0.00000000000E+00 0. -1.
</event>
<event>
 7    1  0.2442667E-009  0.4778726E+02  0.7816164E-02  0.1312668E+00
        -11   -1    0    0    0    0  0.00000000000E+00  0.00000000000E+00  0.45593999997E+02  0.45594000000E+02  0.51100000000E-03 0.  1.
         11   -1    0    0    0    0 -0.00000000000E+00 -0.00000000000E+00 -0.45593999997E+02  0.45594000000E+02  0.51100000000E-03 0. -1.
    9900012    2    1    2    0    0  0.29355241433E+02 -0.26828475143E+02 -0.17381789248E+02  0.47787264113E+02  0.19999968397E+02 0.  0.
        -12    1    1    2    0    0 -0.29355241433E+02  0.26828475143E+02  0.17381789248E+02  0.43400735887E+02  0.00000000000E+00 0.  1.
         11    1    3    3    0    0  0.29202707682E+02 -0.26838007592E+02 -0.17106491094E+02  0.43193851707E+02  0.51100000000E-03 0. -1.
        -11    1    3    3    0    0  0.10801960995E+01  0.17779281167E+01  0.91056921520E+00  0.22709003849E+01  0.51100000000E-03 0.  1.
         12    1    3    3    0    0 -0.92766234896E+00 -0.17683956677E+01 -0.11858673688E+01  0.23225120210E+01  0.00000000000E+00 0. -1.
</event>
<event>
 7    1  0.2442667E-009  0.4778727E+02  0.7816164E-02  0.1312668E+00
        -11   -1    0    0    0    0  0.00000000000E+00  0.00000000000E+00  0.45593999997E+02  0.45594000000E+02  0.51100000000E-03 0.  1.
         11   -1    0    0    0    0 -0.00000000000E+00 -0.00000000000E+00 -0.45593999997E+02  0.45594000000E+02  0.51100000000E-03 0. -1.
    9900012    2    1    2    0    0  0.30936424086E+02  0.18669526954E+02 -0.24041834965E+02  0.47787269587E+02  0.19999993354E+02 0.  0.
        -12    1    1    2    0    0 -0.30936424086E+02 -0.18669526954E+02  0.24041834965E+02  0.43400730413E+02  0.00000000000E+00 0.  1.
         11    1    3    3    0    0  0.23602828035E+02  0.17876980778E+02 -0.12803154503E+02  0.32258343083E+02  0.51100000000E-03 0. -1.
        -11    1    3    3    0    0  0.81925362559E+00  0.58089866957E+00 -0.83321282179E+01  0.83924359198E+01  0.51100000000E-03 0.  1.
        -12    1    3    3    0    0  0.65143424255E+01  0.21164750612E+00 -0.29065522445E+01  0.71364905839E+01  0.00000000000E+00 0.  1.
</event>
<event>
 7    1  0.2442667E-009  0.4778726E+02  0.7816164E-02  0.1312668E+00
        -11   -1    0    0    0    0  0.00000000000E+00  0.00000000000E+00  0.45593999997E+02  0.45594000000E+02  0.51100000000E-03 0. -1.
         11   -1    0    0    0    0 -0.00000000000E+00 -0.00000000000E+00 -0.45593999997E+02  0.45594000000E+02  0.51100000000E-03 0.  1.
    9900012    2    1    2    0    0 -0.15841638975E+02  0.40318530605E+02  0.26613452615E+01  0.47787260442E+02  0.19999951659E+02 0.  0.
        -12    1    1    2    0    0  0.15841638975E+02 -0.40318530605E+02 -0.26613452615E+01  0.43400739558E+02  0.00000000000E+00 0.  1.
         11    1    3    3    0    0  0.58808489843E+00  0.82664859511E+01  0.72968621628E+01  0.11041957775E+02  0.51100000000E-03 0. -1.
        -11    1    3    3    0    0 -0.10244758873E+02  0.20626945177E+02 -0.56502330125E+01  0.23713942841E+02  0.51100000000E-03 0.  1.
        -12    1    3    3    0    0 -0.61849650007E+01  0.11425099477E+02  0.10147161111E+01  0.13031359826E+02  0.00000000000E+00 0.  1.
</event>
<event>
 7    1  0.2442667E-009  0.4778727E+02  0.7816164E-02  0.1312668E+00
        -11   -1    0    0    0    0  0.00000000000E+00  0.00000000000E+00  0.45593999997E+02  0.45594000000E+02  0.51100000000E-03 0.  1.
         11   -1    0    0    0    0 -0.00000000000E+00 -0.00000000000E+00 -0.45593999997E+02  0.45594000000E+02  0.51100000000E-03 0. -1.
    9900012    2    1    2    0    0 -0.40852716754E+02 -0.45744213215E+01 -0.13919537183E+02  0.47787270606E+02  0.19999997999E+02 0.  0.
        -12    1    1    2    0    0  0.40852716754E+02  0.45744213215E+01  0.13919537183E+02  0.43400729394E+02  0.00000000000E+00 0.  1.
         11    1    3    3    0    0 -0.34794671401E+02 -0.35010371077E+01 -0.33101045781E+01  0.35126673787E+02  0.51100000000E-03 0. -1.
        -11    1    3    3    0    0 -0.13109140381E+01  0.60578961382E+00 -0.45950761518E+01  0.48166587769E+01  0.51100000000E-03 0.  1.
         12    1    3    3    0    0 -0.47471313146E+01 -0.16791738275E+01 -0.60143564533E+01  0.78439380421E+01  0.00000000000E+00 0. -1.
</event>
<event>
 7    1  0.2442667E-009  0.4778727E+02  0.7816164E-02  0.1312668E+00
        -11   -1    0    0    0    0  0.00000000000E+00  0.00000000000E+00  0.45593999997E+02  0.45594000000E+02  0.51100000000E-03 0. -1.
         11   -1    0    0    0    0 -0.00000000000E+00 -0.00000000000E+00 -0.45593999997E+02  0.45594000000E+02  0.51100000000E-03 0.  1.
    9900012    2    1    2    0    0 -0.33435514936E+01 -0.94127168026E+01  0.42235582201E+02  0.47787274452E+02  0.20000015537E+02 0.  0.
        -12    1    1    2    0    0  0.33435514936E+01  0.94127168026E+01 -0.42235582201E+02  0.43400725548E+02  0.00000000000E+00 0.  1.
         11    1    3    3    0    0 -0.60511678925E+01  0.19444015323E+01  0.16965763999E+02  0.18117242575E+02  0.51100000000E-03 0. -1.
        -11    1    3    3    0    0  0.54355986240E+01 -0.10248387750E+02  0.23569531502E+02  0.26269716393E+02  0.51100000000E-03 0.  1.
         12    1    3    3    0    0 -0.27279822251E+01 -0.11087305846E+01  0.17002867005E+01  0.34003154844E+01  0.00000000000E+00 0. -1.
</event>
<event>
 7    1  0.2442667E-009  0.4778727E+02  0.7816164E-02  0.1312668E+00
        -11   -1    0    0    0    0  0.00000000000E+00  0.00000000000E+00  0.45593999997E+02  0.45594000000E+02  0.51100000000E-03 0.  1.
         11   -1    0    0    0    0 -0.00000000000E+00 -0.00000000000E+00 -0.45593999997E+02  0.45594000000E+02  0.51100000000E-03 0. -1.
    9900012    2    1    2    0    0 -0.14474379881E+02  0.32486360562E+02 -0.24874721230E+02  0.47787273603E+02  0.20000011664E+02 0.  0.
        -12    1    1    2    0    0  0.14474379881E+02 -0.32486360562E+02  0.24874721230E+02  0.43400726397E+02  0.00000000000E+00 0.  1.
         11    1    3    3    0    0 -0.15850545241E+01  0.85774468266E+01 -0.14509714904E+02  0.16929761332E+02  0.51100000000E-03 0. -1.
        -11    1    3    3    0    0 -0.12925917839E+02  0.21748797047E+02 -0.12139583232E+02  0.28061699990E+02  0.51100000000E-03 0.  1.
         12    1    3    3    0    0  0.36592482580E-01  0.21601166884E+01  0.17745769056E+01  0.27958122811E+01  0.00000000000E+00 0. -1.
</event>
<event>
 7    1  0.2442667E-009  0.4778727E+02  0.7816164E-02  0.1312668E+00
        -11   -1    0    0    0    0  0.00000000000E+00  0.00000000000E+00  0.45593999997E+02  0.45594000000E+02  0.51100000000E-03 0. -1.
         11   -1    0    0    0    0 -0.00000000000E+00 -0.00000000000E+00 -0.45593999997E+02  0.45594000000E+02  0.51100000000E-03 0.  1.
    9900012    2    1    2    0    0 -0.29452113849E+02  0.99963710508E+01  0.30269934187E+02  0.47787270052E+02  0.19999995474E+02 0.  0.
        -12    1    1    2    0    0  0.29452113849E+02 -0.99963710508E+01 -0.30269934187E+02  0.43400729948E+02  0.00000000000E+00 0.  1.
         11    1    3    3    0    0 -0.20340549131E+02  0.94204982407E+01  0.20041615317E+02  0.30069088294E+02  0.51100000000E-03 0. -1.
        -11    1    3    3    0    0 -0.20444984931E+01 -0.35123206751E+01  0.84294593297E+01  0.93579995440E+01  0.51100000000E-03 0.  1.
        -12    1    3    3    0    0 -0.70670662246E+01  0.40881934852E+01  0.17988595400E+01  0.83601822133E+01  0.00000000000E+00 0.  1.
</event>
<event>
 7    1  0.2442667E-009  0.4778727E+02  0.7816164E-02  0.1312668E+00
        -11   -1    0    0    0    0  0.00000000000E+00  0.00000000000E+00  0.45593999997E+02  0.45594000000E+02  0.51100000000E-03 0.  1.
         11   -1    0    0    0    0 -0.00000000000E+00 -0.00000000000E+00 -0.45593999997E+02  0.45594000000E+02  0.51100000000E-03 0. -1.
    9900012    2    1    2    0    0  0.25390160627E+01  0.21887782886E+02 -0.37391198534E+02  0.47787269937E+02  0.19999994950E+02 0.  0.
        -12    1    1    2    0    0 -0.25390160627E+01 -0.21887782886E+02  0.37391198534E+02  0.43400730063E+02  0.00000000000E+00 0.  1.
         11    1    3    3    0    0  0.11384509936E+01  0.23162157904E+02 -0.38710380962E+02  0.45125106359E+02  0.51100000000E-03 0. -1.
        -11    1    3    3    0    0  0.43293539018E+00 -0.15694069238E+00 -0.23525266183E+00  0.51711459950E+00  0.51100000000E-03 0.  1.
         12    1    3    3    0    0  0.96762967886E+00 -0.11174343254E+01  0.15544350905E+01  0.21450489779E+01  0.00000000000E+00 0. -1.
</event>
<event>
 7    1  0.2442667E-009  0.4778726E+02  0.7816164E-02  0.1312668E+00
        -11   -1    0    0    0    0  0.00000000000E+00  0.00000000000E+00  0.45593999997E+02  0.45594000000E+02  0.51100000000E-03 0.  1.
         11   -1    0    0    0    0 -0.00000000000E+00 -0.00000000000E+00 -0.45593999997E+02  0.45594000000E+02  0.51100000000E-03 0. -1.
    9900012    2    1    2    0    0  0.49500221537E+01 -0.31480712141E+02 -0.29463299013E+02  0.47787263314E+02  0.19999964752E+02 0.  0.
        -12    1    1    2    0    0 -0.49500221537E+01  0.31480712141E+02  0.29463299013E+02  0.43400736686E+02  0.00000000000E+00 0.  1.
         11    1    3    3    0    0  0.59484400052E+00 -0.35129164074E+01 -0.14438728422E+02  0.14871829066E+02  0.51100000000E-03 0. -1.
        -11    1    3    3    0    0  0.99570243280E+00 -0.71368462644E+00 -0.23946628421E+01  0.26898288922E+01  0.51100000000E-03 0.  1.
         12    1    3    3    0    0  0.33594757203E+01 -0.27254111107E+02 -0.12629907749E+02  0.30225605355E+02  0.00000000000E+00 0. -1.
</event>
<event>
 7    1  0.2442667E-009  0.4778727E+02  0.7816164E-02  0.1312668E+00
        -11   -1    0    0    0    0  0.00000000000E+00  0.00000000000E+00  0.45593999997E+02  0.45594000000E+02  0.51100000000E-03 0.  1.
         11   -1    0    0    0    0 -0.00000000000E+00 -0.00000000000E+00 -0.45593999997E+02  0.45594000000E+02  0.51100000000E-03 0. -1.
    9900012    2    1    2    0    0  0.21586601440E+02 -0.33676148130E+02 -0.16839209200E+02  0.47787270961E+02  0.19999999622E+02 0.  0.
        -12    1    1    2    0    0 -0.21586601440E+02  0.33676148130E+02  0.16839209200E+02  0.43400729039E+02  0.00000000000E+00 0.  1.
         11    1    3    3    0    0  0.72971913449E+01 -0.19301825722E+02 -0.35893745519E+01  0.20945001496E+02  0.51100000000E-03 0. -1.
        -11    1    3    3    0    0  0.13959630557E+02 -0.79690174997E+01 -0.59871090900E+01  0.17152900650E+02  0.51100000000E-03 0.  1.
        -12    1    3    3    0    0  0.32977953814E+00 -0.64053049082E+01 -0.72627255580E+01  0.96893688154E+01  0.00000000000E+00 0.  1.
</event>
<event>
 7    1  0.2442667E-009  0.4778728E+02  0.7816164E-02  0.1312668E+00
        -11   -1    0    0    0    0  0.00000000000E+00  0.00000000000E+00  0.45593999997E+02  0.45594000000E+02  0.51100000000E-03 0.  1.
         11   -1    0    0    0    0 -0.00000000000E+00 -0.00000000000E+00 -0.45593999997E+02  0.45594000000E+02  0.51100000000E-03 0. -1.
    9900012    2    1    2    0    0  0.24979162157E+02 -0.10326408350E+02 -0.33956287877E+02  0.47787277219E+02  0.20000028154E+02 0.  0.
        -12    1    1    2    0    0 -0.24979162157E+02  0.10326408350E+02  0.33956287877E+02  0.43400722781E+02  0.00000000000E+00 0.  1.
         11    1    3    3    0    0  0.20893436775E+01 -0.15870305029E+01 -0.45045561013E+01  0.52129692835E+01  0.51100000000E-03 0.  1.
        -11    1    3    3    0    0  0.25796892481E+02 -0.55465011457E+01 -0.24535720782E+02  0.36031166109E+02  0.51100000000E-03 0. -1.
        -12    1    3    3    0    0 -0.29070740007E+01 -0.31928767015E+01 -0.49160109941E+01  0.65431418272E+01  0.00000000000E+00 0.  1.
</event>
<event>
 7    1  0.2442667E-009  0.4778727E+02  0.7816164E-02  0.1312668E+00
        -11   -1    0    0    0    0  0.00000000000E+00  0.00000000000E+00  0.45593999997E+02  0.45594000000E+02  0.51100000000E-03 0.  1.
         11   -1    0    0    0    0 -0.00000000000E+00 -0.00000000000E+00 -0.45593999997E+02  0.45594000000E+02  0.51100000000E-03 0. -1.
    9900012    2    1    2    0    0  0.76785841797E+01 -0.10309593763E+01 -0.42703624990E+02  0.47787272823E+02  0.20000008109E+02 0.  0.
        -12    1    1    2    0    0 -0.76785841797E+01  0.10309593763E+01  0.42703624990E+02  0.43400727177E+02  0.00000000000E+00 0.  1.
         11    1    3    3    0    0  0.18039939514E+01 -0.81999790273E+01 -0.26924378861E+02  0.28203124429E+02  0.51100000000E-03 0. -1.
        -11    1    3    3    0    0  0.70290364412E+00 -0.60640426905E+00  0.31214599358E+00  0.97940545887E+00  0.51100000000E-03 0.  1.
         12    1    3    3    0    0  0.51716865842E+01  0.77754239201E+01 -0.16091392122E+02  0.18604742935E+02  0.00000000000E+00 0. -1.
</event>
<event>
 7    1  0.2442667E-009  0.4778727E+02  0.7816164E-02  0.1312668E+00
        -11   -1    0    0    0    0  0.00000000000E+00  0.00000000000E+00  0.45593999997E+02  0.45594000000E+02  0.51100000000E-03 0.  1.
         11   -1    0    0    0    0 -0.00000000000E+00 -0.00000000000E+00 -0.45593999997E+02  0.45594000000E+02  0.51100000000E-03 0. -1.
    9900012    2    1    2    0    0  0.79547589909E+01 -0.11875484453E+01 -0.42648970997E+02  0.47787272022E+02  0.20000004458E+02 0.  0.
        -12    1    1    2    0    0 -0.79547589909E+01  0.11875484453E+01  0.42648970997E+02  0.43400727978E+02  0.00000000000E+00 0.  1.
         11    1    3    3    0    0 -0.21261476067E+01 -0.81712652612E+01 -0.23709116352E+02  0.25167683208E+02  0.51100000000E-03 0. -1.
        -11    1    3    3    0    0  0.76015971019E+01  0.59372164865E+01 -0.15431596989E+02  0.18198049456E+02  0.51100000000E-03 0.  1.
        -12    1    3    3    0    0  0.24793094957E+01  0.10465003294E+01 -0.35082576561E+01  0.44215393582E+01  0.00000000000E+00 0.  1.
</event>
<event>
 7    1  0.2442667E-009  0.4778726E+02  0.7816164E-02  0.1312668E+00
        -11   -1    0    0    0    0  0.00000000000E+00  0.00000000000E+00  0.45593999997E+02  0.45594000000E+02  0.51100000000E-03 0.  1.
         11   -1    0    0    0    0 -0.00000000000E+00 -0.00000000000E+00 -0.45593999997E+02  0.45594000000E+02  0.51100000000E-03 0. -1.
    9900012    2    1    2    0    0  0.18112128289E+02 -0.29435148461E+02 -0.26251604639E+02  0.47787263806E+02  0.19999966996E+02 0.  0.
        -12    1    1    2    0    0 -0.18112128289E+02  0.29435148461E+02  0.26251604639E+02  0.43400736194E+02  0.00000000000E+00 0.  1.
         11    1    3    3    0    0  0.44753153651E+00  0.19740581036E+01 -0.32529932891E+01  0.38313386006E+01  0.51100000000E-03 0. -1.
        -11    1    3    3    0    0  0.16992311970E+02 -0.22501934266E+02 -0.19855493935E+02  0.34486466207E+02  0.51100000000E-03 0.  1.
        -12    1    3    3    0    0  0.67228478251E+00 -0.89072722985E+01 -0.31431174145E+01  0.94694589977E+01  0.00000000000E+00 0.  1.
</event>
<event>
 7    1  0.2442667E-009  0.4778727E+02  0.7816164E-02  0.1312668E+00
        -11   -1    0    0    0    0  0.00000000000E+00  0.00000000000E+00  0.45593999997E+02  0.45594000000E+02  0.51100000000E-03 0.  1.
         11   -1    0    0    0    0 -0.00000000000E+00 -0.00000000000E+00 -0.45593999997E+02  0.45594000000E+02  0.51100000000E-03 0. -1.
    9900012    2    1    2    0    0 -0.11323976454E+02  0.41896482643E+02  0.27488605889E+00  0.47787271170E+02  0.20000000574E+02 0.  0.
        -12    1    1    2    0    0  0.11323976454E+02 -0.41896482643E+02 -0.27488605889E+00  0.43400728830E+02  0.00000000000E+00 0.  1.
         11    1    3    3    0    0 -0.31958394155E+01  0.25089686045E+02 -0.25209044378E+01  0.25417724029E+02  0.51100000000E-03 0. -1.
        -11    1    3    3    0    0 -0.52463760399E+01  0.12610121264E+01 -0.21425848395E+01  0.58056251335E+01  0.51100000000E-03 0.  1.
        -12    1    3    3    0    0 -0.28817609983E+01  0.15545784472E+02  0.49383753361E+01  0.16563922007E+02  0.00000000000E+00 0.  1.
</event>
<event>
 7    1  0.2442667E-009  0.4778728E+02  0.7816164E-02  0.1312668E+00
        -11   -1    0    0    0    0  0.00000000000E+00  0.00000000000E+00  0.45593999997E+02  0.45594000000E+02  0.51100000000E-03 0.  1.
         11   -1    0    0    0    0 -0.00000000000E+00 -0.00000000000E+00 -0.45593999997E+02  0.45594000000E+02  0.51100000000E-03 0. -1.
    9900012    2    1    2    0    0 -0.29464766996E+02  0.12170548311E+02 -0.29450421865E+02  0.47787284702E+02  0.20000062272E+02 0.  0.
        -12    1    1    2    0    0  0.29464766996E+02 -0.12170548311E+02  0.29450421865E+02  0.43400715298E+02  0.00000000000E+00 0.  1.
         11    1    3    3    0    0 -0.13762630408E+02  0.82838679866E+01 -0.44495940830E+01  0.16668273826E+02  0.51100000000E-03 0. -1.
        -11    1    3    3    0    0  0.97916039753E+00  0.73776270534E+00 -0.52818142015E+00  0.13349250043E+01  0.51100000000E-03 0.  1.
         12    1    3    3    0    0 -0.16681296985E+02  0.31489176190E+01 -0.24472646362E+02  0.29784085872E+02  0.00000000000E+00 0. -1.
</event>
<event>
 7    1  0.2442667E-009  0.4778729E+02  0.7816164E-02  0.1312668E+00
        -11   -1    0    0    0    0  0.00000000000E+00  0.00000000000E+00  0.45593999997E+02  0.45594000000E+02  0.51100000000E-03 0.  1.
         11   -1    0    0    0    0 -0.00000000000E+00 -0.00000000000E+00 -0.45593999997E+02  0.45594000000E+02  0.51100000000E-03 0. -1.
    9900012    2    1    2    0    0 -0.32821431820E+02 -0.21017424692E+02 -0.19095637093E+02  0.47787287064E+02  0.20000073039E+02 0.  0.
        -12    1    1    2    0    0  0.32821431820E+02  0.21017424692E+02  0.19095637093E+02  0.43400712936E+02  0.00000000000E+00 0.  1.
         11    1    3    3    0    0 -0.24118004730E+02 -0.69898475894E+01 -0.72200162272E+01  0.26127854027E+02  0.51100000000E-03 0. -1.
        -11    1    3    3    0    0 -0.10219706329E+01 -0.85841065252E+01 -0.48501951869E+01  0.99124014458E+01  0.51100000000E-03 0.  1.
         12    1    3    3    0    0 -0.76814564564E+01 -0.54434705774E+01 -0.70254256791E+01  0.11747031591E+02  0.00000000000E+00 0. -1.
</event>
<event>
 7    1  0.2442667E-009  0.4778727E+02  0.7816164E-02  0.1312668E+00
        -11   -1    0    0    0    0  0.00000000000E+00  0.00000000000E+00  0.45593999997E+02  0.45594000000E+02  0.51100000000E-03 0.  1.
         11   -1    0    0    0    0 -0.00000000000E+00 -0.00000000000E+00 -0.45593999997E+02  0.45594000000E+02  0.51100000000E-03 0. -1.
    9900012    2    1    2    0    0  0.37580427517E+02 -0.10687597828E+02  0.18897346992E+02  0.47787274165E+02  0.20000014228E+02 0.  0.
        -12    1    1    2    0    0 -0.37580427517E+02  0.10687597828E+02 -0.18897346992E+02  0.43400725835E+02  0.00000000000E+00 0.  1.
         11    1    3    3    0    0  0.13552071999E+02 -0.10601656844E+02  0.33125825562E+01  0.17522185559E+02  0.51100000000E-03 0. -1.
        -11    1    3    3    0    0  0.77534905756E+01 -0.19172927851E+01  0.10345495202E+02  0.13069885193E+02  0.51100000000E-03 0.  1.
         12    1    3    3    0    0  0.16274864942E+02  0.18313518016E+01  0.52392692340E+01  0.17195203413E+02  0.00000000000E+00 0. -1.
</event>
<event>
 7    1  0.2442667E-009  0.4778727E+02  0.7816164E-02  0.1312668E+00
        -11   -1    0    0    0    0  0.00000000000E+00  0.00000000000E+00  0.45593999997E+02  0.45594000000E+02  0.51100000000E-03 0. -1.
         11   -1    0    0    0    0 -0.00000000000E+00 -0.00000000000E+00 -0.45593999997E+02  0.45594000000E+02  0.51100000000E-03 0.  1.
    9900012    2    1    2    0    0  0.21855420099E+02 -0.45412032024E+01  0.37220172688E+02  0.47787272250E+02  0.20000005499E+02 0.  0.
        -12    1    1    2    0    0 -0.21855420099E+02  0.45412032024E+01 -0.37220172688E+02  0.43400727750E+02  0.00000000000E+00 0.  1.
         11    1    3    3    0    0  0.10285235947E+02  0.43266615027E+01  0.17052198693E+02  0.20378507275E+02  0.51100000000E-03 0. -1.
        -11    1    3    3    0    0  0.70556807839E+00 -0.26231360254E+01 -0.92884563073E+00  0.28707879385E+01  0.51100000000E-03 0.  1.
         12    1    3    3    0    0  0.10864616073E+02 -0.62447286798E+01  0.21096819626E+02  0.24537977037E+02  0.00000000000E+00 0. -1.
</event>
<event>
 7    1  0.2442667E-009  0.4778727E+02  0.7816164E-02  0.1312668E+00
        -11   -1    0    0    0    0  0.00000000000E+00  0.00000000000E+00  0.45593999997E+02  0.45594000000E+02  0.51100000000E-03 0. -1.
         11   -1    0    0    0    0 -0.00000000000E+00 -0.00000000000E+00 -0.45593999997E+02  0.45594000000E+02  0.51100000000E-03 0.  1.
    9900012    2    1    2    0    0 -0.33035348381E+02  0.10181243859E+02 -0.26241791240E+02  0.47787267556E+02  0.19999984095E+02 0.  0.
        -12    1    1    2    0    0  0.33035348381E+02 -0.10181243859E+02  0.26241791240E+02  0.43400732444E+02  0.00000000000E+00 0.  1.
         11    1    3    3    0    0 -0.70482520345E+01  0.32055011255E+01  0.12331146245E+01  0.78405144057E+01  0.51100000000E-03 0. -1.
        -11    1    3    3    0    0 -0.26464928921E+02  0.52301411448E+01 -0.24377935290E+02  0.36359738289E+02  0.51100000000E-03 0.  1.
        -12    1    3    3    0    0  0.47783257411E+00  0.17456015884E+01 -0.30969705749E+01  0.35870148614E+01  0.00000000000E+00 0.  1.
</event>
<event>
 7    1  0.2442667E-009  0.4778727E+02  0.7816164E-02  0.1312668E+00
        -11   -1    0    0    0    0  0.00000000000E+00  0.00000000000E+00  0.45593999997E+02  0.45594000000E+02  0.51100000000E-03 0.  1.
         11   -1    0    0    0    0 -0.00000000000E+00 -0.00000000000E+00 -0.45593999997E+02  0.45594000000E+02  0.51100000000E-03 0. -1.
    9900012    2    1    2    0    0 -0.28515137342E+01  0.27837011403E+02 -0.33175190406E+02  0.47787267369E+02  0.19999983243E+02 0.  0.
        -12    1    1    2    0    0  0.28515137342E+01 -0.27837011403E+02  0.33175190406E+02  0.43400732631E+02  0.00000000000E+00 0.  1.
         11    1    3    3    0    0 -0.55004542717E+00  0.15715072068E+02 -0.18332078608E+02  0.24152249304E+02  0.51100000000E-03 0. -1.
        -11    1    3    3    0    0 -0.57056946828E+01  0.88718930932E-02 -0.34943013382E+01  0.66906780394E+01  0.51100000000E-03 0.  1.
        -12    1    3    3    0    0  0.34042263758E+01  0.12113067442E+02 -0.11348810460E+02  0.16944340026E+02  0.00000000000E+00 0.  1.
</event>
<event>
 7    1  0.2442667E-009  0.4778727E+02  0.7816164E-02  0.1312668E+00
        -11   -1    0    0    0    0  0.00000000000E+00  0.00000000000E+00  0.45593999997E+02  0.45594000000E+02  0.51100000000E-03 0. -1.
         11   -1    0    0    0    0 -0.00000000000E+00 -0.00000000000E+00 -0.45593999997E+02  0.45594000000E+02  0.51100000000E-03 0.  1.
    9900012    2    1    2    0    0  0.30534461702E+02 -0.29083472744E+02  0.10267484999E+02  0.47787274355E+02  0.20000015094E+02 0.  0.
        -12    1    1    2    0    0 -0.30534461702E+02  0.29083472744E+02 -0.10267484999E+02  0.43400725645E+02  0.00000000000E+00 0.  1.
         11    1    3    3    0    0  0.12616514768E+02 -0.28831776771E+01  0.74633786424E+01  0.14939584313E+02  0.51100000000E-03 0. -1.
        -11    1    3    3    0    0  0.77352544076E+01 -0.15619151386E+02  0.46706610421E+01  0.18044587155E+02  0.51100000000E-03 0.  1.
         12    1    3    3    0    0  0.10182692526E+02 -0.10581143681E+02 -0.18665546856E+01  0.14803102887E+02  0.00000000000E+00 0. -1.
</event>
<event>
 7    1  0.2442667E-009  0.4778727E+02  0.7816164E-02  0.1312668E+00
        -11   -1    0    0    0    0  0.00000000000E+00  0.00000000000E+00  0.45593999997E+02  0.45594000000E+02  0.51100000000E-03 0. -1.
         11   -1    0    0    0    0 -0.00000000000E+00 -0.00000000000E+00 -0.45593999997E+02  0.45594000000E+02  0.51100000000E-03 0.  1.
    9900012    2    1    2    0    0 -0.14237305356E+02  0.24744025869E+02  0.32690293318E+02  0.47787274693E+02  0.20000016633E+02 0.  0.
        -12    1    1    2    0    0  0.14237305356E+02 -0.24744025869E+02 -0.32690293318E+02  0.43400725307E+02  0.00000000000E+00 0.  1.
         11    1    3    3    0    0 -0.11201412790E+02  0.10262092015E+02  0.12430160364E+02  0.19628832567E+02  0.51100000000E-03 0. -1.
        -11    1    3    3    0    0  0.55901004539E+00  0.38231410274E+01  0.15447643379E+02  0.15923523032E+02  0.51100000000E-03 0.  1.
        -12    1    3    3    0    0 -0.35949026112E+01  0.10658792826E+02  0.48124895759E+01  0.12234919093E+02  0.00000000000E+00 0.  1.
</event>
<event>
 7    1  0.2442667E-009  0.4778727E+02  0.7816164E-02  0.1312668E+00
        -11   -1    0    0    0    0  0.00000000000E+00  0.00000000000E+00  0.45593999997E+02  0.45594000000E+02  0.51100000000E-03 0. -1.
         11   -1    0    0    0    0 -0.00000000000E+00 -0.00000000000E+00 -0.45593999997E+02  0.45594000000E+02  0.51100000000E-03 0.  1.
    9900012    2    1    2    0    0  0.30148933073E+02  0.27494212717E+02  0.14789641468E+02  0.47787269671E+02  0.19999993736E+02 0.  0.
        -12    1    1    2    0    0 -0.30148933073E+02 -0.27494212717E+02 -0.14789641468E+02  0.43400730329E+02  0.00000000000E+00 0.  1.
         11    1    3    3    0    0  0.18804375008E+02  0.49285545943E+01  0.50995946716E+01  0.20097289267E+02  0.51100000000E-03 0. -1.
        -11    1    3    3    0    0  0.28141172909E+01  0.98266370814E+01  0.62380723420E+01  0.11974790155E+02  0.51100000000E-03 0.  1.
         12    1    3    3    0    0  0.85304407742E+01  0.12739021042E+02  0.34519744544E+01  0.15715190248E+02  0.00000000000E+00 0. -1.
</event>
<event>
 7    1  0.2442667E-009  0.4778728E+02  0.7816164E-02  0.1312668E+00
        -11   -1    0    0    0    0  0.00000000000E+00  0.00000000000E+00  0.45593999997E+02  0.45594000000E+02  0.51100000000E-03 0. -1.
         11   -1    0    0    0    0 -0.00000000000E+00 -0.00000000000E+00 -0.45593999997E+02  0.45594000000E+02  0.51100000000E-03 0.  1.
    9900012    2    1    2    0    0  0.18450144325E+02  0.11031200035E+01  0.39268283184E+02  0.47787276924E+02  0.20000026806E+02 0.  0.
        -12    1    1    2    0    0 -0.18450144325E+02 -0.11031200035E+01 -0.39268283184E+02  0.43400723076E+02  0.00000000000E+00 0.  1.
         11    1    3    3    0    0 -0.36798723680E+01 -0.20549469891E+00  0.25131525391E+01  0.44608995351E+01  0.51100000000E-03 0. -1.
        -11    1    3    3    0    0  0.25975750215E+01  0.11410726760E+01  0.20443968904E+01  0.34969989635E+01  0.51100000000E-03 0.  1.
         12    1    3    3    0    0  0.19532441671E+02  0.16754202642E+00  0.34710733754E+02  0.39829378425E+02  0.00000000000E+00 0. -1.
</event>
<event>
 7    1  0.2442667E-009  0.4778727E+02  0.7816164E-02  0.1312668E+00
        -11   -1    0    0    0    0  0.00000000000E+00  0.00000000000E+00  0.45593999997E+02  0.45594000000E+02  0.51100000000E-03 0. -1.
         11   -1    0    0    0    0 -0.00000000000E+00 -0.00000000000E+00 -0.45593999997E+02  0.45594000000E+02  0.51100000000E-03 0.  1.
    9900012    2    1    2    0    0  0.14265177703E+02  0.19675456619E+01  0.40942116103E+02  0.47787269571E+02  0.19999993282E+02 0.  0.
        -12    1    1    2    0    0 -0.14265177703E+02 -0.19675456619E+01 -0.40942116103E+02  0.43400730429E+02  0.00000000000E+00 0.  1.
         11    1    3    3    0    0  0.12727892223E+02 -0.24902112462E+01  0.35764620672E+02  0.38043507785E+02  0.51100000000E-03 0. -1.
        -11    1    3    3    0    0 -0.10392657444E+01  0.51636939653E+01  0.46383076791E+01  0.70183835064E+01  0.51100000000E-03 0.  1.
         12    1    3    3    0    0  0.25765512237E+01 -0.70593705728E+00  0.53918775147E+00  0.27253782799E+01  0.00000000000E+00 0. -1.
</event>
<event>
 7    1  0.2442667E-009  0.4778728E+02  0.7816164E-02  0.1312668E+00
        -11   -1    0    0    0    0  0.00000000000E+00  0.00000000000E+00  0.45593999997E+02  0.45594000000E+02  0.51100000000E-03 0.  1.
         11   -1    0    0    0    0 -0.00000000000E+00 -0.00000000000E+00 -0.45593999997E+02  0.45594000000E+02  0.51100000000E-03 0. -1.
    9900012    2    1    2    0    0  0.23585039137E+02 -0.89984433777E+01 -0.35304335515E+02  0.47787283872E+02  0.20000058485E+02 0.  0.
        -12    1    1    2    0    0 -0.23585039137E+02  0.89984433777E+01  0.35304335515E+02  0.43400716128E+02  0.00000000000E+00 0.  1.
         11    1    3    3    0    0 -0.84262804849E+00  0.78864546368E+00 -0.24940991674E+01  0.27481838755E+01  0.51100000000E-03 0. -1.
        -11    1    3    3    0    0  0.32890714965E+01 -0.68608217500E+01 -0.25770998088E+01  0.80330760036E+01  0.51100000000E-03 0.  1.
        -12    1    3    3    0    0  0.21138595689E+02 -0.29262670913E+01 -0.30233136538E+02  0.37006023993E+02  0.00000000000E+00 0.  1.
</event>
<event>
 7    1  0.2442667E-009  0.4778727E+02  0.7816164E-02  0.1312668E+00
        -11   -1    0    0    0    0  0.00000000000E+00  0.00000000000E+00  0.45593999997E+02  0.45594000000E+02  0.51100000000E-03 0.  1.
         11   -1    0    0    0    0 -0.00000000000E+00 -0.00000000000E+00 -0.45593999997E+02  0.45594000000E+02  0.51100000000E-03 0. -1.
    9900012    2    1    2    0    0 -0.22952707065E+00 -0.43374398085E+02 -0.14939971464E+01  0.47787272825E+02  0.20000008117E+02 0.  0.
        -12    1    1    2    0    0  0.22952707065E+00  0.43374398085E+02  0.14939971464E+01  0.43400727175E+02  0.00000000000E+00 0.  1.
         11    1    3    3    0    0  0.82924534531E+01 -0.17466335955E+02  0.97438401440E+00  0.19359418907E+02  0.51100000000E-03 0. -1.
        -11    1    3    3    0    0 -0.75930639787E+01 -0.22209961218E+02  0.68172630553E+00  0.23481945169E+02  0.51100000000E-03 0.  1.
         12    1    3    3    0    0 -0.92891654504E+00 -0.36981009118E+01 -0.31501074663E+01  0.49459087487E+01  0.00000000000E+00 0. -1.
</event>
<event>
 7    1  0.2442667E-009  0.4778726E+02  0.7816164E-02  0.1312668E+00
        -11   -1    0    0    0    0  0.00000000000E+00  0.00000000000E+00  0.45593999997E+02  0.45594000000E+02  0.51100000000E-03 0.  1.
         11   -1    0    0    0    0 -0.00000000000E+00 -0.00000000000E+00 -0.45593999997E+02  0.45594000000E+02  0.51100000000E-03 0. -1.
    9900012    2    1    2    0    0 -0.20034020496E+02 -0.29346480166E+02 -0.24920797772E+02  0.47787262253E+02  0.19999959918E+02 0.  0.
        -12    1    1    2    0    0  0.20034020496E+02  0.29346480166E+02  0.24920797772E+02  0.43400737747E+02  0.00000000000E+00 0.  1.
         11    1    3    3    0    0 -0.93592654784E+01 -0.17203966171E+02 -0.93111911736E+01  0.21685723037E+02  0.51100000000E-03 0. -1.
        -11    1    3    3    0    0  0.32355329669E+00 -0.39959116444E+00 -0.84933919236E+01  0.85089403843E+01  0.51100000000E-03 0.  1.
        -12    1    3    3    0    0 -0.10998308314E+02 -0.11742922831E+02 -0.71162146749E+01  0.17592598832E+02  0.00000000000E+00 0.  1.
</event>
<event>
 7    1  0.2442667E-009  0.4778728E+02  0.7816164E-02  0.1312668E+00
        -11   -1    0    0    0    0  0.00000000000E+00  0.00000000000E+00  0.45593999997E+02  0.45594000000E+02  0.51100000000E-03 0.  1.
         11   -1    0    0    0    0 -0.00000000000E+00 -0.00000000000E+00 -0.45593999997E+02  0.45594000000E+02  0.51100000000E-03 0. -1.
    9900012    2    1    2    0    0  0.45723178279E+00 -0.25691248735E+02 -0.34976757211E+02  0.47787275727E+02  0.20000021349E+02 0.  0.
        -12    1    1    2    0    0 -0.45723178279E+00  0.25691248735E+02  0.34976757211E+02  0.43400724273E+02  0.00000000000E+00 0.  1.
         11    1    3    3    0    0  0.65376699576E+01 -0.23393417337E+02 -0.29796739328E+02  0.38442668716E+02  0.51100000000E-03 0. -1.
        -11    1    3    3    0    0 -0.42106346750E+01  0.47390090701E+00 -0.18426073764E+01  0.46205225506E+01  0.51100000000E-03 0.  1.
         12    1    3    3    0    0 -0.18698034998E+01 -0.27717323050E+01 -0.33374105061E+01  0.47240844599E+01  0.00000000000E+00 0. -1.
</event>
<event>
 7    1  0.2442667E-009  0.4778725E+02  0.7816164E-02  0.1312668E+00
        -11   -1    0    0    0    0  0.00000000000E+00  0.00000000000E+00  0.45593999997E+02  0.45594000000E+02  0.51100000000E-03 0.  1.
         11   -1    0    0    0    0 -0.00000000000E+00 -0.00000000000E+00 -0.45593999997E+02  0.45594000000E+02  0.51100000000E-03 0. -1.
    9900012    2    1    2    0    0 -0.23215157973E+02 -0.87600143386E+01 -0.35608191615E+02  0.47787254373E+02  0.19999923986E+02 0.  0.
        -12    1    1    2    0    0  0.23215157973E+02  0.87600143386E+01  0.35608191615E+02  0.43400745627E+02  0.00000000000E+00 0.  1.
         11    1    3    3    0    0 -0.97684374577E+01 -0.11107550852E+02 -0.26327997739E+02  0.30198733773E+02  0.51100000000E-03 0. -1.
        -11    1    3    3    0    0 -0.58162657087E+01  0.38935985028E+01 -0.56653880581E+01  0.90047586422E+01  0.51100000000E-03 0.  1.
         12    1    3    3    0    0 -0.76304548070E+01 -0.15460619894E+01 -0.36148058177E+01  0.85837619571E+01  0.00000000000E+00 0. -1.
</event>
<event>
 7    1  0.2442667E-009  0.4778727E+02  0.7816164E-02  0.1312668E+00
        -11   -1    0    0    0    0  0.00000000000E+00  0.00000000000E+00  0.45593999997E+02  0.45594000000E+02  0.51100000000E-03 0. -1.
         11   -1    0    0    0    0 -0.00000000000E+00 -0.00000000000E+00 -0.45593999997E+02  0.45594000000E+02  0.51100000000E-03 0.  1.
    9900012    2    1    2    0    0 -0.23207747026E+02  0.31748749027E+02  0.18358670574E+02  0.47787269913E+02  0.19999994842E+02 0.  0.
        -12    1    1    2    0    0  0.23207747026E+02 -0.31748749027E+02 -0.18358670574E+02  0.43400730087E+02  0.00000000000E+00 0.  1.
         11    1    3    3    0    0 -0.87905855091E+01  0.14877752750E+02  0.11203752161E+02  0.20594804763E+02  0.51100000000E-03 0. -1.
        -11    1    3    3    0    0 -0.83465180453E+01  0.51907488357E+01 -0.33149061708E+01  0.10372889671E+02  0.51100000000E-03 0.  1.
        -12    1    3    3    0    0 -0.60706434712E+01  0.11680247442E+02  0.10469824584E+02  0.16819575479E+02  0.00000000000E+00 0.  1.
</event>
<event>
 7    1  0.2442667E-009  0.4778727E+02  0.7816164E-02  0.1312668E+00
        -11   -1    0    0    0    0  0.00000000000E+00  0.00000000000E+00  0.45593999997E+02  0.45594000000E+02  0.51100000000E-03 0. -1.
         11   -1    0    0    0    0 -0.00000000000E+00 -0.00000000000E+00 -0.45593999997E+02  0.45594000000E+02  0.51100000000E-03 0.  1.
    9900012    2    1    2    0    0  0.26860581385E+02  0.29623458592E+02  0.16869592588E+02  0.47787270911E+02  0.19999999394E+02 0.  0.
        -12    1    1    2    0    0 -0.26860581385E+02 -0.29623458592E+02 -0.16869592588E+02  0.43400729089E+02  0.00000000000E+00 0.  1.
         11    1    3    3    0    0  0.24085993743E+02  0.28921194225E+02  0.20252868590E+02  0.42740487320E+02  0.51100000000E-03 0. -1.
        -11    1    3    3    0    0  0.11893713245E+01 -0.13596579996E+00 -0.29762410402E+01  0.32079747251E+01  0.51100000000E-03 0.  1.
         12    1    3    3    0    0  0.15852163178E+01  0.83823016769E+00 -0.40703496119E+00  0.18388088666E+01  0.00000000000E+00 0. -1.
</event>
<event>
 7    1  0.2442667E-009  0.4778727E+02  0.7816164E-02  0.1312668E+00
        -11   -1    0    0    0    0  0.00000000000E+00  0.00000000000E+00  0.45593999997E+02  0.45594000000E+02  0.51100000000E-03 0.  1.
         11   -1    0    0    0    0 -0.00000000000E+00 -0.00000000000E+00 -0.45593999997E+02  0.45594000000E+02  0.51100000000E-03 0. -1.
    9900012    2    1    2    0    0  0.25495072987E+02  0.34010003862E+02  0.87717873667E+01  0.47787270018E+02  0.19999995321E+02 0.  0.
        -12    1    1    2    0    0 -0.25495072987E+02 -0.34010003862E+02 -0.87717873667E+01  0.43400729982E+02  0.00000000000E+00 0.  1.
         11    1    3    3    0    0  0.18865075556E+02  0.23656481588E+02  0.20494528297E+00  0.30258258372E+02  0.51100000000E-03 0. -1.
        -11    1    3    3    0    0 -0.18060378191E+01  0.25830664611E+00  0.23583434413E+01  0.29816570855E+01  0.51100000000E-03 0.  1.
        -12    1    3    3    0    0  0.84360352510E+01  0.10095215628E+02  0.62084986424E+01  0.14547354561E+02  0.00000000000E+00 0.  1.
</event>
<event>
 7    1  0.2442667E-009  0.4778727E+02  0.7816164E-02  0.1312668E+00
        -11   -1    0    0    0    0  0.00000000000E+00  0.00000000000E+00  0.45593999997E+02  0.45594000000E+02  0.51100000000E-03 0. -1.
         11   -1    0    0    0    0 -0.00000000000E+00 -0.00000000000E+00 -0.45593999997E+02  0.45594000000E+02  0.51100000000E-03 0.  1.
    9900012    2    1    2    0    0 -0.91768827680E+01 -0.34112762374E+02  0.25213636747E+02  0.47787271756E+02  0.20000003244E+02 0.  0.
        -12    1    1    2    0    0  0.91768827680E+01  0.34112762374E+02 -0.25213636747E+02  0.43400728244E+02  0.00000000000E+00 0.  1.
         11    1    3    3    0    0 -0.20440785057E+01 -0.11373385265E+02  0.10763520618E+02  0.15791944962E+02  0.51100000000E-03 0. -1.
        -11    1    3    3    0    0  0.19707929374E+01 -0.83787313402E+01  0.12072648782E+02  0.14826867928E+02  0.51100000000E-03 0.  1.
        -12    1    3    3    0    0 -0.91035971996E+01 -0.14360645768E+02  0.23774673472E+01  0.17168458866E+02  0.00000000000E+00 0.  1.
</event>
<event>
 7    1  0.2442667E-009  0.4778727E+02  0.7816164E-02  0.1312668E+00
        -11   -1    0    0    0    0  0.00000000000E+00  0.00000000000E+00  0.45593999997E+02  0.45594000000E+02  0.51100000000E-03 0. -1.
         11   -1    0    0    0    0 -0.00000000000E+00 -0.00000000000E+00 -0.45593999997E+02  0.45594000000E+02  0.51100000000E-03 0.  1.
    9900012    2    1    2    0    0  0.27989793714E+02  0.16181008023E+02  0.28954615537E+02  0.47787270355E+02  0.19999996859E+02 0.  0.
        -12    1    1    2    0    0 -0.27989793714E+02 -0.16181008023E+02 -0.28954615537E+02  0.43400729645E+02  0.00000000000E+00 0.  1.
         11    1    3    3    0    0  0.10435179401E+02  0.10033047167E+02  0.11487031889E+02  0.18479905477E+02  0.51100000000E-03 0. -1.
        -11    1    3    3    0    0 -0.17401171583E+01  0.12306777785E+01 -0.80890187031E+00  0.22796705938E+01  0.51100000000E-03 0.  1.
        -12    1    3    3    0    0  0.19294731471E+02  0.49172830779E+01  0.18276485519E+02  0.27027694284E+02  0.00000000000E+00 0.  1.
</event>
<event>
 7    1  0.2442667E-009  0.4778728E+02  0.7816164E-02  0.1312668E+00
        -11   -1    0    0    0    0  0.00000000000E+00  0.00000000000E+00  0.45593999997E+02  0.45594000000E+02  0.51100000000E-03 0.  1.
         11   -1    0    0    0    0 -0.00000000000E+00 -0.00000000000E+00 -0.45593999997E+02  0.45594000000E+02  0.51100000000E-03 0. -1.
    9900012    2    1    2    0    0  0.47858152070E+01 -0.50036509581E+01 -0.42844863401E+02  0.47787275698E+02  0.20000021215E+02 0.  0.
        -12    1    1    2    0    0 -0.47858152070E+01  0.50036509581E+01  0.42844863401E+02  0.43400724302E+02  0.00000000000E+00 0.  1.
         11    1    3    3    0    0 -0.31571368065E+01  0.13285716398E+01 -0.49503893551E+01  0.60198812650E+01  0.51100000000E-03 0. -1.
        -11    1    3    3    0    0  0.90890014390E+01  0.59713606871E+00 -0.29215807686E+02  0.30602776633E+02  0.51100000000E-03 0.  1.
        -12    1    3    3    0    0 -0.11460494256E+01 -0.69293586666E+01 -0.86786663599E+01  0.11164617799E+02  0.00000000000E+00 0.  1.
</event>
<event>
 7    1  0.2442667E-009  0.4778727E+02  0.7816164E-02  0.1312668E+00
        -11   -1    0    0    0    0  0.00000000000E+00  0.00000000000E+00  0.45593999997E+02  0.45594000000E+02  0.51100000000E-03 0.  1.
         11   -1    0    0    0    0 -0.00000000000E+00 -0.00000000000E+00 -0.45593999997E+02  0.45594000000E+02  0.51100000000E-03 0. -1.
    9900012    2    1    2    0    0  0.10774178178E+01 -0.25818581194E+02 -0.34869234991E+02  0.47787268291E+02  0.19999987447E+02 0.  0.
        -12    1    1    2    0    0 -0.10774178178E+01  0.25818581194E+02  0.34869234991E+02  0.43400731709E+02  0.00000000000E+00 0.  1.
         11    1    3    3    0    0  0.36427022616E+01 -0.42656179230E+01 -0.15572145758E+02  0.16551631334E+02  0.51100000000E-03 0. -1.
        -11    1    3    3    0    0 -0.19263649491E+01 -0.15628173747E+02 -0.63418420926E+01  0.16975560608E+02  0.51100000000E-03 0.  1.
         12    1    3    3    0    0 -0.63891949465E+00 -0.59247895242E+01 -0.12955247140E+02  0.14260076349E+02  0.00000000000E+00 0. -1.
</event>
<event>
 7    1  0.2442667E-009  0.4778727E+02  0.7816164E-02  0.1312668E+00
        -11   -1    0    0    0    0  0.00000000000E+00  0.00000000000E+00  0.45593999997E+02  0.45594000000E+02  0.51100000000E-03 0. -1.
         11   -1    0    0    0    0 -0.00000000000E+00 -0.00000000000E+00 -0.45593999997E+02  0.45594000000E+02  0.51100000000E-03 0.  1.
    9900012    2    1    2    0    0 -0.34114120977E+02  0.31471184439E+01  0.26644806282E+02  0.47787270670E+02  0.19999998294E+02 0.  0.
        -12    1    1    2    0    0  0.34114120977E+02 -0.31471184439E+01 -0.26644806282E+02  0.43400729330E+02  0.00000000000E+00 0.  1.
         11    1    3    3    0    0 -0.60390657003E+01 -0.65159658457E+00 -0.17619776515E+01  0.63245124829E+01  0.51100000000E-03 0. -1.
        -11    1    3    3    0    0 -0.18533561901E+01  0.31003853605E+01  0.15789680021E+01  0.39421388564E+01  0.51100000000E-03 0.  1.
         12    1    3    3    0    0 -0.26221699087E+02  0.69832966804E+00  0.26827815931E+02  0.37520619331E+02  0.00000000000E+00 0. -1.
</event>
<event>
 7    1  0.2442667E-009  0.4778727E+02  0.7816164E-02  0.1312668E+00
        -11   -1    0    0    0    0  0.00000000000E+00  0.00000000000E+00  0.45593999997E+02  0.45594000000E+02  0.51100000000E-03 0.  1.
         11   -1    0    0    0    0 -0.00000000000E+00 -0.00000000000E+00 -0.45593999997E+02  0.45594000000E+02  0.51100000000E-03 0. -1.
    9900012    2    1    2    0    0 -0.36615139779E+02 -0.82047710815E+01 -0.21809086855E+02  0.47787274211E+02  0.20000014439E+02 0.  0.
        -12    1    1    2    0    0  0.36615139779E+02  0.82047710815E+01  0.21809086855E+02  0.43400725789E+02  0.00000000000E+00 0.  1.
         11    1    3    3    0    0 -0.20580717079E+02  0.24096226628E+01 -0.15892026754E+02  0.26113764789E+02  0.51100000000E-03 0. -1.
        -11    1    3    3    0    0 -0.59931637323E+01 -0.71495104373E+01 -0.59242436447E+01  0.11051252148E+02  0.51100000000E-03 0.  1.
         12    1    3    3    0    0 -0.10041258968E+02 -0.34648833071E+01  0.71835435654E-02  0.10622257274E+02  0.00000000000E+00 0. -1.
</event>
<event>
 7    1  0.2442667E-009  0.4778727E+02  0.7816164E-02  0.1312668E+00
        -11   -1    0    0    0    0  0.00000000000E+00  0.00000000000E+00  0.45593999997E+02  0.45594000000E+02  0.51100000000E-03 0. -1.
         11   -1    0    0    0    0 -0.00000000000E+00 -0.00000000000E+00 -0.45593999997E+02  0.45594000000E+02  0.51100000000E-03 0.  1.
    9900012    2    1    2    0    0  0.15500151485E+02 -0.40523504013E+02 -0.11019702254E+01  0.47787269454E+02  0.19999992749E+02 0.  0.
        -12    1    1    2    0    0 -0.15500151485E+02  0.40523504013E+02  0.11019702254E+01  0.43400730546E+02  0.00000000000E+00 0.  1.
         11    1    3    3    0    0  0.95391309257E+01 -0.13436807378E+02 -0.80466796275E+01  0.18338262312E+02  0.51100000000E-03 0.  1.
        -11    1    3    3    0    0 -0.48156039862E-01 -0.15265986479E+02  0.25385420258E+01  0.15475686029E+02  0.51100000000E-03 0. -1.
         12    1    3    3    0    0  0.60091765987E+01 -0.11820710156E+02  0.44061673763E+01  0.13973321113E+02  0.00000000000E+00 0. -1.
</event>
<event>
 7    1  0.2442667E-009  0.4778726E+02  0.7816164E-02  0.1312668E+00
        -11   -1    0    0    0    0  0.00000000000E+00  0.00000000000E+00  0.45593999997E+02  0.45594000000E+02  0.51100000000E-03 0. -1.
         11   -1    0    0    0    0 -0.00000000000E+00 -0.00000000000E+00 -0.45593999997E+02  0.45594000000E+02  0.51100000000E-03 0.  1.
    9900012    2    1    2    0    0 -0.40514887065E+02 -0.11480027953E+02  0.10506039097E+02  0.47787262988E+02  0.19999963267E+02 0.  0.
        -12    1    1    2    0    0  0.40514887065E+02  0.11480027953E+02 -0.10506039097E+02  0.43400737012E+02  0.00000000000E+00 0.  1.
         11    1    3    3    0    0 -0.33178340340E+02 -0.44481277712E+01  0.91233239546E+01  0.34696154666E+02  0.51100000000E-03 0. -1.
        -11    1    3    3    0    0  0.10740162011E+01 -0.22444663953E+01 -0.16071679563E+01  0.29621156798E+01  0.51100000000E-03 0.  1.
        -12    1    3    3    0    0 -0.84105629258E+01 -0.47874337865E+01  0.29898830991E+01  0.10128992642E+02  0.00000000000E+00 0.  1.
</event>
<event>
 7    1  0.2442667E-009  0.4778728E+02  0.7816164E-02  0.1312668E+00
        -11   -1    0    0    0    0  0.00000000000E+00  0.00000000000E+00  0.45593999997E+02  0.45594000000E+02  0.51100000000E-03 0.  1.
         11   -1    0    0    0    0 -0.00000000000E+00 -0.00000000000E+00 -0.45593999997E+02  0.45594000000E+02  0.51100000000E-03 0. -1.
    9900012    2    1    2    0    0  0.25106448078E+02 -0.32311793397E+02 -0.14465027831E+02  0.47787276990E+02  0.20000027110E+02 0.  0.
        -12    1    1    2    0    0 -0.25106448078E+02  0.32311793397E+02  0.14465027831E+02  0.43400723010E+02  0.00000000000E+00 0.  1.
         11    1    3    3    0    0  0.10094801201E+02 -0.10417223445E+02 -0.10174298857E+02  0.17718349615E+02  0.51100000000E-03 0. -1.
        -11    1    3    3    0    0  0.81707034675E+01 -0.17472354041E+02  0.25182387344E+01  0.19452122698E+02  0.51100000000E-03 0.  1.
        -12    1    3    3    0    0  0.68409434096E+01 -0.44222159109E+01 -0.68089677080E+01  0.10616804677E+02  0.00000000000E+00 0.  1.
</event>
<event>
 7    1  0.2442667E-009  0.4778727E+02  0.7816164E-02  0.1312668E+00
        -11   -1    0    0    0    0  0.00000000000E+00  0.00000000000E+00  0.45593999997E+02  0.45594000000E+02  0.51100000000E-03 0. -1.
         11   -1    0    0    0    0 -0.00000000000E+00 -0.00000000000E+00 -0.45593999997E+02  0.45594000000E+02  0.51100000000E-03 0.  1.
    9900012    2    1    2    0    0  0.83267561925E+01 -0.32220150307E+02  0.27859475028E+02  0.47787270705E+02  0.19999998453E+02 0.  0.
        -12    1    1    2    0    0 -0.83267561925E+01  0.32220150307E+02 -0.27859475028E+02  0.43400729295E+02  0.00000000000E+00 0.  1.
         11    1    3    3    0    0  0.11051934810E+02 -0.10911947541E+02  0.16181259284E+02  0.22428754189E+02  0.51100000000E-03 0. -1.
        -11    1    3    3    0    0 -0.42223211953E+01 -0.88363910484E+01  0.65987413484E+01  0.11809030048E+02  0.51100000000E-03 0.  1.
         12    1    3    3    0    0  0.14971425777E+01 -0.12471811717E+02  0.50794743959E+01  0.13549486468E+02  0.00000000000E+00 0. -1.
</event>
<event>
 7    1  0.2442667E-009  0.4778727E+02  0.7816164E-02  0.1312668E+00
        -11   -1    0    0    0    0  0.00000000000E+00  0.00000000000E+00  0.45593999997E+02  0.45594000000E+02  0.51100000000E-03 0.  1.
         11   -1    0    0    0    0 -0.00000000000E+00 -0.00000000000E+00 -0.45593999997E+02  0.45594000000E+02  0.51100000000E-03 0. -1.
    9900012    2    1    2    0    0  0.50720054073E+01 -0.67778618499E+00 -0.43098014068E+02  0.47787269021E+02  0.19999990773E+02 0.  0.
        -12    1    1    2    0    0 -0.50720054073E+01  0.67778618499E+00  0.43098014068E+02  0.43400730979E+02  0.00000000000E+00 0.  1.
         11    1    3    3    0    0 -0.42696648387E+01  0.32187883448E+01 -0.95421318821E+01  0.10938140489E+02  0.51100000000E-03 0.  1.
        -11    1    3    3    0    0  0.54912697714E+01 -0.74680797470E+01 -0.26346915373E+02  0.27930023429E+02  0.51100000000E-03 0. -1.
        -12    1    3    3    0    0  0.38504004745E+01  0.35715052172E+01 -0.72089668124E+01  0.89191051027E+01  0.00000000000E+00 0.  1.
</event>
<event>
 7    1  0.2442667E-009  0.4778727E+02  0.7816164E-02  0.1312668E+00
        -11   -1    0    0    0    0  0.00000000000E+00  0.00000000000E+00  0.45593999997E+02  0.45594000000E+02  0.51100000000E-03 0.  1.
         11   -1    0    0    0    0 -0.00000000000E+00 -0.00000000000E+00 -0.45593999997E+02  0.45594000000E+02  0.51100000000E-03 0. -1.
    9900012    2    1    2    0    0 -0.99883482403E+01 -0.23594757045E+02 -0.35030611165E+02  0.47787269831E+02  0.19999994468E+02 0.  0.
        -12    1    1    2    0    0  0.99883482403E+01  0.23594757045E+02  0.35030611165E+02  0.43400730169E+02  0.00000000000E+00 0.  1.
         11    1    3    3    0    0 -0.10617058165E+02 -0.19899621937E+02 -0.37018509909E+02  0.43348436575E+02  0.51100000000E-03 0. -1.
        -11    1    3    3    0    0  0.51794050457E+00 -0.10989400094E+01  0.12373380751E+01  0.17340522725E+01  0.51100000000E-03 0.  1.
         12    1    3    3    0    0  0.11076942028E+00 -0.25961950984E+01  0.75056066892E+00  0.27047809840E+01  0.00000000000E+00 0. -1.
</event>
<event>
 7    1  0.2442667E-009  0.4778727E+02  0.7816164E-02  0.1312668E+00
        -11   -1    0    0    0    0  0.00000000000E+00  0.00000000000E+00  0.45593999997E+02  0.45594000000E+02  0.51100000000E-03 0.  1.
         11   -1    0    0    0    0 -0.00000000000E+00 -0.00000000000E+00 -0.45593999997E+02  0.45594000000E+02  0.51100000000E-03 0. -1.
    9900012    2    1    2    0    0  0.28052303604E+02  0.17340126438E+02 -0.28213677085E+02  0.47787270778E+02  0.19999998784E+02 0.  0.
        -12    1    1    2    0    0 -0.28052303604E+02 -0.17340126438E+02  0.28213677085E+02  0.43400729222E+02  0.00000000000E+00 0.  1.
         11    1    3    3    0    0 -0.29729794746E+00 -0.24733698094E+01 -0.42512030554E+01  0.49273392376E+01  0.51100000000E-03 0. -1.
        -11    1    3    3    0    0  0.63553711185E+00  0.21244370846E+01 -0.34709251289E+01  0.41187937383E+01  0.51100000000E-03 0.  1.
         12    1    3    3    0    0  0.27714064440E+02  0.17689059163E+02 -0.20491548900E+02  0.38741137802E+02  0.00000000000E+00 0. -1.
</event>
<event>
 7    1  0.2442667E-009  0.4778727E+02  0.7816164E-02  0.1312668E+00
        -11   -1    0    0    0    0  0.00000000000E+00  0.00000000000E+00  0.45593999997E+02  0.45594000000E+02  0.51100000000E-03 0.  1.
         11   -1    0    0    0    0 -0.00000000000E+00 -0.00000000000E+00 -0.45593999997E+02  0.45594000000E+02  0.51100000000E-03 0. -1.
    9900012    2    1    2    0    0 -0.18203316466E+02  0.15119838773E+02 -0.36382038335E+02  0.47787274565E+02  0.20000016051E+02 0.  0.
        -12    1    1    2    0    0  0.18203316466E+02 -0.15119838773E+02  0.36382038335E+02  0.43400725435E+02  0.00000000000E+00 0.  1.
         11    1    3    3    0    0 -0.13384802626E+01  0.52232549043E+01 -0.19943911626E+02  0.20659949961E+02  0.51100000000E-03 0. -1.
        -11    1    3    3    0    0 -0.16763623849E+02  0.65180698535E+01 -0.15127691988E+02  0.23502157014E+02  0.51100000000E-03 0.  1.
        -12    1    3    3    0    0 -0.10121235449E+00  0.33785140153E+01 -0.13104347216E+01  0.36251675895E+01  0.00000000000E+00 0.  1.
</event>
<event>
 7    1  0.2442667E-009  0.4778727E+02  0.7816164E-02  0.1312668E+00
        -11   -1    0    0    0    0  0.00000000000E+00  0.00000000000E+00  0.45593999997E+02  0.45594000000E+02  0.51100000000E-03 0.  1.
         11   -1    0    0    0    0 -0.00000000000E+00 -0.00000000000E+00 -0.45593999997E+02  0.45594000000E+02  0.51100000000E-03 0. -1.
    9900012    2    1    2    0    0  0.18807136403E+02 -0.16504565404E+02 -0.35461446288E+02  0.47787271531E+02  0.20000002216E+02 0.  0.
        -12    1    1    2    0    0 -0.18807136403E+02  0.16504565404E+02  0.35461446288E+02  0.43400728469E+02  0.00000000000E+00 0.  1.
         11    1    3    3    0    0 -0.22826157037E+01 -0.36246389520E+01 -0.43768136566E+01  0.61241195309E+01  0.51100000000E-03 0. -1.
        -11    1    3    3    0    0  0.22450746834E+02 -0.11554331216E+02 -0.30655870061E+02  0.39715500408E+02  0.51100000000E-03 0.  1.
        -12    1    3    3    0    0 -0.13609947274E+01 -0.13255952364E+01 -0.42876257042E+00  0.19476515912E+01  0.00000000000E+00 0.  1.
</event>
<event>
 7    1  0.2442667E-009  0.4778727E+02  0.7816164E-02  0.1312668E+00
        -11   -1    0    0    0    0  0.00000000000E+00  0.00000000000E+00  0.45593999997E+02  0.45594000000E+02  0.51100000000E-03 0. -1.
         11   -1    0    0    0    0 -0.00000000000E+00 -0.00000000000E+00 -0.45593999997E+02  0.45594000000E+02  0.51100000000E-03 0.  1.
    9900012    2    1    2    0    0 -0.63932395577E+01  0.31867319091E+02  0.28761503973E+02  0.47787266724E+02  0.19999980303E+02 0.  0.
        -12    1    1    2    0    0  0.63932395577E+01 -0.31867319091E+02 -0.28761503973E+02  0.43400733276E+02  0.00000000000E+00 0.  1.
         11    1    3    3    0    0 -0.55596548319E+01  0.26338803022E+02  0.19058816229E+02  0.32983037804E+02  0.51100000000E-03 0. -1.
        -11    1    3    3    0    0 -0.40847685568E+01  0.46218708977E+01  0.21508997341E+01  0.65324876337E+01  0.51100000000E-03 0.  1.
         12    1    3    3    0    0  0.32511838310E+01  0.90664517148E+00  0.75517880098E+01  0.82717412868E+01  0.00000000000E+00 0. -1.
</event>
<event>
 7    1  0.2442667E-009  0.4778727E+02  0.7816164E-02  0.1312668E+00
        -11   -1    0    0    0    0  0.00000000000E+00  0.00000000000E+00  0.45593999997E+02  0.45594000000E+02  0.51100000000E-03 0.  1.
         11   -1    0    0    0    0 -0.00000000000E+00 -0.00000000000E+00 -0.45593999997E+02  0.45594000000E+02  0.51100000000E-03 0. -1.
    9900012    2    1    2    0    0  0.17480864365E+01  0.11656571154E+02 -0.41769507788E+02  0.47787271457E+02  0.20000001880E+02 0.  0.
        -12    1    1    2    0    0 -0.17480864365E+01 -0.11656571154E+02  0.41769507788E+02  0.43400728543E+02  0.00000000000E+00 0.  1.
         11    1    3    3    0    0 -0.67085333859E+00  0.93624340938E-01 -0.30404147349E+02  0.30411691600E+02  0.51100000000E-03 0. -1.
        -11    1    3    3    0    0 -0.70110731528E+00  0.33388362444E+01 -0.64565440408E+01  0.73024886269E+01  0.51100000000E-03 0.  1.
         12    1    3    3    0    0  0.31200470904E+01  0.82241105684E+01 -0.49088163980E+01  0.10073091229E+02  0.00000000000E+00 0. -1.
</event>
<event>
 7    1  0.2442667E-009  0.4778727E+02  0.7816164E-02  0.1312668E+00
        -11   -1    0    0    0    0  0.00000000000E+00  0.00000000000E+00  0.45593999997E+02  0.45594000000E+02  0.51100000000E-03 0.  1.
         11   -1    0    0    0    0 -0.00000000000E+00 -0.00000000000E+00 -0.45593999997E+02  0.45594000000E+02  0.51100000000E-03 0. -1.
    9900012    2    1    2    0    0  0.26913266863E+02  0.14482930943E+02 -0.30814676482E+02  0.47787268340E+02  0.19999987668E+02 0.  0.
        -12    1    1    2    0    0 -0.26913266863E+02 -0.14482930943E+02  0.30814676482E+02  0.43400731660E+02  0.00000000000E+00 0.  1.
         11    1    3    3    0    0  0.36588944996E+01  0.61535625445E+01 -0.66070076227E+01  0.97419911176E+01  0.51100000000E-03 0. -1.
        -11    1    3    3    0    0  0.20435389674E+02  0.12621456741E+02 -0.18158177248E+02  0.30110226214E+02  0.51100000000E-03 0.  1.
        -12    1    3    3    0    0  0.28189826892E+01 -0.42920883430E+01 -0.60494916114E+01  0.79350510081E+01  0.00000000000E+00 0.  1.
</event>
<event>
 7    1  0.2442667E-009  0.4778727E+02  0.7816164E-02  0.1312668E+00
        -11   -1    0    0    0    0  0.00000000000E+00  0.00000000000E+00  0.45593999997E+02  0.45594000000E+02  0.51100000000E-03 0.  1.
         11   -1    0    0    0    0 -0.00000000000E+00 -0.00000000000E+00 -0.45593999997E+02  0.45594000000E+02  0.51100000000E-03 0. -1.
    9900012    2    1    2    0    0  0.31805906647E+02  0.72638879642E+01 -0.28622431380E+02  0.47787270235E+02  0.19999996310E+02 0.  0.
        -12    1    1    2    0    0 -0.31805906647E+02 -0.72638879642E+01  0.28622431380E+02  0.43400729765E+02  0.00000000000E+00 0.  1.
         11    1    3    3    0    0  0.19342354680E+02  0.76325189998E+01 -0.13014249347E+02  0.24530648527E+02  0.51100000000E-03 0.  1.
        -11    1    3    3    0    0  0.98308293105E+01  0.51664022595E+01 -0.97594190332E+01  0.14784558748E+02  0.51100000000E-03 0. -1.
        -12    1    3    3    0    0  0.26327226565E+01 -0.55350332952E+01 -0.58487630004E+01  0.84720629601E+01  0.00000000000E+00 0.  1.
</event>
<event>
 7    1  0.2442667E-009  0.4778727E+02  0.7816164E-02  0.1312668E+00
        -11   -1    0    0    0    0  0.00000000000E+00  0.00000000000E+00  0.45593999997E+02  0.45594000000E+02  0.51100000000E-03 0.  1.
         11   -1    0    0    0    0 -0.00000000000E+00 -0.00000000000E+00 -0.45593999997E+02  0.45594000000E+02  0.51100000000E-03 0. -1.
    9900012    2    1    2    0    0  0.10202274364E+02 -0.22660956158E+02 -0.35581146849E+02  0.47787270199E+02  0.19999996144E+02 0.  0.
        -12    1    1    2    0    0 -0.10202274364E+02  0.22660956158E+02  0.35581146849E+02  0.43400729801E+02  0.00000000000E+00 0.  1.
         11    1    3    3    0    0  0.46759094277E+00 -0.38819520739E+01 -0.92112533110E+01  0.10006766761E+02  0.51100000000E-03 0. -1.
        -11    1    3    3    0    0  0.10893935709E+02 -0.21156106111E+02 -0.25754815394E+02  0.35065213207E+02  0.51100000000E-03 0.  1.
        -12    1    3    3    0    0 -0.11592522878E+01  0.23771020266E+01 -0.61507814359E+00  0.27152902302E+01  0.00000000000E+00 0.  1.
</event>
<event>
 7    1  0.2442667E-009  0.4778727E+02  0.7816164E-02  0.1312668E+00
        -11   -1    0    0    0    0  0.00000000000E+00  0.00000000000E+00  0.45593999997E+02  0.45594000000E+02  0.51100000000E-03 0.  1.
         11   -1    0    0    0    0 -0.00000000000E+00 -0.00000000000E+00 -0.45593999997E+02  0.45594000000E+02  0.51100000000E-03 0. -1.
    9900012    2    1    2    0    0 -0.19227606323E+02  0.13498717800E+02 -0.36492563090E+02  0.47787269729E+02  0.19999994003E+02 0.  0.
        -12    1    1    2    0    0  0.19227606323E+02 -0.13498717800E+02  0.36492563090E+02  0.43400730271E+02  0.00000000000E+00 0.  1.
         11    1    3    3    0    0 -0.70609951176E+01  0.65430993337E+01 -0.26214671157E+02  0.27926309908E+02  0.51100000000E-03 0. -1.
        -11    1    3    3    0    0  0.13036721514E+01  0.18640433617E+01 -0.28844181847E+01  0.36734299038E+01  0.51100000000E-03 0.  1.
         12    1    3    3    0    0 -0.13470283357E+02  0.50915751045E+01 -0.73934737484E+01  0.16187529917E+02  0.00000000000E+00 0. -1.
</event>
<event>
 7    1  0.2442667E-009  0.4778727E+02  0.7816164E-02  0.1312668E+00
        -11   -1    0    0    0    0  0.00000000000E+00  0.00000000000E+00  0.45593999997E+02  0.45594000000E+02  0.51100000000E-03 0.  1.
         11   -1    0    0    0    0 -0.00000000000E+00 -0.00000000000E+00 -0.45593999997E+02  0.45594000000E+02  0.51100000000E-03 0. -1.
    9900012    2    1    2    0    0  0.40674870398E+02  0.87413779350E+01 -0.12359871998E+02  0.47787271827E+02  0.20000003570E+02 0.  0.
        -12    1    1    2    0    0 -0.40674870398E+02 -0.87413779350E+01  0.12359871998E+02  0.43400728173E+02  0.00000000000E+00 0.  1.
         11    1    3    3    0    0  0.33574418815E+02  0.27311275662E+01 -0.30011896079E+01  0.33818749177E+02  0.51100000000E-03 0. -1.
        -11    1    3    3    0    0  0.46047626048E+01  0.63546654040E+01 -0.69413083866E+01  0.10476992575E+02  0.51100000000E-03 0.  1.
         12    1    3    3    0    0  0.24956889782E+01 -0.34441503518E+00 -0.24173740039E+01  0.34915300754E+01  0.00000000000E+00 0. -1.
</event>
<event>
 7    1  0.2442667E-009  0.4778726E+02  0.7816164E-02  0.1312668E+00
        -11   -1    0    0    0    0  0.00000000000E+00  0.00000000000E+00  0.45593999997E+02  0.45594000000E+02  0.51100000000E-03 0.  1.
         11   -1    0    0    0    0 -0.00000000000E+00 -0.00000000000E+00 -0.45593999997E+02  0.45594000000E+02  0.51100000000E-03 0. -1.
    9900012    2    1    2    0    0  0.42283576396E+02  0.87112989036E+01 -0.44538482449E+01  0.47787258927E+02  0.19999944753E+02 0.  0.
        -12    1    1    2    0    0 -0.42283576396E+02 -0.87112989036E+01  0.44538482449E+01  0.43400741073E+02  0.00000000000E+00 0.  1.
         11    1    3    3    0    0  0.22091908201E+02 -0.24723887298E+01 -0.16031026295E+01  0.22287553753E+02  0.51100000000E-03 0. -1.
        -11    1    3    3    0    0 -0.14032835490E+00  0.22592332188E+01 -0.23881778827E+01  0.32904742280E+01  0.51100000000E-03 0.  1.
         12    1    3    3    0    0  0.20331996551E+02  0.89244544146E+01 -0.46256773267E+00  0.22209230947E+02  0.00000000000E+00 0. -1.
</event>
<event>
 7    1  0.2442667E-009  0.4778728E+02  0.7816164E-02  0.1312668E+00
        -11   -1    0    0    0    0  0.00000000000E+00  0.00000000000E+00  0.45593999997E+02  0.45594000000E+02  0.51100000000E-03 0.  1.
         11   -1    0    0    0    0 -0.00000000000E+00 -0.00000000000E+00 -0.45593999997E+02  0.45594000000E+02  0.51100000000E-03 0. -1.
    9900012    2    1    2    0    0 -0.30224041885E+01  0.27868408841E+02 -0.33133662541E+02  0.47787277290E+02  0.20000028476E+02 0.  0.
        -12    1    1    2    0    0  0.30224041885E+01 -0.27868408841E+02  0.33133662541E+02  0.43400722710E+02  0.00000000000E+00 0.  1.
         11    1    3    3    0    0 -0.38376991293E+01  0.81464731372E+01 -0.23344614953E+02  0.25021271085E+02  0.51100000000E-03 0. -1.
        -11    1    3    3    0    0  0.17675888505E+01  0.60924416699E+01 -0.75919578611E+00  0.63889431323E+01  0.51100000000E-03 0.  1.
         12    1    3    3    0    0 -0.95229390972E+00  0.13629494034E+02 -0.90298518022E+01  0.16377063072E+02  0.00000000000E+00 0. -1.
</event>
<event>
 7    1  0.2442667E-009  0.4778727E+02  0.7816164E-02  0.1312668E+00
        -11   -1    0    0    0    0  0.00000000000E+00  0.00000000000E+00  0.45593999997E+02  0.45594000000E+02  0.51100000000E-03 0.  1.
         11   -1    0    0    0    0 -0.00000000000E+00 -0.00000000000E+00 -0.45593999997E+02  0.45594000000E+02  0.51100000000E-03 0. -1.
    9900012    2    1    2    0    0 -0.23033606101E+02  0.24477162941E+02 -0.27458056346E+02  0.47787269892E+02  0.19999994743E+02 0.  0.
        -12    1    1    2    0    0  0.23033606101E+02 -0.24477162941E+02  0.27458056346E+02  0.43400730108E+02  0.00000000000E+00 0.  1.
         11    1    3    3    0    0 -0.18717699366E+02  0.24461743753E+02 -0.23154312434E+02  0.38533769106E+02  0.51100000000E-03 0. -1.
        -11    1    3    3    0    0  0.16200312557E+01 -0.91715583367E+00 -0.22118812221E+01  0.28910369929E+01  0.51100000000E-03 0.  1.
         12    1    3    3    0    0 -0.59359379903E+01  0.93257502222E+00 -0.20918626899E+01  0.63624637924E+01  0.00000000000E+00 0. -1.
</event>
<event>
 7    1  0.2442667E-009  0.4778726E+02  0.7816164E-02  0.1312668E+00
        -11   -1    0    0    0    0  0.00000000000E+00  0.00000000000E+00  0.45593999997E+02  0.45594000000E+02  0.51100000000E-03 0. -1.
         11   -1    0    0    0    0 -0.00000000000E+00 -0.00000000000E+00 -0.45593999997E+02  0.45594000000E+02  0.51100000000E-03 0.  1.
    9900012    2    1    2    0    0 -0.16378692047E+02  0.39591810167E+02  0.69174415796E+01  0.47787262869E+02  0.19999962727E+02 0.  0.
        -12    1    1    2    0    0  0.16378692047E+02 -0.39591810167E+02 -0.69174415796E+01  0.43400737131E+02  0.00000000000E+00 0.  1.
         11    1    3    3    0    0 -0.14723846574E+02  0.15625813319E+02  0.78888109750E+01  0.22873369640E+02  0.51100000000E-03 0. -1.
        -11    1    3    3    0    0  0.89194448933E+00  0.33851011029E+00 -0.63710220348E+00  0.11471937699E+01  0.51100000000E-03 0.  1.
         12    1    3    3    0    0 -0.25467899623E+01  0.23627486738E+02 -0.33426719184E+00  0.23766699460E+02  0.00000000000E+00 0. -1.
</event>
<event>
 7    1  0.2442667E-009  0.4778728E+02  0.7816164E-02  0.1312668E+00
        -11   -1    0    0    0    0  0.00000000000E+00  0.00000000000E+00  0.45593999997E+02  0.45594000000E+02  0.51100000000E-03 0. -1.
         11   -1    0    0    0    0 -0.00000000000E+00 -0.00000000000E+00 -0.45593999997E+02  0.45594000000E+02  0.51100000000E-03 0.  1.
    9900012    2    1    2    0    0  0.33939685539E+02  0.23839504160E+02  0.12782738998E+02  0.47787278469E+02  0.20000033854E+02 0.  0.
        -12    1    1    2    0    0 -0.33939685539E+02 -0.23839504160E+02 -0.12782738998E+02  0.43400721531E+02  0.00000000000E+00 0.  1.
         11    1    3    3    0    0  0.49242012043E+01  0.75164680690E+01  0.33365141022E+01  0.95852687155E+01  0.51100000000E-03 0. -1.
        -11    1    3    3    0    0 -0.86645593616E+00  0.46582512824E+01  0.25887432581E+01  0.53992261312E+01  0.51100000000E-03 0.  1.
        -12    1    3    3    0    0  0.29881940271E+02  0.11664784809E+02  0.68574816376E+01  0.32802783623E+02  0.00000000000E+00 0.  1.
</event>
<event>
 7    1  0.2442667E-009  0.4778727E+02  0.7816164E-02  0.1312668E+00
        -11   -1    0    0    0    0  0.00000000000E+00  0.00000000000E+00  0.45593999997E+02  0.45594000000E+02  0.51100000000E-03 0. -1.
         11   -1    0    0    0    0 -0.00000000000E+00 -0.00000000000E+00 -0.45593999997E+02  0.45594000000E+02  0.51100000000E-03 0.  1.
    9900012    2    1    2    0    0 -0.28111024459E+02  0.14218998653E+02 -0.29853205102E+02  0.47787268743E+02  0.19999989506E+02 0.  0.
        -12    1    1    2    0    0  0.28111024459E+02 -0.14218998653E+02  0.29853205102E+02  0.43400731257E+02  0.00000000000E+00 0.  1.
         11    1    3    3    0    0 -0.16908349726E+02  0.43192594005E+01 -0.12013763930E+02  0.21186760400E+02  0.51100000000E-03 0. -1.
        -11    1    3    3    0    0 -0.21432915939E+01  0.67171088953E+01 -0.87201697407E+00  0.71044820101E+01  0.51100000000E-03 0.  1.
        -12    1    3    3    0    0 -0.90593831384E+01  0.31826303570E+01 -0.16967424198E+02  0.19496026332E+02  0.00000000000E+00 0.  1.
</event>
<event>
 7    1  0.2442667E-009  0.4778727E+02  0.7816164E-02  0.1312668E+00
        -11   -1    0    0    0    0  0.00000000000E+00  0.00000000000E+00  0.45593999997E+02  0.45594000000E+02  0.51100000000E-03 0. -1.
         11   -1    0    0    0    0 -0.00000000000E+00 -0.00000000000E+00 -0.45593999997E+02  0.45594000000E+02  0.51100000000E-03 0.  1.
    9900012    2    1    2    0    0 -0.84115154829E+01  0.31448482488E+02  0.28703013325E+02  0.47787267086E+02  0.19999981953E+02 0.  0.
        -12    1    1    2    0    0  0.84115154829E+01 -0.31448482488E+02 -0.28703013325E+02  0.43400732914E+02  0.00000000000E+00 0.  1.
         11    1    3    3    0    0 -0.11584656043E+02  0.18014919747E+02  0.13933011229E+02  0.25551328563E+02  0.51100000000E-03 0. -1.
        -11    1    3    3    0    0  0.45533203449E+01  0.14253708667E+02  0.12772947546E+02  0.19673564146E+02  0.51100000000E-03 0.  1.
         12    1    3    3    0    0 -0.13801797848E+01 -0.82014592628E+00  0.19970545488E+01  0.25623743773E+01  0.00000000000E+00 0. -1.
</event>
<event>
 7    1  0.2442667E-009  0.4778727E+02  0.7816164E-02  0.1312668E+00
        -11   -1    0    0    0    0  0.00000000000E+00  0.00000000000E+00  0.45593999997E+02  0.45594000000E+02  0.51100000000E-03 0.  1.
         11   -1    0    0    0    0 -0.00000000000E+00 -0.00000000000E+00 -0.45593999997E+02  0.45594000000E+02  0.51100000000E-03 0. -1.
    9900012    2    1    2    0    0  0.39508521466E+02  0.17890531174E+02 -0.16214989435E+01  0.47787266908E+02  0.19999981140E+02 0.  0.
        -12    1    1    2    0    0 -0.39508521466E+02 -0.17890531174E+02  0.16214989435E+01  0.43400733092E+02  0.00000000000E+00 0.  1.
         11    1    3    3    0    0  0.12242072016E+02  0.10463989297E+02 -0.58491860337E+01  0.17134070642E+02  0.51100000000E-03 0. -1.
        -11    1    3    3    0    0  0.17720868256E+02  0.56692628375E+01  0.79831591383E+01  0.20246000666E+02  0.51100000000E-03 0.  1.
        -12    1    3    3    0    0  0.95455811941E+01  0.17572790396E+01 -0.37554720482E+01  0.10407195600E+02  0.00000000000E+00 0.  1.
</event>
<event>
 7    1  0.2442667E-009  0.4778727E+02  0.7816164E-02  0.1312668E+00
        -11   -1    0    0    0    0  0.00000000000E+00  0.00000000000E+00  0.45593999997E+02  0.45594000000E+02  0.51100000000E-03 0. -1.
         11   -1    0    0    0    0 -0.00000000000E+00 -0.00000000000E+00 -0.45593999997E+02  0.45594000000E+02  0.51100000000E-03 0.  1.
    9900012    2    1    2    0    0 -0.26301476883E+02  0.38800693678E+01  0.34304529194E+02  0.47787270193E+02  0.19999996119E+02 0.  0.
        -12    1    1    2    0    0  0.26301476883E+02 -0.38800693678E+01 -0.34304529194E+02  0.43400729807E+02  0.00000000000E+00 0.  1.
         11    1    3    3    0    0 -0.51130364456E+01  0.11418785024E+01  0.82679194702E+01  0.97880294664E+01  0.51100000000E-03 0. -1.
        -11    1    3    3    0    0 -0.66912912290E+01 -0.69156713243E+01  0.13325664186E+02  0.16436946628E+02  0.51100000000E-03 0.  1.
        -12    1    3    3    0    0 -0.14497149208E+02  0.96538621897E+01  0.12710945538E+02  0.21562294099E+02  0.00000000000E+00 0.  1.
</event>
<event>
 7    1  0.2442667E-009  0.4778728E+02  0.7816164E-02  0.1312668E+00
        -11   -1    0    0    0    0  0.00000000000E+00  0.00000000000E+00  0.45593999997E+02  0.45594000000E+02  0.51100000000E-03 0. -1.
         11   -1    0    0    0    0 -0.00000000000E+00 -0.00000000000E+00 -0.45593999997E+02  0.45594000000E+02  0.51100000000E-03 0.  1.
    9900012    2    1    2    0    0 -0.14436350874E+02 -0.12631259365E+02  0.38931553692E+02  0.47787276359E+02  0.20000024230E+02 0.  0.
        -12    1    1    2    0    0  0.14436350874E+02  0.12631259365E+02 -0.38931553692E+02  0.43400723641E+02  0.00000000000E+00 0.  1.
         11    1    3    3    0    0 -0.38320168400E+01 -0.61045792850E+01  0.78515812199E+01  0.10658216043E+02  0.51100000000E-03 0. -1.
        -11    1    3    3    0    0 -0.49151192395E+01  0.90174922977E+00  0.35363693308E+00  0.50096515002E+01  0.51100000000E-03 0.  1.
        -12    1    3    3    0    0 -0.56892147944E+01 -0.74284293097E+01  0.30726335539E+02  0.32119408815E+02  0.00000000000E+00 0.  1.
</event>
<event>
 7    1  0.2442667E-009  0.4778727E+02  0.7816164E-02  0.1312668E+00
        -11   -1    0    0    0    0  0.00000000000E+00  0.00000000000E+00  0.45593999997E+02  0.45594000000E+02  0.51100000000E-03 0.  1.
         11   -1    0    0    0    0 -0.00000000000E+00 -0.00000000000E+00 -0.45593999997E+02  0.45594000000E+02  0.51100000000E-03 0. -1.
    9900012    2    1    2    0    0  0.30059636634E+02  0.28858527271E+02 -0.12133704756E+02  0.47787272565E+02  0.20000006931E+02 0.  0.
        -12    1    1    2    0    0 -0.30059636634E+02 -0.28858527271E+02  0.12133704756E+02  0.43400727435E+02  0.00000000000E+00 0.  1.
         11    1    3    3    0    0  0.10344214464E+02  0.81470462842E+00  0.16131148449E+00  0.10377501537E+02  0.51100000000E-03 0. -1.
        -11    1    3    3    0    0  0.10413122827E+02  0.95405400834E+01 -0.80944757612E+01  0.16278070223E+02  0.51100000000E-03 0.  1.
         12    1    3    3    0    0  0.93022993437E+01  0.18503282559E+02 -0.42005404793E+01  0.21131700804E+02  0.00000000000E+00 0. -1.
</event>
<event>
 7    1  0.2442667E-009  0.4778728E+02  0.7816164E-02  0.1312668E+00
        -11   -1    0    0    0    0  0.00000000000E+00  0.00000000000E+00  0.45593999997E+02  0.45594000000E+02  0.51100000000E-03 0.  1.
         11   -1    0    0    0    0 -0.00000000000E+00 -0.00000000000E+00 -0.45593999997E+02  0.45594000000E+02  0.51100000000E-03 0. -1.
    9900012    2    1    2    0    0 -0.16547742311E+02  0.44338324510E+01 -0.39876511016E+02  0.47787276773E+02  0.20000026120E+02 0.  0.
        -12    1    1    2    0    0  0.16547742311E+02 -0.44338324510E+01  0.39876511016E+02  0.43400723227E+02  0.00000000000E+00 0.  1.
         11    1    3    3    0    0 -0.15604997832E+02 -0.30067469984E+01 -0.30693197074E+02  0.34563403069E+02  0.51100000000E-03 0. -1.
        -11    1    3    3    0    0  0.20884119515E+01  0.30348843099E+01 -0.17810062615E+01  0.40919397378E+01  0.51100000000E-03 0.  1.
        -12    1    3    3    0    0 -0.30311564313E+01  0.44056951396E+01 -0.74023076802E+01  0.91319339663E+01  0.00000000000E+00 0.  1.
</event>
<event>
 7    1  0.2442667E-009  0.4778727E+02  0.7816164E-02  0.1312668E+00
        -11   -1    0    0    0    0  0.00000000000E+00  0.00000000000E+00  0.45593999997E+02  0.45594000000E+02  0.51100000000E-03 0.  1.
         11   -1    0    0    0    0 -0.00000000000E+00 -0.00000000000E+00 -0.45593999997E+02  0.45594000000E+02  0.51100000000E-03 0. -1.
    9900012    2    1    2    0    0 -0.12942844400E+02 -0.39036436728E+02 -0.13865877369E+02  0.47787272255E+02  0.20000005519E+02 0.  0.
        -12    1    1    2    0    0  0.12942844400E+02  0.39036436728E+02  0.13865877369E+02  0.43400727745E+02  0.00000000000E+00 0.  1.
         11    1    3    3    0    0 -0.41038624377E+01 -0.31458354187E+02 -0.71763181183E+01  0.32526439661E+02  0.51100000000E-03 0. -1.
        -11    1    3    3    0    0 -0.63914548520E+01 -0.36026248953E+01 -0.75344327197E+01  0.10516524042E+02  0.51100000000E-03 0.  1.
         12    1    3    3    0    0 -0.24475271103E+01 -0.39754576461E+01  0.84487346890E+00  0.47443085513E+01  0.00000000000E+00 0. -1.
</event>
<event>
 7    1  0.2442667E-009  0.4778728E+02  0.7816164E-02  0.1312668E+00
        -11   -1    0    0    0    0  0.00000000000E+00  0.00000000000E+00  0.45593999997E+02  0.45594000000E+02  0.51100000000E-03 0. -1.
         11   -1    0    0    0    0 -0.00000000000E+00 -0.00000000000E+00 -0.45593999997E+02  0.45594000000E+02  0.51100000000E-03 0.  1.
    9900012    2    1    2    0    0 -0.88573110311E+01 -0.37581765983E+02  0.19818722426E+02  0.47787275908E+02  0.20000022176E+02 0.  0.
        -12    1    1    2    0    0  0.88573110311E+01  0.37581765983E+02 -0.19818722426E+02  0.43400724092E+02  0.00000000000E+00 0.  1.
         11    1    3    3    0    0 -0.49802114542E+01 -0.11126081983E+02  0.20765618272E+01  0.12365448463E+02  0.51100000000E-03 0. -1.
        -11    1    3    3    0    0  0.17065191338E+01 -0.14998413933E+02  0.20937604893E+01  0.15239700171E+02  0.51100000000E-03 0.  1.
        -12    1    3    3    0    0 -0.55836187108E+01 -0.11457270067E+02  0.15648400110E+02  0.20182127274E+02  0.00000000000E+00 0.  1.
</event>
<event>
 7    1  0.2442667E-009  0.4778727E+02  0.7816164E-02  0.1312668E+00
        -11   -1    0    0    0    0  0.00000000000E+00  0.00000000000E+00  0.45593999997E+02  0.45594000000E+02  0.51100000000E-03 0. -1.
         11   -1    0    0    0    0 -0.00000000000E+00 -0.00000000000E+00 -0.45593999997E+02  0.45594000000E+02  0.51100000000E-03 0.  1.
    9900012    2    1    2    0    0 -0.19072419844E+02 -0.23822108232E+02  0.30860542681E+02  0.47787272657E+02  0.20000007353E+02 0.  0.
        -12    1    1    2    0    0  0.19072419844E+02  0.23822108232E+02 -0.30860542681E+02  0.43400727343E+02  0.00000000000E+00 0.  1.
         11    1    3    3    0    0  0.26439623474E+01 -0.17192326811E+01  0.22517734620E-01  0.31538556111E+01  0.51100000000E-03 0. -1.
        -11    1    3    3    0    0 -0.45232886495E+01 -0.30052928181E+01  0.15022457340E+01  0.56345956054E+01  0.51100000000E-03 0.  1.
         12    1    3    3    0    0 -0.17193093542E+02 -0.19097582733E+02  0.29335779212E+02  0.38998821441E+02  0.00000000000E+00 0. -1.
</event>
<event>
 7    1  0.2442667E-009  0.4778727E+02  0.7816164E-02  0.1312668E+00
        -11   -1    0    0    0    0  0.00000000000E+00  0.00000000000E+00  0.45593999997E+02  0.45594000000E+02  0.51100000000E-03 0.  1.
         11   -1    0    0    0    0 -0.00000000000E+00 -0.00000000000E+00 -0.45593999997E+02  0.45594000000E+02  0.51100000000E-03 0. -1.
    9900012    2    1    2    0    0 -0.34224615699E+02 -0.13568359104E+02 -0.22982571247E+02  0.47787271093E+02  0.20000000222E+02 0.  0.
        -12    1    1    2    0    0  0.34224615699E+02  0.13568359104E+02  0.22982571247E+02  0.43400728907E+02  0.00000000000E+00 0.  1.
         11    1    3    3    0    0 -0.61113744162E+01  0.26763104097E+00 -0.58012557304E+01  0.84306044824E+01  0.51100000000E-03 0.  1.
        -11    1    3    3    0    0 -0.17562442665E+00 -0.18171022428E+01 -0.70773080896E+01  0.73089667229E+01  0.51100000000E-03 0. -1.
        -12    1    3    3    0    0 -0.27937616856E+02 -0.12018887903E+02 -0.10104007427E+02  0.32047699888E+02  0.00000000000E+00 0.  1.
</event>
<event>
 7    1  0.2442667E-009  0.4778727E+02  0.7816164E-02  0.1312668E+00
        -11   -1    0    0    0    0  0.00000000000E+00  0.00000000000E+00  0.45593999997E+02  0.45594000000E+02  0.51100000000E-03 0.  1.
         11   -1    0    0    0    0 -0.00000000000E+00 -0.00000000000E+00 -0.45593999997E+02  0.45594000000E+02  0.51100000000E-03 0. -1.
    9900012    2    1    2    0    0 -0.41429727404E+02  0.49931056691E+01 -0.11927690721E+02  0.47787271631E+02  0.20000002677E+02 0.  0.
        -12    1    1    2    0    0  0.41429727404E+02 -0.49931056691E+01  0.11927690721E+02  0.43400728369E+02  0.00000000000E+00 0.  1.
         11    1    3    3    0    0 -0.18467251747E+02 -0.54327298133E+01 -0.54804778917E+01  0.20014734035E+02  0.51100000000E-03 0. -1.
        -11    1    3    3    0    0 -0.58611995251E+01  0.74554491976E+01 -0.37908318438E+01  0.10213118473E+02  0.51100000000E-03 0.  1.
        -12    1    3    3    0    0 -0.17101276132E+02  0.29703862848E+01 -0.26563809852E+01  0.17559419124E+02  0.00000000000E+00 0.  1.
</event>
<event>
 7    1  0.2442667E-009  0.4778727E+02  0.7816164E-02  0.1312668E+00
        -11   -1    0    0    0    0  0.00000000000E+00  0.00000000000E+00  0.45593999997E+02  0.45594000000E+02  0.51100000000E-03 0.  1.
         11   -1    0    0    0    0 -0.00000000000E+00 -0.00000000000E+00 -0.45593999997E+02  0.45594000000E+02  0.51100000000E-03 0. -1.
    9900012    2    1    2    0    0  0.26602790616E+02  0.83210238456E+01 -0.33266731212E+02  0.47787270606E+02  0.19999997999E+02 0.  0.
        -12    1    1    2    0    0 -0.26602790616E+02 -0.83210238456E+01  0.33266731212E+02  0.43400729394E+02  0.00000000000E+00 0.  1.
         11    1    3    3    0    0  0.11418600680E+02  0.66308477091E+01 -0.25785234858E+02  0.28969482560E+02  0.51100000000E-03 0. -1.
        -11    1    3    3    0    0  0.18952679356E+01 -0.12323132696E+00  0.17122354338E+01  0.25571423405E+01  0.51100000000E-03 0.  1.
        -12    1    3    3    0    0  0.13288922001E+02  0.18134074634E+01 -0.91937317880E+01  0.16260645705E+02  0.00000000000E+00 0.  1.
</event>
<event>
 7    1  0.2442667E-009  0.4778728E+02  0.7816164E-02  0.1312668E+00
        -11   -1    0    0    0    0  0.00000000000E+00  0.00000000000E+00  0.45593999997E+02  0.45594000000E+02  0.51100000000E-03 0. -1.
         11   -1    0    0    0    0 -0.00000000000E+00 -0.00000000000E+00 -0.45593999997E+02  0.45594000000E+02  0.51100000000E-03 0.  1.
    9900012    2    1    2    0    0  0.29874956211E+02 -0.21852470677E+02 -0.22662281316E+02  0.47787280216E+02  0.20000041817E+02 0.  0.
        -12    1    1    2    0    0 -0.29874956211E+02  0.21852470677E+02  0.22662281316E+02  0.43400719784E+02  0.00000000000E+00 0.  1.
         11    1    3    3    0    0  0.14195615568E+02 -0.13703334045E+02 -0.28401024617E+01  0.19933967180E+02  0.51100000000E-03 0. -1.
        -11    1    3    3    0    0  0.12997470203E+02 -0.24724912971E+01 -0.14429549057E+02  0.19577010271E+02  0.51100000000E-03 0.  1.
         12    1    3    3    0    0  0.26818704400E+01 -0.56766453353E+01 -0.53926297972E+01  0.82763027644E+01  0.00000000000E+00 0. -1.
</event>
<event>
 7    1  0.2442667E-009  0.4778727E+02  0.7816164E-02  0.1312668E+00
        -11   -1    0    0    0    0  0.00000000000E+00  0.00000000000E+00  0.45593999997E+02  0.45594000000E+02  0.51100000000E-03 0.  1.
         11   -1    0    0    0    0 -0.00000000000E+00 -0.00000000000E+00 -0.45593999997E+02  0.45594000000E+02  0.51100000000E-03 0. -1.
    9900012    2    1    2    0    0  0.19810273045E+02 -0.18361565121E+02 -0.33971010452E+02  0.47787267945E+02  0.19999985868E+02 0.  0.
        -12    1    1    2    0    0 -0.19810273045E+02  0.18361565121E+02  0.33971010452E+02  0.43400732055E+02  0.00000000000E+00 0.  1.
         11    1    3    3    0    0  0.12604438045E+02 -0.93874702856E+01 -0.11172288416E+02  0.19282543544E+02  0.51100000000E-03 0. -1.
        -11    1    3    3    0    0  0.39230742428E+01 -0.11371258030E+02 -0.20672123582E+02  0.23917205404E+02  0.51100000000E-03 0.  1.
        -12    1    3    3    0    0  0.32827607569E+01  0.23971631940E+01 -0.21265984534E+01  0.45875189970E+01  0.00000000000E+00 0.  1.
</event>
<event>
 7    1  0.2442667E-009  0.4778728E+02  0.7816164E-02  0.1312668E+00
        -11   -1    0    0    0    0  0.00000000000E+00  0.00000000000E+00  0.45593999997E+02  0.45594000000E+02  0.51100000000E-03 0.  1.
         11   -1    0    0    0    0 -0.00000000000E+00 -0.00000000000E+00 -0.45593999997E+02  0.45594000000E+02  0.51100000000E-03 0. -1.
    9900012    2    1    2    0    0 -0.34388835890E+02  0.24744133171E+02  0.94211605586E+01  0.47787280806E+02  0.20000044508E+02 0.  0.
        -12    1    1    2    0    0  0.34388835890E+02 -0.24744133171E+02 -0.94211605586E+01  0.43400719194E+02  0.00000000000E+00 0.  1.
         11    1    3    3    0    0 -0.28766539303E+02  0.19087386217E+02  0.14658079406E+02  0.37506018027E+02  0.51100000000E-03 0. -1.
        -11    1    3    3    0    0 -0.59525922020E+01  0.51212915612E+01 -0.55127276115E+01  0.95943289061E+01  0.51100000000E-03 0.  1.
         12    1    3    3    0    0  0.33029561551E+00  0.53545539338E+00  0.27580876414E+00  0.68693387331E+00  0.00000000000E+00 0. -1.
</event>
<event>
 7    1  0.2442667E-009  0.4778727E+02  0.7816164E-02  0.1312668E+00
        -11   -1    0    0    0    0  0.00000000000E+00  0.00000000000E+00  0.45593999997E+02  0.45594000000E+02  0.51100000000E-03 0.  1.
         11   -1    0    0    0    0 -0.00000000000E+00 -0.00000000000E+00 -0.45593999997E+02  0.45594000000E+02  0.51100000000E-03 0. -1.
    9900012    2    1    2    0    0 -0.57632465090E+01 -0.32512225784E+02  0.28166709338E+02  0.47787270160E+02  0.19999995965E+02 0.  0.
        -12    1    1    2    0    0  0.57632465090E+01  0.32512225784E+02 -0.28166709338E+02  0.43400729840E+02  0.00000000000E+00 0.  1.
         11    1    3    3    0    0 -0.47812203664E+01 -0.32805441727E+02  0.22893367900E+02  0.40288501699E+02  0.51100000000E-03 0. -1.
        -11    1    3    3    0    0  0.16194102338E+01  0.52463328316E+00  0.44434790648E+01  0.47583858658E+01  0.51100000000E-03 0.  1.
        -12    1    3    3    0    0 -0.26014363765E+01 -0.23141734007E+00  0.82986237345E+00  0.27403825946E+01  0.00000000000E+00 0.  1.
</event>
<event>
 7    1  0.2442667E-009  0.4778725E+02  0.7816164E-02  0.1312668E+00
        -11   -1    0    0    0    0  0.00000000000E+00  0.00000000000E+00  0.45593999997E+02  0.45594000000E+02  0.51100000000E-03 0.  1.
         11   -1    0    0    0    0 -0.00000000000E+00 -0.00000000000E+00 -0.45593999997E+02  0.45594000000E+02  0.51100000000E-03 0. -1.
    9900012    2    1    2    0    0  0.24687680714E+02  0.34144958237E+02 -0.10405068801E+02  0.47787248753E+02  0.19999898366E+02 0.  0.
        -12    1    1    2    0    0 -0.24687680714E+02 -0.34144958237E+02  0.10405068801E+02  0.43400751247E+02  0.00000000000E+00 0.  1.
         11    1    3    3    0    0  0.97867922152E+01  0.25878660603E+02 -0.13258192476E+01  0.27699172793E+02  0.51100000000E-03 0. -1.
        -11    1    3    3    0    0  0.10796630275E+02  0.79603434245E+01 -0.50633594071E+01  0.14337778819E+02  0.51100000000E-03 0.  1.
         12    1    3    3    0    0  0.41042582241E+01  0.30595420931E+00 -0.40158901463E+01  0.57502971415E+01  0.00000000000E+00 0. -1.
</event>
<event>
 7    1  0.2442667E-009  0.4778727E+02  0.7816164E-02  0.1312668E+00
        -11   -1    0    0    0    0  0.00000000000E+00  0.00000000000E+00  0.45593999997E+02  0.45594000000E+02  0.51100000000E-03 0.  1.
         11   -1    0    0    0    0 -0.00000000000E+00 -0.00000000000E+00 -0.45593999997E+02  0.45594000000E+02  0.51100000000E-03 0. -1.
    9900012    2    1    2    0    0 -0.34940657833E+02  0.22195554961E+02  0.13043421467E+02  0.47787273354E+02  0.20000010528E+02 0.  0.
        -12    1    1    2    0    0  0.34940657833E+02 -0.22195554961E+02 -0.13043421467E+02  0.43400726646E+02  0.00000000000E+00 0.  1.
         11    1    3    3    0    0 -0.71621685984E+01  0.13336187413E+02  0.29191931980E+01  0.15416622294E+02  0.51100000000E-03 0. -1.
        -11    1    3    3    0    0 -0.22332650534E+02  0.69224699724E+01  0.12017357819E+02  0.26288491010E+02  0.51100000000E-03 0.  1.
         12    1    3    3    0    0 -0.54458387013E+01  0.19368975758E+01 -0.18931295498E+01  0.60821600499E+01  0.00000000000E+00 0. -1.
</event>
<event>
 7    1  0.2442667E-009  0.4778728E+02  0.7816164E-02  0.1312668E+00
        -11   -1    0    0    0    0  0.00000000000E+00  0.00000000000E+00  0.45593999997E+02  0.45594000000E+02  0.51100000000E-03 0.  1.
         11   -1    0    0    0    0 -0.00000000000E+00 -0.00000000000E+00 -0.45593999997E+02  0.45594000000E+02  0.51100000000E-03 0. -1.
    9900012    2    1    2    0    0 -0.27285186324E+01  0.41299514942E+02 -0.13058638517E+02  0.47787276639E+02  0.20000025507E+02 0.  0.
        -12    1    1    2    0    0  0.27285186324E+01 -0.41299514942E+02  0.13058638517E+02  0.43400723361E+02  0.00000000000E+00 0.  1.
         11    1    3    3    0    0 -0.60493297279E+01  0.29455017257E+02 -0.89615960253E+01  0.31376784974E+02  0.51100000000E-03 0. -1.
        -11    1    3    3    0    0  0.15272934628E+01 -0.16662927063E+01 -0.51337724266E+00  0.23179113786E+01  0.51100000000E-03 0.  1.
         12    1    3    3    0    0  0.17935176326E+01  0.13510790391E+02 -0.35836652493E+01  0.14092580286E+02  0.00000000000E+00 0. -1.
</event>
<event>
 7    1  0.2442667E-009  0.4778727E+02  0.7816164E-02  0.1312668E+00
        -11   -1    0    0    0    0  0.00000000000E+00  0.00000000000E+00  0.45593999997E+02  0.45594000000E+02  0.51100000000E-03 0.  1.
         11   -1    0    0    0    0 -0.00000000000E+00 -0.00000000000E+00 -0.45593999997E+02  0.45594000000E+02  0.51100000000E-03 0. -1.
    9900012    2    1    2    0    0 -0.34015407444E+00  0.33862608330E+02 -0.27144638351E+02  0.47787270295E+02  0.19999996584E+02 0.  0.
        -12    1    1    2    0    0  0.34015407444E+00 -0.33862608330E+02  0.27144638351E+02  0.43400729705E+02  0.00000000000E+00 0.  1.
         11    1    3    3    0    0  0.63410819553E+01  0.13665637855E+02 -0.36945107706E+01  0.15511556609E+02  0.51100000000E-03 0. -1.
        -11    1    3    3    0    0 -0.13636460082E+01  0.26553341216E+00 -0.66658584187E+00  0.15409008321E+01  0.51100000000E-03 0.  1.
         12    1    3    3    0    0 -0.53175900215E+01  0.19931437064E+02 -0.22783541738E+02  0.30734812854E+02  0.00000000000E+00 0. -1.
</event>
<event>
 7    1  0.2442667E-009  0.4778728E+02  0.7816164E-02  0.1312668E+00
        -11   -1    0    0    0    0  0.00000000000E+00  0.00000000000E+00  0.45593999997E+02  0.45594000000E+02  0.51100000000E-03 0. -1.
         11   -1    0    0    0    0 -0.00000000000E+00 -0.00000000000E+00 -0.45593999997E+02  0.45594000000E+02  0.51100000000E-03 0.  1.
    9900012    2    1    2    0    0 -0.37633609180E+02  0.21343522353E+02  0.34333164976E+01  0.47787284010E+02  0.20000059113E+02 0.  0.
        -12    1    1    2    0    0  0.37633609180E+02 -0.21343522353E+02 -0.34333164976E+01  0.43400715990E+02  0.00000000000E+00 0.  1.
         11    1    3    3    0    0 -0.28096431949E+02  0.69797680358E+01  0.78294940527E+01  0.29990458940E+02  0.51100000000E-03 0. -1.
        -11    1    3    3    0    0 -0.63734793273E+01  0.97278626861E+01 -0.28102830645E+01  0.11964541042E+02  0.51100000000E-03 0.  1.
         12    1    3    3    0    0 -0.31636979037E+01  0.46358916311E+01 -0.15858944906E+01  0.58322840274E+01  0.00000000000E+00 0. -1.
</event>
<event>
 7    1  0.2442667E-009  0.4778727E+02  0.7816164E-02  0.1312668E+00
        -11   -1    0    0    0    0  0.00000000000E+00  0.00000000000E+00  0.45593999997E+02  0.45594000000E+02  0.51100000000E-03 0. -1.
         11   -1    0    0    0    0 -0.00000000000E+00 -0.00000000000E+00 -0.45593999997E+02  0.45594000000E+02  0.51100000000E-03 0.  1.
    9900012    2    1    2    0    0 -0.23942785380E+02 -0.32318794108E+02  0.16305282070E+02  0.47787266737E+02  0.19999980362E+02 0.  0.
        -12    1    1    2    0    0  0.23942785380E+02  0.32318794108E+02 -0.16305282070E+02  0.43400733263E+02  0.00000000000E+00 0.  1.
         11    1    3    3    0    0 -0.89579187086E+01 -0.30614311102E+01  0.22423015893E+01  0.97285448404E+01  0.51100000000E-03 0. -1.
        -11    1    3    3    0    0 -0.36980355657E+01 -0.16207543927E+02  0.12371493127E+02  0.20722301745E+02  0.51100000000E-03 0.  1.
        -12    1    3    3    0    0 -0.11286831105E+02 -0.13049819071E+02  0.16914873540E+01  0.17336420151E+02  0.00000000000E+00 0.  1.
</event>
<event>
 7    1  0.2442667E-009  0.4778727E+02  0.7816164E-02  0.1312668E+00
        -11   -1    0    0    0    0  0.00000000000E+00  0.00000000000E+00  0.45593999997E+02  0.45594000000E+02  0.51100000000E-03 0.  1.
         11   -1    0    0    0    0 -0.00000000000E+00 -0.00000000000E+00 -0.45593999997E+02  0.45594000000E+02  0.51100000000E-03 0. -1.
    9900012    2    1    2    0    0 -0.76142550298E+01 -0.38571185854E+02 -0.18382322076E+02  0.47787273938E+02  0.20000013194E+02 0.  0.
        -12    1    1    2    0    0  0.76142550298E+01  0.38571185854E+02  0.18382322076E+02  0.43400726062E+02  0.00000000000E+00 0.  1.
         11    1    3    3    0    0 -0.91872002947E+00 -0.37528967100E+01 -0.21771624233E+01  0.44348975960E+01  0.51100000000E-03 0. -1.
        -11    1    3    3    0    0 -0.64027847655E+01 -0.37231243077E+02 -0.15142540482E+02  0.40699602533E+02  0.51100000000E-03 0.  1.
        -12    1    3    3    0    0 -0.29275023485E+00  0.24129539332E+01 -0.10626191700E+01  0.26527738095E+01  0.00000000000E+00 0.  1.
</event>
<event>
 7    1  0.2442667E-009  0.4778727E+02  0.7816164E-02  0.1312668E+00
        -11   -1    0    0    0    0  0.00000000000E+00  0.00000000000E+00  0.45593999997E+02  0.45594000000E+02  0.51100000000E-03 0.  1.
         11   -1    0    0    0    0 -0.00000000000E+00 -0.00000000000E+00 -0.45593999997E+02  0.45594000000E+02  0.51100000000E-03 0. -1.
    9900012    2    1    2    0    0 -0.21885105271E+02 -0.22518807160E+02 -0.29959453974E+02  0.47787269695E+02  0.19999993846E+02 0.  0.
        -12    1    1    2    0    0  0.21885105271E+02  0.22518807160E+02  0.29959453974E+02  0.43400730305E+02  0.00000000000E+00 0.  1.
         11    1    3    3    0    0 -0.22984038693E+02 -0.13922788246E+02 -0.22987921850E+02  0.35363181679E+02  0.51100000000E-03 0. -1.
        -11    1    3    3    0    0  0.18501935639E+00 -0.56201285544E+01 -0.10304528225E+01  0.57168094607E+01  0.51100000000E-03 0.  1.
         12    1    3    3    0    0  0.91391406620E+00 -0.29758903591E+01 -0.59410793016E+01  0.67072785553E+01  0.00000000000E+00 0. -1.
</event>
<event>
 7    1  0.2442667E-009  0.4778726E+02  0.7816164E-02  0.1312668E+00
        -11   -1    0    0    0    0  0.00000000000E+00  0.00000000000E+00  0.45593999997E+02  0.45594000000E+02  0.51100000000E-03 0.  1.
         11   -1    0    0    0    0 -0.00000000000E+00 -0.00000000000E+00 -0.45593999997E+02  0.45594000000E+02  0.51100000000E-03 0. -1.
    9900012    2    1    2    0    0 -0.41204522978E+02  0.37087103594E+01 -0.13117042546E+02  0.47787262085E+02  0.19999959151E+02 0.  0.
        -12    1    1    2    0    0  0.41204522978E+02 -0.37087103594E+01  0.13117042546E+02  0.43400737915E+02  0.00000000000E+00 0.  1.
         11    1    3    3    0    0 -0.18466128255E+02  0.35318738891E+01  0.50006959441E-01  0.18800918245E+02  0.51100000000E-03 0. -1.
        -11    1    3    3    0    0 -0.98370060416E+00 -0.31161666435E+01 -0.39624785880E+01  0.51360878352E+01  0.51100000000E-03 0.  1.
        -12    1    3    3    0    0 -0.21754694119E+02  0.32930031139E+01 -0.92045709177E+01  0.23850256005E+02  0.00000000000E+00 0.  1.
</event>
<event>
 7    1  0.2442667E-009  0.4778727E+02  0.7816164E-02  0.1312668E+00
        -11   -1    0    0    0    0  0.00000000000E+00  0.00000000000E+00  0.45593999997E+02  0.45594000000E+02  0.51100000000E-03 0. -1.
         11   -1    0    0    0    0 -0.00000000000E+00 -0.00000000000E+00 -0.45593999997E+02  0.45594000000E+02  0.51100000000E-03 0.  1.
    9900012    2    1    2    0    0 -0.41677586046E+01  0.42515281427E+02  0.76618605501E+01  0.47787268743E+02  0.19999989505E+02 0.  0.
        -12    1    1    2    0    0  0.41677586046E+01 -0.42515281427E+02 -0.76618605501E+01  0.43400731257E+02  0.00000000000E+00 0.  1.
         11    1    3    3    0    0 -0.91007959234E+01  0.10877608900E+02 -0.18472139418E+01  0.14302414532E+02  0.51100000000E-03 0.  1.
        -11    1    3    3    0    0  0.39133443298E+01  0.27046713599E+02  0.72853442180E+01  0.28282772513E+02  0.51100000000E-03 0. -1.
        -12    1    3    3    0    0  0.10196929890E+01  0.45909589275E+01  0.22237302740E+01  0.52020816984E+01  0.00000000000E+00 0.  1.
</event>
<event>
 7    1  0.2442667E-009  0.4778728E+02  0.7816164E-02  0.1312668E+00
        -11   -1    0    0    0    0  0.00000000000E+00  0.00000000000E+00  0.45593999997E+02  0.45594000000E+02  0.51100000000E-03 0. -1.
         11   -1    0    0    0    0 -0.00000000000E+00 -0.00000000000E+00 -0.45593999997E+02  0.45594000000E+02  0.51100000000E-03 0.  1.
    9900012    2    1    2    0    0 -0.16767609076E+02 -0.24112020920E+02  0.31954340373E+02  0.47787284157E+02  0.20000059787E+02 0.  0.
        -12    1    1    2    0    0  0.16767609076E+02  0.24112020920E+02 -0.31954340373E+02  0.43400715843E+02  0.00000000000E+00 0.  1.
         11    1    3    3    0    0 -0.49525442236E+01 -0.20803279045E+01  0.17685277419E+02  0.18483086759E+02  0.51100000000E-03 0. -1.
        -11    1    3    3    0    0 -0.43016414766E+01 -0.77857909796E+01  0.21586266496E+01  0.91532688065E+01  0.51100000000E-03 0.  1.
         12    1    3    3    0    0 -0.75134233754E+01 -0.14245902036E+02  0.12110436305E+02  0.20150928592E+02  0.00000000000E+00 0. -1.
</event>
<event>
 7    1  0.2442667E-009  0.4778727E+02  0.7816164E-02  0.1312668E+00
        -11   -1    0    0    0    0  0.00000000000E+00  0.00000000000E+00  0.45593999997E+02  0.45594000000E+02  0.51100000000E-03 0.  1.
         11   -1    0    0    0    0 -0.00000000000E+00 -0.00000000000E+00 -0.45593999997E+02  0.45594000000E+02  0.51100000000E-03 0. -1.
    9900012    2    1    2    0    0  0.79041883542E+00 -0.10745673583E+02 -0.42041993535E+02  0.47787268634E+02  0.19999989011E+02 0.  0.
        -12    1    1    2    0    0 -0.79041883542E+00  0.10745673583E+02  0.42041993535E+02  0.43400731366E+02  0.00000000000E+00 0.  1.
         11    1    3    3    0    0 -0.26283989773E+01 -0.76880650018E+01 -0.30807197340E+02  0.31860606285E+02  0.51100000000E-03 0. -1.
        -11    1    3    3    0    0  0.44258736264E+01  0.24636597370E+01 -0.27784212621E+01  0.57773351666E+01  0.51100000000E-03 0.  1.
        -12    1    3    3    0    0 -0.10070558138E+01 -0.55212683181E+01 -0.84563749331E+01  0.10149327183E+02  0.00000000000E+00 0.  1.
</event>
<event>
 7    1  0.2442667E-009  0.4778727E+02  0.7816164E-02  0.1312668E+00
        -11   -1    0    0    0    0  0.00000000000E+00  0.00000000000E+00  0.45593999997E+02  0.45594000000E+02  0.51100000000E-03 0. -1.
         11   -1    0    0    0    0 -0.00000000000E+00 -0.00000000000E+00 -0.45593999997E+02  0.45594000000E+02  0.51100000000E-03 0.  1.
    9900012    2    1    2    0    0 -0.11742869298E+02  0.30918256709E+02  0.28103198387E+02  0.47787270319E+02  0.19999996692E+02 0.  0.
        -12    1    1    2    0    0  0.11742869298E+02 -0.30918256709E+02 -0.28103198387E+02  0.43400729681E+02  0.00000000000E+00 0.  1.
         11    1    3    3    0    0 -0.22186024822E+01  0.17855086152E+02  0.39863321976E+01  0.18428704326E+02  0.51100000000E-03 0. -1.
        -11    1    3    3    0    0 -0.35073015378E+01  0.48957890681E+01  0.12889268014E+02  0.14226845922E+02  0.51100000000E-03 0.  1.
         12    1    3    3    0    0 -0.60169652781E+01  0.81673814892E+01  0.11227598175E+02  0.15131720071E+02  0.00000000000E+00 0. -1.
</event>
<event>
 7    1  0.2442667E-009  0.4778727E+02  0.7816164E-02  0.1312668E+00
        -11   -1    0    0    0    0  0.00000000000E+00  0.00000000000E+00  0.45593999997E+02  0.45594000000E+02  0.51100000000E-03 0.  1.
         11   -1    0    0    0    0 -0.00000000000E+00 -0.00000000000E+00 -0.45593999997E+02  0.45594000000E+02  0.51100000000E-03 0. -1.
    9900012    2    1    2    0    0 -0.13649513999E+02 -0.33808329533E+02  0.23543809438E+02  0.47787270270E+02  0.19999996469E+02 0.  0.
        -12    1    1    2    0    0  0.13649513999E+02  0.33808329533E+02 -0.23543809438E+02  0.43400729730E+02  0.00000000000E+00 0.  1.
         11    1    3    3    0    0 -0.84326508140E+01 -0.16620779625E+02  0.16844418081E+02  0.25121591029E+02  0.51100000000E-03 0. -1.
        -11    1    3    3    0    0 -0.71712223967E+01 -0.16686125677E+02  0.29389116339E+01  0.18398109214E+02  0.51100000000E-03 0.  1.
        -12    1    3    3    0    0  0.19543592119E+01 -0.50142423128E+00  0.37604797232E+01  0.42675700272E+01  0.00000000000E+00 0.  1.
</event>
<event>
 7    1  0.2442667E-009  0.4778727E+02  0.7816164E-02  0.1312668E+00
        -11   -1    0    0    0    0  0.00000000000E+00  0.00000000000E+00  0.45593999997E+02  0.45594000000E+02  0.51100000000E-03 0. -1.
         11   -1    0    0    0    0 -0.00000000000E+00 -0.00000000000E+00 -0.45593999997E+02  0.45594000000E+02  0.51100000000E-03 0.  1.
    9900012    2    1    2    0    0 -0.38784850439E+02 -0.24954827593E+01  0.19316597199E+02  0.47787274371E+02  0.20000015166E+02 0.  0.
        -12    1    1    2    0    0  0.38784850439E+02  0.24954827593E+01 -0.19316597199E+02  0.43400725629E+02  0.00000000000E+00 0.  1.
         11    1    3    3    0    0 -0.21571985755E+02  0.63243758965E+01  0.11375171469E+02  0.25194103003E+02  0.51100000000E-03 0. -1.
        -11    1    3    3    0    0 -0.18394777544E+01 -0.49685805984E+01  0.22007597355E+01  0.57370563224E+01  0.51100000000E-03 0.  1.
        -12    1    3    3    0    0 -0.15373386930E+02 -0.38512780575E+01  0.57406659942E+01  0.16856115046E+02  0.00000000000E+00 0.  1.
</event>
<event>
 7    1  0.2442667E-009  0.4778727E+02  0.7816164E-02  0.1312668E+00
        -11   -1    0    0    0    0  0.00000000000E+00  0.00000000000E+00  0.45593999997E+02  0.45594000000E+02  0.51100000000E-03 0. -1.
         11   -1    0    0    0    0 -0.00000000000E+00 -0.00000000000E+00 -0.45593999997E+02  0.45594000000E+02  0.51100000000E-03 0.  1.
    9900012    2    1    2    0    0  0.31523382415E+01  0.27098341606E+02  0.33754492913E+02  0.47787272518E+02  0.20000006718E+02 0.  0.
        -12    1    1    2    0    0 -0.31523382415E+01 -0.27098341606E+02 -0.33754492913E+02  0.43400727482E+02  0.00000000000E+00 0.  1.
         11    1    3    3    0    0  0.92714253378E+00  0.88017269011E+01  0.17589835357E+02  0.19690919173E+02  0.51100000000E-03 0. -1.
        -11    1    3    3    0    0  0.71007736500E+01  0.89010857789E+01  0.42372970374E+01  0.12149279852E+02  0.51100000000E-03 0.  1.
        -12    1    3    3    0    0 -0.48755779423E+01  0.93955289261E+01  0.11927360518E+02  0.15947073493E+02  0.00000000000E+00 0.  1.
</event>
<event>
 7    1  0.2442667E-009  0.4778728E+02  0.7816164E-02  0.1312668E+00
        -11   -1    0    0    0    0  0.00000000000E+00  0.00000000000E+00  0.45593999997E+02  0.45594000000E+02  0.51100000000E-03 0.  1.
         11   -1    0    0    0    0 -0.00000000000E+00 -0.00000000000E+00 -0.45593999997E+02  0.45594000000E+02  0.51100000000E-03 0. -1.
    9900012    2    1    2    0    0  0.22274177212E+02  0.15778713178E+02 -0.33741902323E+02  0.47787277283E+02  0.20000028443E+02 0.  0.
        -12    1    1    2    0    0 -0.22274177212E+02 -0.15778713178E+02  0.33741902323E+02  0.43400722717E+02  0.00000000000E+00 0.  1.
         11    1    3    3    0    0  0.27855689490E+01  0.27184841868E+01 -0.17336681032E+01  0.42608867617E+01  0.51100000000E-03 0. -1.
        -11    1    3    3    0    0  0.19155756307E+02  0.93711826871E+01 -0.14882875613E+02  0.26005038962E+02  0.51100000000E-03 0.  1.
        -12    1    3    3    0    0  0.33285195636E+00  0.36890463043E+01 -0.17125358607E+02  0.17521351559E+02  0.00000000000E+00 0.  1.
</event>
<event>
 7    1  0.2442667E-009  0.4778727E+02  0.7816164E-02  0.1312668E+00
        -11   -1    0    0    0    0  0.00000000000E+00  0.00000000000E+00  0.45593999997E+02  0.45594000000E+02  0.51100000000E-03 0.  1.
         11   -1    0    0    0    0 -0.00000000000E+00 -0.00000000000E+00 -0.45593999997E+02  0.45594000000E+02  0.51100000000E-03 0. -1.
    9900012    2    1    2    0    0 -0.34041090276E+02  0.62205014979E+01 -0.26194132279E+02  0.47787273832E+02  0.20000012711E+02 0.  0.
        -12    1    1    2    0    0  0.34041090276E+02 -0.62205014979E+01  0.26194132279E+02  0.43400726168E+02  0.00000000000E+00 0.  1.
         11    1    3    3    0    0 -0.21652274873E+01  0.22607529338E+01 -0.20177736241E+00  0.31368659940E+01  0.51100000000E-03 0. -1.
        -11    1    3    3    0    0 -0.19400115441E+02  0.10359710253E+02 -0.18577077199E+02  0.28788815071E+02  0.51100000000E-03 0.  1.
        -12    1    3    3    0    0 -0.12475747347E+02 -0.63999616891E+01 -0.74152777173E+01  0.15861592767E+02  0.00000000000E+00 0.  1.
</event>
<event>
 7    1  0.2442667E-009  0.4778727E+02  0.7816164E-02  0.1312668E+00
        -11   -1    0    0    0    0  0.00000000000E+00  0.00000000000E+00  0.45593999997E+02  0.45594000000E+02  0.51100000000E-03 0. -1.
         11   -1    0    0    0    0 -0.00000000000E+00 -0.00000000000E+00 -0.45593999997E+02  0.45594000000E+02  0.51100000000E-03 0.  1.
    9900012    2    1    2    0    0 -0.52848302234E+01 -0.26758039347E+02  0.33759457043E+02  0.47787273739E+02  0.20000012285E+02 0.  0.
        -12    1    1    2    0    0  0.52848302234E+01  0.26758039347E+02 -0.33759457043E+02  0.43400726261E+02  0.00000000000E+00 0.  1.
         11    1    3    3    0    0  0.58942527908E+01 -0.49567305104E+01  0.11806858143E+02  0.14096570249E+02  0.51100000000E-03 0. -1.
        -11    1    3    3    0    0 -0.52382083492E+01 -0.15317257515E+02  0.17480105540E+02  0.23824594318E+02  0.51100000000E-03 0.  1.
        -12    1    3    3    0    0 -0.59408746651E+01 -0.64840513221E+01  0.44724933595E+01  0.98661091716E+01  0.00000000000E+00 0.  1.
</event>
<event>
 7    1  0.2442667E-009  0.4778727E+02  0.7816164E-02  0.1312668E+00
        -11   -1    0    0    0    0  0.00000000000E+00  0.00000000000E+00  0.45593999997E+02  0.45594000000E+02  0.51100000000E-03 0.  1.
         11   -1    0    0    0    0 -0.00000000000E+00 -0.00000000000E+00 -0.45593999997E+02  0.45594000000E+02  0.51100000000E-03 0. -1.
    9900012    2    1    2    0    0 -0.29021985947E+02 -0.29245923524E+02  0.13639043620E+02  0.47787271642E+02  0.20000002725E+02 0.  0.
        -12    1    1    2    0    0  0.29021985947E+02  0.29245923524E+02 -0.13639043620E+02  0.43400728358E+02  0.00000000000E+00 0.  1.
         11    1    3    3    0    0 -0.13502795632E+02 -0.16803977096E+02  0.22113580161E+01  0.21670007860E+02  0.51100000000E-03 0. -1.
        -11    1    3    3    0    0 -0.25092400469E+01 -0.26965393212E+01  0.89448042177E+01  0.96735274165E+01  0.51100000000E-03 0.  1.
        -12    1    3    3    0    0 -0.13009950269E+02 -0.97454071070E+01  0.24828813866E+01  0.16443736365E+02  0.00000000000E+00 0.  1.
</event>
<event>
 7    1  0.2442667E-009  0.4778728E+02  0.7816164E-02  0.1312668E+00
        -11   -1    0    0    0    0  0.00000000000E+00  0.00000000000E+00  0.45593999997E+02  0.45594000000E+02  0.51100000000E-03 0. -1.
         11   -1    0    0    0    0 -0.00000000000E+00 -0.00000000000E+00 -0.45593999997E+02  0.45594000000E+02  0.51100000000E-03 0.  1.
    9900012    2    1    2    0    0 -0.31152461266E+02 -0.25763142852E+02  0.15792641404E+02  0.47787275408E+02  0.20000019895E+02 0.  0.
        -12    1    1    2    0    0  0.31152461266E+02  0.25763142852E+02 -0.15792641404E+02  0.43400724592E+02  0.00000000000E+00 0.  1.
         11    1    3    3    0    0 -0.14787658420E+02 -0.12330354811E+02  0.15377370485E+02  0.24640941837E+02  0.51100000000E-03 0. -1.
        -11    1    3    3    0    0 -0.93083174349E+01 -0.11040346640E+02 -0.33111091041E+01  0.14815447046E+02  0.51100000000E-03 0.  1.
        -12    1    3    3    0    0 -0.70564854111E+01 -0.23924414007E+01  0.37263800228E+01  0.83308865247E+01  0.00000000000E+00 0.  1.
</event>
<event>
 7    1  0.2442667E-009  0.4778727E+02  0.7816164E-02  0.1312668E+00
        -11   -1    0    0    0    0  0.00000000000E+00  0.00000000000E+00  0.45593999997E+02  0.45594000000E+02  0.51100000000E-03 0.  1.
         11   -1    0    0    0    0 -0.00000000000E+00 -0.00000000000E+00 -0.45593999997E+02  0.45594000000E+02  0.51100000000E-03 0. -1.
    9900012    2    1    2    0    0  0.28709835751E+02 -0.77332593889E+01 -0.31615904527E+02  0.47787269722E+02  0.19999993971E+02 0.  0.
        -12    1    1    2    0    0 -0.28709835751E+02  0.77332593889E+01  0.31615904527E+02  0.43400730278E+02  0.00000000000E+00 0.  1.
         11    1    3    3    0    0  0.72863620116E+01 -0.30668449026E+01 -0.41342605424E+01  0.89212510061E+01  0.51100000000E-03 0. -1.
        -11    1    3    3    0    0  0.11300009642E+02 -0.29246815147E+01 -0.25983890462E+02  0.28485198677E+02  0.51100000000E-03 0.  1.
        -12    1    3    3    0    0  0.10123464097E+02 -0.17417329716E+01 -0.14977535223E+01  0.10380820039E+02  0.00000000000E+00 0.  1.
</event>
<event>
 7    1  0.2442667E-009  0.4778727E+02  0.7816164E-02  0.1312668E+00
        -11   -1    0    0    0    0  0.00000000000E+00  0.00000000000E+00  0.45593999997E+02  0.45594000000E+02  0.51100000000E-03 0.  1.
         11   -1    0    0    0    0 -0.00000000000E+00 -0.00000000000E+00 -0.45593999997E+02  0.45594000000E+02  0.51100000000E-03 0. -1.
    9900012    2    1    2    0    0  0.39255827884E+02 -0.17917703186E+01 -0.18422619616E+02  0.47787269853E+02  0.19999994569E+02 0.  0.
        -12    1    1    2    0    0 -0.39255827884E+02  0.17917703186E+01  0.18422619616E+02  0.43400730147E+02  0.00000000000E+00 0.  1.
         11    1    3    3    0    0  0.17007191288E+02 -0.42857520730E+01 -0.14394991797E+02  0.22689821847E+02  0.51100000000E-03 0. -1.
        -11    1    3    3    0    0  0.42664966197E+01  0.31122102335E+01  0.26461473769E+01  0.59068555209E+01  0.51100000000E-03 0.  1.
        -12    1    3    3    0    0  0.17982139976E+02 -0.61822847913E+00 -0.66737751955E+01  0.19190592485E+02  0.00000000000E+00 0.  1.
</event>
<event>
 7    1  0.2442667E-009  0.4778727E+02  0.7816164E-02  0.1312668E+00
        -11   -1    0    0    0    0  0.00000000000E+00  0.00000000000E+00  0.45593999997E+02  0.45594000000E+02  0.51100000000E-03 0.  1.
         11   -1    0    0    0    0 -0.00000000000E+00 -0.00000000000E+00 -0.45593999997E+02  0.45594000000E+02  0.51100000000E-03 0. -1.
    9900012    2    1    2    0    0  0.12301380154E+02  0.15251138144E+02 -0.38725988215E+02  0.47787270380E+02  0.19999996969E+02 0.  0.
        -12    1    1    2    0    0 -0.12301380154E+02 -0.15251138144E+02  0.38725988215E+02  0.43400729620E+02  0.00000000000E+00 0.  1.
         11    1    3    3    0    0  0.71102507726E+01  0.27093519018E+01 -0.78416354434E+01  0.10926458734E+02  0.51100000000E-03 0. -1.
        -11    1    3    3    0    0  0.17395419400E+01  0.84935717049E+01 -0.30291688339E+02  0.31507985482E+02  0.51100000000E-03 0.  1.
        -12    1    3    3    0    0  0.34515874414E+01  0.40482145372E+01 -0.59266443208E+00  0.53528261632E+01  0.00000000000E+00 0.  1.
</event>
<event>
 7    1  0.2442667E-009  0.4778727E+02  0.7816164E-02  0.1312668E+00
        -11   -1    0    0    0    0  0.00000000000E+00  0.00000000000E+00  0.45593999997E+02  0.45594000000E+02  0.51100000000E-03 0.  1.
         11   -1    0    0    0    0 -0.00000000000E+00 -0.00000000000E+00 -0.45593999997E+02  0.45594000000E+02  0.51100000000E-03 0. -1.
    9900012    2    1    2    0    0 -0.33296622270E+02  0.27414579654E+02  0.48372400827E+01  0.47787272773E+02  0.20000007883E+02 0.  0.
        -12    1    1    2    0    0  0.33296622270E+02 -0.27414579654E+02 -0.48372400827E+01  0.43400727227E+02  0.00000000000E+00 0.  1.
         11    1    3    3    0    0 -0.23832661148E+02  0.18156112413E+02  0.31648665293E+01  0.30127338677E+02  0.51100000000E-03 0. -1.
        -11    1    3    3    0    0 -0.11535346989E+01 -0.58549672411E+00 -0.35351678621E+01  0.37644203790E+01  0.51100000000E-03 0.  1.
        -12    1    3    3    0    0 -0.83104264228E+01  0.98439639647E+01  0.52075414156E+01  0.13895513717E+02  0.00000000000E+00 0.  1.
</event>
<event>
 7    1  0.2442667E-009  0.4778728E+02  0.7816164E-02  0.1312668E+00
        -11   -1    0    0    0    0  0.00000000000E+00  0.00000000000E+00  0.45593999997E+02  0.45594000000E+02  0.51100000000E-03 0.  1.
         11   -1    0    0    0    0 -0.00000000000E+00 -0.00000000000E+00 -0.45593999997E+02  0.45594000000E+02  0.51100000000E-03 0. -1.
    9900012    2    1    2    0    0 -0.34208681502E+02  0.23569092855E+02 -0.12565291009E+02  0.47787279196E+02  0.20000037167E+02 0.  0.
        -12    1    1    2    0    0  0.34208681502E+02 -0.23569092855E+02  0.12565291009E+02  0.43400720804E+02  0.00000000000E+00 0.  1.
         11    1    3    3    0    0 -0.20800236564E+01  0.17405618364E+01 -0.72946110948E+00  0.28085882021E+01  0.51100000000E-03 0. -1.
        -11    1    3    3    0    0 -0.12433831760E+02  0.19624117487E+02 -0.91976396924E+01  0.24986050819E+02  0.51100000000E-03 0.  1.
        -12    1    3    3    0    0 -0.19694826086E+02  0.22044135318E+01 -0.26381902073E+01  0.19992640175E+02  0.00000000000E+00 0.  1.
</event>
<event>
 7    1  0.2442667E-009  0.4778727E+02  0.7816164E-02  0.1312668E+00
        -11   -1    0    0    0    0  0.00000000000E+00  0.00000000000E+00  0.45593999997E+02  0.45594000000E+02  0.51100000000E-03 0. -1.
         11   -1    0    0    0    0 -0.00000000000E+00 -0.00000000000E+00 -0.45593999997E+02  0.45594000000E+02  0.51100000000E-03 0.  1.
    9900012    2    1    2    0    0 -0.40562229355E+02  0.14163111096E+02  0.61429251187E+01  0.47787266191E+02  0.19999977873E+02 0.  0.
        -12    1    1    2    0    0  0.40562229355E+02 -0.14163111096E+02 -0.61429251187E+01  0.43400733809E+02  0.00000000000E+00 0.  1.
         11    1    3    3    0    0  0.21197096820E-01  0.37098876574E+00  0.24328107228E+01  0.24610262606E+01  0.51100000000E-03 0. -1.
        -11    1    3    3    0    0 -0.29676744343E+02  0.12900664238E+02 -0.29861290134E+01  0.32496973079E+02  0.51100000000E-03 0.  1.
        -12    1    3    3    0    0 -0.10906682109E+02  0.89145809179E+00  0.66962434092E+01  0.12829266851E+02  0.00000000000E+00 0.  1.
</event>
<event>
 7    1  0.2442667E-009  0.4778728E+02  0.7816164E-02  0.1312668E+00
        -11   -1    0    0    0    0  0.00000000000E+00  0.00000000000E+00  0.45593999997E+02  0.45594000000E+02  0.51100000000E-03 0.  1.
         11   -1    0    0    0    0 -0.00000000000E+00 -0.00000000000E+00 -0.45593999997E+02  0.45594000000E+02  0.51100000000E-03 0. -1.
    9900012    2    1    2    0    0 -0.24015398743E+02 -0.31025357027E+02 -0.18555612746E+02  0.47787275123E+02  0.20000018597E+02 0.  0.
        -12    1    1    2    0    0  0.24015398743E+02  0.31025357027E+02  0.18555612746E+02  0.43400724877E+02  0.00000000000E+00 0.  1.
         11    1    3    3    0    0 -0.10697917877E+02 -0.14097635262E+02 -0.14611566111E+02  0.22949654275E+02  0.51100000000E-03 0. -1.
        -11    1    3    3    0    0 -0.13061024018E+02 -0.17371103777E+02 -0.90143808346E+00  0.21752199560E+02  0.51100000000E-03 0.  1.
         12    1    3    3    0    0 -0.25645684797E+00  0.44338201186E+00 -0.30426085520E+01  0.30854212879E+01  0.00000000000E+00 0. -1.
</event>
<event>
 7    1  0.2442667E-009  0.4778726E+02  0.7816164E-02  0.1312668E+00
        -11   -1    0    0    0    0  0.00000000000E+00  0.00000000000E+00  0.45593999997E+02  0.45594000000E+02  0.51100000000E-03 0. -1.
         11   -1    0    0    0    0 -0.00000000000E+00 -0.00000000000E+00 -0.45593999997E+02  0.45594000000E+02  0.51100000000E-03 0.  1.
    9900012    2    1    2    0    0 -0.21805652858E+02  0.28946328301E+02  0.23879871145E+02  0.47787255023E+02  0.19999926951E+02 0.  0.
        -12    1    1    2    0    0  0.21805652858E+02 -0.28946328301E+02 -0.23879871145E+02  0.43400744977E+02  0.00000000000E+00 0.  1.
         11    1    3    3    0    0 -0.17810618726E+02  0.28642434332E+02  0.18202445521E+02  0.38326703577E+02  0.51100000000E-03 0. -1.
        -11    1    3    3    0    0 -0.44033665493E+01  0.21445419434E+01  0.19277350056E+01  0.52635405981E+01  0.51100000000E-03 0.  1.
         12    1    3    3    0    0  0.40833241683E+00 -0.18406479744E+01  0.37496906179E+01  0.41970108480E+01  0.00000000000E+00 0. -1.
</event>
<event>
 7    1  0.2442667E-009  0.4778728E+02  0.7816164E-02  0.1312668E+00
        -11   -1    0    0    0    0  0.00000000000E+00  0.00000000000E+00  0.45593999997E+02  0.45594000000E+02  0.51100000000E-03 0. -1.
         11   -1    0    0    0    0 -0.00000000000E+00 -0.00000000000E+00 -0.45593999997E+02  0.45594000000E+02  0.51100000000E-03 0.  1.
    9900012    2    1    2    0    0  0.36302728914E+02  0.28992527538E+01  0.23607818893E+02  0.47787275282E+02  0.20000019320E+02 0.  0.
        -12    1    1    2    0    0 -0.36302728914E+02 -0.28992527538E+01 -0.23607818893E+02  0.43400724718E+02  0.00000000000E+00 0.  1.
         11    1    3    3    0    0  0.18328968007E+02 -0.47883636123E+01  0.12049293849E+02  0.22451391423E+02  0.51100000000E-03 0. -1.
        -11    1    3    3    0    0  0.97956424966E+01  0.78972433044E+01  0.11659936322E+02  0.17154450706E+02  0.51100000000E-03 0.  1.
        -12    1    3    3    0    0  0.81781184110E+01 -0.20962693840E+00 -0.10141127781E+00  0.81814331535E+01  0.00000000000E+00 0.  1.
</event>
<event>
 7    1  0.2442667E-009  0.4778727E+02  0.7816164E-02  0.1312668E+00
        -11   -1    0    0    0    0  0.00000000000E+00  0.00000000000E+00  0.45593999997E+02  0.45594000000E+02  0.51100000000E-03 0.  1.
         11   -1    0    0    0    0 -0.00000000000E+00 -0.00000000000E+00 -0.45593999997E+02  0.45594000000E+02  0.51100000000E-03 0. -1.
    9900012    2    1    2    0    0  0.79281995351E+01  0.37854407769E+02 -0.19692915823E+02  0.47787268796E+02  0.19999989747E+02 0.  0.
        -12    1    1    2    0    0 -0.79281995351E+01 -0.37854407769E+02  0.19692915823E+02  0.43400731204E+02  0.00000000000E+00 0.  1.
         11    1    3    3    0    0 -0.77890414150E+00 -0.25973963362E+00  0.86753095323E+00  0.11944733379E+01  0.51100000000E-03 0. -1.
        -11    1    3    3    0    0  0.38995264481E+01  0.48950314619E+01 -0.92596668317E+01  0.11176272618E+02  0.51100000000E-03 0.  1.
         12    1    3    3    0    0  0.48075772285E+01  0.33219115941E+02 -0.11300779945E+02  0.35416522840E+02  0.00000000000E+00 0. -1.
</event>
<event>
 7    1  0.2442667E-009  0.4778727E+02  0.7816164E-02  0.1312668E+00
        -11   -1    0    0    0    0  0.00000000000E+00  0.00000000000E+00  0.45593999997E+02  0.45594000000E+02  0.51100000000E-03 0.  1.
         11   -1    0    0    0    0 -0.00000000000E+00 -0.00000000000E+00 -0.45593999997E+02  0.45594000000E+02  0.51100000000E-03 0. -1.
    9900012    2    1    2    0    0  0.12667316573E+02 -0.30790817792E+02 -0.27840400077E+02  0.47787271367E+02  0.20000001469E+02 0.  0.
        -12    1    1    2    0    0 -0.12667316573E+02  0.30790817792E+02  0.27840400077E+02  0.43400728633E+02  0.00000000000E+00 0.  1.
         11    1    3    3    0    0  0.34121649482E+01 -0.32172826997E+01 -0.11639195765E+01  0.48320271776E+01  0.51100000000E-03 0. -1.
        -11    1    3    3    0    0  0.13264776509E+02 -0.25830148631E+02 -0.21226771564E+02  0.35968412607E+02  0.51100000000E-03 0.  1.
        -12    1    3    3    0    0 -0.40096248847E+01 -0.17433864613E+01 -0.54497089365E+01  0.69868315825E+01  0.00000000000E+00 0.  1.
</event>
<event>
 7    1  0.2442667E-009  0.4778727E+02  0.7816164E-02  0.1312668E+00
        -11   -1    0    0    0    0  0.00000000000E+00  0.00000000000E+00  0.45593999997E+02  0.45594000000E+02  0.51100000000E-03 0.  1.
         11   -1    0    0    0    0 -0.00000000000E+00 -0.00000000000E+00 -0.45593999997E+02  0.45594000000E+02  0.51100000000E-03 0. -1.
    9900012    2    1    2    0    0  0.21472042052E+02 -0.15810729702E+02 -0.34243180668E+02  0.47787272058E+02  0.20000004621E+02 0.  0.
        -12    1    1    2    0    0 -0.21472042052E+02  0.15810729702E+02  0.34243180668E+02  0.43400727942E+02  0.00000000000E+00 0.  1.
         11    1    3    3    0    0  0.14024740915E+02 -0.54681404166E+01 -0.26705023113E+02  0.30655377621E+02  0.51100000000E-03 0. -1.
        -11    1    3    3    0    0  0.61809922214E+01 -0.46925720870E+01 -0.17190465213E+00  0.77623739348E+01  0.51100000000E-03 0.  1.
         12    1    3    3    0    0  0.12663089162E+01 -0.56500171984E+01 -0.73662529028E+01  0.93695205022E+01  0.00000000000E+00 0. -1.
</event>
<event>
 7    1  0.2442667E-009  0.4778729E+02  0.7816164E-02  0.1312668E+00
        -11   -1    0    0    0    0  0.00000000000E+00  0.00000000000E+00  0.45593999997E+02  0.45594000000E+02  0.51100000000E-03 0. -1.
         11   -1    0    0    0    0 -0.00000000000E+00 -0.00000000000E+00 -0.45593999997E+02  0.45594000000E+02  0.51100000000E-03 0.  1.
    9900012    2    1    2    0    0  0.24550018204E+02 -0.14498486196E+02  0.32721738364E+02  0.47787289667E+02  0.20000084909E+02 0.  0.
        -12    1    1    2    0    0 -0.24550018204E+02  0.14498486196E+02 -0.32721738364E+02  0.43400710333E+02  0.00000000000E+00 0.  1.
         11    1    3    3    0    0  0.20825991313E+02 -0.16675108946E+02  0.32596784322E+02  0.42122814732E+02  0.51100000000E-03 0. -1.
        -11    1    3    3    0    0  0.27557077991E+01  0.77860504888E-01 -0.11928671634E+01  0.30038175815E+01  0.51100000000E-03 0.  1.
         12    1    3    3    0    0  0.96831909173E+00  0.20987622449E+01  0.13178212060E+01  0.26606573539E+01  0.00000000000E+00 0. -1.
</event>
<event>
 7    1  0.2442667E-009  0.4778729E+02  0.7816164E-02  0.1312668E+00
        -11   -1    0    0    0    0  0.00000000000E+00  0.00000000000E+00  0.45593999997E+02  0.45594000000E+02  0.51100000000E-03 0.  1.
         11   -1    0    0    0    0 -0.00000000000E+00 -0.00000000000E+00 -0.45593999997E+02  0.45594000000E+02  0.51100000000E-03 0. -1.
    9900012    2    1    2    0    0  0.38654618283E+02  0.48397254572E-01 -0.19734236501E+02  0.47787286329E+02  0.20000069687E+02 0.  0.
        -12    1    1    2    0    0 -0.38654618283E+02 -0.48397254572E-01  0.19734236501E+02  0.43400713671E+02  0.00000000000E+00 0.  1.
         11    1    3    3    0    0  0.35231429975E+01 -0.57735563642E+01 -0.27378836880E+01  0.72967456459E+01  0.51100000000E-03 0. -1.
        -11    1    3    3    0    0  0.18470208383E+01  0.36352352930E+00  0.11338377485E+01  0.21975494612E+01  0.51100000000E-03 0.  1.
         12    1    3    3    0    0  0.33284454447E+02  0.54584300895E+01 -0.18130190562E+02  0.38292991222E+02  0.00000000000E+00 0. -1.
</event>
<event>
 7    1  0.2442667E-009  0.4778728E+02  0.7816164E-02  0.1312668E+00
        -11   -1    0    0    0    0  0.00000000000E+00  0.00000000000E+00  0.45593999997E+02  0.45594000000E+02  0.51100000000E-03 0. -1.
         11   -1    0    0    0    0 -0.00000000000E+00 -0.00000000000E+00 -0.45593999997E+02  0.45594000000E+02  0.51100000000E-03 0.  1.
    9900012    2    1    2    0    0  0.24930671859E+02 -0.23321659439E+02  0.26798967736E+02  0.47787275697E+02  0.20000021212E+02 0.  0.
        -12    1    1    2    0    0 -0.24930671859E+02  0.23321659439E+02 -0.26798967736E+02  0.43400724303E+02  0.00000000000E+00 0.  1.
         11    1    3    3    0    0  0.14411659538E+02 -0.19270167434E+02  0.24942788530E+02  0.34658014708E+02  0.51100000000E-03 0. -1.
        -11    1    3    3    0    0  0.72580866812E+00 -0.16686835421E+01 -0.16515209257E+01  0.24574020052E+01  0.51100000000E-03 0.  1.
         12    1    3    3    0    0  0.97932036525E+01 -0.23828084623E+01  0.35077001317E+01  0.10671858983E+02  0.00000000000E+00 0. -1.
</event>
<event>
 7    1  0.2442667E-009  0.4778732E+02  0.7816164E-02  0.1312668E+00
        -11   -1    0    0    0    0  0.00000000000E+00  0.00000000000E+00  0.45593999997E+02  0.45594000000E+02  0.51100000000E-03 0.  1.
         11   -1    0    0    0    0 -0.00000000000E+00 -0.00000000000E+00 -0.45593999997E+02  0.45594000000E+02  0.51100000000E-03 0. -1.
    9900012    2    1    2    0    0 -0.97116426349E+00  0.22854983194E+01 -0.43329576945E+02  0.47787321424E+02  0.20000229701E+02 0.  0.
        -12    1    1    2    0    0  0.97116426349E+00 -0.22854983194E+01  0.43329576945E+02  0.43400678576E+02  0.00000000000E+00 0.  1.
         11    1    3    3    0    0 -0.39168084778E+01 -0.25650686484E+01 -0.31269968837E+02  0.31618537556E+02  0.51100000000E-03 0. -1.
        -11    1    3    3    0    0  0.61977025502E+01  0.37488727567E+01 -0.91369320415E+01  0.11659720890E+02  0.51100000000E-03 0.  1.
         12    1    3    3    0    0 -0.32520583359E+01  0.11016942111E+01 -0.29226760665E+01  0.45090629785E+01  0.00000000000E+00 0. -1.
</event>
<event>
 7    1  0.2442667E-009  0.4778727E+02  0.7816164E-02  0.1312668E+00
        -11   -1    0    0    0    0  0.00000000000E+00  0.00000000000E+00  0.45593999997E+02  0.45594000000E+02  0.51100000000E-03 0.  1.
         11   -1    0    0    0    0 -0.00000000000E+00 -0.00000000000E+00 -0.45593999997E+02  0.45594000000E+02  0.51100000000E-03 0. -1.
    9900012    2    1    2    0    0  0.42156929510E+02  0.10217473999E+02  0.14211563601E+01  0.47787272287E+02  0.20000005665E+02 0.  0.
        -12    1    1    2    0    0 -0.42156929510E+02 -0.10217473999E+02 -0.14211563601E+01  0.43400727713E+02  0.00000000000E+00 0.  1.
         11    1    3    3    0    0  0.32096279317E+02  0.31128817139E+01  0.67918948531E+01  0.32954377774E+02  0.51100000000E-03 0. -1.
        -11    1    3    3    0    0  0.12541683144E+01  0.44239825755E+01 -0.21923811744E+01  0.50942217722E+01  0.51100000000E-03 0.  1.
        -12    1    3    3    0    0  0.88064818787E+01  0.26806097100E+01 -0.31783573186E+01  0.97386727403E+01  0.00000000000E+00 0.  1.
</event>
<event>
 7    1  0.2442667E-009  0.4778728E+02  0.7816164E-02  0.1312668E+00
        -11   -1    0    0    0    0  0.00000000000E+00  0.00000000000E+00  0.45593999997E+02  0.45594000000E+02  0.51100000000E-03 0.  1.
         11   -1    0    0    0    0 -0.00000000000E+00 -0.00000000000E+00 -0.45593999997E+02  0.45594000000E+02  0.51100000000E-03 0. -1.
    9900012    2    1    2    0    0 -0.21749286361E+02 -0.23042922496E+02 -0.29658305777E+02  0.47787276090E+02  0.20000023005E+02 0.  0.
        -12    1    1    2    0    0  0.21749286361E+02  0.23042922496E+02  0.29658305777E+02  0.43400723910E+02  0.00000000000E+00 0.  1.
         11    1    3    3    0    0 -0.45707434094E+01 -0.17266883654E+02 -0.16966579837E+02  0.24635376962E+02  0.51100000000E-03 0. -1.
        -11    1    3    3    0    0 -0.54704162108E+01 -0.11338695476E+00 -0.80103974592E+00  0.55299163698E+01  0.51100000000E-03 0.  1.
         12    1    3    3    0    0 -0.11708126741E+02 -0.56626518877E+01 -0.11890686194E+02  0.17621982759E+02  0.00000000000E+00 0. -1.
</event>
<event>
 7    1  0.2442667E-009  0.4778727E+02  0.7816164E-02  0.1312668E+00
        -11   -1    0    0    0    0  0.00000000000E+00  0.00000000000E+00  0.45593999997E+02  0.45594000000E+02  0.51100000000E-03 0. -1.
         11   -1    0    0    0    0 -0.00000000000E+00 -0.00000000000E+00 -0.45593999997E+02  0.45594000000E+02  0.51100000000E-03 0.  1.
    9900012    2    1    2    0    0  0.79145266615E+01  0.40306893501E+02 -0.14012063498E+02  0.47787270520E+02  0.19999997607E+02 0.  0.
        -12    1    1    2    0    0 -0.79145266615E+01 -0.40306893501E+02  0.14012063498E+02  0.43400729480E+02  0.00000000000E+00 0.  1.
         11    1    3    3    0    0  0.95295847750E+01  0.22299419857E+02 -0.14639886141E+02  0.28326725515E+02  0.51100000000E-03 0. -1.
        -11    1    3    3    0    0 -0.43622121054E+01  0.97411724769E+01 -0.45304336010E+00  0.10682910850E+02  0.51100000000E-03 0.  1.
         12    1    3    3    0    0  0.27471539918E+01  0.82663011669E+01  0.10808660027E+01  0.87776341547E+01  0.00000000000E+00 0. -1.
</event>
<event>
 7    1  0.2442667E-009  0.4778726E+02  0.7816164E-02  0.1312668E+00
        -11   -1    0    0    0    0  0.00000000000E+00  0.00000000000E+00  0.45593999997E+02  0.45594000000E+02  0.51100000000E-03 0.  1.
         11   -1    0    0    0    0 -0.00000000000E+00 -0.00000000000E+00 -0.45593999997E+02  0.45594000000E+02  0.51100000000E-03 0. -1.
    9900012    2    1    2    0    0 -0.27683554168E+02 -0.18454996116E+02 -0.27868582727E+02  0.47787263183E+02  0.19999964158E+02 0.  0.
        -12    1    1    2    0    0  0.27683554168E+02  0.18454996116E+02  0.27868582727E+02  0.43400736817E+02  0.00000000000E+00 0.  1.
         11    1    3    3    0    0 -0.46378699487E+01 -0.12479790815E+02 -0.13422759687E+02  0.18905700048E+02  0.51100000000E-03 0. -1.
        -11    1    3    3    0    0 -0.18551225226E+02 -0.73476114262E+01 -0.13491195703E+02  0.24086255682E+02  0.51100000000E-03 0.  1.
        -12    1    3    3    0    0 -0.44944589936E+01  0.13724061244E+01 -0.95462733727E+00  0.47953074530E+01  0.00000000000E+00 0.  1.
</event>
<event>
 7    1  0.2442667E-009  0.4778726E+02  0.7816164E-02  0.1312668E+00
        -11   -1    0    0    0    0  0.00000000000E+00  0.00000000000E+00  0.45593999997E+02  0.45594000000E+02  0.51100000000E-03 0.  1.
         11   -1    0    0    0    0 -0.00000000000E+00 -0.00000000000E+00 -0.45593999997E+02  0.45594000000E+02  0.51100000000E-03 0. -1.
    9900012    2    1    2    0    0  0.36283142594E+02  0.23586389393E+02 -0.32924733873E+01  0.47787255973E+02  0.19999931283E+02 0.  0.
        -12    1    1    2    0    0 -0.36283142594E+02 -0.23586389393E+02  0.32924733873E+01  0.43400744027E+02  0.00000000000E+00 0.  1.
         11    1    3    3    0    0  0.14710350785E+02  0.32496857910E+01 -0.60304395640E+01  0.16227171027E+02  0.51100000000E-03 0. -1.
        -11    1    3    3    0    0  0.41966196240E+01  0.10676720741E+02  0.21433319069E+01  0.11670383626E+02  0.51100000000E-03 0.  1.
        -12    1    3    3    0    0  0.17376172185E+02  0.96599828617E+01  0.59463426981E+00  0.19889701320E+02  0.00000000000E+00 0.  1.
</event>
<event>
 7    1  0.2442667E-009  0.4778727E+02  0.7816164E-02  0.1312668E+00
        -11   -1    0    0    0    0  0.00000000000E+00  0.00000000000E+00  0.45593999997E+02  0.45594000000E+02  0.51100000000E-03 0. -1.
         11   -1    0    0    0    0 -0.00000000000E+00 -0.00000000000E+00 -0.45593999997E+02  0.45594000000E+02  0.51100000000E-03 0.  1.
    9900012    2    1    2    0    0  0.40962376591E+02 -0.12778159739E+02 -0.65134802941E+01  0.47787273188E+02  0.20000009771E+02 0.  0.
        -12    1    1    2    0    0 -0.40962376591E+02  0.12778159739E+02  0.65134802941E+01  0.43400726812E+02  0.00000000000E+00 0.  1.
         11    1    3    3    0    0  0.18051001420E+02 -0.94718533160E+01 -0.12006548582E+02  0.23658230420E+02  0.51100000000E-03 0.  1.
        -11    1    3    3    0    0  0.90136117867E+01  0.45909806250E+00  0.30348816876E+01  0.95218945379E+01  0.51100000000E-03 0. -1.
        -12    1    3    3    0    0  0.13897763385E+02 -0.37654044853E+01  0.24581866005E+01  0.14607148230E+02  0.00000000000E+00 0.  1.
</event>
<event>
 7    1  0.2442667E-009  0.4778727E+02  0.7816164E-02  0.1312668E+00
        -11   -1    0    0    0    0  0.00000000000E+00  0.00000000000E+00  0.45593999997E+02  0.45594000000E+02  0.51100000000E-03 0.  1.
         11   -1    0    0    0    0 -0.00000000000E+00 -0.00000000000E+00 -0.45593999997E+02  0.45594000000E+02  0.51100000000E-03 0. -1.
    9900012    2    1    2    0    0  0.10305654095E+02 -0.41195335566E+02  0.89644281619E+01  0.47787272460E+02  0.20000006453E+02 0.  0.
        -12    1    1    2    0    0 -0.10305654095E+02  0.41195335566E+02 -0.89644281619E+01  0.43400727540E+02  0.00000000000E+00 0.  1.
         11    1    3    3    0    0  0.74687522698E+01 -0.13597637925E+02 -0.96540134880E+00  0.15543809624E+02  0.51100000000E-03 0. -1.
        -11    1    3    3    0    0 -0.45383984230E+01 -0.43976445194E+01  0.24241659203E+01  0.67685240810E+01  0.51100000000E-03 0.  1.
        -12    1    3    3    0    0  0.73753002485E+01 -0.23200053122E+02  0.75056635904E+01  0.25474938755E+02  0.00000000000E+00 0.  1.
</event>
<event>
 7    1  0.2442667E-009  0.4778727E+02  0.7816164E-02  0.1312668E+00
        -11   -1    0    0    0    0  0.00000000000E+00  0.00000000000E+00  0.45593999997E+02  0.45594000000E+02  0.51100000000E-03 0. -1.
         11   -1    0    0    0    0 -0.00000000000E+00 -0.00000000000E+00 -0.45593999997E+02  0.45594000000E+02  0.51100000000E-03 0.  1.
    9900012    2    1    2    0    0  0.10391470142E+02 -0.31890952262E+02  0.27542835548E+02  0.47787270999E+02  0.19999999791E+02 0.  0.
        -12    1    1    2    0    0 -0.10391470142E+02  0.31890952262E+02 -0.27542835548E+02  0.43400729001E+02  0.00000000000E+00 0.  1.
         11    1    3    3    0    0  0.76422438302E+01 -0.20303805024E+02  0.23747068027E+02  0.32164757567E+02  0.51100000000E-03 0. -1.
        -11    1    3    3    0    0  0.48037540358E+01 -0.41713438588E+01  0.46497592510E+01  0.78801284113E+01  0.51100000000E-03 0.  1.
         12    1    3    3    0    0 -0.20545277245E+01 -0.74158033792E+01 -0.85399173038E+00  0.77423850204E+01  0.00000000000E+00 0. -1.
</event>
<event>
 7    1  0.2442667E-009  0.4778727E+02  0.7816164E-02  0.1312668E+00
        -11   -1    0    0    0    0  0.00000000000E+00  0.00000000000E+00  0.45593999997E+02  0.45594000000E+02  0.51100000000E-03 0. -1.
         11   -1    0    0    0    0 -0.00000000000E+00 -0.00000000000E+00 -0.45593999997E+02  0.45594000000E+02  0.51100000000E-03 0.  1.
    9900012    2    1    2    0    0 -0.40068691402E+02  0.76288850030E+01  0.14829816051E+02  0.47787270038E+02  0.19999995413E+02 0.  0.
        -12    1    1    2    0    0  0.40068691402E+02 -0.76288850030E+01 -0.14829816051E+02  0.43400729962E+02  0.00000000000E+00 0.  1.
         11    1    3    3    0    0 -0.36171045336E+02  0.38446923405E+00  0.11629619505E+02  0.37996583891E+02  0.51100000000E-03 0. -1.
        -11    1    3    3    0    0 -0.45403186866E+01  0.48472498001E+01  0.30384652244E+01  0.73036015487E+01  0.51100000000E-03 0.  1.
         12    1    3    3    0    0  0.64267262059E+00  0.23971659688E+01  0.16173132161E+00  0.24870845984E+01  0.00000000000E+00 0. -1.
</event>
<event>
 7    1  0.2442667E-009  0.4778727E+02  0.7816164E-02  0.1312668E+00
        -11   -1    0    0    0    0  0.00000000000E+00  0.00000000000E+00  0.45593999997E+02  0.45594000000E+02  0.51100000000E-03 0.  1.
         11   -1    0    0    0    0 -0.00000000000E+00 -0.00000000000E+00 -0.45593999997E+02  0.45594000000E+02  0.51100000000E-03 0. -1.
    9900012    2    1    2    0    0  0.33848942262E+02 -0.15091711405E+02  0.22585674111E+02  0.47787270508E+02  0.19999997553E+02 0.  0.
        -12    1    1    2    0    0 -0.33848942262E+02  0.15091711405E+02 -0.22585674111E+02  0.43400729492E+02  0.00000000000E+00 0.  1.
         11    1    3    3    0    0  0.12872452270E+02 -0.14415847008E+02  0.11307083902E+02  0.22391221919E+02  0.51100000000E-03 0. -1.
        -11    1    3    3    0    0  0.96720799344E+01 -0.14754540910E+01  0.10002126026E+02  0.13991734000E+02  0.51100000000E-03 0.  1.
         12    1    3    3    0    0  0.11304410057E+02  0.79958969400E+00  0.12764641840E+01  0.11404314589E+02  0.00000000000E+00 0. -1.
</event>
<event>
 7    1  0.2442667E-009  0.4778727E+02  0.7816164E-02  0.1312668E+00
        -11   -1    0    0    0    0  0.00000000000E+00  0.00000000000E+00  0.45593999997E+02  0.45594000000E+02  0.51100000000E-03 0.  1.
         11   -1    0    0    0    0 -0.00000000000E+00 -0.00000000000E+00 -0.45593999997E+02  0.45594000000E+02  0.51100000000E-03 0. -1.
    9900012    2    1    2    0    0  0.21003595207E+01 -0.92258084681E+01 -0.42356778170E+02  0.47787266032E+02  0.19999977145E+02 0.  0.
        -12    1    1    2    0    0 -0.21003595207E+01  0.92258084681E+01  0.42356778170E+02  0.43400733968E+02  0.00000000000E+00 0.  1.
         11    1    3    3    0    0  0.39525448366E+01 -0.17714624026E+01 -0.10918492898E+02  0.11746240980E+02  0.51100000000E-03 0. -1.
        -11    1    3    3    0    0  0.53207903386E+01  0.19895812925E+01 -0.85905422204E+01  0.10298866901E+02  0.51100000000E-03 0.  1.
        -12    1    3    3    0    0 -0.71729756545E+01 -0.94439273580E+01 -0.22847743052E+02  0.25742158151E+02  0.00000000000E+00 0.  1.
</event>
<event>
 7    1  0.2442667E-009  0.4778727E+02  0.7816164E-02  0.1312668E+00
        -11   -1    0    0    0    0  0.00000000000E+00  0.00000000000E+00  0.45593999997E+02  0.45594000000E+02  0.51100000000E-03 0.  1.
         11   -1    0    0    0    0 -0.00000000000E+00 -0.00000000000E+00 -0.45593999997E+02  0.45594000000E+02  0.51100000000E-03 0. -1.
    9900012    2    1    2    0    0 -0.51147066191E+01  0.40105087423E+02 -0.15781150223E+02  0.47787274621E+02  0.20000016309E+02 0.  0.
        -12    1    1    2    0    0  0.51147066191E+01 -0.40105087423E+02  0.15781150223E+02  0.43400725379E+02  0.00000000000E+00 0.  1.
         11    1    3    3    0    0 -0.13537672842E+01  0.28708578138E+02 -0.14685349507E+02  0.32274984663E+02  0.51100000000E-03 0. -1.
        -11    1    3    3    0    0 -0.65074447293E+01  0.62116092091E+01 -0.27660179006E+01  0.94117894770E+01  0.51100000000E-03 0.  1.
         12    1    3    3    0    0  0.27465053943E+01  0.51849000762E+01  0.16702171851E+01  0.61005004816E+01  0.00000000000E+00 0. -1.
</event>
<event>
 7    1  0.2442667E-009  0.4778728E+02  0.7816164E-02  0.1312668E+00
        -11   -1    0    0    0    0  0.00000000000E+00  0.00000000000E+00  0.45593999997E+02  0.45594000000E+02  0.51100000000E-03 0.  1.
         11   -1    0    0    0    0 -0.00000000000E+00 -0.00000000000E+00 -0.45593999997E+02  0.45594000000E+02  0.51100000000E-03 0. -1.
    9900012    2    1    2    0    0  0.78126934777E+01 -0.56985825818E+01 -0.42309701348E+02  0.47787275917E+02  0.20000022216E+02 0.  0.
        -12    1    1    2    0    0 -0.78126934777E+01  0.56985825818E+01  0.42309701348E+02  0.43400724083E+02  0.00000000000E+00 0.  1.
         11    1    3    3    0    0  0.24732864062E+01 -0.21335645009E+01 -0.34840821179E+02  0.34993600327E+02  0.51100000000E-03 0. -1.
        -11    1    3    3    0    0  0.54284815724E+01 -0.57185286998E+01 -0.70932108775E+01  0.10605829693E+02  0.51100000000E-03 0.  1.
        -12    1    3    3    0    0 -0.89074500825E-01  0.21535106189E+01 -0.37566929096E+00  0.21878458969E+01  0.00000000000E+00 0.  1.
</event>
<event>
 7    1  0.2442667E-009  0.4778727E+02  0.7816164E-02  0.1312668E+00
        -11   -1    0    0    0    0  0.00000000000E+00  0.00000000000E+00  0.45593999997E+02  0.45594000000E+02  0.51100000000E-03 0. -1.
         11   -1    0    0    0    0 -0.00000000000E+00 -0.00000000000E+00 -0.45593999997E+02  0.45594000000E+02  0.51100000000E-03 0.  1.
    9900012    2    1    2    0    0 -0.11324885065E+02  0.41879943591E+02  0.12002866096E+01  0.47787269766E+02  0.19999994170E+02 0.  0.
        -12    1    1    2    0    0  0.11324885065E+02 -0.41879943591E+02 -0.12002866096E+01  0.43400730234E+02  0.00000000000E+00 0.  1.
         11    1    3    3    0    0 -0.92645748028E+01  0.14721074367E+02  0.61744031113E+01  0.18457129539E+02  0.51100000000E-03 0. -1.
        -11    1    3    3    0    0  0.37977459146E+01  0.13884370405E+02 -0.23400163868E+01  0.14583356696E+02  0.51100000000E-03 0.  1.
        -12    1    3    3    0    0 -0.58580561763E+01  0.13274498819E+02 -0.26341001149E+01  0.14746783530E+02  0.00000000000E+00 0.  1.
</event>
<event>
 7    1 -0.2442667E-009  0.4778727E+02  0.7816164E-02  0.1312668E+00
        -11   -1    0    0    0    0  0.00000000000E+00  0.00000000000E+00  0.45593999997E+02  0.45594000000E+02  0.51100000000E-03 0.  1.
         11   -1    0    0    0    0 -0.00000000000E+00 -0.00000000000E+00 -0.45593999997E+02  0.45594000000E+02  0.51100000000E-03 0. -1.
    9900012    2    1    2    0    0  0.35395826356E+02  0.55937378259E+01 -0.24484048726E+02  0.47787273413E+02  0.20000010799E+02 0.  0.
        -12    1    1    2    0    0 -0.35395826356E+02 -0.55937378259E+01  0.24484048726E+02  0.43400726587E+02  0.00000000000E+00 0.  1.
         11    1    3    3    0    0  0.24530220692E+02  0.11856457315E+01 -0.22922451112E+02  0.33594288923E+02  0.51100000000E-03 0. -1.
        -11    1    3    3    0    0  0.10218351998E+02  0.39448368781E+01 -0.39745135453E+01  0.11652176351E+02  0.51100000000E-03 0.  1.
         12    1    3    3    0    0  0.64725366617E+00  0.46325521629E+00  0.24129159316E+01  0.25408081385E+01  0.00000000000E+00 0. -1.
</event>
<event>
 7    1  0.2442667E-009  0.4778727E+02  0.7816164E-02  0.1312668E+00
        -11   -1    0    0    0    0  0.00000000000E+00  0.00000000000E+00  0.45593999997E+02  0.45594000000E+02  0.51100000000E-03 0.  1.
         11   -1    0    0    0    0 -0.00000000000E+00 -0.00000000000E+00 -0.45593999997E+02  0.45594000000E+02  0.51100000000E-03 0. -1.
    9900012    2    1    2    0    0 -0.20701551067E+01 -0.32230549109E+02 -0.28991885708E+02  0.47787271032E+02  0.19999999944E+02 0.  0.
        -12    1    1    2    0    0  0.20701551067E+01  0.32230549109E+02  0.28991885708E+02  0.43400728968E+02  0.00000000000E+00 0.  1.
         11    1    3    3    0    0  0.22103176730E+01 -0.68146562082E+01 -0.11879840277E+02  0.13872838524E+02  0.51100000000E-03 0. -1.
        -11    1    3    3    0    0 -0.24006011113E+01 -0.96177359330E+01  0.81447144175E+00  0.99462100402E+01  0.51100000000E-03 0.  1.
        -12    1    3    3    0    0 -0.18798716684E+01 -0.15798156968E+02 -0.17926516872E+02  0.23968222467E+02  0.00000000000E+00 0.  1.
</event>
<event>
 7    1  0.2442667E-009  0.4778728E+02  0.7816164E-02  0.1312668E+00
        -11   -1    0    0    0    0  0.00000000000E+00  0.00000000000E+00  0.45593999997E+02  0.45594000000E+02  0.51100000000E-03 0.  1.
         11   -1    0    0    0    0 -0.00000000000E+00 -0.00000000000E+00 -0.45593999997E+02  0.45594000000E+02  0.51100000000E-03 0. -1.
    9900012    2    1    2    0    0 -0.29396229025E+02  0.19518278816E+02 -0.25268976362E+02  0.47787278171E+02  0.20000032494E+02 0.  0.
        -12    1    1    2    0    0  0.29396229025E+02 -0.19518278816E+02  0.25268976362E+02  0.43400721829E+02  0.00000000000E+00 0.  1.
         11    1    3    3    0    0 -0.20512380087E+02  0.17660007674E+02 -0.14438057478E+02  0.30677208345E+02  0.51100000000E-03 0. -1.
        -11    1    3    3    0    0 -0.80119964701E+01 -0.27941917043E+01 -0.64237872319E+01  0.10642586029E+02  0.51100000000E-03 0.  1.
        -12    1    3    3    0    0 -0.87185246830E+00  0.46524628465E+01 -0.44071316527E+01  0.64674837973E+01  0.00000000000E+00 0.  1.
</event>
<event>
 7    1  0.2442667E-009  0.4778727E+02  0.7816164E-02  0.1312668E+00
        -11   -1    0    0    0    0  0.00000000000E+00  0.00000000000E+00  0.45593999997E+02  0.45594000000E+02  0.51100000000E-03 0.  1.
         11   -1    0    0    0    0 -0.00000000000E+00 -0.00000000000E+00 -0.45593999997E+02  0.45594000000E+02  0.51100000000E-03 0. -1.
    9900012    2    1    2    0    0  0.42444688655E+00 -0.37309009490E+02 -0.22169369987E+02  0.47787270630E+02  0.19999998109E+02 0.  0.
        -12    1    1    2    0    0 -0.42444688655E+00  0.37309009490E+02  0.22169369987E+02  0.43400729370E+02  0.00000000000E+00 0.  1.
         11    1    3    3    0    0  0.61730875675E+01 -0.22075850274E+02 -0.77355907401E+01  0.24192758003E+02  0.51100000000E-03 0. -1.
        -11    1    3    3    0    0 -0.78701266479E+01 -0.89850964428E+01 -0.79819187704E+01  0.14365997322E+02  0.51100000000E-03 0.  1.
        -12    1    3    3    0    0  0.21214859669E+01 -0.62480627727E+01 -0.64518604761E+01  0.92285153043E+01  0.00000000000E+00 0.  1.
</event>
<event>
 7    1  0.2442667E-009  0.4778727E+02  0.7816164E-02  0.1312668E+00
        -11   -1    0    0    0    0  0.00000000000E+00  0.00000000000E+00  0.45593999997E+02  0.45594000000E+02  0.51100000000E-03 0.  1.
         11   -1    0    0    0    0 -0.00000000000E+00 -0.00000000000E+00 -0.45593999997E+02  0.45594000000E+02  0.51100000000E-03 0. -1.
    9900012    2    1    2    0    0 -0.53959813301E+01 -0.28426692191E+02 -0.32348568286E+02  0.47787270587E+02  0.19999997915E+02 0.  0.
        -12    1    1    2    0    0  0.53959813301E+01  0.28426692191E+02  0.32348568286E+02  0.43400729413E+02  0.00000000000E+00 0.  1.
         11    1    3    3    0    0  0.46523711529E+01 -0.22092934409E+02 -0.20761937983E+02  0.30672469370E+02  0.51100000000E-03 0. -1.
        -11    1    3    3    0    0 -0.89996611578E+01 -0.69354341516E+01 -0.10132708240E+02  0.15223860364E+02  0.51100000000E-03 0.  1.
         12    1    3    3    0    0 -0.10486913252E+01  0.60167636993E+00 -0.14539220621E+01  0.18909408537E+01  0.00000000000E+00 0. -1.
</event>
<event>
 7    1  0.2442667E-009  0.4778726E+02  0.7816164E-02  0.1312668E+00
        -11   -1    0    0    0    0  0.00000000000E+00  0.00000000000E+00  0.45593999997E+02  0.45594000000E+02  0.51100000000E-03 0. -1.
         11   -1    0    0    0    0 -0.00000000000E+00 -0.00000000000E+00 -0.45593999997E+02  0.45594000000E+02  0.51100000000E-03 0.  1.
    9900012    2    1    2    0    0 -0.22727571651E+02  0.28832534940E+02  0.23146626364E+02  0.47787263875E+02  0.19999967310E+02 0.  0.
        -12    1    1    2    0    0  0.22727571651E+02 -0.28832534940E+02 -0.23146626364E+02  0.43400736125E+02  0.00000000000E+00 0.  1.
         11    1    3    3    0    0 -0.12076133464E+02  0.17401545405E+01  0.98813274055E+01  0.15700374799E+02  0.51100000000E-03 0. -1.
        -11    1    3    3    0    0 -0.32277229041E+01  0.11535615258E+02  0.53497299260E+01  0.13119002441E+02  0.51100000000E-03 0.  1.
         12    1    3    3    0    0 -0.74237152832E+01  0.15556765142E+02  0.79155690324E+01  0.18967886635E+02  0.00000000000E+00 0. -1.
</event>
<event>
 7    1  0.2442667E-009  0.4778732E+02  0.7816164E-02  0.1312668E+00
        -11   -1    0    0    0    0  0.00000000000E+00  0.00000000000E+00  0.45593999997E+02  0.45594000000E+02  0.51100000000E-03 0. -1.
         11   -1    0    0    0    0 -0.00000000000E+00 -0.00000000000E+00 -0.45593999997E+02  0.45594000000E+02  0.51100000000E-03 0.  1.
    9900012    2    1    2    0    0 -0.92872854430E+01  0.34053938228E+02  0.25252610161E+02  0.47787323741E+02  0.20000240265E+02 0.  0.
        -12    1    1    2    0    0  0.92872854430E+01 -0.34053938228E+02 -0.25252610161E+02  0.43400676259E+02  0.00000000000E+00 0.  1.
         11    1    3    3    0    0 -0.77546247534E+01  0.51942548952E+01  0.72973258915E+01  0.11847592769E+02  0.51100000000E-03 0. -1.
        -11    1    3    3    0    0  0.49618197021E+01  0.14676450171E+02  0.98708986543E+01  0.18369879828E+02  0.51100000000E-03 0.  1.
        -12    1    3    3    0    0 -0.64944803918E+01  0.14183233162E+02  0.80843856154E+01  0.17569851145E+02  0.00000000000E+00 0.  1.
</event>
<event>
 7    1  0.2442667E-009  0.4778727E+02  0.7816164E-02  0.1312668E+00
        -11   -1    0    0    0    0  0.00000000000E+00  0.00000000000E+00  0.45593999997E+02  0.45594000000E+02  0.51100000000E-03 0.  1.
         11   -1    0    0    0    0 -0.00000000000E+00 -0.00000000000E+00 -0.45593999997E+02  0.45594000000E+02  0.51100000000E-03 0. -1.
    9900012    2    1    2    0    0 -0.42605967648E+02  0.48551762160E+01 -0.66919552341E+01  0.47787268668E+02  0.19999989164E+02 0.  0.
        -12    1    1    2    0    0  0.42605967648E+02 -0.48551762160E+01  0.66919552341E+01  0.43400731332E+02  0.00000000000E+00 0.  1.
         11    1    3    3    0    0 -0.16153073673E+01 -0.30400587032E+01 -0.34855400557E+01  0.48989962800E+01  0.51100000000E-03 0. -1.
        -11    1    3    3    0    0 -0.16106340185E+01  0.60249203834E-01  0.18107269310E+01  0.24241501991E+01  0.51100000000E-03 0.  1.
         12    1    3    3    0    0 -0.39380026262E+02  0.78349857154E+01 -0.50171421095E+01  0.40464122189E+02  0.00000000000E+00 0. -1.
</event>
<event>
 7    1  0.2442667E-009  0.4778727E+02  0.7816164E-02  0.1312668E+00
        -11   -1    0    0    0    0  0.00000000000E+00  0.00000000000E+00  0.45593999997E+02  0.45594000000E+02  0.51100000000E-03 0. -1.
         11   -1    0    0    0    0 -0.00000000000E+00 -0.00000000000E+00 -0.45593999997E+02  0.45594000000E+02  0.51100000000E-03 0.  1.
    9900012    2    1    2    0    0  0.13105752513E+02  0.27575649920E+02  0.30845522243E+02  0.47787268901E+02  0.19999990229E+02 0.  0.
        -12    1    1    2    0    0 -0.13105752513E+02 -0.27575649920E+02 -0.30845522243E+02  0.43400731099E+02  0.00000000000E+00 0.  1.
         11    1    3    3    0    0  0.33805718129E+01  0.46237668274E+01  0.24190284874E+01  0.62176510468E+01  0.51100000000E-03 0.  1.
        -11    1    3    3    0    0  0.11605467376E+02  0.92816668444E+01  0.21483737865E+02  0.26122542092E+02  0.51100000000E-03 0. -1.
        -12    1    3    3    0    0 -0.18802866758E+01  0.13670216248E+02  0.69427558907E+01  0.15447075762E+02  0.00000000000E+00 0.  1.
</event>
<event>
 7    1  0.2442667E-009  0.4778727E+02  0.7816164E-02  0.1312668E+00
        -11   -1    0    0    0    0  0.00000000000E+00  0.00000000000E+00  0.45593999997E+02  0.45594000000E+02  0.51100000000E-03 0.  1.
         11   -1    0    0    0    0 -0.00000000000E+00 -0.00000000000E+00 -0.45593999997E+02  0.45594000000E+02  0.51100000000E-03 0. -1.
    9900012    2    1    2    0    0 -0.27486859663E+02 -0.31316131804E+02  0.12140660946E+02  0.47787271740E+02  0.20000003171E+02 0.  0.
        -12    1    1    2    0    0  0.27486859663E+02  0.31316131804E+02 -0.12140660946E+02  0.43400728260E+02  0.00000000000E+00 0.  1.
         11    1    3    3    0    0 -0.13872171576E+02 -0.13178545879E+02 -0.15945412846E+01  0.19200358796E+02  0.51100000000E-03 0. -1.
        -11    1    3    3    0    0 -0.98387760636E+01 -0.18279543878E+02  0.13577438461E+02  0.24805041307E+02  0.51100000000E-03 0.  1.
        -12    1    3    3    0    0 -0.37759120234E+01  0.14195795353E+00  0.15776376968E+00  0.37818716367E+01  0.00000000000E+00 0.  1.
</event>
<event>
 7    1  0.2442667E-009  0.4778727E+02  0.7816164E-02  0.1312668E+00
        -11   -1    0    0    0    0  0.00000000000E+00  0.00000000000E+00  0.45593999997E+02  0.45594000000E+02  0.51100000000E-03 0. -1.
         11   -1    0    0    0    0 -0.00000000000E+00 -0.00000000000E+00 -0.45593999997E+02  0.45594000000E+02  0.51100000000E-03 0.  1.
    9900012    2    1    2    0    0  0.28720701241E+02 -0.31392916885E+02 -0.85574423550E+01  0.47787265790E+02  0.19999976041E+02 0.  0.
        -12    1    1    2    0    0 -0.28720701241E+02  0.31392916885E+02  0.85574423550E+01  0.43400734210E+02  0.00000000000E+00 0.  1.
         11    1    3    3    0    0  0.10397685092E+02 -0.76286492658E+01  0.27871148963E+01  0.13193792275E+02  0.51100000000E-03 0. -1.
        -11    1    3    3    0    0  0.20034563518E+02 -0.22573588829E+02 -0.11888080375E+02  0.32438820929E+02  0.51100000000E-03 0.  1.
        -12    1    3    3    0    0 -0.17115473688E+01 -0.11906787903E+01  0.54352312416E+00  0.21546525855E+01  0.00000000000E+00 0.  1.
</event>
<event>
 7    1  0.2442667E-009  0.4778727E+02  0.7816164E-02  0.1312668E+00
        -11   -1    0    0    0    0  0.00000000000E+00  0.00000000000E+00  0.45593999997E+02  0.45594000000E+02  0.51100000000E-03 0. -1.
         11   -1    0    0    0    0 -0.00000000000E+00 -0.00000000000E+00 -0.45593999997E+02  0.45594000000E+02  0.51100000000E-03 0.  1.
    9900012    2    1    2    0    0  0.27840153636E+02 -0.14568940722E+02  0.29938185143E+02  0.47787272841E+02  0.20000008192E+02 0.  0.
        -12    1    1    2    0    0 -0.27840153636E+02  0.14568940722E+02 -0.29938185143E+02  0.43400727159E+02  0.00000000000E+00 0.  1.
         11    1    3    3    0    0  0.23771583224E+02 -0.11548337299E+02  0.32629941506E+02  0.41990062471E+02  0.51100000000E-03 0. -1.
        -11    1    3    3    0    0  0.27695619589E+01 -0.19779570506E+01 -0.13617456487E+01  0.36656703359E+01  0.51100000000E-03 0.  1.
         12    1    3    3    0    0  0.12990084531E+01 -0.10426463724E+01 -0.13300107140E+01  0.21315400345E+01  0.00000000000E+00 0. -1.
</event>
<event>
 7    1  0.2442667E-009  0.4778727E+02  0.7816164E-02  0.1312668E+00
        -11   -1    0    0    0    0  0.00000000000E+00  0.00000000000E+00  0.45593999997E+02  0.45594000000E+02  0.51100000000E-03 0. -1.
         11   -1    0    0    0    0 -0.00000000000E+00 -0.00000000000E+00 -0.45593999997E+02  0.45594000000E+02  0.51100000000E-03 0.  1.
    9900012    2    1    2    0    0 -0.69986429476E+01  0.35896388177E+02  0.23368596701E+02  0.47787274211E+02  0.20000014437E+02 0.  0.
        -12    1    1    2    0    0  0.69986429476E+01 -0.35896388177E+02 -0.23368596701E+02  0.43400725789E+02  0.00000000000E+00 0.  1.
         11    1    3    3    0    0 -0.46868846043E+01  0.28267433392E+02  0.12004788668E+02  0.31066535518E+02  0.51100000000E-03 0. -1.
        -11    1    3    3    0    0 -0.29621589617E+01  0.14835297149E+01 -0.49373299507E+00  0.33494803568E+01  0.51100000000E-03 0.  1.
         12    1    3    3    0    0  0.65040061834E+00  0.61454250693E+01  0.11857541028E+02  0.13371258336E+02  0.00000000000E+00 0. -1.
</event>
<event>
 7    1  0.2442667E-009  0.4778727E+02  0.7816164E-02  0.1312668E+00
        -11   -1    0    0    0    0  0.00000000000E+00  0.00000000000E+00  0.45593999997E+02  0.45594000000E+02  0.51100000000E-03 0.  1.
         11   -1    0    0    0    0 -0.00000000000E+00 -0.00000000000E+00 -0.45593999997E+02  0.45594000000E+02  0.51100000000E-03 0. -1.
    9900012    2    1    2    0    0 -0.34959927026E+02 -0.40589907734E+00 -0.25715016290E+02  0.47787270576E+02  0.19999997866E+02 0.  0.
        -12    1    1    2    0    0  0.34959927026E+02  0.40589907734E+00  0.25715016290E+02  0.43400729424E+02  0.00000000000E+00 0.  1.
         11    1    3    3    0    0 -0.24383439304E+02 -0.63437166344E+00 -0.80530914743E+01  0.25686705165E+02  0.51100000000E-03 0. -1.
        -11    1    3    3    0    0 -0.82111788324E+00 -0.19477365552E+01 -0.77150892185E+01  0.79994071141E+01  0.51100000000E-03 0.  1.
        -12    1    3    3    0    0 -0.97553698385E+01  0.21762091413E+01 -0.99468355974E+01  0.14101158297E+02  0.00000000000E+00 0.  1.
</event>
<event>
 7    1  0.2442667E-009  0.4778727E+02  0.7816164E-02  0.1312668E+00
        -11   -1    0    0    0    0  0.00000000000E+00  0.00000000000E+00  0.45593999997E+02  0.45594000000E+02  0.51100000000E-03 0.  1.
         11   -1    0    0    0    0 -0.00000000000E+00 -0.00000000000E+00 -0.45593999997E+02  0.45594000000E+02  0.51100000000E-03 0. -1.
    9900012    2    1    2    0    0 -0.17929831038E+02  0.21842620432E+02 -0.32940012256E+02  0.47787270561E+02  0.19999997797E+02 0.  0.
        -12    1    1    2    0    0  0.17929831038E+02 -0.21842620432E+02  0.32940012256E+02  0.43400729439E+02  0.00000000000E+00 0.  1.
         11    1    3    3    0    0 -0.26499440738E+01  0.57162452021E+01 -0.54014276700E+01  0.82989808977E+01  0.51100000000E-03 0. -1.
        -11    1    3    3    0    0 -0.10834710769E+02  0.15104957474E+02 -0.29216175003E+02  0.34628537073E+02  0.51100000000E-03 0.  1.
        -12    1    3    3    0    0 -0.44451761949E+01  0.10214177561E+01  0.16775904170E+01  0.48597525907E+01  0.00000000000E+00 0.  1.
</event>
<event>
 7    1  0.2442667E-009  0.4778727E+02  0.7816164E-02  0.1312668E+00
        -11   -1    0    0    0    0  0.00000000000E+00  0.00000000000E+00  0.45593999997E+02  0.45594000000E+02  0.51100000000E-03 0.  1.
         11   -1    0    0    0    0 -0.00000000000E+00 -0.00000000000E+00 -0.45593999997E+02  0.45594000000E+02  0.51100000000E-03 0. -1.
    9900012    2    1    2    0    0  0.10899802488E+02 -0.41558598971E+02  0.61400514654E+01  0.47787273339E+02  0.20000010460E+02 0.  0.
        -12    1    1    2    0    0 -0.10899802488E+02  0.41558598971E+02 -0.61400514654E+01  0.43400726661E+02  0.00000000000E+00 0.  1.
         11    1    3    3    0    0  0.19603197316E+01 -0.13099279318E+02 -0.11453646670E+01  0.13294579068E+02  0.51100000000E-03 0. -1.
        -11    1    3    3    0    0  0.75855743921E+01 -0.29318227456E+02  0.95178718895E+01  0.31744122063E+02  0.51100000000E-03 0.  1.
        -12    1    3    3    0    0  0.13539083647E+01  0.85890780258E+00 -0.22324557572E+01  0.27485722077E+01  0.00000000000E+00 0.  1.
</event>
<event>
 7    1  0.2442667E-009  0.4778727E+02  0.7816164E-02  0.1312668E+00
        -11   -1    0    0    0    0  0.00000000000E+00  0.00000000000E+00  0.45593999997E+02  0.45594000000E+02  0.51100000000E-03 0. -1.
         11   -1    0    0    0    0 -0.00000000000E+00 -0.00000000000E+00 -0.45593999997E+02  0.45594000000E+02  0.51100000000E-03 0.  1.
    9900012    2    1    2    0    0 -0.17483325372E+02  0.31461848635E+02  0.24250950675E+02  0.47787271962E+02  0.20000004183E+02 0.  0.
        -12    1    1    2    0    0  0.17483325372E+02 -0.31461848635E+02 -0.24250950675E+02  0.43400728038E+02  0.00000000000E+00 0.  1.
         11    1    3    3    0    0 -0.14019741226E+02  0.14322711723E+02  0.13105743808E+02  0.23946894082E+02  0.51100000000E-03 0. -1.
        -11    1    3    3    0    0  0.80176768415E+00  0.70020427834E+01  0.10726270631E+02  0.12834497126E+02  0.51100000000E-03 0.  1.
        -12    1    3    3    0    0 -0.42653518307E+01  0.10137094128E+02  0.41893623606E+00  0.11005880754E+02  0.00000000000E+00 0.  1.
</event>
<event>
 7    1  0.2442667E-009  0.4778725E+02  0.7816164E-02  0.1312668E+00
        -11   -1    0    0    0    0  0.00000000000E+00  0.00000000000E+00  0.45593999997E+02  0.45594000000E+02  0.51100000000E-03 0.  1.
         11   -1    0    0    0    0 -0.00000000000E+00 -0.00000000000E+00 -0.45593999997E+02  0.45594000000E+02  0.51100000000E-03 0. -1.
    9900012    2    1    2    0    0  0.41378016769E+01 -0.83107460223E+00 -0.43195059973E+02  0.47787247774E+02  0.19999893898E+02 0.  0.
        -12    1    1    2    0    0 -0.41378016769E+01  0.83107460223E+00  0.43195059973E+02  0.43400752226E+02  0.00000000000E+00 0.  1.
         11    1    3    3    0    0  0.73428647525E+01 -0.27682586978E+01 -0.24880774762E+02  0.26088960731E+02  0.51100000000E-03 0. -1.
        -11    1    3    3    0    0 -0.52709054006E+01  0.37815714918E+01 -0.17714160883E+02  0.18864628879E+02  0.51100000000E-03 0.  1.
         12    1    3    3    0    0  0.20658423251E+01 -0.18443873962E+01 -0.60012432840E+00  0.28336581638E+01  0.00000000000E+00 0. -1.
</event>
<event>
 7    1  0.2442667E-009  0.4778727E+02  0.7816164E-02  0.1312668E+00
        -11   -1    0    0    0    0  0.00000000000E+00  0.00000000000E+00  0.45593999997E+02  0.45594000000E+02  0.51100000000E-03 0. -1.
         11   -1    0    0    0    0 -0.00000000000E+00 -0.00000000000E+00 -0.45593999997E+02  0.45594000000E+02  0.51100000000E-03 0.  1.
    9900012    2    1    2    0    0 -0.31939218023E+02 -0.29162258339E+02  0.36156255794E+01  0.47787266047E+02  0.19999977213E+02 0.  0.
        -12    1    1    2    0    0  0.31939218023E+02  0.29162258339E+02 -0.36156255794E+01  0.43400733953E+02  0.00000000000E+00 0.  1.
         11    1    3    3    0    0 -0.16468490049E+02 -0.66061025260E+01 -0.30877176312E+01  0.18010712243E+02  0.51100000000E-03 0. -1.
        -11    1    3    3    0    0 -0.29911500462E+01 -0.70716847082E+01  0.62229359185E+01  0.98833514011E+01  0.51100000000E-03 0.  1.
         12    1    3    3    0    0 -0.12479577928E+02 -0.15484471105E+02  0.48040729215E+00  0.19893202402E+02  0.00000000000E+00 0. -1.
</event>
<event>
 7    1  0.2442667E-009  0.4778721E+02  0.7816164E-02  0.1312668E+00
        -11   -1    0    0    0    0  0.00000000000E+00  0.00000000000E+00  0.45593999997E+02  0.45594000000E+02  0.51100000000E-03 0.  1.
         11   -1    0    0    0    0 -0.00000000000E+00 -0.00000000000E+00 -0.45593999997E+02  0.45594000000E+02  0.51100000000E-03 0. -1.
    9900012    2    1    2    0    0  0.42352439879E+02  0.92782227871E+01 -0.19529196111E+01  0.47787211104E+02  0.19999726704E+02 0.  0.
        -12    1    1    2    0    0 -0.42352439879E+02 -0.92782227871E+01  0.19529196111E+01  0.43400788896E+02  0.00000000000E+00 0.  1.
         11    1    3    3    0    0  0.26037751299E+01 -0.33318323218E+01 -0.32394754430E+01  0.53268145223E+01  0.51100000000E-03 0. -1.
        -11    1    3    3    0    0  0.30286498582E+02  0.87965635493E+01 -0.23606243729E+01  0.31626319329E+02  0.51100000000E-03 0.  1.
         12    1    3    3    0    0  0.94621661678E+01  0.38134915596E+01  0.36471802048E+01  0.10834077252E+02  0.00000000000E+00 0. -1.
</event>
<event>
 7    1  0.2442667E-009  0.4778727E+02  0.7816164E-02  0.1312668E+00
        -11   -1    0    0    0    0  0.00000000000E+00  0.00000000000E+00  0.45593999997E+02  0.45594000000E+02  0.51100000000E-03 0.  1.
         11   -1    0    0    0    0 -0.00000000000E+00 -0.00000000000E+00 -0.45593999997E+02  0.45594000000E+02  0.51100000000E-03 0. -1.
    9900012    2    1    2    0    0 -0.38538935967E+02 -0.93589821544E+01 -0.17629040564E+02  0.47787271854E+02  0.20000003690E+02 0.  0.
        -12    1    1    2    0    0  0.38538935967E+02  0.93589821544E+01  0.17629040564E+02  0.43400728146E+02  0.00000000000E+00 0.  1.
         11    1    3    3    0    0 -0.28171932284E+02 -0.86185850697E+01 -0.92841437883E+01  0.30889045038E+02  0.51100000000E-03 0. -1.
        -11    1    3    3    0    0 -0.73326836525E+01  0.44798977878E+01 -0.56643700858E+01  0.10291881386E+02  0.51100000000E-03 0.  1.
        -12    1    3    3    0    0 -0.30343200305E+01 -0.52202948725E+01 -0.26805266898E+01  0.66063454299E+01  0.00000000000E+00 0.  1.
</event>
<event>
 7    1  0.2442667E-009  0.4778727E+02  0.7816164E-02  0.1312668E+00
        -11   -1    0    0    0    0  0.00000000000E+00  0.00000000000E+00  0.45593999997E+02  0.45594000000E+02  0.51100000000E-03 0. -1.
         11   -1    0    0    0    0 -0.00000000000E+00 -0.00000000000E+00 -0.45593999997E+02  0.45594000000E+02  0.51100000000E-03 0.  1.
    9900012    2    1    2    0    0 -0.19149343351E+02 -0.37801701227E+02  0.93785466405E+01  0.47787273007E+02  0.20000008949E+02 0.  0.
        -12    1    1    2    0    0  0.19149343351E+02  0.37801701227E+02 -0.93785466405E+01  0.43400726993E+02  0.00000000000E+00 0.  1.
         11    1    3    3    0    0 -0.10416981697E+02 -0.25292144497E+02 -0.11181273434E+01  0.27376199334E+02  0.51100000000E-03 0. -1.
        -11    1    3    3    0    0 -0.41648968795E+01 -0.72035369850E+01  0.67322857322E+00  0.83480864924E+01  0.51100000000E-03 0.  1.
         12    1    3    3    0    0 -0.45674647744E+01 -0.53060197449E+01  0.98234454106E+01  0.12062987181E+02  0.00000000000E+00 0. -1.
</event>
<event>
 7    1  0.2442667E-009  0.4778727E+02  0.7816164E-02  0.1312668E+00
        -11   -1    0    0    0    0  0.00000000000E+00  0.00000000000E+00  0.45593999997E+02  0.45594000000E+02  0.51100000000E-03 0. -1.
         11   -1    0    0    0    0 -0.00000000000E+00 -0.00000000000E+00 -0.45593999997E+02  0.45594000000E+02  0.51100000000E-03 0.  1.
    9900012    2    1    2    0    0 -0.14805785136E+02  0.36904311441E+02 -0.17392074483E+02  0.47787265775E+02  0.19999975976E+02 0.  0.
        -12    1    1    2    0    0  0.14805785136E+02 -0.36904311441E+02  0.17392074483E+02  0.43400734225E+02  0.00000000000E+00 0.  1.
         11    1    3    3    0    0 -0.14484015341E+02  0.26454081916E+02 -0.12908694435E+02  0.32806090024E+02  0.51100000000E-03 0. -1.
        -11    1    3    3    0    0  0.10424109580E+01 -0.14834584031E+01 -0.20299580326E+01  0.27217640078E+01  0.51100000000E-03 0.  1.
        -12    1    3    3    0    0 -0.13641807524E+01  0.11933687929E+02 -0.24534220154E+01  0.12259411743E+02  0.00000000000E+00 0.  1.
</event>
<event>
 7    1  0.2442667E-009  0.4778727E+02  0.7816164E-02  0.1312668E+00
        -11   -1    0    0    0    0  0.00000000000E+00  0.00000000000E+00  0.45593999997E+02  0.45594000000E+02  0.51100000000E-03 0.  1.
         11   -1    0    0    0    0 -0.00000000000E+00 -0.00000000000E+00 -0.45593999997E+02  0.45594000000E+02  0.51100000000E-03 0. -1.
    9900012    2    1    2    0    0 -0.41416970291E+02 -0.26390139735E+01 -0.12700134893E+02  0.47787271330E+02  0.20000001301E+02 0.  0.
        -12    1    1    2    0    0  0.41416970291E+02  0.26390139735E+01  0.12700134893E+02  0.43400728670E+02  0.00000000000E+00 0.  1.
         11    1    3    3    0    0 -0.28746548222E+02  0.52625680230E+01 -0.13326443797E+02  0.32119351821E+02  0.51100000000E-03 0. -1.
        -11    1    3    3    0    0 -0.11944328344E+02 -0.80867799426E+01 -0.36044339414E+00  0.14428891473E+02  0.51100000000E-03 0.  1.
         12    1    3    3    0    0 -0.72609372425E+00  0.18519794617E+00  0.98675229814E+00  0.12390280358E+01  0.00000000000E+00 0. -1.
</event>
<event>
 7    1  0.2442667E-009  0.4778732E+02  0.7816164E-02  0.1312668E+00
        -11   -1    0    0    0    0  0.00000000000E+00  0.00000000000E+00  0.45593999997E+02  0.45594000000E+02  0.51100000000E-03 0.  1.
         11   -1    0    0    0    0 -0.00000000000E+00 -0.00000000000E+00 -0.45593999997E+02  0.45594000000E+02  0.51100000000E-03 0. -1.
    9900012    2    1    2    0    0 -0.21479100329E+02  0.30838044074E+02 -0.21709029080E+02  0.47787324235E+02  0.20000242517E+02 0.  0.
        -12    1    1    2    0    0  0.21479100329E+02 -0.30838044074E+02  0.21709029080E+02  0.43400675765E+02  0.00000000000E+00 0.  1.
         11    1    3    3    0    0 -0.92635895441E+01  0.24753230247E+02 -0.18891431636E+02  0.32487269636E+02  0.51100000000E-03 0. -1.
        -11    1    3    3    0    0 -0.11750245092E+02  0.49124904698E+01 -0.42173118952E+01  0.13415906314E+02  0.51100000000E-03 0.  1.
         12    1    3    3    0    0 -0.46526569246E+00  0.11723233572E+01  0.13997144505E+01  0.18841482854E+01  0.00000000000E+00 0. -1.
</event>
<event>
 7    1  0.2442667E-009  0.4778726E+02  0.7816164E-02  0.1312668E+00
        -11   -1    0    0    0    0  0.00000000000E+00  0.00000000000E+00  0.45593999997E+02  0.45594000000E+02  0.51100000000E-03 0.  1.
         11   -1    0    0    0    0 -0.00000000000E+00 -0.00000000000E+00 -0.45593999997E+02  0.45594000000E+02  0.51100000000E-03 0. -1.
    9900012    2    1    2    0    0 -0.38646265978E+02  0.15664756410E+02 -0.12029371972E+02  0.47787259713E+02  0.19999948336E+02 0.  0.
        -12    1    1    2    0    0  0.38646265978E+02 -0.15664756410E+02  0.12029371972E+02  0.43400740287E+02  0.00000000000E+00 0.  1.
         11    1    3    3    0    0 -0.12209330621E+02  0.11307082230E+02 -0.77395592941E+01  0.18352619461E+02  0.51100000000E-03 0. -1.
        -11    1    3    3    0    0 -0.25846084485E+01 -0.27344029832E+01  0.12049900134E+01  0.39508431632E+01  0.51100000000E-03 0.  1.
        -12    1    3    3    0    0 -0.23852326909E+02  0.70920771624E+01 -0.54948026915E+01  0.25483797089E+02  0.00000000000E+00 0.  1.
</event>
<event>
 7    1  0.2442667E-009  0.4778727E+02  0.7816164E-02  0.1312668E+00
        -11   -1    0    0    0    0  0.00000000000E+00  0.00000000000E+00  0.45593999997E+02  0.45594000000E+02  0.51100000000E-03 0. -1.
         11   -1    0    0    0    0 -0.00000000000E+00 -0.00000000000E+00 -0.45593999997E+02  0.45594000000E+02  0.51100000000E-03 0.  1.
    9900012    2    1    2    0    0  0.36299889163E+02 -0.21173129321E+02  0.10846203029E+02  0.47787268686E+02  0.19999989246E+02 0.  0.
        -12    1    1    2    0    0 -0.36299889163E+02  0.21173129321E+02 -0.10846203029E+02  0.43400731314E+02  0.00000000000E+00 0.  1.
         11    1    3    3    0    0  0.20947780668E+02 -0.14804288307E+02 -0.25653038926E+01  0.25779007962E+02  0.51100000000E-03 0.  1.
        -11    1    3    3    0    0  0.10163641699E+02 -0.17882891416E+01  0.96613661800E+01  0.14136463043E+02  0.51100000000E-03 0. -1.
        -12    1    3    3    0    0  0.51884667956E+01 -0.45805518721E+01  0.37501407412E+01  0.78717976803E+01  0.00000000000E+00 0.  1.
</event>
<event>
 7    1  0.2442667E-009  0.4778727E+02  0.7816164E-02  0.1312668E+00
        -11   -1    0    0    0    0  0.00000000000E+00  0.00000000000E+00  0.45593999997E+02  0.45594000000E+02  0.51100000000E-03 0.  1.
         11   -1    0    0    0    0 -0.00000000000E+00 -0.00000000000E+00 -0.45593999997E+02  0.45594000000E+02  0.51100000000E-03 0. -1.
    9900012    2    1    2    0    0 -0.26379347475E+01  0.32015854981E+02 -0.29183043725E+02  0.47787266009E+02  0.19999977040E+02 0.  0.
        -12    1    1    2    0    0  0.26379347475E+01 -0.32015854981E+02  0.29183043725E+02  0.43400733991E+02  0.00000000000E+00 0.  1.
         11    1    3    3    0    0 -0.26763057299E+00  0.16436867916E+02 -0.16064030865E+02  0.22984676219E+02  0.51100000000E-03 0. -1.
        -11    1    3    3    0    0  0.46861408459E+01  0.14215585571E+01 -0.50894296312E+01  0.70627925774E+01  0.51100000000E-03 0.  1.
        -12    1    3    3    0    0 -0.70564450204E+01  0.14157428508E+02 -0.80295832292E+01  0.17739797212E+02  0.00000000000E+00 0.  1.
</event>
<event>
 7    1  0.2442667E-009  0.4778727E+02  0.7816164E-02  0.1312668E+00
        -11   -1    0    0    0    0  0.00000000000E+00  0.00000000000E+00  0.45593999997E+02  0.45594000000E+02  0.51100000000E-03 0.  1.
         11   -1    0    0    0    0 -0.00000000000E+00 -0.00000000000E+00 -0.45593999997E+02  0.45594000000E+02  0.51100000000E-03 0. -1.
    9900012    2    1    2    0    0  0.33956581779E+02 -0.26908903194E+02 -0.25464855879E+01  0.47787272977E+02  0.20000008812E+02 0.  0.
        -12    1    1    2    0    0 -0.33956581779E+02  0.26908903194E+02  0.25464855879E+01  0.43400727023E+02  0.00000000000E+00 0.  1.
         11    1    3    3    0    0  0.11061483269E+02 -0.71159966953E+01 -0.23201370955E+01  0.13355779928E+02  0.51100000000E-03 0. -1.
        -11    1    3    3    0    0  0.19650594366E+02 -0.20976612130E+02  0.39487675837E+01  0.29013046739E+02  0.51100000000E-03 0.  1.
        -12    1    3    3    0    0  0.32445041443E+01  0.11837056315E+01 -0.41751160762E+01  0.54184463100E+01  0.00000000000E+00 0.  1.
</event>
<event>
 7    1  0.2442667E-009  0.4778727E+02  0.7816164E-02  0.1312668E+00
        -11   -1    0    0    0    0  0.00000000000E+00  0.00000000000E+00  0.45593999997E+02  0.45594000000E+02  0.51100000000E-03 0. -1.
         11   -1    0    0    0    0 -0.00000000000E+00 -0.00000000000E+00 -0.45593999997E+02  0.45594000000E+02  0.51100000000E-03 0.  1.
    9900012    2    1    2    0    0  0.37979298415E+02  0.20730543240E+02  0.33824033238E+01  0.47787272087E+02  0.20000004755E+02 0.  0.
        -12    1    1    2    0    0 -0.37979298415E+02 -0.20730543240E+02 -0.33824033238E+01  0.43400727913E+02  0.00000000000E+00 0.  1.
         11    1    3    3    0    0  0.25536121594E+02  0.14805983167E+02  0.32481236582E+01  0.29696143709E+02  0.51100000000E-03 0. -1.
        -11    1    3    3    0    0 -0.10835058117E+01  0.11868249264E+01 -0.30152555158E+01  0.34167681128E+01  0.51100000000E-03 0.  1.
        -12    1    3    3    0    0  0.13526682632E+02  0.47377351468E+01  0.31495351814E+01  0.14674360266E+02  0.00000000000E+00 0.  1.
</event>
<event>
 7    1  0.2442667E-009  0.4778727E+02  0.7816164E-02  0.1312668E+00
        -11   -1    0    0    0    0  0.00000000000E+00  0.00000000000E+00  0.45593999997E+02  0.45594000000E+02  0.51100000000E-03 0. -1.
         11   -1    0    0    0    0 -0.00000000000E+00 -0.00000000000E+00 -0.45593999997E+02  0.45594000000E+02  0.51100000000E-03 0.  1.
    9900012    2    1    2    0    0  0.43164543987E+02 -0.30151395160E+01  0.33696444442E+01  0.47787269274E+02  0.19999991927E+02 0.  0.
        -12    1    1    2    0    0 -0.43164543987E+02  0.30151395160E+01 -0.33696444442E+01  0.43400730726E+02  0.00000000000E+00 0.  1.
         11    1    3    3    0    0  0.11750155748E+02 -0.64785193281E+01  0.28516889847E+01  0.13717488951E+02  0.51100000000E-03 0. -1.
        -11    1    3    3    0    0  0.97007315970E+01  0.38948641172E+01 -0.51084264724E+01  0.11634869200E+02  0.51100000000E-03 0.  1.
         12    1    3    3    0    0  0.21713656642E+02 -0.43148430521E+00  0.56263819319E+01  0.22434911123E+02  0.00000000000E+00 0. -1.
</event>
<event>
 7    1  0.2442667E-009  0.4778727E+02  0.7816164E-02  0.1312668E+00
        -11   -1    0    0    0    0  0.00000000000E+00  0.00000000000E+00  0.45593999997E+02  0.45594000000E+02  0.51100000000E-03 0.  1.
         11   -1    0    0    0    0 -0.00000000000E+00 -0.00000000000E+00 -0.45593999997E+02  0.45594000000E+02  0.51100000000E-03 0. -1.
    9900012    2    1    2    0    0 -0.16648305622E+02 -0.83226253435E+00 -0.40071990777E+02  0.47787272058E+02  0.20000004622E+02 0.  0.
        -12    1    1    2    0    0  0.16648305622E+02  0.83226253435E+00  0.40071990777E+02  0.43400727942E+02  0.00000000000E+00 0.  1.
         11    1    3    3    0    0 -0.80863318622E+01 -0.14640285889E+00 -0.17445647105E+02  0.19229165348E+02  0.51100000000E-03 0. -1.
        -11    1    3    3    0    0 -0.11641568597E+02  0.29074170322E+01 -0.12219915132E+02  0.17126164757E+02  0.51100000000E-03 0.  1.
        -12    1    3    3    0    0  0.30795948372E+01 -0.35932767077E+01 -0.10406428540E+02  0.11431941953E+02  0.00000000000E+00 0.  1.
</event>
<event>
 7    1  0.2442667E-009  0.4778728E+02  0.7816164E-02  0.1312668E+00
        -11   -1    0    0    0    0  0.00000000000E+00  0.00000000000E+00  0.45593999997E+02  0.45594000000E+02  0.51100000000E-03 0.  1.
         11   -1    0    0    0    0 -0.00000000000E+00 -0.00000000000E+00 -0.45593999997E+02  0.45594000000E+02  0.51100000000E-03 0. -1.
    9900012    2    1    2    0    0  0.11310119770E+02 -0.12573047525E+02 -0.39970270253E+02  0.47787276073E+02  0.20000022926E+02 0.  0.
        -12    1    1    2    0    0 -0.11310119770E+02  0.12573047525E+02  0.39970270253E+02  0.43400723927E+02  0.00000000000E+00 0.  1.
         11    1    3    3    0    0  0.73101781387E+01 -0.10954074454E+02 -0.33782823493E+02  0.36258924626E+02  0.51100000000E-03 0. -1.
        -11    1    3    3    0    0  0.12944292337E+01 -0.27058913443E+01  0.14657712583E+01  0.33385446905E+01  0.51100000000E-03 0.  1.
        -12    1    3    3    0    0  0.27055123980E+01  0.10869182739E+01 -0.76532180183E+01  0.81898067563E+01  0.00000000000E+00 0.  1.
</event>
<event>
 7    1  0.2442667E-009  0.4778727E+02  0.7816164E-02  0.1312668E+00
        -11   -1    0    0    0    0  0.00000000000E+00  0.00000000000E+00  0.45593999997E+02  0.45594000000E+02  0.51100000000E-03 0.  1.
         11   -1    0    0    0    0 -0.00000000000E+00 -0.00000000000E+00 -0.45593999997E+02  0.45594000000E+02  0.51100000000E-03 0. -1.
    9900012    2    1    2    0    0 -0.21929747865E+02  0.32921792467E+02 -0.17856791757E+02  0.47787271061E+02  0.20000000075E+02 0.  0.
        -12    1    1    2    0    0  0.21929747865E+02 -0.32921792467E+02  0.17856791757E+02  0.43400728939E+02  0.00000000000E+00 0.  1.
         11    1    3    3    0    0 -0.17405869614E+02  0.23355657745E+02 -0.14585582986E+02  0.32575915598E+02  0.51100000000E-03 0. -1.
        -11    1    3    3    0    0  0.31709724317E+01  0.49126147524E+01 -0.16321800867E+01  0.60706558100E+01  0.51100000000E-03 0.  1.
        -12    1    3    3    0    0 -0.76948506817E+01  0.46535199688E+01 -0.16390286841E+01  0.91406996528E+01  0.00000000000E+00 0.  1.
</event>
<event>
 7    1  0.2442667E-009  0.4778727E+02  0.7816164E-02  0.1312668E+00
        -11   -1    0    0    0    0  0.00000000000E+00  0.00000000000E+00  0.45593999997E+02  0.45594000000E+02  0.51100000000E-03 0.  1.
         11   -1    0    0    0    0 -0.00000000000E+00 -0.00000000000E+00 -0.45593999997E+02  0.45594000000E+02  0.51100000000E-03 0. -1.
    9900012    2    1    2    0    0 -0.15161443142E+02 -0.34811936945E+02 -0.21021006598E+02  0.47787273849E+02  0.20000012788E+02 0.  0.
        -12    1    1    2    0    0  0.15161443142E+02  0.34811936945E+02  0.21021006598E+02  0.43400726151E+02  0.00000000000E+00 0.  1.
         11    1    3    3    0    0 -0.99685415422E+01 -0.10836491739E+02 -0.11346118132E+02  0.18588592486E+02  0.51100000000E-03 0. -1.
        -11    1    3    3    0    0  0.22611190124E+01 -0.56681048202E+01  0.17748851561E+01  0.63553354765E+01  0.51100000000E-03 0.  1.
        -12    1    3    3    0    0 -0.74540206121E+01 -0.18307340386E+02 -0.11449773622E+02  0.22843345887E+02  0.00000000000E+00 0.  1.
</event>
<event>
 7    1  0.2442667E-009  0.4778727E+02  0.7816164E-02  0.1312668E+00
        -11   -1    0    0    0    0  0.00000000000E+00  0.00000000000E+00  0.45593999997E+02  0.45594000000E+02  0.51100000000E-03 0.  1.
         11   -1    0    0    0    0 -0.00000000000E+00 -0.00000000000E+00 -0.45593999997E+02  0.45594000000E+02  0.51100000000E-03 0. -1.
    9900012    2    1    2    0    0 -0.25972500166E+02 -0.61879754248E+01 -0.34216390982E+02  0.47787271704E+02  0.20000003009E+02 0.  0.
        -12    1    1    2    0    0  0.25972500166E+02  0.61879754248E+01  0.34216390982E+02  0.43400728296E+02  0.00000000000E+00 0.  1.
         11    1    3    3    0    0 -0.16162177021E+02 -0.79762253101E+01 -0.16780260770E+02  0.24625460158E+02  0.51100000000E-03 0. -1.
        -11    1    3    3    0    0  0.47317478093E+00  0.45584483308E+01 -0.56957179143E+01  0.73105778416E+01  0.51100000000E-03 0.  1.
        -12    1    3    3    0    0 -0.10283497926E+02 -0.27701984455E+01 -0.11740412298E+02  0.15851233705E+02  0.00000000000E+00 0.  1.
</event>
<event>
 7    1  0.2442667E-009  0.4778727E+02  0.7816164E-02  0.1312668E+00
        -11   -1    0    0    0    0  0.00000000000E+00  0.00000000000E+00  0.45593999997E+02  0.45594000000E+02  0.51100000000E-03 0.  1.
         11   -1    0    0    0    0 -0.00000000000E+00 -0.00000000000E+00 -0.45593999997E+02  0.45594000000E+02  0.51100000000E-03 0. -1.
    9900012    2    1    2    0    0 -0.19966706766E+02 -0.41055182417E+01 -0.38315772211E+02  0.47787273517E+02  0.20000011275E+02 0.  0.
        -12    1    1    2    0    0  0.19966706766E+02  0.41055182417E+01  0.38315772211E+02  0.43400726483E+02  0.00000000000E+00 0.  1.
         11    1    3    3    0    0 -0.86146636277E+01  0.43698142455E+01 -0.16498099407E+02  0.19117923273E+02  0.51100000000E-03 0. -1.
        -11    1    3    3    0    0 -0.70755962186E+00 -0.36170060003E+01  0.24738854024E+00  0.36938563015E+01  0.51100000000E-03 0.  1.
        -12    1    3    3    0    0 -0.10644483516E+02 -0.48583264868E+01 -0.22065061344E+02  0.24975493943E+02  0.00000000000E+00 0.  1.
</event>
<event>
 7    1  0.2442667E-009  0.4778727E+02  0.7816164E-02  0.1312668E+00
        -11   -1    0    0    0    0  0.00000000000E+00  0.00000000000E+00  0.45593999997E+02  0.45594000000E+02  0.51100000000E-03 0.  1.
         11   -1    0    0    0    0 -0.00000000000E+00 -0.00000000000E+00 -0.45593999997E+02  0.45594000000E+02  0.51100000000E-03 0. -1.
    9900012    2    1    2    0    0  0.11323010099E+02 -0.28704878141E+02 -0.30519543633E+02  0.47787272698E+02  0.20000007539E+02 0.  0.
        -12    1    1    2    0    0 -0.11323010099E+02  0.28704878141E+02  0.30519543633E+02  0.43400727302E+02  0.00000000000E+00 0.  1.
         11    1    3    3    0    0 -0.98465504372E+00 -0.38948841348E+01 -0.72959005153E+01  0.83288554177E+01  0.51100000000E-03 0. -1.
        -11    1    3    3    0    0  0.79826281448E+01 -0.12278009594E+02 -0.21607719218E+02  0.26102976876E+02  0.51100000000E-03 0.  1.
        -12    1    3    3    0    0  0.43250369981E+01 -0.12531984413E+02 -0.16159238989E+01  0.13355440405E+02  0.00000000000E+00 0.  1.
</event>
<event>
 7    1  0.2442667E-009  0.4778727E+02  0.7816164E-02  0.1312668E+00
        -11   -1    0    0    0    0  0.00000000000E+00  0.00000000000E+00  0.45593999997E+02  0.45594000000E+02  0.51100000000E-03 0. -1.
         11   -1    0    0    0    0 -0.00000000000E+00 -0.00000000000E+00 -0.45593999997E+02  0.45594000000E+02  0.51100000000E-03 0.  1.
    9900012    2    1    2    0    0  0.66455803029E+01  0.37977748685E+02  0.19928638760E+02  0.47787265265E+02  0.19999973648E+02 0.  0.
        -12    1    1    2    0    0 -0.66455803029E+01 -0.37977748685E+02 -0.19928638760E+02  0.43400734735E+02  0.00000000000E+00 0.  1.
         11    1    3    3    0    0  0.17835381815E+00  0.90123172946E+01  0.10677139427E+02  0.13973366799E+02  0.51100000000E-03 0. -1.
        -11    1    3    3    0    0  0.30596050481E+01  0.25709503677E+02  0.31168981406E+01  0.26077860660E+02  0.51100000000E-03 0.  1.
        -12    1    3    3    0    0  0.34076214367E+01  0.32559277139E+01  0.61346011920E+01  0.77360378049E+01  0.00000000000E+00 0.  1.
</event>
<event>
 7    1  0.2442667E-009  0.4778727E+02  0.7816164E-02  0.1312668E+00
        -11   -1    0    0    0    0  0.00000000000E+00  0.00000000000E+00  0.45593999997E+02  0.45594000000E+02  0.51100000000E-03 0.  1.
         11   -1    0    0    0    0 -0.00000000000E+00 -0.00000000000E+00 -0.45593999997E+02  0.45594000000E+02  0.51100000000E-03 0. -1.
    9900012    2    1    2    0    0 -0.19088120386E+02 -0.21827055033E+02 -0.32293135473E+02  0.47787271089E+02  0.20000000205E+02 0.  0.
        -12    1    1    2    0    0  0.19088120386E+02  0.21827055033E+02  0.32293135473E+02  0.43400728911E+02  0.00000000000E+00 0.  1.
         11    1    3    3    0    0 -0.71287115032E+01 -0.17796554496E+02 -0.17426632935E+02  0.25907979762E+02  0.51100000000E-03 0. -1.
        -11    1    3    3    0    0 -0.12652049855E+02 -0.59139421482E+01 -0.12215858316E+02  0.18554683288E+02  0.51100000000E-03 0.  1.
         12    1    3    3    0    0  0.69264097236E+00  0.18834416117E+01 -0.26506442226E+01  0.33246080395E+01  0.00000000000E+00 0. -1.
</event>
<event>
 7    1  0.2442667E-009  0.4778727E+02  0.7816164E-02  0.1312668E+00
        -11   -1    0    0    0    0  0.00000000000E+00  0.00000000000E+00  0.45593999997E+02  0.45594000000E+02  0.51100000000E-03 0.  1.
         11   -1    0    0    0    0 -0.00000000000E+00 -0.00000000000E+00 -0.45593999997E+02  0.45594000000E+02  0.51100000000E-03 0. -1.
    9900012    2    1    2    0    0 -0.26467872025E+02 -0.74474364589E+01 -0.33579918721E+02  0.47787268432E+02  0.19999988087E+02 0.  0.
        -12    1    1    2    0    0  0.26467872025E+02  0.74474364589E+01  0.33579918721E+02  0.43400731568E+02  0.00000000000E+00 0.  1.
         11    1    3    3    0    0 -0.12586727470E+02 -0.39776516511E+01 -0.26361703967E+02  0.29481975127E+02  0.51100000000E-03 0. -1.
        -11    1    3    3    0    0 -0.13487447567E+02 -0.24388382135E+01 -0.31142226985E+01  0.14055516959E+02  0.51100000000E-03 0.  1.
        -12    1    3    3    0    0 -0.39369698815E+00 -0.10309465942E+01 -0.41039920555E+01  0.42497763459E+01  0.00000000000E+00 0.  1.
</event>
<event>
 7    1  0.2442667E-009  0.4778727E+02  0.7816164E-02  0.1312668E+00
        -11   -1    0    0    0    0  0.00000000000E+00  0.00000000000E+00  0.45593999997E+02  0.45594000000E+02  0.51100000000E-03 0. -1.
         11   -1    0    0    0    0 -0.00000000000E+00 -0.00000000000E+00 -0.45593999997E+02  0.45594000000E+02  0.51100000000E-03 0.  1.
    9900012    2    1    2    0    0 -0.34655791578E+02 -0.12618815617E+02  0.22877172038E+02  0.47787269615E+02  0.19999993483E+02 0.  0.
        -12    1    1    2    0    0  0.34655791578E+02  0.12618815617E+02 -0.22877172038E+02  0.43400730385E+02  0.00000000000E+00 0.  1.
         11    1    3    3    0    0 -0.33042730358E+02 -0.75968887434E+01  0.16758650391E+02  0.37820458898E+02  0.51100000000E-03 0. -1.
        -11    1    3    3    0    0 -0.22783275117E+01 -0.36685046160E+01  0.69963985105E+01  0.82218182142E+01  0.51100000000E-03 0.  1.
         12    1    3    3    0    0  0.66526629196E+00 -0.13534222577E+01 -0.87787686293E+00  0.17449925023E+01  0.00000000000E+00 0. -1.
</event>
<event>
 7    1  0.2442667E-009  0.4778726E+02  0.7816164E-02  0.1312668E+00
        -11   -1    0    0    0    0  0.00000000000E+00  0.00000000000E+00  0.45593999997E+02  0.45594000000E+02  0.51100000000E-03 0. -1.
         11   -1    0    0    0    0 -0.00000000000E+00 -0.00000000000E+00 -0.45593999997E+02  0.45594000000E+02  0.51100000000E-03 0.  1.
    9900012    2    1    2    0    0  0.20161036529E+02  0.30929995646E+02  0.22814296797E+02  0.47787260802E+02  0.19999953300E+02 0.  0.
        -12    1    1    2    0    0 -0.20161036529E+02 -0.30929995646E+02 -0.22814296797E+02  0.43400739198E+02  0.00000000000E+00 0.  1.
         11    1    3    3    0    0  0.15346659268E+02  0.87622597554E+01  0.60932262074E+01  0.18692901128E+02  0.51100000000E-03 0.  1.
        -11    1    3    3    0    0  0.59047847797E+01  0.21848654550E+02  0.16261776319E+02  0.27868899480E+02  0.51100000000E-03 0. -1.
         12    1    3    3    0    0 -0.10904075187E+01  0.31908134131E+00  0.45929427076E+00  0.12254601937E+01  0.00000000000E+00 0. -1.
</event>
<event>
 7    1  0.2442667E-009  0.4778727E+02  0.7816164E-02  0.1312668E+00
        -11   -1    0    0    0    0  0.00000000000E+00  0.00000000000E+00  0.45593999997E+02  0.45594000000E+02  0.51100000000E-03 0.  1.
         11   -1    0    0    0    0 -0.00000000000E+00 -0.00000000000E+00 -0.45593999997E+02  0.45594000000E+02  0.51100000000E-03 0. -1.
    9900012    2    1    2    0    0 -0.42212646302E+01 -0.53714899528E+01 -0.42859668119E+02  0.47787272695E+02  0.20000007524E+02 0.  0.
        -12    1    1    2    0    0  0.42212646302E+01  0.53714899528E+01  0.42859668119E+02  0.43400727305E+02  0.00000000000E+00 0.  1.
         11    1    3    3    0    0 -0.12338520197E+01 -0.70190674343E+00 -0.34604410427E+02  0.34633513902E+02  0.51100000000E-03 0. -1.
        -11    1    3    3    0    0 -0.36188644789E+01 -0.66188784912E+01 -0.81451745246E+01  0.11101783681E+02  0.51100000000E-03 0.  1.
        -12    1    3    3    0    0  0.63145186842E+00  0.19492952818E+01 -0.11008316669E+00  0.20519751123E+01  0.00000000000E+00 0.  1.
</event>
<event>
 7    1  0.2442667E-009  0.4778727E+02  0.7816164E-02  0.1312668E+00
        -11   -1    0    0    0    0  0.00000000000E+00  0.00000000000E+00  0.45593999997E+02  0.45594000000E+02  0.51100000000E-03 0. -1.
         11   -1    0    0    0    0 -0.00000000000E+00 -0.00000000000E+00 -0.45593999997E+02  0.45594000000E+02  0.51100000000E-03 0.  1.
    9900012    2    1    2    0    0 -0.10885086194E+02 -0.33373155554E+02  0.25521962769E+02  0.47787271934E+02  0.20000004056E+02 0.  0.
        -12    1    1    2    0    0  0.10885086194E+02  0.33373155554E+02 -0.25521962769E+02  0.43400728066E+02  0.00000000000E+00 0.  1.
         11    1    3    3    0    0 -0.12578774673E+02 -0.33229812241E+02  0.25380265471E+02  0.43664675305E+02  0.51100000000E-03 0. -1.
        -11    1    3    3    0    0  0.21960039665E+01  0.12016180789E+01 -0.49552292601E+00  0.25518351553E+01  0.51100000000E-03 0.  1.
        -12    1    3    3    0    0 -0.50231548753E+00 -0.13449613914E+01  0.63722022405E+00  0.15707614737E+01  0.00000000000E+00 0.  1.
</event>
<event>
 7    1  0.2442667E-009  0.4778727E+02  0.7816164E-02  0.1312668E+00
        -11   -1    0    0    0    0  0.00000000000E+00  0.00000000000E+00  0.45593999997E+02  0.45594000000E+02  0.51100000000E-03 0.  1.
         11   -1    0    0    0    0 -0.00000000000E+00 -0.00000000000E+00 -0.45593999997E+02  0.45594000000E+02  0.51100000000E-03 0. -1.
    9900012    2    1    2    0    0  0.42348420411E+02  0.10403380562E+01  0.94420378592E+01  0.47787273122E+02  0.20000009473E+02 0.  0.
        -12    1    1    2    0    0 -0.42348420411E+02 -0.10403380562E+01 -0.94420378592E+01  0.43400726878E+02  0.00000000000E+00 0.  1.
         11    1    3    3    0    0  0.20712407626E+02 -0.31646877751E+00  0.75440602786E+01  0.22045789346E+02  0.51100000000E-03 0. -1.
        -11    1    3    3    0    0  0.73976009830E+01  0.45473639183E+01  0.60351720477E+01  0.10574796491E+02  0.51100000000E-03 0.  1.
        -12    1    3    3    0    0  0.14238411802E+02 -0.31905570845E+01 -0.41371944671E+01  0.15166687286E+02  0.00000000000E+00 0.  1.
</event>
<event>
 7    1  0.2442667E-009  0.4778727E+02  0.7816164E-02  0.1312668E+00
        -11   -1    0    0    0    0  0.00000000000E+00  0.00000000000E+00  0.45593999997E+02  0.45594000000E+02  0.51100000000E-03 0.  1.
         11   -1    0    0    0    0 -0.00000000000E+00 -0.00000000000E+00 -0.45593999997E+02  0.45594000000E+02  0.51100000000E-03 0. -1.
    9900012    2    1    2    0    0 -0.23981203847E+02  0.31542089843E+02 -0.17709373208E+02  0.47787268796E+02  0.19999989750E+02 0.  0.
        -12    1    1    2    0    0  0.23981203847E+02 -0.31542089843E+02  0.17709373208E+02  0.43400731204E+02  0.00000000000E+00 0.  1.
         11    1    3    3    0    0 -0.10329710788E+02  0.46076860277E+01  0.20771297888E+00  0.11312684935E+02  0.51100000000E-03 0. -1.
        -11    1    3    3    0    0 -0.77062968208E+01  0.21891469221E+02 -0.97178111943E+01  0.25160669507E+02  0.51100000000E-03 0.  1.
         12    1    3    3    0    0 -0.59451962378E+01  0.50429345938E+01 -0.81992749925E+01  0.11313914355E+02  0.00000000000E+00 0. -1.
</event>
<event>
 7    1  0.2442667E-009  0.4778727E+02  0.7816164E-02  0.1312668E+00
        -11   -1    0    0    0    0  0.00000000000E+00  0.00000000000E+00  0.45593999997E+02  0.45594000000E+02  0.51100000000E-03 0.  1.
         11   -1    0    0    0    0 -0.00000000000E+00 -0.00000000000E+00 -0.45593999997E+02  0.45594000000E+02  0.51100000000E-03 0. -1.
    9900012    2    1    2    0    0 -0.17908640354E+02 -0.32732966789E+02 -0.22168829473E+02  0.47787268274E+02  0.19999987370E+02 0.  0.
        -12    1    1    2    0    0  0.17908640354E+02  0.32732966789E+02  0.22168829473E+02  0.43400731726E+02  0.00000000000E+00 0.  1.
         11    1    3    3    0    0 -0.85224750307E+01 -0.93020149687E+01 -0.14181631042E+02  0.18981009520E+02  0.51100000000E-03 0. -1.
        -11    1    3    3    0    0 -0.45952341151E+01 -0.14723400873E+02  0.93253979066E+00  0.15452001184E+02  0.51100000000E-03 0.  1.
        -12    1    3    3    0    0 -0.47909312084E+01 -0.87075509465E+01 -0.89197382216E+01  0.13354257571E+02  0.00000000000E+00 0.  1.
</event>
<event>
 7    1  0.2442667E-009  0.4778728E+02  0.7816164E-02  0.1312668E+00
        -11   -1    0    0    0    0  0.00000000000E+00  0.00000000000E+00  0.45593999997E+02  0.45594000000E+02  0.51100000000E-03 0. -1.
         11   -1    0    0    0    0 -0.00000000000E+00 -0.00000000000E+00 -0.45593999997E+02  0.45594000000E+02  0.51100000000E-03 0.  1.
    9900012    2    1    2    0    0 -0.20273217789E+02 -0.38276532149E+02  0.27434364343E+01  0.47787277468E+02  0.20000029285E+02 0.  0.
        -12    1    1    2    0    0  0.20273217789E+02  0.38276532149E+02 -0.27434364343E+01  0.43400722532E+02  0.00000000000E+00 0.  1.
         11    1    3    3    0    0 -0.95003421356E+00 -0.65093058792E+01 -0.54165993023E+01  0.85213365324E+01  0.51100000000E-03 0. -1.
        -11    1    3    3    0    0 -0.16886284293E+02 -0.20200441740E+02  0.77191771667E+01  0.27437021341E+02  0.51100000000E-03 0.  1.
         12    1    3    3    0    0 -0.24368992830E+01 -0.11566784530E+02  0.44085856988E+00  0.11828919594E+02  0.00000000000E+00 0. -1.
</event>
<event>
 7    1  0.2442667E-009  0.4778727E+02  0.7816164E-02  0.1312668E+00
        -11   -1    0    0    0    0  0.00000000000E+00  0.00000000000E+00  0.45593999997E+02  0.45594000000E+02  0.51100000000E-03 0.  1.
         11   -1    0    0    0    0 -0.00000000000E+00 -0.00000000000E+00 -0.45593999997E+02  0.45594000000E+02  0.51100000000E-03 0. -1.
    9900012    2    1    2    0    0  0.15039679285E+02 -0.18571074337E+02 -0.36229090214E+02  0.47787265757E+02  0.19999975895E+02 0.  0.
        -12    1    1    2    0    0 -0.15039679285E+02  0.18571074337E+02  0.36229090214E+02  0.43400734243E+02  0.00000000000E+00 0.  1.
         11    1    3    3    0    0  0.11572722347E+01 -0.34211945154E+01 -0.70896705514E+01  0.79565871909E+01  0.51100000000E-03 0. -1.
        -11    1    3    3    0    0  0.12590074713E+02 -0.13456119311E+02 -0.31597141974E+02  0.36578087831E+02  0.51100000000E-03 0.  1.
        -12    1    3    3    0    0  0.12923323373E+01 -0.16937605105E+01  0.24577223108E+01  0.32525907357E+01  0.00000000000E+00 0.  1.
</event>
<event>
 7    1  0.2442667E-009  0.4778729E+02  0.7816164E-02  0.1312668E+00
        -11   -1    0    0    0    0  0.00000000000E+00  0.00000000000E+00  0.45593999997E+02  0.45594000000E+02  0.51100000000E-03 0. -1.
         11   -1    0    0    0    0 -0.00000000000E+00 -0.00000000000E+00 -0.45593999997E+02  0.45594000000E+02  0.51100000000E-03 0.  1.
    9900012    2    1    2    0    0  0.23754716113E+02 -0.35493221766E+02  0.77179387194E+01  0.47787286792E+02  0.20000071798E+02 0.  0.
        -12    1    1    2    0    0 -0.23754716113E+02  0.35493221766E+02 -0.77179387194E+01  0.43400713208E+02  0.00000000000E+00 0.  1.
         11    1    3    3    0    0  0.71107117384E+01 -0.27837170309E+01  0.71005554073E+01  0.10427328962E+02  0.51100000000E-03 0. -1.
        -11    1    3    3    0    0  0.14761399121E+02 -0.25199992706E+02 -0.17689277174E+01  0.29258633630E+02  0.51100000000E-03 0.  1.
        -12    1    3    3    0    0  0.18826052536E+01 -0.75095120292E+01  0.23863110295E+01  0.81013241996E+01  0.00000000000E+00 0.  1.
</event>
<event>
 7    1  0.2442667E-009  0.4778727E+02  0.7816164E-02  0.1312668E+00
        -11   -1    0    0    0    0  0.00000000000E+00  0.00000000000E+00  0.45593999997E+02  0.45594000000E+02  0.51100000000E-03 0.  1.
         11   -1    0    0    0    0 -0.00000000000E+00 -0.00000000000E+00 -0.45593999997E+02  0.45594000000E+02  0.51100000000E-03 0. -1.
    9900012    2    1    2    0    0 -0.65304807401E+01  0.20700516290E+02 -0.37582769347E+02  0.47787272988E+02  0.20000008860E+02 0.  0.
        -12    1    1    2    0    0  0.65304807401E+01 -0.20700516290E+02  0.37582769347E+02  0.43400727012E+02  0.00000000000E+00 0.  1.
         11    1    3    3    0    0 -0.98377458838E+01  0.14982841045E+02 -0.14847155663E+02  0.23274552657E+02  0.51100000000E-03 0. -1.
        -11    1    3    3    0    0 -0.42498700661E+00  0.35383722012E+00 -0.11513078706E+02  0.11526352254E+02  0.51100000000E-03 0.  1.
         12    1    3    3    0    0  0.37322521503E+01  0.53638380249E+01 -0.11222534978E+02  0.12986368076E+02  0.00000000000E+00 0. -1.
</event>
<event>
 7    1  0.2442667E-009  0.4778728E+02  0.7816164E-02  0.1312668E+00
        -11   -1    0    0    0    0  0.00000000000E+00  0.00000000000E+00  0.45593999997E+02  0.45594000000E+02  0.51100000000E-03 0.  1.
         11   -1    0    0    0    0 -0.00000000000E+00 -0.00000000000E+00 -0.45593999997E+02  0.45594000000E+02  0.51100000000E-03 0. -1.
    9900012    2    1    2    0    0 -0.53812863557E+01 -0.43061633140E+02 -0.60015543768E+00  0.47787277908E+02  0.20000031293E+02 0.  0.
        -12    1    1    2    0    0  0.53812863557E+01  0.43061633140E+02  0.60015543768E+00  0.43400722092E+02  0.00000000000E+00 0.  1.
         11    1    3    3    0    0 -0.85711514227E+01 -0.16026636990E+02  0.31924830837E+01  0.18452904335E+02  0.51100000000E-03 0. -1.
        -11    1    3    3    0    0  0.63340699008E+01 -0.22473693454E+02 -0.44033386847E+01  0.23760823446E+02  0.51100000000E-03 0.  1.
        -12    1    3    3    0    0 -0.31442048339E+01 -0.45613026965E+01  0.61070016325E+00  0.55735501268E+01  0.00000000000E+00 0.  1.
</event>
<event>
 7    1  0.2442667E-009  0.4778727E+02  0.7816164E-02  0.1312668E+00
        -11   -1    0    0    0    0  0.00000000000E+00  0.00000000000E+00  0.45593999997E+02  0.45594000000E+02  0.51100000000E-03 0. -1.
         11   -1    0    0    0    0 -0.00000000000E+00 -0.00000000000E+00 -0.45593999997E+02  0.45594000000E+02  0.51100000000E-03 0.  1.
    9900012    2    1    2    0    0 -0.83663570145E+01  0.36375761681E+02  0.22145685148E+02  0.47787270303E+02  0.19999996619E+02 0.  0.
        -12    1    1    2    0    0  0.83663570145E+01 -0.36375761681E+02 -0.22145685148E+02  0.43400729697E+02  0.00000000000E+00 0.  1.
         11    1    3    3    0    0 -0.88247964557E+01  0.31378251119E+02  0.22241951925E+02  0.39461070709E+02  0.51100000000E-03 0. -1.
        -11    1    3    3    0    0 -0.21429740089E+01  0.35030412228E+01  0.20959337010E+01  0.46104851970E+01  0.51100000000E-03 0.  1.
         12    1    3    3    0    0  0.26014134501E+01  0.14944693391E+01 -0.21922004785E+01  0.37157143972E+01  0.00000000000E+00 0. -1.
</event>
<event>
 7    1  0.2442667E-009  0.4778727E+02  0.7816164E-02  0.1312668E+00
        -11   -1    0    0    0    0  0.00000000000E+00  0.00000000000E+00  0.45593999997E+02  0.45594000000E+02  0.51100000000E-03 0.  1.
         11   -1    0    0    0    0 -0.00000000000E+00 -0.00000000000E+00 -0.45593999997E+02  0.45594000000E+02  0.51100000000E-03 0. -1.
    9900012    2    1    2    0    0  0.76651700811E+01  0.35707412864E+02  0.23448863339E+02  0.47787270079E+02  0.19999995598E+02 0.  0.
        -12    1    1    2    0    0 -0.76651700811E+01 -0.35707412864E+02 -0.23448863339E+02  0.43400729921E+02  0.00000000000E+00 0.  1.
         11    1    3    3    0    0 -0.98170286526E+00  0.29429536955E+01  0.33907866042E-01  0.31025581339E+01  0.51100000000E-03 0. -1.
        -11    1    3    3    0    0  0.64406103843E+00  0.26786648724E+02  0.11557946015E+02  0.29180909527E+02  0.51100000000E-03 0.  1.
        -12    1    3    3    0    0  0.80028119079E+01  0.59778104444E+01  0.11857009458E+02  0.15503802418E+02  0.00000000000E+00 0.  1.
</event>
<event>
 7    1  0.2442667E-009  0.4778727E+02  0.7816164E-02  0.1312668E+00
        -11   -1    0    0    0    0  0.00000000000E+00  0.00000000000E+00  0.45593999997E+02  0.45594000000E+02  0.51100000000E-03 0.  1.
         11   -1    0    0    0    0 -0.00000000000E+00 -0.00000000000E+00 -0.45593999997E+02  0.45594000000E+02  0.51100000000E-03 0. -1.
    9900012    2    1    2    0    0  0.36680112039E+02  0.19098775316E+02 -0.13169259532E+02  0.47787271500E+02  0.20000002076E+02 0.  0.
        -12    1    1    2    0    0 -0.36680112039E+02 -0.19098775316E+02  0.13169259532E+02  0.43400728500E+02  0.00000000000E+00 0.  1.
         11    1    3    3    0    0  0.31483172312E+02  0.86469949016E+01 -0.13149123623E+02  0.35197444680E+02  0.51100000000E-03 0. -1.
        -11    1    3    3    0    0  0.27302764585E+01  0.57289132706E+01  0.23378488179E+01  0.67631645077E+01  0.51100000000E-03 0.  1.
         12    1    3    3    0    0  0.24666632686E+01  0.47228671433E+01 -0.23579847263E+01  0.58266623125E+01  0.00000000000E+00 0. -1.
</event>
<event>
 7    1  0.2442667E-009  0.4778729E+02  0.7816164E-02  0.1312668E+00
        -11   -1    0    0    0    0  0.00000000000E+00  0.00000000000E+00  0.45593999997E+02  0.45594000000E+02  0.51100000000E-03 0.  1.
         11   -1    0    0    0    0 -0.00000000000E+00 -0.00000000000E+00 -0.45593999997E+02  0.45594000000E+02  0.51100000000E-03 0. -1.
    9900012    2    1    2    0    0  0.27311453673E+01 -0.13726334936E+02 -0.41082234992E+02  0.47787291968E+02  0.20000095397E+02 0.  0.
        -12    1    1    2    0    0 -0.27311453673E+01  0.13726334936E+02  0.41082234992E+02  0.43400708032E+02  0.00000000000E+00 0.  1.
         11    1    3    3    0    0 -0.35248241206E+00  0.22766666944E+00 -0.53287695303E+00  0.67825811560E+00  0.51100000000E-03 0. -1.
        -11    1    3    3    0    0  0.11078725373E+02 -0.99341209968E+01 -0.22707767839E+02  0.27148989601E+02  0.51100000000E-03 0.  1.
        -12    1    3    3    0    0 -0.79950975938E+01 -0.40198806086E+01 -0.17841590199E+02  0.19960044251E+02  0.00000000000E+00 0.  1.
</event>
<event>
 7    1  0.2442667E-009  0.4778727E+02  0.7816164E-02  0.1312668E+00
        -11   -1    0    0    0    0  0.00000000000E+00  0.00000000000E+00  0.45593999997E+02  0.45594000000E+02  0.51100000000E-03 0. -1.
         11   -1    0    0    0    0 -0.00000000000E+00 -0.00000000000E+00 -0.45593999997E+02  0.45594000000E+02  0.51100000000E-03 0.  1.
    9900012    2    1    2    0    0  0.35128643226E+02  0.54039926450E+01  0.24907806486E+02  0.47787268032E+02  0.19999986265E+02 0.  0.
        -12    1    1    2    0    0 -0.35128643226E+02 -0.54039926450E+01 -0.24907806486E+02  0.43400731968E+02  0.00000000000E+00 0.  1.
         11    1    3    3    0    0  0.60233107868E+01  0.60841402308E+01  0.11952833345E+02  0.14702627671E+02  0.51100000000E-03 0.  1.
        -11    1    3    3    0    0  0.19197182116E+02 -0.46592926803E+01  0.88314693541E+01  0.21638753677E+02  0.51100000000E-03 0. -1.
         12    1    3    3    0    0  0.99081503240E+01  0.39791450945E+01  0.41235037862E+01  0.11445886685E+02  0.00000000000E+00 0. -1.
</event>
<event>
 7    1  0.2442667E-009  0.4778727E+02  0.7816164E-02  0.1312668E+00
        -11   -1    0    0    0    0  0.00000000000E+00  0.00000000000E+00  0.45593999997E+02  0.45594000000E+02  0.51100000000E-03 0.  1.
         11   -1    0    0    0    0 -0.00000000000E+00 -0.00000000000E+00 -0.45593999997E+02  0.45594000000E+02  0.51100000000E-03 0. -1.
    9900012    2    1    2    0    0 -0.32491371978E+02 -0.16744436293E+02 -0.23399963508E+02  0.47787266228E+02  0.19999978042E+02 0.  0.
        -12    1    1    2    0    0  0.32491371978E+02  0.16744436293E+02  0.23399963508E+02  0.43400733772E+02  0.00000000000E+00 0.  1.
         11    1    3    3    0    0 -0.66885556322E+01 -0.50818557508E+00 -0.61198088076E+01  0.90800379474E+01  0.51100000000E-03 0. -1.
        -11    1    3    3    0    0 -0.17463660346E+02 -0.42632136353E+01 -0.15990682950E+02  0.24059434005E+02  0.51100000000E-03 0.  1.
        -12    1    3    3    0    0 -0.83391559994E+01 -0.11973037082E+02 -0.12894717504E+01  0.14647794276E+02  0.00000000000E+00 0.  1.
</event>
<event>
 7    1  0.2442667E-009  0.4778727E+02  0.7816164E-02  0.1312668E+00
        -11   -1    0    0    0    0  0.00000000000E+00  0.00000000000E+00  0.45593999997E+02  0.45594000000E+02  0.51100000000E-03 0.  1.
         11   -1    0    0    0    0 -0.00000000000E+00 -0.00000000000E+00 -0.45593999997E+02  0.45594000000E+02  0.51100000000E-03 0. -1.
    9900012    2    1    2    0    0  0.12961954048E+01 -0.62031564020E+01 -0.42935579115E+02  0.47787271598E+02  0.20000002523E+02 0.  0.
        -12    1    1    2    0    0 -0.12961954048E+01  0.62031564020E+01  0.42935579115E+02  0.43400728402E+02  0.00000000000E+00 0.  1.
         11    1    3    3    0    0  0.90875726509E+00  0.26277396612E+01  0.24957390639E+00  0.27916201192E+01  0.51100000000E-03 0. -1.
        -11    1    3    3    0    0  0.32969069603E+00  0.24239498000E+00  0.34171644323E+00  0.53312444145E+00  0.51100000000E-03 0.  1.
         12    1    3    3    0    0  0.57747443706E-01 -0.90732910432E+01 -0.43526869465E+02  0.44462527037E+02  0.00000000000E+00 0. -1.
</event>
<event>
 7    1  0.2442667E-009  0.4778726E+02  0.7816164E-02  0.1312668E+00
        -11   -1    0    0    0    0  0.00000000000E+00  0.00000000000E+00  0.45593999997E+02  0.45594000000E+02  0.51100000000E-03 0. -1.
         11   -1    0    0    0    0 -0.00000000000E+00 -0.00000000000E+00 -0.45593999997E+02  0.45594000000E+02  0.51100000000E-03 0.  1.
    9900012    2    1    2    0    0  0.11940660178E+02  0.19181665744E+02  0.37055475484E+02  0.47787263491E+02  0.19999965562E+02 0.  0.
        -12    1    1    2    0    0 -0.11940660178E+02 -0.19181665744E+02 -0.37055475484E+02  0.43400736509E+02  0.00000000000E+00 0.  1.
         11    1    3    3    0    0  0.12585200395E+02  0.12949268074E+02  0.28822979403E+02  0.34012276527E+02  0.51100000000E-03 0.  1.
        -11    1    3    3    0    0 -0.40886641987E+01  0.37025768281E+01  0.76951613941E+01  0.94679332084E+01  0.51100000000E-03 0. -1.
         12    1    3    3    0    0  0.34441239815E+01  0.25298208416E+01  0.53733468690E+00  0.43070537559E+01  0.00000000000E+00 0. -1.
</event>
<event>
 7    1  0.2442667E-009  0.4778727E+02  0.7816164E-02  0.1312668E+00
        -11   -1    0    0    0    0  0.00000000000E+00  0.00000000000E+00  0.45593999997E+02  0.45594000000E+02  0.51100000000E-03 0.  1.
         11   -1    0    0    0    0 -0.00000000000E+00 -0.00000000000E+00 -0.45593999997E+02  0.45594000000E+02  0.51100000000E-03 0. -1.
    9900012    2    1    2    0    0 -0.29828453464E+02 -0.22848563443E+02 -0.21721644259E+02  0.47787270550E+02  0.19999997746E+02 0.  0.
        -12    1    1    2    0    0  0.29828453464E+02  0.22848563443E+02  0.21721644259E+02  0.43400729450E+02  0.00000000000E+00 0.  1.
         11    1    3    3    0    0 -0.25865933091E+02 -0.12758745449E+02 -0.17627867486E+02  0.33801979121E+02  0.51100000000E-03 0. -1.
        -11    1    3    3    0    0  0.12604716428E+01 -0.47402448602E+01 -0.42752098919E+01  0.65066220097E+01  0.51100000000E-03 0.  1.
         12    1    3    3    0    0 -0.52229920161E+01 -0.53495731336E+01  0.18143311910E+00  0.74786694196E+01  0.00000000000E+00 0. -1.
</event>
<event>
 7    1  0.2442667E-009  0.4778727E+02  0.7816164E-02  0.1312668E+00
        -11   -1    0    0    0    0  0.00000000000E+00  0.00000000000E+00  0.45593999997E+02  0.45594000000E+02  0.51100000000E-03 0. -1.
         11   -1    0    0    0    0 -0.00000000000E+00 -0.00000000000E+00 -0.45593999997E+02  0.45594000000E+02  0.51100000000E-03 0.  1.
    9900012    2    1    2    0    0  0.21227107651E+02 -0.48773622636E+01  0.37539905802E+02  0.47787270865E+02  0.19999999180E+02 0.  0.
        -12    1    1    2    0    0 -0.21227107651E+02  0.48773622636E+01 -0.37539905802E+02  0.43400729135E+02  0.00000000000E+00 0.  1.
         11    1    3    3    0    0  0.18957850335E+02 -0.51605521581E+01  0.20660088932E+02  0.28510886742E+02  0.51100000000E-03 0. -1.
        -11    1    3    3    0    0  0.31714880384E+01 -0.92211336375E+00  0.11841628433E+01  0.35086851290E+01  0.51100000000E-03 0.  1.
         12    1    3    3    0    0 -0.90223072248E+00  0.12053032582E+01  0.15695654027E+02  0.15767698994E+02  0.00000000000E+00 0. -1.
</event>
<event>
 7    1  0.2442667E-009  0.4778727E+02  0.7816164E-02  0.1312668E+00
        -11   -1    0    0    0    0  0.00000000000E+00  0.00000000000E+00  0.45593999997E+02  0.45594000000E+02  0.51100000000E-03 0.  1.
         11   -1    0    0    0    0 -0.00000000000E+00 -0.00000000000E+00 -0.45593999997E+02  0.45594000000E+02  0.51100000000E-03 0. -1.
    9900012    2    1    2    0    0  0.31470349465E+01  0.95150923777E+01 -0.42227744610E+02  0.47787271587E+02  0.20000002473E+02 0.  0.
        -12    1    1    2    0    0 -0.31470349465E+01 -0.95150923777E+01  0.42227744610E+02  0.43400728413E+02  0.00000000000E+00 0.  1.
         11    1    3    3    0    0 -0.28057351621E+01  0.26573324809E+01 -0.92185327907E+01  0.99957447340E+01  0.51100000000E-03 0. -1.
        -11    1    3    3    0    0 -0.19153224693E+01  0.39047591878E+01 -0.69748394575E+00  0.44047801979E+01  0.51100000000E-03 0.  1.
        -12    1    3    3    0    0  0.78680925779E+01  0.29530007090E+01 -0.32311727874E+02  0.33386746655E+02  0.00000000000E+00 0.  1.
</event>
<event>
 7    1  0.2442667E-009  0.4778727E+02  0.7816164E-02  0.1312668E+00
        -11   -1    0    0    0    0  0.00000000000E+00  0.00000000000E+00  0.45593999997E+02  0.45594000000E+02  0.51100000000E-03 0.  1.
         11   -1    0    0    0    0 -0.00000000000E+00 -0.00000000000E+00 -0.45593999997E+02  0.45594000000E+02  0.51100000000E-03 0. -1.
    9900012    2    1    2    0    0 -0.32048743024E+02  0.67191411287E+01 -0.28484279324E+02  0.47787274712E+02  0.20000016722E+02 0.  0.
        -12    1    1    2    0    0  0.32048743024E+02 -0.67191411287E+01  0.28484279324E+02  0.43400725288E+02  0.00000000000E+00 0.  1.
         11    1    3    3    0    0 -0.11201165857E+02 -0.30253500548E+01 -0.13480486455E+02  0.17786016273E+02  0.51100000000E-03 0. -1.
        -11    1    3    3    0    0 -0.11748157061E+01  0.57960243159E+01 -0.33030796744E+01  0.67738043528E+01  0.51100000000E-03 0.  1.
        -12    1    3    3    0    0 -0.19672761460E+02  0.39484668676E+01 -0.11700713195E+02  0.23227454086E+02  0.00000000000E+00 0.  1.
</event>
<event>
 7    1  0.2442667E-009  0.4778727E+02  0.7816164E-02  0.1312668E+00
        -11   -1    0    0    0    0  0.00000000000E+00  0.00000000000E+00  0.45593999997E+02  0.45594000000E+02  0.51100000000E-03 0. -1.
         11   -1    0    0    0    0 -0.00000000000E+00 -0.00000000000E+00 -0.45593999997E+02  0.45594000000E+02  0.51100000000E-03 0.  1.
    9900012    2    1    2    0    0  0.33507584929E+02 -0.59291112709E+01  0.26939020345E+02  0.47787269299E+02  0.19999992042E+02 0.  0.
        -12    1    1    2    0    0 -0.33507584929E+02  0.59291112709E+01 -0.26939020345E+02  0.43400730701E+02  0.00000000000E+00 0.  1.
         11    1    3    3    0    0  0.10359088022E+02  0.83003052352E+00  0.13288094722E+02  0.16869295092E+02  0.51100000000E-03 0. -1.
        -11    1    3    3    0    0  0.61993037984E+01  0.41037224414E+01  0.21789773540E+01  0.77472477714E+01  0.51100000000E-03 0.  1.
        -12    1    3    3    0    0  0.16949193109E+02 -0.10862864236E+02  0.11471948268E+02  0.23170726435E+02  0.00000000000E+00 0.  1.
</event>
<event>
 7    1  0.2442667E-009  0.4778727E+02  0.7816164E-02  0.1312668E+00
        -11   -1    0    0    0    0  0.00000000000E+00  0.00000000000E+00  0.45593999997E+02  0.45594000000E+02  0.51100000000E-03 0.  1.
         11   -1    0    0    0    0 -0.00000000000E+00 -0.00000000000E+00 -0.45593999997E+02  0.45594000000E+02  0.51100000000E-03 0. -1.
    9900012    2    1    2    0    0 -0.16953213087E+02 -0.15514712370E+02 -0.36817189222E+02  0.47787272401E+02  0.20000006185E+02 0.  0.
        -12    1    1    2    0    0  0.16953213087E+02  0.15514712370E+02  0.36817189222E+02  0.43400727599E+02  0.00000000000E+00 0.  1.
         11    1    3    3    0    0 -0.10985324263E+02 -0.84124674185E+01 -0.19392045589E+02  0.23822224699E+02  0.51100000000E-03 0. -1.
        -11    1    3    3    0    0  0.36045492892E+01  0.88565713777E+00 -0.23113847703E+01  0.43726037966E+01  0.51100000000E-03 0.  1.
        -12    1    3    3    0    0 -0.95724381131E+01 -0.79879020897E+01 -0.15113758863E+02  0.19592443905E+02  0.00000000000E+00 0.  1.
</event>
<event>
 7    1  0.2442667E-009  0.4778726E+02  0.7816164E-02  0.1312668E+00
        -11   -1    0    0    0    0  0.00000000000E+00  0.00000000000E+00  0.45593999997E+02  0.45594000000E+02  0.51100000000E-03 0.  1.
         11   -1    0    0    0    0 -0.00000000000E+00 -0.00000000000E+00 -0.45593999997E+02  0.45594000000E+02  0.51100000000E-03 0. -1.
    9900012    2    1    2    0    0 -0.33901139341E+02 -0.11411395823E+00 -0.27098413725E+02  0.47787259257E+02  0.19999946258E+02 0.  0.
        -12    1    1    2    0    0  0.33901139341E+02  0.11411395823E+00  0.27098413725E+02  0.43400740743E+02  0.00000000000E+00 0.  1.
         11    1    3    3    0    0 -0.94326415003E+01 -0.96816968892E+00 -0.68212041869E+01  0.11680792141E+02  0.51100000000E-03 0. -1.
        -11    1    3    3    0    0 -0.27089783831E+02  0.79423600633E+00 -0.19445030305E+02  0.33355605266E+02  0.51100000000E-03 0.  1.
        -12    1    3    3    0    0  0.26212859905E+01  0.59819724359E-01 -0.83217923339E+00  0.27508618504E+01  0.00000000000E+00 0.  1.
</event>
<event>
 7    1  0.2442667E-009  0.4778727E+02  0.7816164E-02  0.1312668E+00
        -11   -1    0    0    0    0  0.00000000000E+00  0.00000000000E+00  0.45593999997E+02  0.45594000000E+02  0.51100000000E-03 0.  1.
         11   -1    0    0    0    0 -0.00000000000E+00 -0.00000000000E+00 -0.45593999997E+02  0.45594000000E+02  0.51100000000E-03 0. -1.
    9900012    2    1    2    0    0  0.35038838184E+02 -0.89975777711E+01 -0.23978043872E+02  0.47787272184E+02  0.20000005197E+02 0.  0.
        -12    1    1    2    0    0 -0.35038838184E+02  0.89975777711E+01  0.23978043872E+02  0.43400727816E+02  0.00000000000E+00 0.  1.
         11    1    3    3    0    0  0.28937083657E+02  0.96470331394E-01 -0.21612106423E+02  0.36117132519E+02  0.51100000000E-03 0. -1.
        -11    1    3    3    0    0  0.37232679177E+01 -0.64762596243E+01 -0.30477894299E+01  0.80680656528E+01  0.51100000000E-03 0.  1.
         12    1    3    3    0    0  0.23784866095E+01 -0.26177884782E+01  0.68185198135E+00  0.36020740127E+01  0.00000000000E+00 0. -1.
</event>
<event>
 7    1  0.2442667E-009  0.4778727E+02  0.7816164E-02  0.1312668E+00
        -11   -1    0    0    0    0  0.00000000000E+00  0.00000000000E+00  0.45593999997E+02  0.45594000000E+02  0.51100000000E-03 0. -1.
         11   -1    0    0    0    0 -0.00000000000E+00 -0.00000000000E+00 -0.45593999997E+02  0.45594000000E+02  0.51100000000E-03 0.  1.
    9900012    2    1    2    0    0  0.22227593946E+02  0.19291847949E+02  0.31896425896E+02  0.47787270572E+02  0.19999997847E+02 0.  0.
        -12    1    1    2    0    0 -0.22227593946E+02 -0.19291847949E+02 -0.31896425896E+02  0.43400729428E+02  0.00000000000E+00 0.  1.
         11    1    3    3    0    0  0.72364914338E+01  0.11383307510E+02  0.10421474611E+02  0.17045633795E+02  0.51100000000E-03 0. -1.
        -11    1    3    3    0    0  0.10373969950E+02 -0.23677308010E+01  0.11826242942E+02  0.15908658776E+02  0.51100000000E-03 0.  1.
        -12    1    3    3    0    0  0.46171325623E+01  0.10276271240E+02  0.96487083432E+01  0.14832978001E+02  0.00000000000E+00 0.  1.
</event>
<event>
 7    1  0.2442667E-009  0.4778727E+02  0.7816164E-02  0.1312668E+00
        -11   -1    0    0    0    0  0.00000000000E+00  0.00000000000E+00  0.45593999997E+02  0.45594000000E+02  0.51100000000E-03 0. -1.
         11   -1    0    0    0    0 -0.00000000000E+00 -0.00000000000E+00 -0.45593999997E+02  0.45594000000E+02  0.51100000000E-03 0.  1.
    9900012    2    1    2    0    0  0.25889147257E+02  0.20679493840E+02  0.28030942403E+02  0.47787272551E+02  0.20000006868E+02 0.  0.
        -12    1    1    2    0    0 -0.25889147257E+02 -0.20679493840E+02 -0.28030942403E+02  0.43400727449E+02  0.00000000000E+00 0.  1.
         11    1    3    3    0    0  0.69023831521E+01  0.10981627267E+02  0.72463214557E+01  0.14857597569E+02  0.51100000000E-03 0. -1.
        -11    1    3    3    0    0  0.20182820898E+02  0.61360153179E+01  0.14466748264E+02  0.25578970835E+02  0.51100000000E-03 0.  1.
        -12    1    3    3    0    0 -0.11960567939E+01  0.35618512550E+01  0.63178726832E+01  0.73507041471E+01  0.00000000000E+00 0.  1.
</event>
<event>
 7    1  0.2442667E-009  0.4778727E+02  0.7816164E-02  0.1312668E+00
        -11   -1    0    0    0    0  0.00000000000E+00  0.00000000000E+00  0.45593999997E+02  0.45594000000E+02  0.51100000000E-03 0.  1.
         11   -1    0    0    0    0 -0.00000000000E+00 -0.00000000000E+00 -0.45593999997E+02  0.45594000000E+02  0.51100000000E-03 0. -1.
    9900012    2    1    2    0    0  0.26660855530E+02  0.27167074911E+02  0.20851189201E+02  0.47787271113E+02  0.20000000315E+02 0.  0.
        -12    1    1    2    0    0 -0.26660855530E+02 -0.27167074911E+02 -0.20851189201E+02  0.43400728887E+02  0.00000000000E+00 0.  1.
         11    1    3    3    0    0  0.14995013227E+02  0.23988547589E+02  0.72853901637E+01  0.29212629926E+02  0.51100000000E-03 0. -1.
        -11    1    3    3    0    0  0.33955415556E+01 -0.81518595257E+00  0.41025603241E+01  0.53875070364E+01  0.51100000000E-03 0.  1.
         12    1    3    3    0    0  0.82703007471E+01  0.39937132740E+01  0.94632387134E+01  0.13187134151E+02  0.00000000000E+00 0. -1.
</event>
<event>
 7    1  0.2442667E-009  0.4778725E+02  0.7816164E-02  0.1312668E+00
        -11   -1    0    0    0    0  0.00000000000E+00  0.00000000000E+00  0.45593999997E+02  0.45594000000E+02  0.51100000000E-03 0.  1.
         11   -1    0    0    0    0 -0.00000000000E+00 -0.00000000000E+00 -0.45593999997E+02  0.45594000000E+02  0.51100000000E-03 0. -1.
    9900012    2    1    2    0    0 -0.85662148607E+01  0.16657923575E+02 -0.39150459459E+02  0.47787251957E+02  0.19999912972E+02 0.  0.
        -12    1    1    2    0    0  0.85662148607E+01 -0.16657923575E+02  0.39150459459E+02  0.43400748043E+02  0.00000000000E+00 0.  1.
         11    1    3    3    0    0  0.37003935801E+01  0.77165493185E+01 -0.70579290371E+01  0.11092899016E+02  0.51100000000E-03 0. -1.
        -11    1    3    3    0    0  0.37351258790E+00  0.15358421961E+01 -0.19379344465E+00  0.15924443680E+01  0.51100000000E-03 0.  1.
         12    1    3    3    0    0 -0.12640121029E+02  0.74055320600E+01 -0.31898736977E+02  0.35101908573E+02  0.00000000000E+00 0. -1.
</event>
<event>
 7    1  0.2442667E-009  0.4778727E+02  0.7816164E-02  0.1312668E+00
        -11   -1    0    0    0    0  0.00000000000E+00  0.00000000000E+00  0.45593999997E+02  0.45594000000E+02  0.51100000000E-03 0.  1.
         11   -1    0    0    0    0 -0.00000000000E+00 -0.00000000000E+00 -0.45593999997E+02  0.45594000000E+02  0.51100000000E-03 0. -1.
    9900012    2    1    2    0    0 -0.25839952681E+02 -0.15525462460E+02 -0.31223070344E+02  0.47787271194E+02  0.20000000682E+02 0.  0.
        -12    1    1    2    0    0  0.25839952681E+02  0.15525462460E+02  0.31223070344E+02  0.43400728806E+02  0.00000000000E+00 0.  1.
         11    1    3    3    0    0 -0.51337546243E+01 -0.13312959714E+01 -0.97697665375E+01  0.11116479837E+02  0.51100000000E-03 0. -1.
        -11    1    3    3    0    0 -0.88092963949E+01  0.19275771455E+01 -0.32056901137E+01  0.95705645597E+01  0.51100000000E-03 0.  1.
        -12    1    3    3    0    0 -0.11896901662E+02 -0.16121743635E+02 -0.18247613693E+02  0.27100226797E+02  0.00000000000E+00 0.  1.
</event>
<event>
 7    1  0.2442667E-009  0.4778727E+02  0.7816164E-02  0.1312668E+00
        -11   -1    0    0    0    0  0.00000000000E+00  0.00000000000E+00  0.45593999997E+02  0.45594000000E+02  0.51100000000E-03 0. -1.
         11   -1    0    0    0    0 -0.00000000000E+00 -0.00000000000E+00 -0.45593999997E+02  0.45594000000E+02  0.51100000000E-03 0.  1.
    9900012    2    1    2    0    0 -0.13188308696E+02  0.21942754328E+02  0.35045790394E+02  0.47787269844E+02  0.19999994525E+02 0.  0.
        -12    1    1    2    0    0  0.13188308696E+02 -0.21942754328E+02 -0.35045790394E+02  0.43400730156E+02  0.00000000000E+00 0.  1.
         11    1    3    3    0    0 -0.12112132276E+02  0.10539945948E+02  0.10881043896E+02  0.19395652228E+02  0.51100000000E-03 0. -1.
        -11    1    3    3    0    0  0.25396206268E+01  0.84383701960E+01  0.93135497693E+01  0.12821777336E+02  0.51100000000E-03 0.  1.
         12    1    3    3    0    0 -0.36157970473E+01  0.29644381845E+01  0.14851196729E+02  0.15569840279E+02  0.00000000000E+00 0. -1.
</event>
<event>
 7    1  0.2442667E-009  0.4778727E+02  0.7816164E-02  0.1312668E+00
        -11   -1    0    0    0    0  0.00000000000E+00  0.00000000000E+00  0.45593999997E+02  0.45594000000E+02  0.51100000000E-03 0.  1.
         11   -1    0    0    0    0 -0.00000000000E+00 -0.00000000000E+00 -0.45593999997E+02  0.45594000000E+02  0.51100000000E-03 0. -1.
    9900012    2    1    2    0    0  0.18690518125E+02 -0.35071050459E+02  0.17444456222E+02  0.47787273036E+02  0.20000009083E+02 0.  0.
        -12    1    1    2    0    0 -0.18690518125E+02  0.35071050459E+02 -0.17444456222E+02  0.43400726964E+02  0.00000000000E+00 0.  1.
         11    1    3    3    0    0  0.19646972444E+02 -0.32110959411E+02  0.19831039506E+02  0.42548647084E+02  0.51100000000E-03 0. -1.
        -11    1    3    3    0    0 -0.94354432091E-01  0.35745593681E+00 -0.17039352287E+01  0.17435805202E+01  0.51100000000E-03 0.  1.
         12    1    3    3    0    0 -0.86209988634E+00 -0.33175469845E+01 -0.68264805517E+00  0.34950454326E+01  0.00000000000E+00 0. -1.
</event>
<event>
 7    1  0.2442667E-009  0.4778726E+02  0.7816164E-02  0.1312668E+00
        -11   -1    0    0    0    0  0.00000000000E+00  0.00000000000E+00  0.45593999997E+02  0.45594000000E+02  0.51100000000E-03 0.  1.
         11   -1    0    0    0    0 -0.00000000000E+00 -0.00000000000E+00 -0.45593999997E+02  0.45594000000E+02  0.51100000000E-03 0. -1.
    9900012    2    1    2    0    0  0.79532182021E+01 -0.28701419618E+02 -0.31568954327E+02  0.47787262159E+02  0.19999959488E+02 0.  0.
        -12    1    1    2    0    0 -0.79532182021E+01  0.28701419618E+02  0.31568954327E+02  0.43400737841E+02  0.00000000000E+00 0.  1.
         11    1    3    3    0    0  0.58674696684E+01 -0.83469426511E+01 -0.10969945803E+02  0.14981267073E+02  0.51100000000E-03 0. -1.
        -11    1    3    3    0    0 -0.40522473572E+00 -0.19870995017E+02 -0.10670523470E+02  0.22558384726E+02  0.51100000000E-03 0.  1.
        -12    1    3    3    0    0  0.24909732695E+01 -0.48348194946E+00 -0.99284850542E+01  0.10247610360E+02  0.00000000000E+00 0.  1.
</event>
<event>
 7    1  0.2442667E-009  0.4778727E+02  0.7816164E-02  0.1312668E+00
        -11   -1    0    0    0    0  0.00000000000E+00  0.00000000000E+00  0.45593999997E+02  0.45594000000E+02  0.51100000000E-03 0. -1.
         11   -1    0    0    0    0 -0.00000000000E+00 -0.00000000000E+00 -0.45593999997E+02  0.45594000000E+02  0.51100000000E-03 0.  1.
    9900012    2    1    2    0    0 -0.16970996469E+02 -0.10912507384E+02  0.38425589412E+02  0.47787268897E+02  0.19999990211E+02 0.  0.
        -12    1    1    2    0    0  0.16970996469E+02  0.10912507384E+02 -0.38425589412E+02  0.43400731103E+02  0.00000000000E+00 0.  1.
         11    1    3    3    0    0 -0.10262195976E+02 -0.84776492694E+01  0.17454812637E+02  0.21951165979E+02  0.51100000000E-03 0. -1.
        -11    1    3    3    0    0 -0.19516393832E+01  0.54017549780E+01  0.10070670851E+02  0.11593371588E+02  0.51100000000E-03 0.  1.
        -12    1    3    3    0    0 -0.47571611101E+01 -0.78366130931E+01  0.10900105925E+02  0.14242731331E+02  0.00000000000E+00 0.  1.
</event>
<event>
 7    1  0.2442667E-009  0.4778727E+02  0.7816164E-02  0.1312668E+00
        -11   -1    0    0    0    0  0.00000000000E+00  0.00000000000E+00  0.45593999997E+02  0.45594000000E+02  0.51100000000E-03 0. -1.
         11   -1    0    0    0    0 -0.00000000000E+00 -0.00000000000E+00 -0.45593999997E+02  0.45594000000E+02  0.51100000000E-03 0.  1.
    9900012    2    1    2    0    0 -0.28478737661E+02 -0.29882796000E+02 -0.13401612029E+02  0.47787271890E+02  0.20000003853E+02 0.  0.
        -12    1    1    2    0    0  0.28478737661E+02  0.29882796000E+02  0.13401612029E+02  0.43400728110E+02  0.00000000000E+00 0.  1.
         11    1    3    3    0    0 -0.30850271986E+02 -0.27045940165E+02 -0.94235356687E+01  0.42095429512E+02  0.51100000000E-03 0. -1.
        -11    1    3    3    0    0  0.20782210984E+01 -0.23317301688E+01 -0.22004960401E+01  0.38207527527E+01  0.51100000000E-03 0.  1.
         12    1    3    3    0    0  0.29331322724E+00 -0.50512566613E+00 -0.17775803206E+01  0.18710896248E+01  0.00000000000E+00 0. -1.
</event>
<event>
 7    1  0.2442667E-009  0.4778727E+02  0.7816164E-02  0.1312668E+00
        -11   -1    0    0    0    0  0.00000000000E+00  0.00000000000E+00  0.45593999997E+02  0.45594000000E+02  0.51100000000E-03 0.  1.
         11   -1    0    0    0    0 -0.00000000000E+00 -0.00000000000E+00 -0.45593999997E+02  0.45594000000E+02  0.51100000000E-03 0. -1.
    9900012    2    1    2    0    0 -0.10124075345E+02  0.11724000939E+02 -0.40542248552E+02  0.47787274001E+02  0.20000013480E+02 0.  0.
        -12    1    1    2    0    0  0.10124075345E+02 -0.11724000939E+02  0.40542248552E+02  0.43400725999E+02  0.00000000000E+00 0.  1.
         11    1    3    3    0    0 -0.63291581724E+01  0.10967627270E+02 -0.37476492592E+02  0.39557990196E+02  0.51100000000E-03 0. -1.
        -11    1    3    3    0    0 -0.40965507395E+01 -0.21786646096E+01 -0.14275584295E+01  0.48545062338E+01  0.51100000000E-03 0.  1.
        -12    1    3    3    0    0  0.30163356655E+00  0.29350382789E+01 -0.16381975303E+01  0.33747775713E+01  0.00000000000E+00 0.  1.
</event>
<event>
 7    1  0.2442667E-009  0.4778727E+02  0.7816164E-02  0.1312668E+00
        -11   -1    0    0    0    0  0.00000000000E+00  0.00000000000E+00  0.45593999997E+02  0.45594000000E+02  0.51100000000E-03 0.  1.
         11   -1    0    0    0    0 -0.00000000000E+00 -0.00000000000E+00 -0.45593999997E+02  0.45594000000E+02  0.51100000000E-03 0. -1.
    9900012    2    1    2    0    0  0.52238365325E+01  0.22009170766E+02 -0.37039589468E+02  0.47787271275E+02  0.20000001050E+02 0.  0.
        -12    1    1    2    0    0 -0.52238365325E+01 -0.22009170766E+02  0.37039589468E+02  0.43400728725E+02  0.00000000000E+00 0.  1.
         11    1    3    3    0    0  0.31085767421E+01  0.14003005311E+02 -0.32739643365E+02  0.35743973688E+02  0.51100000000E-03 0. -1.
        -11    1    3    3    0    0  0.41379052297E+01  0.75696703444E+01 -0.48573811137E+01  0.99003192048E+01  0.51100000000E-03 0.  1.
         12    1    3    3    0    0 -0.20226454393E+01  0.43649511058E+00  0.55743501050E+00  0.21429783820E+01  0.00000000000E+00 0. -1.
</event>
<event>
 7    1  0.2442667E-009  0.4778727E+02  0.7816164E-02  0.1312668E+00
        -11   -1    0    0    0    0  0.00000000000E+00  0.00000000000E+00  0.45593999997E+02  0.45594000000E+02  0.51100000000E-03 0.  1.
         11   -1    0    0    0    0 -0.00000000000E+00 -0.00000000000E+00 -0.45593999997E+02  0.45594000000E+02  0.51100000000E-03 0. -1.
    9900012    2    1    2    0    0 -0.50395948350E+01 -0.32222885271E+02 -0.28634100840E+02  0.47787267493E+02  0.19999983806E+02 0.  0.
        -12    1    1    2    0    0  0.50395948350E+01  0.32222885271E+02  0.28634100840E+02  0.43400732507E+02  0.00000000000E+00 0.  1.
         11    1    3    3    0    0 -0.80061920190E+01 -0.22805035011E+02 -0.14006635797E+02  0.27934827350E+02  0.51100000000E-03 0. -1.
        -11    1    3    3    0    0  0.42358691378E+01 -0.23186803841E+01 -0.18324101263E+01  0.51649388388E+01  0.51100000000E-03 0.  1.
         12    1    3    3    0    0 -0.12692719537E+01 -0.70991698758E+01 -0.12795054917E+02  0.14687501303E+02  0.00000000000E+00 0. -1.
</event>
<event>
 7    1  0.2442667E-009  0.4778728E+02  0.7816164E-02  0.1312668E+00
        -11   -1    0    0    0    0  0.00000000000E+00  0.00000000000E+00  0.45593999997E+02  0.45594000000E+02  0.51100000000E-03 0.  1.
         11   -1    0    0    0    0 -0.00000000000E+00 -0.00000000000E+00 -0.45593999997E+02  0.45594000000E+02  0.51100000000E-03 0. -1.
    9900012    2    1    2    0    0  0.11330399250E+02  0.40720543884E+02 -0.98530191311E+01  0.47787278493E+02  0.20000033960E+02 0.  0.
        -12    1    1    2    0    0 -0.11330399250E+02 -0.40720543884E+02  0.98530191311E+01  0.43400721507E+02  0.00000000000E+00 0.  1.
         11    1    3    3    0    0  0.65941980130E+01  0.16219043315E+02  0.53264726114E+01  0.18300604477E+02  0.51100000000E-03 0. -1.
        -11    1    3    3    0    0  0.27327260293E+01  0.78934574269E+01 -0.68317029539E+01  0.10791043843E+02  0.51100000000E-03 0.  1.
         12    1    3    3    0    0  0.20034752082E+01  0.16608043142E+02 -0.83477887886E+01  0.18695630173E+02  0.00000000000E+00 0. -1.
</event>
<event>
 7    1  0.2442667E-009  0.4778727E+02  0.7816164E-02  0.1312668E+00
        -11   -1    0    0    0    0  0.00000000000E+00  0.00000000000E+00  0.45593999997E+02  0.45594000000E+02  0.51100000000E-03 0.  1.
         11   -1    0    0    0    0 -0.00000000000E+00 -0.00000000000E+00 -0.45593999997E+02  0.45594000000E+02  0.51100000000E-03 0. -1.
    9900012    2    1    2    0    0  0.14936413836E+02 -0.37108366750E+01 -0.40580243655E+02  0.47787274866E+02  0.20000017423E+02 0.  0.
        -12    1    1    2    0    0 -0.14936413836E+02  0.37108366750E+01  0.40580243655E+02  0.43400725134E+02  0.00000000000E+00 0.  1.
         11    1    3    3    0    0 -0.66045133250E+00 -0.82626487250E+01 -0.11799325731E+02  0.14419835224E+02  0.51100000000E-03 0. -1.
        -11    1    3    3    0    0  0.12770614495E+02  0.23115162469E+01 -0.19638317788E+02  0.23539227424E+02  0.51100000000E-03 0.  1.
         12    1    3    3    0    0  0.28262506737E+01  0.22402958030E+01 -0.91426001356E+01  0.98282122177E+01  0.00000000000E+00 0. -1.
</event>
<event>
 7    1  0.2442667E-009  0.4778727E+02  0.7816164E-02  0.1312668E+00
        -11   -1    0    0    0    0  0.00000000000E+00  0.00000000000E+00  0.45593999997E+02  0.45594000000E+02  0.51100000000E-03 0.  1.
         11   -1    0    0    0    0 -0.00000000000E+00 -0.00000000000E+00 -0.45593999997E+02  0.45594000000E+02  0.51100000000E-03 0. -1.
    9900012    2    1    2    0    0 -0.58580259506E+00 -0.16869487624E+02 -0.39983753669E+02  0.47787270342E+02  0.19999996798E+02 0.  0.
        -12    1    1    2    0    0  0.58580259506E+00  0.16869487624E+02  0.39983753669E+02  0.43400729658E+02  0.00000000000E+00 0.  1.
         11    1    3    3    0    0  0.11560802328E+00 -0.12059356443E+02 -0.17398125516E+02  0.21169228015E+02  0.51100000000E-03 0. -1.
        -11    1    3    3    0    0  0.31405946231E+00  0.10663635868E+01  0.14650334026E+01  0.18390453439E+01  0.51100000000E-03 0.  1.
        -12    1    3    3    0    0 -0.10154700807E+01 -0.58764947686E+01 -0.24050661555E+02  0.24778996983E+02  0.00000000000E+00 0.  1.
</event>
<event>
 7    1  0.2442667E-009  0.4778727E+02  0.7816164E-02  0.1312668E+00
        -11   -1    0    0    0    0  0.00000000000E+00  0.00000000000E+00  0.45593999997E+02  0.45594000000E+02  0.51100000000E-03 0. -1.
         11   -1    0    0    0    0 -0.00000000000E+00 -0.00000000000E+00 -0.45593999997E+02  0.45594000000E+02  0.51100000000E-03 0.  1.
    9900012    2    1    2    0    0  0.11796911038E+02 -0.41016021398E+02  0.78830395844E+01  0.47787269195E+02  0.19999991566E+02 0.  0.
        -12    1    1    2    0    0 -0.11796911038E+02  0.41016021398E+02 -0.78830395844E+01  0.43400730805E+02  0.00000000000E+00 0.  1.
         11    1    3    3    0    0  0.10329571678E+02 -0.13505604165E+02  0.69608338319E+01  0.18372659112E+02  0.51100000000E-03 0. -1.
        -11    1    3    3    0    0 -0.19878252065E+00 -0.13019254679E+02 -0.46119722321E+01  0.13813428069E+02  0.51100000000E-03 0.  1.
         12    1    3    3    0    0  0.16661218800E+01 -0.14491162554E+02  0.55341779846E+01  0.15601182014E+02  0.00000000000E+00 0. -1.
</event>
<event>
 7    1  0.2442667E-009  0.4778727E+02  0.7816164E-02  0.1312668E+00
        -11   -1    0    0    0    0  0.00000000000E+00  0.00000000000E+00  0.45593999997E+02  0.45594000000E+02  0.51100000000E-03 0.  1.
         11   -1    0    0    0    0 -0.00000000000E+00 -0.00000000000E+00 -0.45593999997E+02  0.45594000000E+02  0.51100000000E-03 0. -1.
    9900012    2    1    2    0    0  0.18701761607E+02 -0.10849114615E+02 -0.37631959034E+02  0.47787268257E+02  0.19999987289E+02 0.  0.
        -12    1    1    2    0    0 -0.18701761607E+02  0.10849114615E+02  0.37631959034E+02  0.43400731743E+02  0.00000000000E+00 0.  1.
         11    1    3    3    0    0  0.88759645692E+00 -0.21270427780E+01 -0.45414064155E+01  0.50927900940E+01  0.51100000000E-03 0. -1.
        -11    1    3    3    0    0  0.10501610585E+02 -0.87670481779E+01 -0.32613263755E+02  0.35366225861E+02  0.51100000000E-03 0.  1.
        -12    1    3    3    0    0  0.73125545647E+01  0.44976340513E-01 -0.47728886319E+00  0.73282523014E+01  0.00000000000E+00 0.  1.
</event>
<event>
 7    1  0.2442667E-009  0.4778727E+02  0.7816164E-02  0.1312668E+00
        -11   -1    0    0    0    0  0.00000000000E+00  0.00000000000E+00  0.45593999997E+02  0.45594000000E+02  0.51100000000E-03 0.  1.
         11   -1    0    0    0    0 -0.00000000000E+00 -0.00000000000E+00 -0.45593999997E+02  0.45594000000E+02  0.51100000000E-03 0. -1.
    9900012    2    1    2    0    0 -0.12789166135E+02 -0.22451567701E+02 -0.34871009178E+02  0.47787274848E+02  0.20000017340E+02 0.  0.
        -12    1    1    2    0    0  0.12789166135E+02  0.22451567701E+02  0.34871009178E+02  0.43400725152E+02  0.00000000000E+00 0.  1.
         11    1    3    3    0    0  0.34645234617E+01 -0.62164324941E+01 -0.12850007452E+02  0.14689099617E+02  0.51100000000E-03 0. -1.
        -11    1    3    3    0    0 -0.47290913331E+01 -0.99610698116E+00 -0.81961333017E+01  0.95148901893E+01  0.51100000000E-03 0.  1.
         12    1    3    3    0    0 -0.11524598264E+02 -0.15239028226E+02 -0.13824868424E+02  0.23583285041E+02  0.00000000000E+00 0. -1.
</event>
<event>
 7    1  0.2442667E-009  0.4778726E+02  0.7816164E-02  0.1312668E+00
        -11   -1    0    0    0    0  0.00000000000E+00  0.00000000000E+00  0.45593999997E+02  0.45594000000E+02  0.51100000000E-03 0.  1.
         11   -1    0    0    0    0 -0.00000000000E+00 -0.00000000000E+00 -0.45593999997E+02  0.45594000000E+02  0.51100000000E-03 0. -1.
    9900012    2    1    2    0    0  0.31178448665E+02  0.73376026333E+01 -0.29286307033E+02  0.47787264370E+02  0.19999969570E+02 0.  0.
        -12    1    1    2    0    0 -0.31178448665E+02 -0.73376026333E+01  0.29286307033E+02  0.43400735630E+02  0.00000000000E+00 0.  1.
         11    1    3    3    0    0  0.33220441020E+01 -0.41564644431E+01 -0.41547014096E+01  0.67508308931E+01  0.51100000000E-03 0. -1.
        -11    1    3    3    0    0  0.11219653637E+02  0.99281855341E+01 -0.16288053350E+02  0.22130299996E+02  0.51100000000E-03 0.  1.
         12    1    3    3    0    0  0.16636750926E+02  0.15658815424E+01 -0.88435522731E+01  0.18906133481E+02  0.00000000000E+00 0. -1.
</event>
<event>
 7    1  0.2442667E-009  0.4778727E+02  0.7816164E-02  0.1312668E+00
        -11   -1    0    0    0    0  0.00000000000E+00  0.00000000000E+00  0.45593999997E+02  0.45594000000E+02  0.51100000000E-03 0.  1.
         11   -1    0    0    0    0 -0.00000000000E+00 -0.00000000000E+00 -0.45593999997E+02  0.45594000000E+02  0.51100000000E-03 0. -1.
    9900012    2    1    2    0    0  0.63695104732E-01  0.18094765635E+02 -0.39448682851E+02  0.47787272136E+02  0.20000004976E+02 0.  0.
        -12    1    1    2    0    0 -0.63695104732E-01 -0.18094765635E+02  0.39448682851E+02  0.43400727864E+02  0.00000000000E+00 0.  1.
         11    1    3    3    0    0  0.20539781146E+00  0.19952082394E+01 -0.16744155694E+02  0.16863860600E+02  0.51100000000E-03 0. -1.
        -11    1    3    3    0    0 -0.30615307041E+01  0.31247267740E+01 -0.14843160434E+02  0.15474375581E+02  0.51100000000E-03 0.  1.
         12    1    3    3    0    0  0.29198279973E+01  0.12974830621E+02 -0.78613667230E+01  0.15449035955E+02  0.00000000000E+00 0. -1.
</event>
<event>
 7    1  0.2442667E-009  0.4778728E+02  0.7816164E-02  0.1312668E+00
        -11   -1    0    0    0    0  0.00000000000E+00  0.00000000000E+00  0.45593999997E+02  0.45594000000E+02  0.51100000000E-03 0.  1.
         11   -1    0    0    0    0 -0.00000000000E+00 -0.00000000000E+00 -0.45593999997E+02  0.45594000000E+02  0.51100000000E-03 0. -1.
    9900012    2    1    2    0    0 -0.40337481434E+02 -0.71692151547E+01 -0.14321750707E+02  0.47787278835E+02  0.20000035518E+02 0.  0.
        -12    1    1    2    0    0  0.40337481434E+02  0.71692151547E+01  0.14321750707E+02  0.43400721165E+02  0.00000000000E+00 0.  1.
         11    1    3    3    0    0 -0.12883247013E+02 -0.72383278602E+01 -0.12608742624E+02  0.19425545928E+02  0.51100000000E-03 0. -1.
        -11    1    3    3    0    0 -0.18336261394E+02 -0.78572490019E+00  0.20369014109E+01  0.18465774101E+02  0.51100000000E-03 0.  1.
         12    1    3    3    0    0 -0.91179730270E+01  0.85483760575E+00 -0.37499094938E+01  0.98959588047E+01  0.00000000000E+00 0. -1.
</event>
<event>
 7    1  0.2442667E-009  0.4778727E+02  0.7816164E-02  0.1312668E+00
        -11   -1    0    0    0    0  0.00000000000E+00  0.00000000000E+00  0.45593999997E+02  0.45594000000E+02  0.51100000000E-03 0. -1.
         11   -1    0    0    0    0 -0.00000000000E+00 -0.00000000000E+00 -0.45593999997E+02  0.45594000000E+02  0.51100000000E-03 0.  1.
    9900012    2    1    2    0    0  0.37642204202E+02  0.72653243485E+01  0.20344601744E+02  0.47787270798E+02  0.19999998878E+02 0.  0.
        -12    1    1    2    0    0 -0.37642204202E+02 -0.72653243485E+01 -0.20344601744E+02  0.43400729202E+02  0.00000000000E+00 0.  1.
         11    1    3    3    0    0  0.15139364361E+02 -0.42928939246E+01  0.61714160136E+01  0.16903125964E+02  0.51100000000E-03 0.  1.
        -11    1    3    3    0    0  0.42476157834E+01  0.73745956612E+01  0.27352185341E+01  0.89391454681E+01  0.51100000000E-03 0. -1.
         12    1    3    3    0    0  0.18255224058E+02  0.41836226119E+01  0.11437967197E+02  0.21944999366E+02  0.00000000000E+00 0. -1.
</event>
<event>
 7    1  0.2442667E-009  0.4778727E+02  0.7816164E-02  0.1312668E+00
        -11   -1    0    0    0    0  0.00000000000E+00  0.00000000000E+00  0.45593999997E+02  0.45594000000E+02  0.51100000000E-03 0.  1.
         11   -1    0    0    0    0 -0.00000000000E+00 -0.00000000000E+00 -0.45593999997E+02  0.45594000000E+02  0.51100000000E-03 0. -1.
    9900012    2    1    2    0    0 -0.15035745240E+02  0.29661164070E+02 -0.27888436634E+02  0.47787272047E+02  0.20000004573E+02 0.  0.
        -12    1    1    2    0    0  0.15035745240E+02 -0.29661164070E+02  0.27888436634E+02  0.43400727953E+02  0.00000000000E+00 0.  1.
         11    1    3    3    0    0 -0.92904295950E+01  0.25498929333E+02 -0.26897154296E+02  0.38209480351E+02  0.51100000000E-03 0. -1.
        -11    1    3    3    0    0 -0.15227567425E+01  0.42257648095E+01  0.14249736771E+01  0.47123695275E+01  0.51100000000E-03 0.  1.
         12    1    3    3    0    0 -0.42225589025E+01 -0.63530072105E-01 -0.24162560147E+01  0.48654221691E+01  0.00000000000E+00 0. -1.
</event>
<event>
 7    1  0.2442667E-009  0.4778726E+02  0.7816164E-02  0.1312668E+00
        -11   -1    0    0    0    0  0.00000000000E+00  0.00000000000E+00  0.45593999997E+02  0.45594000000E+02  0.51100000000E-03 0. -1.
         11   -1    0    0    0    0 -0.00000000000E+00 -0.00000000000E+00 -0.45593999997E+02  0.45594000000E+02  0.51100000000E-03 0.  1.
    9900012    2    1    2    0    0  0.38887658093E+02  0.18808976382E+02 -0.41947998617E+01  0.47787263942E+02  0.19999967616E+02 0.  0.
        -12    1    1    2    0    0 -0.38887658093E+02 -0.18808976382E+02  0.41947998617E+01  0.43400736058E+02  0.00000000000E+00 0.  1.
         11    1    3    3    0    0  0.58007408059E+01  0.14677273188E+01 -0.37560970808E+01  0.70647776271E+01  0.51100000000E-03 0. -1.
        -11    1    3    3    0    0 -0.18600380017E+01  0.54180421085E+00  0.14719832398E+00  0.19429258294E+01  0.51100000000E-03 0.  1.
         12    1    3    3    0    0  0.34946955289E+02  0.16799444852E+02 -0.58590110492E+00  0.38779560485E+02  0.00000000000E+00 0. -1.
</event>
<event>
 7    1  0.2442667E-009  0.4778727E+02  0.7816164E-02  0.1312668E+00
        -11   -1    0    0    0    0  0.00000000000E+00  0.00000000000E+00  0.45593999997E+02  0.45594000000E+02  0.51100000000E-03 0.  1.
         11   -1    0    0    0    0 -0.00000000000E+00 -0.00000000000E+00 -0.45593999997E+02  0.45594000000E+02  0.51100000000E-03 0. -1.
    9900012    2    1    2    0    0 -0.40864670602E+02  0.14546822362E+02  0.14463188294E+01  0.47787272098E+02  0.20000004804E+02 0.  0.
        -12    1    1    2    0    0  0.40864670602E+02 -0.14546822362E+02 -0.14463188294E+01  0.43400727902E+02  0.00000000000E+00 0.  1.
         11    1    3    3    0    0 -0.79732562861E+01  0.14534268300E+01 -0.15145094902E+01  0.82449381205E+01  0.51100000000E-03 0. -1.
        -11    1    3    3    0    0 -0.12224798049E+02  0.60845568957E+01 -0.72368838533E+01  0.15454449461E+02  0.51100000000E-03 0.  1.
        -12    1    3    3    0    0 -0.20666616267E+02  0.70088386361E+01  0.10197712173E+02  0.24087884517E+02  0.00000000000E+00 0.  1.
</event>
<event>
 7    1  0.2442667E-009  0.4778727E+02  0.7816164E-02  0.1312668E+00
        -11   -1    0    0    0    0  0.00000000000E+00  0.00000000000E+00  0.45593999997E+02  0.45594000000E+02  0.51100000000E-03 0. -1.
         11   -1    0    0    0    0 -0.00000000000E+00 -0.00000000000E+00 -0.45593999997E+02  0.45594000000E+02  0.51100000000E-03 0.  1.
    9900012    2    1    2    0    0  0.62570442171E+01  0.14418206066E+02  0.40454766481E+02  0.47787269597E+02  0.19999993401E+02 0.  0.
        -12    1    1    2    0    0 -0.62570442171E+01 -0.14418206066E+02 -0.40454766481E+02  0.43400730403E+02  0.00000000000E+00 0.  1.
         11    1    3    3    0    0  0.44534871887E+01  0.44361513022E+01  0.56430175215E+00  0.63112140864E+01  0.51100000000E-03 0. -1.
        -11    1    3    3    0    0  0.31624176249E+01  0.90910868233E+01  0.35886419306E+02  0.37154862881E+02  0.51100000000E-03 0.  1.
        -12    1    3    3    0    0 -0.13588605965E+01  0.89096794012E+00  0.40040454228E+01  0.43211926292E+01  0.00000000000E+00 0.  1.
</event>
<event>
 7    1  0.2442667E-009  0.4778727E+02  0.7816164E-02  0.1312668E+00
        -11   -1    0    0    0    0  0.00000000000E+00  0.00000000000E+00  0.45593999997E+02  0.45594000000E+02  0.51100000000E-03 0. -1.
         11   -1    0    0    0    0 -0.00000000000E+00 -0.00000000000E+00 -0.45593999997E+02  0.45594000000E+02  0.51100000000E-03 0.  1.
    9900012    2    1    2    0    0  0.42519869066E+02 -0.83499241820E+01 -0.24418560591E+01  0.47787272353E+02  0.20000005967E+02 0.  0.
        -12    1    1    2    0    0 -0.42519869066E+02  0.83499241820E+01  0.24418560591E+01  0.43400727647E+02  0.00000000000E+00 0.  1.
         11    1    3    3    0    0  0.12027372316E+01  0.27904578971E+01  0.25704241278E+01  0.39799890178E+01  0.51100000000E-03 0. -1.
        -11    1    3    3    0    0  0.14760877402E+02 -0.77993831681E+01 -0.30387945180E+01  0.16969035089E+02  0.51100000000E-03 0.  1.
         12    1    3    3    0    0  0.26556254433E+02 -0.33409989110E+01 -0.19734856689E+01  0.26838248246E+02  0.00000000000E+00 0. -1.
</event>
<event>
 7    1  0.2442667E-009  0.4778727E+02  0.7816164E-02  0.1312668E+00
        -11   -1    0    0    0    0  0.00000000000E+00  0.00000000000E+00  0.45593999997E+02  0.45594000000E+02  0.51100000000E-03 0.  1.
         11   -1    0    0    0    0 -0.00000000000E+00 -0.00000000000E+00 -0.45593999997E+02  0.45594000000E+02  0.51100000000E-03 0. -1.
    9900012    2    1    2    0    0  0.68752044622E+01 -0.19616609917E+01 -0.42807791463E+02  0.47787267746E+02  0.19999984963E+02 0.  0.
        -12    1    1    2    0    0 -0.68752044622E+01  0.19616609917E+01  0.42807791463E+02  0.43400732254E+02  0.00000000000E+00 0.  1.
         11    1    3    3    0    0  0.67208470611E+01  0.20224412534E+01 -0.28042614774E+02  0.28907582006E+02  0.51100000000E-03 0. -1.
        -11    1    3    3    0    0  0.32478901051E+01 -0.68078614238E+01 -0.87910072370E+01  0.11583504470E+02  0.51100000000E-03 0.  1.
         12    1    3    3    0    0 -0.30935327040E+01  0.28237591786E+01 -0.59741694518E+01  0.72961812702E+01  0.00000000000E+00 0. -1.
</event>
<event>
 7    1  0.2442667E-009  0.4778727E+02  0.7816164E-02  0.1312668E+00
        -11   -1    0    0    0    0  0.00000000000E+00  0.00000000000E+00  0.45593999997E+02  0.45594000000E+02  0.51100000000E-03 0. -1.
         11   -1    0    0    0    0 -0.00000000000E+00 -0.00000000000E+00 -0.45593999997E+02  0.45594000000E+02  0.51100000000E-03 0.  1.
    9900012    2    1    2    0    0 -0.16906547093E+02 -0.20801375972E+02  0.34133488881E+02  0.47787266825E+02  0.19999980761E+02 0.  0.
        -12    1    1    2    0    0  0.16906547093E+02  0.20801375972E+02 -0.34133488881E+02  0.43400733175E+02  0.00000000000E+00 0.  1.
         11    1    3    3    0    0 -0.87494824751E+01 -0.98003189494E+01  0.11783294461E+02  0.17647824900E+02  0.51100000000E-03 0. -1.
        -11    1    3    3    0    0 -0.57213265421E+01 -0.12551850766E+02  0.23319185836E+02  0.27093670172E+02  0.51100000000E-03 0.  1.
        -12    1    3    3    0    0 -0.24357380760E+01  0.15507937426E+01 -0.96899141638E+00  0.30457717531E+01  0.00000000000E+00 0.  1.
</event>
<event>
 7    1  0.2442667E-009  0.4778728E+02  0.7816164E-02  0.1312668E+00
        -11   -1    0    0    0    0  0.00000000000E+00  0.00000000000E+00  0.45593999997E+02  0.45594000000E+02  0.51100000000E-03 0.  1.
         11   -1    0    0    0    0 -0.00000000000E+00 -0.00000000000E+00 -0.45593999997E+02  0.45594000000E+02  0.51100000000E-03 0. -1.
    9900012    2    1    2    0    0  0.43822596724E+01 -0.41625200660E+02 -0.11478736451E+02  0.47787275117E+02  0.20000018569E+02 0.  0.
        -12    1    1    2    0    0 -0.43822596724E+01  0.41625200660E+02  0.11478736451E+02  0.43400724883E+02  0.00000000000E+00 0.  1.
         11    1    3    3    0    0  0.47164734402E+00 -0.38125870876E+01 -0.54617153823E+01  0.66774700820E+01  0.51100000000E-03 0. -1.
        -11    1    3    3    0    0  0.84674809104E+01 -0.24977787266E+02 -0.39947111309E+00  0.26377029156E+02  0.51100000000E-03 0.  1.
        -12    1    3    3    0    0 -0.45568685820E+01 -0.12834826307E+02 -0.56175499551E+01  0.14732775879E+02  0.00000000000E+00 0.  1.
</event>
<event>
 7    1  0.2442667E-009  0.4778727E+02  0.7816164E-02  0.1312668E+00
        -11   -1    0    0    0    0  0.00000000000E+00  0.00000000000E+00  0.45593999997E+02  0.45594000000E+02  0.51100000000E-03 0.  1.
         11   -1    0    0    0    0 -0.00000000000E+00 -0.00000000000E+00 -0.45593999997E+02  0.45594000000E+02  0.51100000000E-03 0. -1.
    9900012    2    1    2    0    0 -0.36472378875E+02 -0.72918922689E+01 -0.22365536888E+02  0.47787270122E+02  0.19999995796E+02 0.  0.
        -12    1    1    2    0    0  0.36472378875E+02  0.72918922689E+01  0.22365536888E+02  0.43400729878E+02  0.00000000000E+00 0.  1.
         11    1    3    3    0    0 -0.15026249577E+02 -0.95118331794E+01 -0.10624823817E+02  0.20715936575E+02  0.51100000000E-03 0. -1.
        -11    1    3    3    0    0 -0.94841291989E+01  0.19676096149E+01  0.82423401904E+00  0.97210882229E+01  0.51100000000E-03 0.  1.
         12    1    3    3    0    0 -0.11962000099E+02  0.25233129557E+00 -0.12564947090E+02  0.17350245325E+02  0.00000000000E+00 0. -1.
</event>
<event>
 7    1  0.2442667E-009  0.4778727E+02  0.7816164E-02  0.1312668E+00
        -11   -1    0    0    0    0  0.00000000000E+00  0.00000000000E+00  0.45593999997E+02  0.45594000000E+02  0.51100000000E-03 0.  1.
         11   -1    0    0    0    0 -0.00000000000E+00 -0.00000000000E+00 -0.45593999997E+02  0.45594000000E+02  0.51100000000E-03 0. -1.
    9900012    2    1    2    0    0  0.93707290866E+01  0.42314593434E+02  0.22995222781E+01  0.47787272082E+02  0.20000004730E+02 0.  0.
        -12    1    1    2    0    0 -0.93707290866E+01 -0.42314593434E+02 -0.22995222781E+01  0.43400727918E+02  0.00000000000E+00 0.  1.
         11    1    3    3    0    0  0.12989977534E+02  0.19056337779E+02 -0.12711106676E+01  0.23097602657E+02  0.51100000000E-03 0. -1.
        -11    1    3    3    0    0 -0.73432577685E+00  0.19177374542E+02  0.14043882229E+01  0.19242745002E+02  0.51100000000E-03 0.  1.
         12    1    3    3    0    0 -0.28849226705E+01  0.40808811133E+01  0.21662447228E+01  0.54469244234E+01  0.00000000000E+00 0. -1.
</event>
<event>
 7    1  0.2442667E-009  0.4778727E+02  0.7816164E-02  0.1312668E+00
        -11   -1    0    0    0    0  0.00000000000E+00  0.00000000000E+00  0.45593999997E+02  0.45594000000E+02  0.51100000000E-03 0.  1.
         11   -1    0    0    0    0 -0.00000000000E+00 -0.00000000000E+00 -0.45593999997E+02  0.45594000000E+02  0.51100000000E-03 0. -1.
    9900012    2    1    2    0    0  0.15620138448E+02  0.22404596903E+02 -0.33729349307E+02  0.47787266225E+02  0.19999978027E+02 0.  0.
        -12    1    1    2    0    0 -0.15620138448E+02 -0.22404596903E+02  0.33729349307E+02  0.43400733775E+02  0.00000000000E+00 0.  1.
         11    1    3    3    0    0  0.10596003482E+02  0.18258088621E+02 -0.16772439978E+02  0.26961970124E+02  0.51100000000E-03 0. -1.
        -11    1    3    3    0    0  0.69290002066E+00  0.37388040492E+01 -0.53862918502E+00  0.38404280773E+01  0.51100000000E-03 0.  1.
         12    1    3    3    0    0  0.43312349450E+01  0.40770423213E+00 -0.16418280144E+02  0.16984868024E+02  0.00000000000E+00 0. -1.
</event>
<event>
 7    1  0.2442667E-009  0.4778727E+02  0.7816164E-02  0.1312668E+00
        -11   -1    0    0    0    0  0.00000000000E+00  0.00000000000E+00  0.45593999997E+02  0.45594000000E+02  0.51100000000E-03 0.  1.
         11   -1    0    0    0    0 -0.00000000000E+00 -0.00000000000E+00 -0.45593999997E+02  0.45594000000E+02  0.51100000000E-03 0. -1.
    9900012    2    1    2    0    0  0.27097751408E+02 -0.25377636492E+02 -0.22479118268E+02  0.47787270474E+02  0.19999997398E+02 0.  0.
        -12    1    1    2    0    0 -0.27097751408E+02  0.25377636492E+02  0.22479118268E+02  0.43400729526E+02  0.00000000000E+00 0.  1.
         11    1    3    3    0    0  0.16356344464E+02 -0.50423800521E+01 -0.60216454662E+01  0.18144305311E+02  0.51100000000E-03 0. -1.
        -11    1    3    3    0    0  0.11422566797E+02 -0.19722344780E+02 -0.13372521635E+02  0.26424803708E+02  0.51100000000E-03 0.  1.
        -12    1    3    3    0    0 -0.68115985363E+00 -0.61291165988E+00 -0.30849511668E+01  0.32181614550E+01  0.00000000000E+00 0.  1.
</event>
<event>
 7    1  0.2442667E-009  0.4778727E+02  0.7816164E-02  0.1312668E+00
        -11   -1    0    0    0    0  0.00000000000E+00  0.00000000000E+00  0.45593999997E+02  0.45594000000E+02  0.51100000000E-03 0.  1.
         11   -1    0    0    0    0 -0.00000000000E+00 -0.00000000000E+00 -0.45593999997E+02  0.45594000000E+02  0.51100000000E-03 0. -1.
    9900012    2    1    2    0    0  0.29897924596E+02  0.21036984064E+02 -0.23391937893E+02  0.47787270143E+02  0.19999995892E+02 0.  0.
        -12    1    1    2    0    0 -0.29897924596E+02 -0.21036984064E+02  0.23391937893E+02  0.43400729857E+02  0.00000000000E+00 0.  1.
         11    1    3    3    0    0  0.11218279207E+02  0.89053482259E+01  0.88544106494E+00  0.14350575651E+02  0.51100000000E-03 0. -1.
        -11    1    3    3    0    0  0.16661584797E+02  0.12475340246E+02 -0.23017207060E+02  0.31032794642E+02  0.51100000000E-03 0.  1.
         12    1    3    3    0    0  0.20180605921E+01 -0.34370440795E+00 -0.12601718981E+01  0.24038998495E+01  0.00000000000E+00 0. -1.
</event>
<event>
 7    1  0.2442667E-009  0.4778727E+02  0.7816164E-02  0.1312668E+00
        -11   -1    0    0    0    0  0.00000000000E+00  0.00000000000E+00  0.45593999997E+02  0.45594000000E+02  0.51100000000E-03 0.  1.
         11   -1    0    0    0    0 -0.00000000000E+00 -0.00000000000E+00 -0.45593999997E+02  0.45594000000E+02  0.51100000000E-03 0. -1.
    9900012    2    1    2    0    0 -0.20581451022E+02  0.32522119537E+02  0.20058390476E+02  0.47787269432E+02  0.19999992647E+02 0.  0.
        -12    1    1    2    0    0  0.20581451022E+02 -0.32522119537E+02 -0.20058390476E+02  0.43400730568E+02  0.00000000000E+00 0.  1.
         11    1    3    3    0    0 -0.32255304570E+01  0.31131301266E+01  0.44797495318E+00  0.45051423656E+01  0.51100000000E-03 0. -1.
        -11    1    3    3    0    0 -0.19008151489E+02  0.16692273323E+02  0.16103162376E+02  0.29987558261E+02  0.51100000000E-03 0.  1.
        -12    1    3    3    0    0  0.16522309235E+01  0.12716716088E+02  0.35072531472E+01  0.13294568805E+02  0.00000000000E+00 0.  1.
</event>
<event>
 7    1  0.2442667E-009  0.4778727E+02  0.7816164E-02  0.1312668E+00
        -11   -1    0    0    0    0  0.00000000000E+00  0.00000000000E+00  0.45593999997E+02  0.45594000000E+02  0.51100000000E-03 0. -1.
         11   -1    0    0    0    0 -0.00000000000E+00 -0.00000000000E+00 -0.45593999997E+02  0.45594000000E+02  0.51100000000E-03 0.  1.
    9900012    2    1    2    0    0 -0.39669565801E+02  0.17454933776E+02 -0.22965828120E+01  0.47787268939E+02  0.19999990402E+02 0.  0.
        -12    1    1    2    0    0  0.39669565801E+02 -0.17454933776E+02  0.22965828120E+01  0.43400731061E+02  0.00000000000E+00 0.  1.
         11    1    3    3    0    0 -0.21452413821E+02  0.89447163988E+01  0.19296347682E+01  0.23322467725E+02  0.51100000000E-03 0. -1.
        -11    1    3    3    0    0 -0.26506282236E+01  0.73329123787E+01 -0.41942974394E+01  0.88537881839E+01  0.51100000000E-03 0.  1.
        -12    1    3    3    0    0 -0.15566523757E+02  0.11773049983E+01 -0.31920140789E-01  0.15611013030E+02  0.00000000000E+00 0.  1.
</event>
<event>
 7    1  0.2442667E-009  0.4778727E+02  0.7816164E-02  0.1312668E+00
        -11   -1    0    0    0    0  0.00000000000E+00  0.00000000000E+00  0.45593999997E+02  0.45594000000E+02  0.51100000000E-03 0.  1.
         11   -1    0    0    0    0 -0.00000000000E+00 -0.00000000000E+00 -0.45593999997E+02  0.45594000000E+02  0.51100000000E-03 0. -1.
    9900012    2    1    2    0    0 -0.20316787883E+02 -0.37618455024E+02 -0.74634547111E+01  0.47787272074E+02  0.20000004694E+02 0.  0.
        -12    1    1    2    0    0  0.20316787883E+02  0.37618455024E+02  0.74634547111E+01  0.43400727926E+02  0.00000000000E+00 0.  1.
         11    1    3    3    0    0 -0.26340163044E+01 -0.16415236474E+01 -0.62766683988E+01  0.70020859911E+01  0.51100000000E-03 0. -1.
        -11    1    3    3    0    0 -0.48724550256E+01 -0.46697295620E+01  0.12780379894E+01  0.68688116528E+01  0.51100000000E-03 0.  1.
         12    1    3    3    0    0 -0.12810316553E+02 -0.31307201814E+02 -0.24648243017E+01  0.33916374430E+02  0.00000000000E+00 0. -1.
</event>
<event>
 7    1  0.2442667E-009  0.4778726E+02  0.7816164E-02  0.1312668E+00
        -11   -1    0    0    0    0  0.00000000000E+00  0.00000000000E+00  0.45593999997E+02  0.45594000000E+02  0.51100000000E-03 0. -1.
         11   -1    0    0    0    0 -0.00000000000E+00 -0.00000000000E+00 -0.45593999997E+02  0.45594000000E+02  0.51100000000E-03 0.  1.
    9900012    2    1    2    0    0 -0.24344179565E+02  0.27381319185E+02  0.23264739018E+02  0.47787264977E+02  0.19999972334E+02 0.  0.
        -12    1    1    2    0    0  0.24344179565E+02 -0.27381319185E+02 -0.23264739018E+02  0.43400735023E+02  0.00000000000E+00 0.  1.
         11    1    3    3    0    0 -0.87630491358E+01  0.95214757885E+01  0.48198320622E+01  0.13808704237E+02  0.51100000000E-03 0. -1.
        -11    1    3    3    0    0 -0.46576623535E+01 -0.89037943616E+00 -0.99393323628E+00  0.48450487798E+01  0.51100000000E-03 0.  1.
        -12    1    3    3    0    0 -0.10923468076E+02  0.18750222832E+02  0.19438840192E+02  0.29133511959E+02  0.00000000000E+00 0.  1.
</event>
<event>
 7    1  0.2442667E-009  0.4778728E+02  0.7816164E-02  0.1312668E+00
        -11   -1    0    0    0    0  0.00000000000E+00  0.00000000000E+00  0.45593999997E+02  0.45594000000E+02  0.51100000000E-03 0.  1.
         11   -1    0    0    0    0 -0.00000000000E+00 -0.00000000000E+00 -0.45593999997E+02  0.45594000000E+02  0.51100000000E-03 0. -1.
    9900012    2    1    2    0    0 -0.56445705775E+01  0.36637653460E+02 -0.22570867898E+02  0.47787275286E+02  0.20000019337E+02 0.  0.
        -12    1    1    2    0    0  0.56445705775E+01 -0.36637653460E+02  0.22570867898E+02  0.43400724714E+02  0.00000000000E+00 0.  1.
         11    1    3    3    0    0 -0.14964173840E+01  0.27871461778E+02 -0.21589966876E+02  0.35287169292E+02  0.51100000000E-03 0. -1.
        -11    1    3    3    0    0 -0.58807100881E+01  0.33439453737E+01 -0.69578565949E+00  0.68006499504E+01  0.51100000000E-03 0.  1.
        -12    1    3    3    0    0  0.17325568946E+01  0.54222463085E+01 -0.28511536189E+00  0.56994560435E+01  0.00000000000E+00 0.  1.
</event>
<event>
 7    1  0.2442667E-009  0.4778727E+02  0.7816164E-02  0.1312668E+00
        -11   -1    0    0    0    0  0.00000000000E+00  0.00000000000E+00  0.45593999997E+02  0.45594000000E+02  0.51100000000E-03 0.  1.
         11   -1    0    0    0    0 -0.00000000000E+00 -0.00000000000E+00 -0.45593999997E+02  0.45594000000E+02  0.51100000000E-03 0. -1.
    9900012    2    1    2    0    0  0.74629375045E+01  0.38455881447E+02 -0.18683500536E+02  0.47787269058E+02  0.19999990943E+02 0.  0.
        -12    1    1    2    0    0 -0.74629375045E+01 -0.38455881447E+02  0.18683500536E+02  0.43400730942E+02  0.00000000000E+00 0.  1.
         11    1    3    3    0    0  0.50544427853E+01  0.29573519952E+02 -0.87648300927E+01  0.31256402880E+02  0.51100000000E-03 0. -1.
        -11    1    3    3    0    0 -0.14639338301E+00  0.36500188135E+01 -0.10063803333E+02  0.10706269479E+02  0.51100000000E-03 0.  1.
        -12    1    3    3    0    0  0.25548881022E+01  0.52323426815E+01  0.14513288990E+00  0.58245966991E+01  0.00000000000E+00 0.  1.
</event>
<event>
 7    1  0.2442667E-009  0.4778727E+02  0.7816164E-02  0.1312668E+00
        -11   -1    0    0    0    0  0.00000000000E+00  0.00000000000E+00  0.45593999997E+02  0.45594000000E+02  0.51100000000E-03 0.  1.
         11   -1    0    0    0    0 -0.00000000000E+00 -0.00000000000E+00 -0.45593999997E+02  0.45594000000E+02  0.51100000000E-03 0. -1.
    9900012    2    1    2    0    0  0.40770561519E+02  0.81329893096E+01 -0.12459494939E+02  0.47787271714E+02  0.20000003051E+02 0.  0.
        -12    1    1    2    0    0 -0.40770561519E+02 -0.81329893096E+01  0.12459494939E+02  0.43400728286E+02  0.00000000000E+00 0.  1.
         11    1    3    3    0    0  0.21942494531E+01 -0.12115378705E+01 -0.14864482985E+01  0.29141179591E+01  0.51100000000E-03 0. -1.
        -11    1    3    3    0    0  0.17693552762E+02  0.28203233300E+01 -0.14064339304E+02  0.22777657328E+02  0.51100000000E-03 0.  1.
        -12    1    3    3    0    0  0.20882759303E+02  0.65242038501E+01  0.30912926636E+01  0.22095496427E+02  0.00000000000E+00 0.  1.
</event>
<event>
 7    1  0.2442667E-009  0.4778727E+02  0.7816164E-02  0.1312668E+00
        -11   -1    0    0    0    0  0.00000000000E+00  0.00000000000E+00  0.45593999997E+02  0.45594000000E+02  0.51100000000E-03 0.  1.
         11   -1    0    0    0    0 -0.00000000000E+00 -0.00000000000E+00 -0.45593999997E+02  0.45594000000E+02  0.51100000000E-03 0. -1.
    9900012    2    1    2    0    0  0.97013537379E+01 -0.16406475910E+02 -0.38991468189E+02  0.47787270655E+02  0.19999998226E+02 0.  0.
        -12    1    1    2    0    0 -0.97013537379E+01  0.16406475910E+02  0.38991468189E+02  0.43400729345E+02  0.00000000000E+00 0.  1.
         11    1    3    3    0    0  0.10977237651E+02 -0.13043805818E+02 -0.25840457173E+02  0.30957549061E+02  0.51100000000E-03 0. -1.
        -11    1    3    3    0    0 -0.16536171683E+01  0.30764144989E+01 -0.22229584170E+01  0.41400869910E+01  0.51100000000E-03 0.  1.
        -12    1    3    3    0    0  0.37773325513E+00 -0.64390845912E+01 -0.10928052598E+02  0.12689634604E+02  0.00000000000E+00 0.  1.
</event>
<event>
 7    1  0.2442667E-009  0.4778727E+02  0.7816164E-02  0.1312668E+00
        -11   -1    0    0    0    0  0.00000000000E+00  0.00000000000E+00  0.45593999997E+02  0.45594000000E+02  0.51100000000E-03 0.  1.
         11   -1    0    0    0    0 -0.00000000000E+00 -0.00000000000E+00 -0.45593999997E+02  0.45594000000E+02  0.51100000000E-03 0. -1.
    9900012    2    1    2    0    0 -0.26880080716E+01  0.43316620649E+02  0.26088204870E+00  0.47787273378E+02  0.20000010642E+02 0.  0.
        -12    1    1    2    0    0  0.26880080716E+01 -0.43316620649E+02 -0.26088204870E+00  0.43400726622E+02  0.00000000000E+00 0.  1.
         11    1    3    3    0    0  0.43598590878E+01  0.15490730716E+02  0.64390208985E+01  0.17332977233E+02  0.51100000000E-03 0. -1.
        -11    1    3    3    0    0  0.17333486093E+01  0.57636413706E+01 -0.50075037300E+00  0.60394379248E+01  0.51100000000E-03 0.  1.
         12    1    3    3    0    0 -0.87812157686E+01  0.22062248563E+02 -0.56773884768E+01  0.24414858221E+02  0.00000000000E+00 0. -1.
</event>
<event>
 7    1  0.2442667E-009  0.4778728E+02  0.7816164E-02  0.1312668E+00
        -11   -1    0    0    0    0  0.00000000000E+00  0.00000000000E+00  0.45593999997E+02  0.45594000000E+02  0.51100000000E-03 0. -1.
         11   -1    0    0    0    0 -0.00000000000E+00 -0.00000000000E+00 -0.45593999997E+02  0.45594000000E+02  0.51100000000E-03 0.  1.
    9900012    2    1    2    0    0  0.16000761122E+02 -0.33191427378E+02  0.22933110210E+02  0.47787277059E+02  0.20000027425E+02 0.  0.
        -12    1    1    2    0    0 -0.16000761122E+02  0.33191427378E+02 -0.22933110210E+02  0.43400722941E+02  0.00000000000E+00 0.  1.
         11    1    3    3    0    0  0.97880532634E+01 -0.19408049282E+02  0.22931636005E+02  0.31596491795E+02  0.51100000000E-03 0. -1.
        -11    1    3    3    0    0  0.50027545715E+01 -0.14069996487E+02  0.18374831197E+00  0.14934058998E+02  0.51100000000E-03 0.  1.
         12    1    3    3    0    0  0.12099532869E+01  0.28661839084E+00 -0.18227410747E+00  0.12567262664E+01  0.00000000000E+00 0. -1.
</event>
<event>
 7    1  0.2442667E-009  0.4778728E+02  0.7816164E-02  0.1312668E+00
        -11   -1    0    0    0    0  0.00000000000E+00  0.00000000000E+00  0.45593999997E+02  0.45594000000E+02  0.51100000000E-03 0.  1.
         11   -1    0    0    0    0 -0.00000000000E+00 -0.00000000000E+00 -0.45593999997E+02  0.45594000000E+02  0.51100000000E-03 0. -1.
    9900012    2    1    2    0    0  0.84617541323E+01  0.37219887304E+02 -0.20656756708E+02  0.47787275449E+02  0.20000020080E+02 0.  0.
        -12    1    1    2    0    0 -0.84617541323E+01 -0.37219887304E+02  0.20656756708E+02  0.43400724551E+02  0.00000000000E+00 0.  1.
         11    1    3    3    0    0  0.36943611724E+01  0.57776438326E+01 -0.90047425192E+01  0.11318783540E+02  0.51100000000E-03 0. -1.
        -11    1    3    3    0    0  0.18237043884E+01  0.30784185717E+02 -0.12590755741E+02  0.33309444882E+02  0.51100000000E-03 0.  1.
         12    1    3    3    0    0  0.29436885715E+01  0.65805775471E+00  0.93874155262E+00  0.31590470268E+01  0.00000000000E+00 0. -1.
</event>
<event>
 7    1  0.2442667E-009  0.4778727E+02  0.7816164E-02  0.1312668E+00
        -11   -1    0    0    0    0  0.00000000000E+00  0.00000000000E+00  0.45593999997E+02  0.45594000000E+02  0.51100000000E-03 0.  1.
         11   -1    0    0    0    0 -0.00000000000E+00 -0.00000000000E+00 -0.45593999997E+02  0.45594000000E+02  0.51100000000E-03 0. -1.
    9900012    2    1    2    0    0  0.14061366288E+02  0.25383023517E+02 -0.32273879666E+02  0.47787271740E+02  0.20000003173E+02 0.  0.
        -12    1    1    2    0    0 -0.14061366288E+02 -0.25383023517E+02  0.32273879666E+02  0.43400728260E+02  0.00000000000E+00 0.  1.
         11    1    3    3    0    0 -0.27786533494E+01  0.34545069640E+01 -0.10367404152E+01  0.45529511034E+01  0.51100000000E-03 0. -1.
        -11    1    3    3    0    0  0.11295445994E+01 -0.43990751727E+00 -0.56982662270E+01  0.58257727282E+01  0.51100000000E-03 0.  1.
         12    1    3    3    0    0  0.15710475037E+02  0.22368424071E+02 -0.25538873024E+02  0.37408547909E+02  0.00000000000E+00 0. -1.
</event>
<event>
 7    1  0.2442667E-009  0.4778727E+02  0.7816164E-02  0.1312668E+00
        -11   -1    0    0    0    0  0.00000000000E+00  0.00000000000E+00  0.45593999997E+02  0.45594000000E+02  0.51100000000E-03 0. -1.
         11   -1    0    0    0    0 -0.00000000000E+00 -0.00000000000E+00 -0.45593999997E+02  0.45594000000E+02  0.51100000000E-03 0.  1.
    9900012    2    1    2    0    0 -0.33204436618E+02  0.16344448023E+02  0.22670420358E+02  0.47787267846E+02  0.19999985418E+02 0.  0.
        -12    1    1    2    0    0  0.33204436618E+02 -0.16344448023E+02 -0.22670420358E+02  0.43400732154E+02  0.00000000000E+00 0.  1.
         11    1    3    3    0    0 -0.16481898209E+02  0.52065939036E+00  0.16733541263E+02  0.23493306669E+02  0.51100000000E-03 0. -1.
        -11    1    3    3    0    0 -0.14580690577E+02  0.11061450686E+02  0.51557154877E+01  0.19014037746E+02  0.51100000000E-03 0.  1.
         12    1    3    3    0    0 -0.21418478317E+01  0.47623379472E+01  0.78116360769E+00  0.52799234312E+01  0.00000000000E+00 0. -1.
</event>
<event>
 7    1  0.2442667E-009  0.4778729E+02  0.7816164E-02  0.1312668E+00
        -11   -1    0    0    0    0  0.00000000000E+00  0.00000000000E+00  0.45593999997E+02  0.45594000000E+02  0.51100000000E-03 0.  1.
         11   -1    0    0    0    0 -0.00000000000E+00 -0.00000000000E+00 -0.45593999997E+02  0.45594000000E+02  0.51100000000E-03 0. -1.
    9900012    2    1    2    0    0  0.56702342328E+01  0.61039417284E+01 -0.42593571718E+02  0.47787285576E+02  0.20000066253E+02 0.  0.
        -12    1    1    2    0    0 -0.56702342328E+01 -0.61039417284E+01  0.42593571718E+02  0.43400714424E+02  0.00000000000E+00 0.  1.
         11    1    3    3    0    0  0.50306393061E-01 -0.11522379919E+01 -0.68375386813E+01  0.69341270974E+01  0.51100000000E-03 0. -1.
        -11    1    3    3    0    0  0.85050468708E+01  0.75758736614E+01 -0.36170054723E+02  0.37921003981E+02  0.51100000000E-03 0.  1.
        -12    1    3    3    0    0 -0.28851190311E+01 -0.31969394107E+00  0.41402168619E+00  0.29321544974E+01  0.00000000000E+00 0.  1.
</event>
<event>
 7    1  0.2442667E-009  0.4778727E+02  0.7816164E-02  0.1312668E+00
        -11   -1    0    0    0    0  0.00000000000E+00  0.00000000000E+00  0.45593999997E+02  0.45594000000E+02  0.51100000000E-03 0.  1.
         11   -1    0    0    0    0 -0.00000000000E+00 -0.00000000000E+00 -0.45593999997E+02  0.45594000000E+02  0.51100000000E-03 0. -1.
    9900012    2    1    2    0    0  0.91374303674E+01 -0.31380985980E+02 -0.28554581976E+02  0.47787273432E+02  0.20000010886E+02 0.  0.
        -12    1    1    2    0    0 -0.91374303674E+01  0.31380985980E+02  0.28554581976E+02  0.43400726568E+02  0.00000000000E+00 0.  1.
         11    1    3    3    0    0  0.40751061952E+01 -0.22748193857E+02 -0.25261802598E+02  0.34238070696E+02  0.51100000000E-03 0. -1.
        -11    1    3    3    0    0  0.38019631082E+01 -0.34604551340E+01  0.24701602380E+01  0.57036273610E+01  0.51100000000E-03 0.  1.
        -12    1    3    3    0    0  0.12603610640E+01 -0.51723369887E+01 -0.57629396167E+01  0.78455753748E+01  0.00000000000E+00 0.  1.
</event>
<event>
 7    1  0.2442667E-009  0.4778726E+02  0.7816164E-02  0.1312668E+00
        -11   -1    0    0    0    0  0.00000000000E+00  0.00000000000E+00  0.45593999997E+02  0.45594000000E+02  0.51100000000E-03 0. -1.
         11   -1    0    0    0    0 -0.00000000000E+00 -0.00000000000E+00 -0.45593999997E+02  0.45594000000E+02  0.51100000000E-03 0.  1.
    9900012    2    1    2    0    0 -0.13700834932E+02 -0.36104306150E+02  0.19808843217E+02  0.47787261872E+02  0.19999958181E+02 0.  0.
        -12    1    1    2    0    0  0.13700834932E+02  0.36104306150E+02 -0.19808843217E+02  0.43400738128E+02  0.00000000000E+00 0.  1.
         11    1    3    3    0    0  0.28487431473E+00 -0.71900809987E+01  0.53690129719E+01  0.89780130707E+01  0.51100000000E-03 0. -1.
        -11    1    3    3    0    0  0.11274667412E+01 -0.16281147362E+02  0.68640261398E+01  0.17704852323E+02  0.51100000000E-03 0.  1.
        -12    1    3    3    0    0 -0.15113175988E+02 -0.12633077789E+02  0.75758041054E+01  0.21104396478E+02  0.00000000000E+00 0.  1.
</event>
<event>
 7    1  0.2442667E-009  0.4778727E+02  0.7816164E-02  0.1312668E+00
        -11   -1    0    0    0    0  0.00000000000E+00  0.00000000000E+00  0.45593999997E+02  0.45594000000E+02  0.51100000000E-03 0.  1.
         11   -1    0    0    0    0 -0.00000000000E+00 -0.00000000000E+00 -0.45593999997E+02  0.45594000000E+02  0.51100000000E-03 0. -1.
    9900012    2    1    2    0    0 -0.24852207093E+02  0.34739148885E+02 -0.76930287996E+01  0.47787270112E+02  0.19999995750E+02 0.  0.
        -12    1    1    2    0    0  0.24852207093E+02 -0.34739148885E+02  0.76930287996E+01  0.43400729888E+02  0.00000000000E+00 0.  1.
         11    1    3    3    0    0 -0.18727229937E+02  0.11612826731E+02 -0.38308201740E+01  0.22366091954E+02  0.51100000000E-03 0. -1.
        -11    1    3    3    0    0 -0.11437865565E+01  0.16101510776E+02 -0.45812069564E+01  0.16779581473E+02  0.51100000000E-03 0.  1.
         12    1    3    3    0    0 -0.49811905990E+01  0.70248113786E+01  0.71899833076E+00  0.86415966863E+01  0.00000000000E+00 0. -1.
</event>
<event>
 7    1  0.2442667E-009  0.4778727E+02  0.7816164E-02  0.1312668E+00
        -11   -1    0    0    0    0  0.00000000000E+00  0.00000000000E+00  0.45593999997E+02  0.45594000000E+02  0.51100000000E-03 0.  1.
         11   -1    0    0    0    0 -0.00000000000E+00 -0.00000000000E+00 -0.45593999997E+02  0.45594000000E+02  0.51100000000E-03 0. -1.
    9900012    2    1    2    0    0 -0.20461455377E+02  0.25897518131E+02 -0.28182802186E+02  0.47787274885E+02  0.20000017511E+02 0.  0.
        -12    1    1    2    0    0  0.20461455377E+02 -0.25897518131E+02  0.28182802186E+02  0.43400725115E+02  0.00000000000E+00 0.  1.
         11    1    3    3    0    0 -0.55092344087E+01 -0.98541268673E+00 -0.12660059450E+01  0.57380722588E+01  0.51100000000E-03 0. -1.
        -11    1    3    3    0    0 -0.40560427035E+01  0.11346271430E+02 -0.49656711759E+01  0.13032545732E+02  0.51100000000E-03 0.  1.
         12    1    3    3    0    0 -0.10896178265E+02  0.15536659388E+02 -0.21951125065E+02  0.29016656894E+02  0.00000000000E+00 0. -1.
</event>
<event>
 7    1  0.2442667E-009  0.4778728E+02  0.7816164E-02  0.1312668E+00
        -11   -1    0    0    0    0  0.00000000000E+00  0.00000000000E+00  0.45593999997E+02  0.45594000000E+02  0.51100000000E-03 0.  1.
         11   -1    0    0    0    0 -0.00000000000E+00 -0.00000000000E+00 -0.45593999997E+02  0.45594000000E+02  0.51100000000E-03 0. -1.
    9900012    2    1    2    0    0  0.20205732910E+02 -0.12564450987E+02 -0.36297184983E+02  0.47787277556E+02  0.20000029688E+02 0.  0.
        -12    1    1    2    0    0 -0.20205732910E+02  0.12564450987E+02  0.36297184983E+02  0.43400722444E+02  0.00000000000E+00 0.  1.
         11    1    3    3    0    0  0.11284770035E+02 -0.61352714792E+01 -0.32166394903E+02  0.34636174040E+02  0.51100000000E-03 0. -1.
        -11    1    3    3    0    0  0.62935148364E+01 -0.25742296657E+01  0.17596767847E+00  0.68019079862E+01  0.51100000000E-03 0.  1.
        -12    1    3    3    0    0  0.26274480386E+01 -0.38549498419E+01 -0.43067577585E+01  0.63491955293E+01  0.00000000000E+00 0.  1.
</event>
<event>
 7    1  0.2442667E-009  0.4778727E+02  0.7816164E-02  0.1312668E+00
        -11   -1    0    0    0    0  0.00000000000E+00  0.00000000000E+00  0.45593999997E+02  0.45594000000E+02  0.51100000000E-03 0.  1.
         11   -1    0    0    0    0 -0.00000000000E+00 -0.00000000000E+00 -0.45593999997E+02  0.45594000000E+02  0.51100000000E-03 0. -1.
    9900012    2    1    2    0    0  0.11637786765E+02  0.30053499830E+02 -0.29068410359E+02  0.47787269434E+02  0.19999992659E+02 0.  0.
        -12    1    1    2    0    0 -0.11637786765E+02 -0.30053499830E+02  0.29068410359E+02  0.43400730566E+02  0.00000000000E+00 0.  1.
         11    1    3    3    0    0  0.16910485511E+02  0.23722937506E+02 -0.20809078298E+02  0.35801676274E+02  0.51100000000E-03 0.  1.
        -11    1    3    3    0    0 -0.37715158775E+01  0.56227757113E+01 -0.76544574628E+01  0.10219131960E+02  0.51100000000E-03 0. -1.
        -12    1    3    3    0    0 -0.15011828681E+01  0.70778661284E+00 -0.60487459758E+00  0.17664612002E+01  0.00000000000E+00 0.  1.
</event>
<event>
 7    1  0.2442667E-009  0.4778727E+02  0.7816164E-02  0.1312668E+00
        -11   -1    0    0    0    0  0.00000000000E+00  0.00000000000E+00  0.45593999997E+02  0.45594000000E+02  0.51100000000E-03 0. -1.
         11   -1    0    0    0    0 -0.00000000000E+00 -0.00000000000E+00 -0.45593999997E+02  0.45594000000E+02  0.51100000000E-03 0.  1.
    9900012    2    1    2    0    0 -0.36106984175E+02  0.24076544950E+02  0.47856413053E+00  0.47787270207E+02  0.19999996182E+02 0.  0.
        -12    1    1    2    0    0  0.36106984175E+02 -0.24076544950E+02 -0.47856413053E+00  0.43400729793E+02  0.00000000000E+00 0.  1.
         11    1    3    3    0    0 -0.22660099006E+02  0.22537438332E+02  0.54916926763E+01  0.32427995656E+02  0.51100000000E-03 0. -1.
        -11    1    3    3    0    0 -0.35531156315E+01 -0.14616271565E+01 -0.28827517375E+01  0.48032533222E+01  0.51100000000E-03 0.  1.
        -12    1    3    3    0    0 -0.98937695374E+01  0.30007337746E+01 -0.21303768083E+01  0.10556021229E+02  0.00000000000E+00 0.  1.
</event>
<event>
 7    1  0.2442667E-009  0.4778727E+02  0.7816164E-02  0.1312668E+00
        -11   -1    0    0    0    0  0.00000000000E+00  0.00000000000E+00  0.45593999997E+02  0.45594000000E+02  0.51100000000E-03 0.  1.
         11   -1    0    0    0    0 -0.00000000000E+00 -0.00000000000E+00 -0.45593999997E+02  0.45594000000E+02  0.51100000000E-03 0. -1.
    9900012    2    1    2    0    0  0.65820367818E+00  0.50121434099E+01 -0.43105317390E+02  0.47787271885E+02  0.20000003833E+02 0.  0.
        -12    1    1    2    0    0 -0.65820367818E+00 -0.50121434099E+01  0.43105317390E+02  0.43400728115E+02  0.00000000000E+00 0.  1.
         11    1    3    3    0    0  0.49813607427E+01  0.50873190817E+01 -0.49319860250E+01  0.86613657526E+01  0.51100000000E-03 0. -1.
        -11    1    3    3    0    0 -0.26466104161E+01 -0.64320782107E+00 -0.36759939569E+02  0.36860702929E+02  0.51100000000E-03 0.  1.
        -12    1    3    3    0    0 -0.16765466484E+01  0.56803214920E+00 -0.14133917953E+01  0.22652032037E+01  0.00000000000E+00 0.  1.
</event>
<event>
 7    1  0.2442667E-009  0.4778727E+02  0.7816164E-02  0.1312668E+00
        -11   -1    0    0    0    0  0.00000000000E+00  0.00000000000E+00  0.45593999997E+02  0.45594000000E+02  0.51100000000E-03 0. -1.
         11   -1    0    0    0    0 -0.00000000000E+00 -0.00000000000E+00 -0.45593999997E+02  0.45594000000E+02  0.51100000000E-03 0.  1.
    9900012    2    1    2    0    0 -0.14262354583E+02 -0.40680314608E+02 -0.50319385207E+01  0.47787272355E+02  0.20000005973E+02 0.  0.
        -12    1    1    2    0    0  0.14262354583E+02  0.40680314608E+02  0.50319385207E+01  0.43400727645E+02  0.00000000000E+00 0.  1.
         11    1    3    3    0    0  0.25646576899E+01 -0.76614561103E+01  0.27624443749E+01  0.85385290292E+01  0.51100000000E-03 0.  1.
        -11    1    3    3    0    0 -0.76057030926E+01 -0.24736502924E+02 -0.70948068121E+01  0.26834261316E+02  0.51100000000E-03 0. -1.
         12    1    3    3    0    0 -0.92213091801E+01 -0.82823555742E+01 -0.69957608350E+00  0.12414482009E+02  0.00000000000E+00 0. -1.
</event>
<event>
 7    1  0.2442667E-009  0.4778727E+02  0.7816164E-02  0.1312668E+00
        -11   -1    0    0    0    0  0.00000000000E+00  0.00000000000E+00  0.45593999997E+02  0.45594000000E+02  0.51100000000E-03 0.  1.
         11   -1    0    0    0    0 -0.00000000000E+00 -0.00000000000E+00 -0.45593999997E+02  0.45594000000E+02  0.51100000000E-03 0. -1.
    9900012    2    1    2    0    0  0.47652435821E+01  0.29904726149E+02 -0.31090561305E+02  0.47787271957E+02  0.20000004159E+02 0.  0.
        -12    1    1    2    0    0 -0.47652435821E+01 -0.29904726149E+02  0.31090561305E+02  0.43400728043E+02  0.00000000000E+00 0.  1.
         11    1    3    3    0    0  0.24252455210E+01  0.80332868601E+01 -0.15805016108E+02  0.17894525644E+02  0.51100000000E-03 0. -1.
        -11    1    3    3    0    0 -0.38136877337E+00  0.49426995715E+01  0.21818313752E+01  0.54162818987E+01  0.51100000000E-03 0.  1.
        -12    1    3    3    0    0  0.27213668345E+01  0.16928739717E+02 -0.17467376573E+02  0.24476464414E+02  0.00000000000E+00 0.  1.
</event>
<event>
 7    1  0.2442667E-009  0.4778725E+02  0.7816164E-02  0.1312668E+00
        -11   -1    0    0    0    0  0.00000000000E+00  0.00000000000E+00  0.45593999997E+02  0.45594000000E+02  0.51100000000E-03 0.  1.
         11   -1    0    0    0    0 -0.00000000000E+00 -0.00000000000E+00 -0.45593999997E+02  0.45594000000E+02  0.51100000000E-03 0. -1.
    9900012    2    1    2    0    0  0.38681200099E+01 -0.43253886808E+01 -0.43011085865E+02  0.47787252922E+02  0.19999917372E+02 0.  0.
        -12    1    1    2    0    0 -0.38681200099E+01  0.43253886808E+01  0.43011085865E+02  0.43400747078E+02  0.00000000000E+00 0.  1.
         11    1    3    3    0    0 -0.23497135992E+01 -0.72115933987E+01 -0.21478522855E+02  0.22778392780E+02  0.51100000000E-03 0. -1.
        -11    1    3    3    0    0  0.42081395213E+01  0.18122667730E+01 -0.14620342962E+01  0.48093963896E+01  0.51100000000E-03 0.  1.
         12    1    3    3    0    0  0.20096940878E+01  0.10739379448E+01 -0.20070528714E+02  0.20199463753E+02  0.00000000000E+00 0. -1.
</event>
<event>
 7    1  0.2442667E-009  0.4778727E+02  0.7816164E-02  0.1312668E+00
        -11   -1    0    0    0    0  0.00000000000E+00  0.00000000000E+00  0.45593999997E+02  0.45594000000E+02  0.51100000000E-03 0.  1.
         11   -1    0    0    0    0 -0.00000000000E+00 -0.00000000000E+00 -0.45593999997E+02  0.45594000000E+02  0.51100000000E-03 0. -1.
    9900012    2    1    2    0    0  0.20871182970E+02  0.50255003450E+01 -0.37719509063E+02  0.47787270787E+02  0.19999998824E+02 0.  0.
        -12    1    1    2    0    0 -0.20871182970E+02 -0.50255003450E+01  0.37719509063E+02  0.43400729213E+02  0.00000000000E+00 0.  1.
         11    1    3    3    0    0  0.31832418675E+01  0.82445497530E+01 -0.98576675878E+01  0.13239306626E+02  0.51100000000E-03 0. -1.
        -11    1    3    3    0    0  0.93260159043E+01  0.70460544024E-01 -0.64850031337E+01  0.11359348716E+02  0.51100000000E-03 0.  1.
         12    1    3    3    0    0  0.83619251981E+01 -0.32895099521E+01 -0.21376838342E+02  0.23188615445E+02  0.00000000000E+00 0. -1.
</event>
<event>
 7    1  0.2442667E-009  0.4778727E+02  0.7816164E-02  0.1312668E+00
        -11   -1    0    0    0    0  0.00000000000E+00  0.00000000000E+00  0.45593999997E+02  0.45594000000E+02  0.51100000000E-03 0. -1.
         11   -1    0    0    0    0 -0.00000000000E+00 -0.00000000000E+00 -0.45593999997E+02  0.45594000000E+02  0.51100000000E-03 0.  1.
    9900012    2    1    2    0    0 -0.36032676313E+02 -0.24147594076E+02 -0.14708041661E+01  0.47787270435E+02  0.19999997219E+02 0.  0.
        -12    1    1    2    0    0  0.36032676313E+02  0.24147594076E+02  0.14708041661E+01  0.43400729565E+02  0.00000000000E+00 0.  1.
         11    1    3    3    0    0 -0.80639863931E+01 -0.23084169774E+01 -0.72685106125E+01  0.11099005013E+02  0.51100000000E-03 0.  1.
        -11    1    3    3    0    0 -0.21533871266E+02 -0.18641892823E+02  0.19778579991E+01  0.28550651521E+02  0.51100000000E-03 0. -1.
        -12    1    3    3    0    0 -0.64348186532E+01 -0.31972842760E+01  0.38198484473E+01  0.81376139010E+01  0.00000000000E+00 0.  1.
</event>
<event>
 7    1  0.2442667E-009  0.4778728E+02  0.7816164E-02  0.1312668E+00
        -11   -1    0    0    0    0  0.00000000000E+00  0.00000000000E+00  0.45593999997E+02  0.45594000000E+02  0.51100000000E-03 0. -1.
         11   -1    0    0    0    0 -0.00000000000E+00 -0.00000000000E+00 -0.45593999997E+02  0.45594000000E+02  0.51100000000E-03 0.  1.
    9900012    2    1    2    0    0  0.24998080357E+02  0.14968165071E+02  0.32166320565E+02  0.47787283810E+02  0.20000058205E+02 0.  0.
        -12    1    1    2    0    0 -0.24998080357E+02 -0.14968165071E+02 -0.32166320565E+02  0.43400716190E+02  0.00000000000E+00 0.  1.
         11    1    3    3    0    0  0.61530402113E+01  0.21671822719E+01  0.16625229185E+02  0.17859306497E+02  0.51100000000E-03 0. -1.
        -11    1    3    3    0    0  0.18147395779E+02  0.10697971688E+02  0.87965259237E+01  0.22828785346E+02  0.51100000000E-03 0.  1.
        -12    1    3    3    0    0  0.69764436653E+00  0.21030111105E+01  0.67445654564E+01  0.70991919673E+01  0.00000000000E+00 0.  1.
</event>
<event>
 7    1  0.2442667E-009  0.4778727E+02  0.7816164E-02  0.1312668E+00
        -11   -1    0    0    0    0  0.00000000000E+00  0.00000000000E+00  0.45593999997E+02  0.45594000000E+02  0.51100000000E-03 0. -1.
         11   -1    0    0    0    0 -0.00000000000E+00 -0.00000000000E+00 -0.45593999997E+02  0.45594000000E+02  0.51100000000E-03 0.  1.
    9900012    2    1    2    0    0 -0.10187028018E+02 -0.21931073994E+02  0.36039915720E+02  0.47787273377E+02  0.20000010634E+02 0.  0.
        -12    1    1    2    0    0  0.10187028018E+02  0.21931073994E+02 -0.36039915720E+02  0.43400726623E+02  0.00000000000E+00 0.  1.
         11    1    3    3    0    0 -0.40564552597E+01 -0.24217245557E+02  0.30384678292E+02  0.39066078467E+02  0.51100000000E-03 0. -1.
        -11    1    3    3    0    0 -0.36651837905E+01  0.17512737027E+01  0.29366794175E+01  0.50124463151E+01  0.51100000000E-03 0.  1.
         12    1    3    3    0    0 -0.24653889675E+01  0.53489786022E+00  0.27185580103E+01  0.37087485945E+01  0.00000000000E+00 0. -1.
</event>
<event>
 7    1  0.2442667E-009  0.4778727E+02  0.7816164E-02  0.1312668E+00
        -11   -1    0    0    0    0  0.00000000000E+00  0.00000000000E+00  0.45593999997E+02  0.45594000000E+02  0.51100000000E-03 0.  1.
         11   -1    0    0    0    0 -0.00000000000E+00 -0.00000000000E+00 -0.45593999997E+02  0.45594000000E+02  0.51100000000E-03 0. -1.
    9900012    2    1    2    0    0 -0.32978623305E+02  0.11545308540E+02 -0.25743727804E+02  0.47787271139E+02  0.20000000432E+02 0.  0.
        -12    1    1    2    0    0  0.32978623305E+02 -0.11545308540E+02  0.25743727804E+02  0.43400728861E+02  0.00000000000E+00 0.  1.
         11    1    3    3    0    0 -0.11608875257E+02 -0.45041688418E+01 -0.37643418159E+01  0.13008604509E+02  0.51100000000E-03 0. -1.
        -11    1    3    3    0    0 -0.19398904950E+02  0.14399937698E+02 -0.18381494236E+02  0.30357125187E+02  0.51100000000E-03 0.  1.
         12    1    3    3    0    0 -0.19708430979E+01  0.16495396840E+01 -0.35978917518E+01  0.44215414443E+01  0.00000000000E+00 0. -1.
</event>
<event>
 7    1  0.2442667E-009  0.4778727E+02  0.7816164E-02  0.1312668E+00
        -11   -1    0    0    0    0  0.00000000000E+00  0.00000000000E+00  0.45593999997E+02  0.45594000000E+02  0.51100000000E-03 0.  1.
         11   -1    0    0    0    0 -0.00000000000E+00 -0.00000000000E+00 -0.45593999997E+02  0.45594000000E+02  0.51100000000E-03 0. -1.
    9900012    2    1    2    0    0  0.11844499286E+02 -0.38886587130E+02 -0.15204090279E+02  0.47787272089E+02  0.20000004764E+02 0.  0.
        -12    1    1    2    0    0 -0.11844499286E+02  0.38886587130E+02  0.15204090279E+02  0.43400727911E+02  0.00000000000E+00 0.  1.
         11    1    3    3    0    0  0.75997322055E+01 -0.21026283464E+02 -0.15142624121E+02  0.27002955235E+02  0.51100000000E-03 0. -1.
        -11    1    3    3    0    0 -0.11059073964E+01 -0.79752403698E+01 -0.38473995786E+01  0.89235628480E+01  0.51100000000E-03 0.  1.
         12    1    3    3    0    0  0.53506744765E+01 -0.98850632963E+01  0.37859334206E+01  0.11860754006E+02  0.00000000000E+00 0. -1.
</event>
<event>
 7    1  0.2442667E-009  0.4778728E+02  0.7816164E-02  0.1312668E+00
        -11   -1    0    0    0    0  0.00000000000E+00  0.00000000000E+00  0.45593999997E+02  0.45594000000E+02  0.51100000000E-03 0. -1.
         11   -1    0    0    0    0 -0.00000000000E+00 -0.00000000000E+00 -0.45593999997E+02  0.45594000000E+02  0.51100000000E-03 0.  1.
    9900012    2    1    2    0    0 -0.13623474041E+02  0.18658406046E+02  0.36740815461E+02  0.47787277864E+02  0.20000031095E+02 0.  0.
        -12    1    1    2    0    0  0.13623474041E+02 -0.18658406046E+02 -0.36740815461E+02  0.43400722136E+02  0.00000000000E+00 0.  1.
         11    1    3    3    0    0 -0.11964907025E+01  0.16393314146E+02  0.13703336040E+02  0.21399854149E+02  0.51100000000E-03 0. -1.
        -11    1    3    3    0    0 -0.82452118558E+01  0.33051982093E+00  0.14332472466E+02  0.16538214206E+02  0.51100000000E-03 0.  1.
         12    1    3    3    0    0 -0.41817714832E+01  0.19345720794E+01  0.87050069553E+01  0.98492095093E+01  0.00000000000E+00 0. -1.
</event>
<event>
 7    1  0.2442667E-009  0.4778727E+02  0.7816164E-02  0.1312668E+00
        -11   -1    0    0    0    0  0.00000000000E+00  0.00000000000E+00  0.45593999997E+02  0.45594000000E+02  0.51100000000E-03 0.  1.
         11   -1    0    0    0    0 -0.00000000000E+00 -0.00000000000E+00 -0.45593999997E+02  0.45594000000E+02  0.51100000000E-03 0. -1.
    9900012    2    1    2    0    0  0.11058523696E+02 -0.15986237419E+02 -0.38804285251E+02  0.47787270893E+02  0.19999999311E+02 0.  0.
        -12    1    1    2    0    0 -0.11058523696E+02  0.15986237419E+02  0.38804285251E+02  0.43400729107E+02  0.00000000000E+00 0.  1.
         11    1    3    3    0    0  0.44464678353E+01 -0.11286008286E+02 -0.11852021424E+02  0.16959229680E+02  0.51100000000E-03 0. -1.
        -11    1    3    3    0    0  0.11258800669E+01  0.41575390456E+01 -0.10560981845E+02  0.11405572087E+02  0.51100000000E-03 0.  1.
        -12    1    3    3    0    0  0.54861757936E+01 -0.88577681779E+01 -0.16391281982E+02  0.19422469126E+02  0.00000000000E+00 0.  1.
</event>
<event>
 7    1  0.2442667E-009  0.4778727E+02  0.7816164E-02  0.1312668E+00
        -11   -1    0    0    0    0  0.00000000000E+00  0.00000000000E+00  0.45593999997E+02  0.45594000000E+02  0.51100000000E-03 0.  1.
         11   -1    0    0    0    0 -0.00000000000E+00 -0.00000000000E+00 -0.45593999997E+02  0.45594000000E+02  0.51100000000E-03 0. -1.
    9900012    2    1    2    0    0  0.19304871129E+02  0.33347536866E+02 -0.19972152341E+02  0.47787272662E+02  0.20000007374E+02 0.  0.
        -12    1    1    2    0    0 -0.19304871129E+02 -0.33347536866E+02  0.19972152341E+02  0.43400727338E+02  0.00000000000E+00 0.  1.
         11    1    3    3    0    0  0.11272824151E+01  0.62602333968E+01  0.28325562741E+01  0.69630929286E+01  0.51100000000E-03 0.  1.
        -11    1    3    3    0    0  0.18891907832E+02  0.23257552908E+02 -0.20058792391E+02  0.36057913157E+02  0.51100000000E-03 0. -1.
         12    1    3    3    0    0 -0.71431911766E+00  0.38297505608E+01 -0.27459162248E+01  0.47662665760E+01  0.00000000000E+00 0. -1.
</event>
<event>
 7    1  0.2442667E-009  0.4778728E+02  0.7816164E-02  0.1312668E+00
        -11   -1    0    0    0    0  0.00000000000E+00  0.00000000000E+00  0.45593999997E+02  0.45594000000E+02  0.51100000000E-03 0.  1.
         11   -1    0    0    0    0 -0.00000000000E+00 -0.00000000000E+00 -0.45593999997E+02  0.45594000000E+02  0.51100000000E-03 0. -1.
    9900012    2    1    2    0    0 -0.19048086699E+02  0.52695684845E+01 -0.38639679853E+02  0.47787276296E+02  0.20000023945E+02 0.  0.
        -12    1    1    2    0    0  0.19048086699E+02 -0.52695684845E+01  0.38639679853E+02  0.43400723704E+02  0.00000000000E+00 0.  1.
         11    1    3    3    0    0 -0.17479877172E+02 -0.35521115719E+01 -0.19114602707E+02  0.26144438022E+02  0.51100000000E-03 0. -1.
        -11    1    3    3    0    0  0.41891521873E+00  0.27434262654E+01 -0.41666773027E+01  0.50063037902E+01  0.51100000000E-03 0.  1.
         12    1    3    3    0    0 -0.19871247453E+01  0.60782537910E+01 -0.15358399843E+02  0.16636534484E+02  0.00000000000E+00 0. -1.
</event>
<event>
 7    1  0.2442667E-009  0.4778727E+02  0.7816164E-02  0.1312668E+00
        -11   -1    0    0    0    0  0.00000000000E+00  0.00000000000E+00  0.45593999997E+02  0.45594000000E+02  0.51100000000E-03 0.  1.
         11   -1    0    0    0    0 -0.00000000000E+00 -0.00000000000E+00 -0.45593999997E+02  0.45594000000E+02  0.51100000000E-03 0. -1.
    9900012    2    1    2    0    0 -0.66592053163E+01 -0.42834511808E+02 -0.21172554410E+01  0.47787272035E+02  0.20000004517E+02 0.  0.
        -12    1    1    2    0    0  0.66592053163E+01  0.42834511808E+02  0.21172554410E+01  0.43400727965E+02  0.00000000000E+00 0.  1.
         11    1    3    3    0    0  0.15258493566E+01 -0.18421507753E+02  0.39682888170E+01  0.18905752579E+02  0.51100000000E-03 0. -1.
        -11    1    3    3    0    0 -0.43368460198E+01 -0.10316913956E+01 -0.18334097935E+00  0.44616403610E+01  0.51100000000E-03 0.  1.
         12    1    3    3    0    0 -0.38482086531E+01 -0.23381312659E+02 -0.59022032787E+01  0.24419879095E+02  0.00000000000E+00 0. -1.
</event>
<event>
 7    1  0.2442667E-009  0.4778727E+02  0.7816164E-02  0.1312668E+00
        -11   -1    0    0    0    0  0.00000000000E+00  0.00000000000E+00  0.45593999997E+02  0.45594000000E+02  0.51100000000E-03 0. -1.
         11   -1    0    0    0    0 -0.00000000000E+00 -0.00000000000E+00 -0.45593999997E+02  0.45594000000E+02  0.51100000000E-03 0.  1.
    9900012    2    1    2    0    0  0.14556967883E+02 -0.39831790755E+02  0.92274676305E+01  0.47787273882E+02  0.20000012937E+02 0.  0.
        -12    1    1    2    0    0 -0.14556967883E+02  0.39831790755E+02 -0.92274676305E+01  0.43400726118E+02  0.00000000000E+00 0.  1.
         11    1    3    3    0    0  0.15465091375E+02 -0.20256382413E+02  0.73027940430E+01  0.26510769147E+02  0.51100000000E-03 0. -1.
        -11    1    3    3    0    0 -0.23820471607E+01 -0.16168078050E+02 -0.12519243852E+01  0.16390491495E+02  0.51100000000E-03 0.  1.
        -12    1    3    3    0    0  0.14739236693E+01 -0.34073302919E+01  0.31765979727E+01  0.48860132399E+01  0.00000000000E+00 0.  1.
</event>
<event>
 7    1  0.2442667E-009  0.4778728E+02  0.7816164E-02  0.1312668E+00
        -11   -1    0    0    0    0  0.00000000000E+00  0.00000000000E+00  0.45593999997E+02  0.45594000000E+02  0.51100000000E-03 0.  1.
         11   -1    0    0    0    0 -0.00000000000E+00 -0.00000000000E+00 -0.45593999997E+02  0.45594000000E+02  0.51100000000E-03 0. -1.
    9900012    2    1    2    0    0 -0.75177775099E+01 -0.11395523721E+02 -0.41197662763E+02  0.47787281611E+02  0.20000048178E+02 0.  0.
        -12    1    1    2    0    0  0.75177775099E+01  0.11395523721E+02  0.41197662763E+02  0.43400718389E+02  0.00000000000E+00 0.  1.
         11    1    3    3    0    0 -0.10195261883E+01 -0.12471337310E+02 -0.29812129215E+02  0.32331667704E+02  0.51100000000E-03 0. -1.
        -11    1    3    3    0    0 -0.38132381230E+01  0.45498239552E+01 -0.77027095354E+01  0.97248865008E+01  0.51100000000E-03 0.  1.
         12    1    3    3    0    0 -0.26850131986E+01 -0.34740103659E+01 -0.36828240124E+01  0.57307274063E+01  0.00000000000E+00 0. -1.
</event>
<event>
 7    1  0.2442667E-009  0.4778727E+02  0.7816164E-02  0.1312668E+00
        -11   -1    0    0    0    0  0.00000000000E+00  0.00000000000E+00  0.45593999997E+02  0.45594000000E+02  0.51100000000E-03 0.  1.
         11   -1    0    0    0    0 -0.00000000000E+00 -0.00000000000E+00 -0.45593999997E+02  0.45594000000E+02  0.51100000000E-03 0. -1.
    9900012    2    1    2    0    0 -0.15259275685E+02  0.35951125214E+02 -0.18928658741E+02  0.47787273966E+02  0.20000013320E+02 0.  0.
        -12    1    1    2    0    0  0.15259275685E+02 -0.35951125214E+02  0.18928658741E+02  0.43400726034E+02  0.00000000000E+00 0.  1.
         11    1    3    3    0    0 -0.88396192701E+01  0.16113361603E+02 -0.14407704857E+02  0.23352970914E+02  0.51100000000E-03 0. -1.
        -11    1    3    3    0    0 -0.78192447541E+01  0.19693445020E+02 -0.16695362621E+01  0.21254639890E+02  0.51100000000E-03 0.  1.
        -12    1    3    3    0    0  0.13995883388E+01  0.14431859135E+00 -0.28514176214E+01  0.31796631623E+01  0.00000000000E+00 0.  1.
</event>
<event>
 7    1  0.2442667E-009  0.4778727E+02  0.7816164E-02  0.1312668E+00
        -11   -1    0    0    0    0  0.00000000000E+00  0.00000000000E+00  0.45593999997E+02  0.45594000000E+02  0.51100000000E-03 0.  1.
         11   -1    0    0    0    0 -0.00000000000E+00 -0.00000000000E+00 -0.45593999997E+02  0.45594000000E+02  0.51100000000E-03 0. -1.
    9900012    2    1    2    0    0 -0.23866143455E+02  0.33667014908E+00 -0.36247994045E+02  0.47787271636E+02  0.20000002698E+02 0.  0.
        -12    1    1    2    0    0  0.23866143455E+02 -0.33667014908E+00  0.36247994045E+02  0.43400728364E+02  0.00000000000E+00 0.  1.
         11    1    3    3    0    0  0.88674800409E-01  0.19369593060E+01  0.11669014119E+01  0.22630363982E+01  0.51100000000E-03 0. -1.
        -11    1    3    3    0    0 -0.79832792808E+01 -0.30458041009E+01 -0.66387343796E+01  0.10820465106E+02  0.51100000000E-03 0.  1.
         12    1    3    3    0    0 -0.15971538974E+02  0.14455149440E+01 -0.30776161078E+02  0.34703770132E+02  0.00000000000E+00 0. -1.
</event>
<event>
 7    1  0.2442667E-009  0.4778727E+02  0.7816164E-02  0.1312668E+00
        -11   -1    0    0    0    0  0.00000000000E+00  0.00000000000E+00  0.45593999997E+02  0.45594000000E+02  0.51100000000E-03 0. -1.
         11   -1    0    0    0    0 -0.00000000000E+00 -0.00000000000E+00 -0.45593999997E+02  0.45594000000E+02  0.51100000000E-03 0.  1.
    9900012    2    1    2    0    0  0.40206037085E+02 -0.16271698989E+02 -0.15263744340E+01  0.47787269304E+02  0.19999992063E+02 0.  0.
        -12    1    1    2    0    0 -0.40206037085E+02  0.16271698989E+02  0.15263744340E+01  0.43400730696E+02  0.00000000000E+00 0.  1.
         11    1    3    3    0    0  0.17424684629E+02 -0.62454201817E+01 -0.80575386059E+01  0.20187838822E+02  0.51100000000E-03 0. -1.
        -11    1    3    3    0    0  0.20031497730E+02 -0.11387141119E+02  0.35358410982E+01  0.23311586319E+02  0.51100000000E-03 0.  1.
         12    1    3    3    0    0  0.27498547259E+01  0.13608623119E+01  0.29953230736E+01  0.42878441624E+01  0.00000000000E+00 0. -1.
</event>
<event>
 7    1  0.2442667E-009  0.4778727E+02  0.7816164E-02  0.1312668E+00
        -11   -1    0    0    0    0  0.00000000000E+00  0.00000000000E+00  0.45593999997E+02  0.45594000000E+02  0.51100000000E-03 0.  1.
         11   -1    0    0    0    0 -0.00000000000E+00 -0.00000000000E+00 -0.45593999997E+02  0.45594000000E+02  0.51100000000E-03 0. -1.
    9900012    2    1    2    0    0 -0.22284524007E+01 -0.29558824921E+02 -0.31700686077E+02  0.47787266958E+02  0.19999981369E+02 0.  0.
        -12    1    1    2    0    0  0.22284524007E+01  0.29558824921E+02  0.31700686077E+02  0.43400733042E+02  0.00000000000E+00 0.  1.
         11    1    3    3    0    0 -0.12756684518E+00 -0.30063884161E+01 -0.94697357187E+01  0.99363242425E+01  0.51100000000E-03 0. -1.
        -11    1    3    3    0    0 -0.38348156477E+01 -0.16505248837E+02 -0.21846802774E+02  0.27647998878E+02  0.51100000000E-03 0.  1.
        -12    1    3    3    0    0  0.17339300921E+01 -0.10047187668E+02 -0.38414758412E+00  0.10202943838E+02  0.00000000000E+00 0.  1.
</event>
<event>
 7    1  0.2442667E-009  0.4778727E+02  0.7816164E-02  0.1312668E+00
        -11   -1    0    0    0    0  0.00000000000E+00  0.00000000000E+00  0.45593999997E+02  0.45594000000E+02  0.51100000000E-03 0.  1.
         11   -1    0    0    0    0 -0.00000000000E+00 -0.00000000000E+00 -0.45593999997E+02  0.45594000000E+02  0.51100000000E-03 0. -1.
    9900012    2    1    2    0    0  0.28513730729E+02 -0.21715628983E+02 -0.24474926703E+02  0.47787269369E+02  0.19999992361E+02 0.  0.
        -12    1    1    2    0    0 -0.28513730729E+02  0.21715628983E+02  0.24474926703E+02  0.43400730631E+02  0.00000000000E+00 0.  1.
         11    1    3    3    0    0  0.16029883135E+02 -0.67658441708E+01 -0.17443163961E+02  0.24637324731E+02  0.51100000000E-03 0. -1.
        -11    1    3    3    0    0  0.10707539132E+02 -0.90188487143E+01 -0.29842131933E+00  0.14002859777E+02  0.51100000000E-03 0.  1.
        -12    1    3    3    0    0  0.17763084621E+01 -0.59309360975E+01 -0.67333414223E+01  0.91470848610E+01  0.00000000000E+00 0.  1.
</event>
<event>
 7    1  0.2442667E-009  0.4778727E+02  0.7816164E-02  0.1312668E+00
        -11   -1    0    0    0    0  0.00000000000E+00  0.00000000000E+00  0.45593999997E+02  0.45594000000E+02  0.51100000000E-03 0.  1.
         11   -1    0    0    0    0 -0.00000000000E+00 -0.00000000000E+00 -0.45593999997E+02  0.45594000000E+02  0.51100000000E-03 0. -1.
    9900012    2    1    2    0    0  0.20935940606E+02 -0.33965582912E+02 -0.17077733394E+02  0.47787269483E+02  0.19999992879E+02 0.  0.
        -12    1    1    2    0    0 -0.20935940606E+02  0.33965582912E+02  0.17077733394E+02  0.43400730517E+02  0.00000000000E+00 0.  1.
         11    1    3    3    0    0  0.10123975937E+02 -0.13027862878E+02 -0.67276338572E+01  0.17818000941E+02  0.51100000000E-03 0. -1.
        -11    1    3    3    0    0 -0.20799772985E+01 -0.10921443793E+02 -0.74628668597E+01  0.13390243542E+02  0.51100000000E-03 0.  1.
        -12    1    3    3    0    0  0.12891941967E+02 -0.10016276240E+02 -0.28872326766E+01  0.16579025000E+02  0.00000000000E+00 0.  1.
</event>
<event>
 7    1  0.2442667E-009  0.4778727E+02  0.7816164E-02  0.1312668E+00
        -11   -1    0    0    0    0  0.00000000000E+00  0.00000000000E+00  0.45593999997E+02  0.45594000000E+02  0.51100000000E-03 0.  1.
         11   -1    0    0    0    0 -0.00000000000E+00 -0.00000000000E+00 -0.45593999997E+02  0.45594000000E+02  0.51100000000E-03 0. -1.
    9900012    2    1    2    0    0  0.38760576518E+02 -0.11030777904E+02 -0.16110969850E+02  0.47787266105E+02  0.19999977478E+02 0.  0.
        -12    1    1    2    0    0 -0.38760576518E+02  0.11030777904E+02  0.16110969850E+02  0.43400733895E+02  0.00000000000E+00 0.  1.
         11    1    3    3    0    0  0.16996885434E+02  0.33822670922E+01 -0.12257612803E+02  0.21226938475E+02  0.51100000000E-03 0. -1.
        -11    1    3    3    0    0  0.10332826980E+02 -0.82771591467E+01 -0.10023103583E+01  0.13277172261E+02  0.51100000000E-03 0.  1.
         12    1    3    3    0    0  0.11430864104E+02 -0.61358858497E+01 -0.28510466882E+01  0.13283155369E+02  0.00000000000E+00 0. -1.
</event>
<event>
 7    1  0.2442667E-009  0.4778727E+02  0.7816164E-02  0.1312668E+00
        -11   -1    0    0    0    0  0.00000000000E+00  0.00000000000E+00  0.45593999997E+02  0.45594000000E+02  0.51100000000E-03 0.  1.
         11   -1    0    0    0    0 -0.00000000000E+00 -0.00000000000E+00 -0.45593999997E+02  0.45594000000E+02  0.51100000000E-03 0. -1.
    9900012    2    1    2    0    0  0.12337131053E+02  0.31279423483E+02 -0.27441136961E+02  0.47787272659E+02  0.20000007360E+02 0.  0.
        -12    1    1    2    0    0 -0.12337131053E+02 -0.31279423483E+02  0.27441136961E+02  0.43400727341E+02  0.00000000000E+00 0.  1.
         11    1    3    3    0    0  0.11178923380E+02  0.23680138149E+02 -0.21266014004E+02  0.33733671941E+02  0.51100000000E-03 0. -1.
        -11    1    3    3    0    0  0.40336929093E+00  0.56218531322E+01 -0.89419172288E+01  0.10570043681E+02  0.51100000000E-03 0.  1.
         12    1    3    3    0    0  0.75483838165E+00  0.19774322011E+01  0.27667942715E+01  0.34835570374E+01  0.00000000000E+00 0. -1.
</event>
<event>
 7    1  0.2442667E-009  0.4778726E+02  0.7816164E-02  0.1312668E+00
        -11   -1    0    0    0    0  0.00000000000E+00  0.00000000000E+00  0.45593999997E+02  0.45594000000E+02  0.51100000000E-03 0.  1.
         11   -1    0    0    0    0 -0.00000000000E+00 -0.00000000000E+00 -0.45593999997E+02  0.45594000000E+02  0.51100000000E-03 0. -1.
    9900012    2    1    2    0    0  0.97241796223E+01 -0.42297331955E+02 -0.10191462379E-03  0.47787263141E+02  0.19999963966E+02 0.  0.
        -12    1    1    2    0    0 -0.97241796223E+01  0.42297331955E+02  0.10191462379E-03  0.43400736859E+02  0.00000000000E+00 0.  1.
         11    1    3    3    0    0  0.32093684017E+01 -0.15118205909E+02  0.23757438101E+01  0.15636635007E+02  0.51100000000E-03 0. -1.
        -11    1    3    3    0    0  0.85248170852E+01 -0.10026687196E+02  0.39783013023E+01  0.13748957923E+02  0.51100000000E-03 0.  1.
        -12    1    3    3    0    0 -0.20100058647E+01 -0.17152438851E+02 -0.63541470270E+01  0.18401670211E+02  0.00000000000E+00 0.  1.
</event>
<event>
 7    1  0.2442667E-009  0.4778727E+02  0.7816164E-02  0.1312668E+00
        -11   -1    0    0    0    0  0.00000000000E+00  0.00000000000E+00  0.45593999997E+02  0.45594000000E+02  0.51100000000E-03 0.  1.
         11   -1    0    0    0    0 -0.00000000000E+00 -0.00000000000E+00 -0.45593999997E+02  0.45594000000E+02  0.51100000000E-03 0. -1.
    9900012    2    1    2    0    0 -0.17774037286E+02  0.36838880399E+02 -0.14512195707E+02  0.47787270343E+02  0.19999996802E+02 0.  0.
        -12    1    1    2    0    0  0.17774037286E+02 -0.36838880399E+02  0.14512195707E+02  0.43400729657E+02  0.00000000000E+00 0.  1.
         11    1    3    3    0    0 -0.11191784667E+02  0.96856763332E+01 -0.29145099310E+01  0.15085182745E+02  0.51100000000E-03 0. -1.
        -11    1    3    3    0    0  0.12968059691E+01  0.10447099133E+02 -0.93774735228E+01  0.14098247974E+02  0.51100000000E-03 0.  1.
        -12    1    3    3    0    0 -0.78790585888E+01  0.16706104933E+02 -0.22202122531E+01  0.18603839624E+02  0.00000000000E+00 0.  1.
</event>
<event>
 7    1  0.2442667E-009  0.4778727E+02  0.7816164E-02  0.1312668E+00
        -11   -1    0    0    0    0  0.00000000000E+00  0.00000000000E+00  0.45593999997E+02  0.45594000000E+02  0.51100000000E-03 0.  1.
         11   -1    0    0    0    0 -0.00000000000E+00 -0.00000000000E+00 -0.45593999997E+02  0.45594000000E+02  0.51100000000E-03 0. -1.
    9900012    2    1    2    0    0  0.58651706086E+01  0.21521134966E+02 -0.37229878400E+02  0.47787270488E+02  0.19999997462E+02 0.  0.
        -12    1    1    2    0    0 -0.58651706086E+01 -0.21521134966E+02  0.37229878400E+02  0.43400729512E+02  0.00000000000E+00 0.  1.
         11    1    3    3    0    0  0.74264809972E+01  0.60199295558E+01 -0.15771621779E+02  0.18442782481E+02  0.51100000000E-03 0. -1.
        -11    1    3    3    0    0 -0.43244279105E+01  0.10864449839E+02 -0.63615831141E+01  0.13311900204E+02  0.51100000000E-03 0.  1.
        -12    1    3    3    0    0  0.27631175219E+01  0.46367555715E+01 -0.15096673507E+02  0.16032587803E+02  0.00000000000E+00 0.  1.
</event>
<event>
 7    1  0.2442667E-009  0.4778727E+02  0.7816164E-02  0.1312668E+00
        -11   -1    0    0    0    0  0.00000000000E+00  0.00000000000E+00  0.45593999997E+02  0.45594000000E+02  0.51100000000E-03 0.  1.
         11   -1    0    0    0    0 -0.00000000000E+00 -0.00000000000E+00 -0.45593999997E+02  0.45594000000E+02  0.51100000000E-03 0. -1.
    9900012    2    1    2    0    0 -0.29552671051E+02 -0.29760017541E+02 -0.11162624003E+02  0.47787272070E+02  0.20000004674E+02 0.  0.
        -12    1    1    2    0    0  0.29552671051E+02  0.29760017541E+02  0.11162624003E+02  0.43400727930E+02  0.00000000000E+00 0.  1.
         11    1    3    3    0    0 -0.12301877164E+02 -0.62784867219E+01  0.14754135312E+01  0.13890011614E+02  0.51100000000E-03 0. -1.
        -11    1    3    3    0    0 -0.15949263657E+02 -0.24238201040E+02 -0.13668059386E+02  0.32073123461E+02  0.51100000000E-03 0.  1.
         12    1    3    3    0    0 -0.13015302291E+01  0.75667022158E+00  0.10300218517E+01  0.18241369950E+01  0.00000000000E+00 0. -1.
</event>
<event>
 7    1  0.2442667E-009  0.4778727E+02  0.7816164E-02  0.1312668E+00
        -11   -1    0    0    0    0  0.00000000000E+00  0.00000000000E+00  0.45593999997E+02  0.45594000000E+02  0.51100000000E-03 0. -1.
         11   -1    0    0    0    0 -0.00000000000E+00 -0.00000000000E+00 -0.45593999997E+02  0.45594000000E+02  0.51100000000E-03 0.  1.
    9900012    2    1    2    0    0  0.36435146181E+02 -0.21418571964E+02  0.98665183913E+01  0.47787270889E+02  0.19999999293E+02 0.  0.
        -12    1    1    2    0    0 -0.36435146181E+02  0.21418571964E+02 -0.98665183913E+01  0.43400729111E+02  0.00000000000E+00 0.  1.
         11    1    3    3    0    0  0.22794966428E+02 -0.11809233383E+02  0.12708168417E+02  0.28645523775E+02  0.51100000000E-03 0. -1.
        -11    1    3    3    0    0  0.47806846053E+01  0.11960715602E+01 -0.28167538922E+00  0.49360787836E+01  0.51100000000E-03 0.  1.
         12    1    3    3    0    0  0.88594951469E+01 -0.10805410141E+02 -0.25599746368E+01  0.14205668331E+02  0.00000000000E+00 0. -1.
</event>
<event>
 7    1  0.2442667E-009  0.4778727E+02  0.7816164E-02  0.1312668E+00
        -11   -1    0    0    0    0  0.00000000000E+00  0.00000000000E+00  0.45593999997E+02  0.45594000000E+02  0.51100000000E-03 0.  1.
         11   -1    0    0    0    0 -0.00000000000E+00 -0.00000000000E+00 -0.45593999997E+02  0.45594000000E+02  0.51100000000E-03 0. -1.
    9900012    2    1    2    0    0 -0.23840212653E+02 -0.25454425987E+02 -0.25832917647E+02  0.47787272174E+02  0.20000005150E+02 0.  0.
        -12    1    1    2    0    0  0.23840212653E+02  0.25454425987E+02  0.25832917647E+02  0.43400727826E+02  0.00000000000E+00 0.  1.
         11    1    3    3    0    0 -0.19066173496E+02 -0.81891238585E+01 -0.15580436201E+02  0.25948616800E+02  0.51100000000E-03 0. -1.
        -11    1    3    3    0    0 -0.30720313140E+01 -0.15425382586E+02 -0.11034563968E+02  0.19213053025E+02  0.51100000000E-03 0.  1.
        -12    1    3    3    0    0 -0.17020078434E+01 -0.18399195431E+01  0.78208252289E+00  0.26256023493E+01  0.00000000000E+00 0.  1.
</event>
<event>
 7    1  0.2442667E-009  0.4778727E+02  0.7816164E-02  0.1312668E+00
        -11   -1    0    0    0    0  0.00000000000E+00  0.00000000000E+00  0.45593999997E+02  0.45594000000E+02  0.51100000000E-03 0. -1.
         11   -1    0    0    0    0 -0.00000000000E+00 -0.00000000000E+00 -0.45593999997E+02  0.45594000000E+02  0.51100000000E-03 0.  1.
    9900012    2    1    2    0    0  0.67538495218E+00 -0.42214553364E+02  0.10054784685E+02  0.47787270102E+02  0.19999995704E+02 0.  0.
        -12    1    1    2    0    0 -0.67538495218E+00  0.42214553364E+02 -0.10054784685E+02  0.43400729898E+02  0.00000000000E+00 0.  1.
         11    1    3    3    0    0  0.75890120930E+01 -0.35412671967E+02  0.89074022171E+01  0.37296008565E+02  0.51100000000E-03 0. -1.
        -11    1    3    3    0    0 -0.33528913485E+01 -0.41031999247E+01 -0.12163077195E+01  0.54366841684E+01  0.51100000000E-03 0.  1.
         12    1    3    3    0    0 -0.35607357922E+01 -0.26986814732E+01  0.23636901874E+01  0.50545773689E+01  0.00000000000E+00 0. -1.
</event>
<event>
 7    1  0.2442667E-009  0.4778727E+02  0.7816164E-02  0.1312668E+00
        -11   -1    0    0    0    0  0.00000000000E+00  0.00000000000E+00  0.45593999997E+02  0.45594000000E+02  0.51100000000E-03 0.  1.
         11   -1    0    0    0    0 -0.00000000000E+00 -0.00000000000E+00 -0.45593999997E+02  0.45594000000E+02  0.51100000000E-03 0. -1.
    9900012    2    1    2    0    0  0.19755308301E+02 -0.29320867038E+02 -0.25172164324E+02  0.47787270666E+02  0.19999998276E+02 0.  0.
        -12    1    1    2    0    0 -0.19755308301E+02  0.29320867038E+02  0.25172164324E+02  0.43400729334E+02  0.00000000000E+00 0.  1.
         11    1    3    3    0    0  0.10031270617E+02 -0.26695497735E+02 -0.16572984947E+02  0.32983932753E+02  0.51100000000E-03 0. -1.
        -11    1    3    3    0    0  0.22552862002E+01  0.35480493103E-01 -0.60788364872E+01  0.64838127680E+01  0.51100000000E-03 0.  1.
        -12    1    3    3    0    0  0.74687514843E+01 -0.26608497964E+01 -0.25203428890E+01  0.83195251458E+01  0.00000000000E+00 0.  1.
</event>
<event>
 7    1  0.2442667E-009  0.4778727E+02  0.7816164E-02  0.1312668E+00
        -11   -1    0    0    0    0  0.00000000000E+00  0.00000000000E+00  0.45593999997E+02  0.45594000000E+02  0.51100000000E-03 0.  1.
         11   -1    0    0    0    0 -0.00000000000E+00 -0.00000000000E+00 -0.45593999997E+02  0.45594000000E+02  0.51100000000E-03 0. -1.
    9900012    2    1    2    0    0  0.59450174562E+01  0.23197107593E+02 -0.36196327288E+02  0.47787272559E+02  0.20000006906E+02 0.  0.
        -12    1    1    2    0    0 -0.59450174562E+01 -0.23197107593E+02  0.36196327288E+02  0.43400727441E+02  0.00000000000E+00 0.  1.
         11    1    3    3    0    0  0.21006433867E+01  0.39752827858E+01 -0.67517086835E+01  0.81117905714E+01  0.51100000000E-03 0. -1.
        -11    1    3    3    0    0 -0.42036470478E+01  0.16300338076E+02 -0.24688362020E+02  0.29881212984E+02  0.51100000000E-03 0.  1.
        -12    1    3    3    0    0  0.80480211172E+01  0.29214867310E+01 -0.47562565852E+01  0.97942690042E+01  0.00000000000E+00 0.  1.
</event>
<event>
 7    1  0.2442667E-009  0.4778727E+02  0.7816164E-02  0.1312668E+00
        -11   -1    0    0    0    0  0.00000000000E+00  0.00000000000E+00  0.45593999997E+02  0.45594000000E+02  0.51100000000E-03 0.  1.
         11   -1    0    0    0    0 -0.00000000000E+00 -0.00000000000E+00 -0.45593999997E+02  0.45594000000E+02  0.51100000000E-03 0. -1.
    9900012    2    1    2    0    0  0.99402291667E+01  0.34224305661E+02  0.24769184002E+02  0.47787265790E+02  0.19999976043E+02 0.  0.
        -12    1    1    2    0    0 -0.99402291667E+01 -0.34224305661E+02 -0.24769184002E+02  0.43400734210E+02  0.00000000000E+00 0.  1.
         11    1    3    3    0    0 -0.20095668857E+01  0.43160973068E+01 -0.22824007569E+01  0.52798114082E+01  0.51100000000E-03 0. -1.
        -11    1    3    3    0    0  0.71674464006E+01  0.16131975478E+02  0.18641984507E+02  0.25673653954E+02  0.51100000000E-03 0.  1.
        -12    1    3    3    0    0  0.47823496518E+01  0.13776232876E+02  0.84096002521E+01  0.16833800428E+02  0.00000000000E+00 0.  1.
</event>
<event>
 7    1  0.2442667E-009  0.4778727E+02  0.7816164E-02  0.1312668E+00
        -11   -1    0    0    0    0  0.00000000000E+00  0.00000000000E+00  0.45593999997E+02  0.45594000000E+02  0.51100000000E-03 0.  1.
         11   -1    0    0    0    0 -0.00000000000E+00 -0.00000000000E+00 -0.45593999997E+02  0.45594000000E+02  0.51100000000E-03 0. -1.
    9900012    2    1    2    0    0  0.13942450289E+02 -0.27603614734E+02 -0.30451136155E+02  0.47787272361E+02  0.20000006003E+02 0.  0.
        -12    1    1    2    0    0 -0.13942450289E+02  0.27603614734E+02  0.30451136155E+02  0.43400727639E+02  0.00000000000E+00 0.  1.
         11    1    3    3    0    0  0.60181804593E+01 -0.23282573271E+02 -0.24389651391E+02  0.34251303761E+02  0.51100000000E-03 0. -1.
        -11    1    3    3    0    0  0.97433622897E+00 -0.74621641646E+00  0.19754025242E+01  0.23255935631E+01  0.51100000000E-03 0.  1.
        -12    1    3    3    0    0  0.69499336011E+01 -0.35748250473E+01 -0.80368872883E+01  0.11210375037E+02  0.00000000000E+00 0.  1.
</event>
<event>
 7    1  0.2442667E-009  0.4778727E+02  0.7816164E-02  0.1312668E+00
        -11   -1    0    0    0    0  0.00000000000E+00  0.00000000000E+00  0.45593999997E+02  0.45594000000E+02  0.51100000000E-03 0. -1.
         11   -1    0    0    0    0 -0.00000000000E+00 -0.00000000000E+00 -0.45593999997E+02  0.45594000000E+02  0.51100000000E-03 0.  1.
    9900012    2    1    2    0    0  0.50089989029E+01 -0.25034031649E+02  0.35097449437E+02  0.47787265357E+02  0.19999974068E+02 0.  0.
        -12    1    1    2    0    0 -0.50089989029E+01  0.25034031649E+02 -0.35097449437E+02  0.43400734643E+02  0.00000000000E+00 0.  1.
         11    1    3    3    0    0  0.87174719098E+00 -0.99118464139E+01  0.50840485014E+01  0.11173727754E+02  0.51100000000E-03 0. -1.
        -11    1    3    3    0    0  0.12503824397E+01 -0.14428644660E+02  0.13380355245E+02  0.19717584784E+02  0.51100000000E-03 0.  1.
         12    1    3    3    0    0  0.28868692722E+01 -0.69354057511E+00  0.16633045691E+02  0.16895952819E+02  0.00000000000E+00 0. -1.
</event>
<event>
 7    1  0.2442667E-009  0.4778727E+02  0.7816164E-02  0.1312668E+00
        -11   -1    0    0    0    0  0.00000000000E+00  0.00000000000E+00  0.45593999997E+02  0.45594000000E+02  0.51100000000E-03 0. -1.
         11   -1    0    0    0    0 -0.00000000000E+00 -0.00000000000E+00 -0.45593999997E+02  0.45594000000E+02  0.51100000000E-03 0.  1.
    9900012    2    1    2    0    0  0.43201968739E+02  0.10265512540E+01 -0.40198686175E+01  0.47787271272E+02  0.20000001038E+02 0.  0.
        -12    1    1    2    0    0 -0.43201968739E+02 -0.10265512540E+01  0.40198686175E+01  0.43400728728E+02  0.00000000000E+00 0.  1.
         11    1    3    3    0    0  0.22788378017E+02 -0.69454167787E+00  0.60182505306E+01  0.23579904591E+02  0.51100000000E-03 0. -1.
        -11    1    3    3    0    0  0.16302892507E+02  0.44724826349E+01 -0.64388162619E+01  0.18089935326E+02  0.51100000000E-03 0.  1.
         12    1    3    3    0    0  0.41106982154E+01 -0.27513897031E+01 -0.35993028862E+01  0.61174313550E+01  0.00000000000E+00 0. -1.
</event>
<event>
 7    1  0.2442667E-009  0.4778727E+02  0.7816164E-02  0.1312668E+00
        -11   -1    0    0    0    0  0.00000000000E+00  0.00000000000E+00  0.45593999997E+02  0.45594000000E+02  0.51100000000E-03 0.  1.
         11   -1    0    0    0    0 -0.00000000000E+00 -0.00000000000E+00 -0.45593999997E+02  0.45594000000E+02  0.51100000000E-03 0. -1.
    9900012    2    1    2    0    0 -0.29382621393E+02  0.20538962558E+01 -0.31875795616E+02  0.47787271021E+02  0.19999999891E+02 0.  0.
        -12    1    1    2    0    0  0.29382621393E+02 -0.20538962558E+01  0.31875795616E+02  0.43400728979E+02  0.00000000000E+00 0.  1.
         11    1    3    3    0    0 -0.20631143759E+02 -0.61056147015E+01 -0.26421850150E+02  0.34073989923E+02  0.51100000000E-03 0. -1.
        -11    1    3    3    0    0 -0.89556986756E+01  0.83228672692E+01 -0.55602626080E+01  0.13430978329E+02  0.51100000000E-03 0.  1.
         12    1    3    3    0    0  0.20422104078E+00 -0.16335631194E+00  0.10631714210E+00  0.28230276806E+00  0.00000000000E+00 0. -1.
</event>
<event>
 7    1  0.2442667E-009  0.4778727E+02  0.7816164E-02  0.1312668E+00
        -11   -1    0    0    0    0  0.00000000000E+00  0.00000000000E+00  0.45593999997E+02  0.45594000000E+02  0.51100000000E-03 0.  1.
         11   -1    0    0    0    0 -0.00000000000E+00 -0.00000000000E+00 -0.45593999997E+02  0.45594000000E+02  0.51100000000E-03 0. -1.
    9900012    2    1    2    0    0 -0.11485472259E+02  0.14232032613E+01 -0.41829196114E+02  0.47787271572E+02  0.20000002405E+02 0.  0.
        -12    1    1    2    0    0  0.11485472259E+02 -0.14232032613E+01  0.41829196114E+02  0.43400728428E+02  0.00000000000E+00 0.  1.
         11    1    3    3    0    0 -0.46266908629E+01 -0.91303031002E+00 -0.12160133345E+02  0.13042573976E+02  0.51100000000E-03 0. -1.
        -11    1    3    3    0    0 -0.78540634168E+01  0.56631642898E+01 -0.29734604962E+02  0.31271464220E+02  0.51100000000E-03 0.  1.
        -12    1    3    3    0    0  0.99528202035E+00 -0.33269307185E+01  0.65542193323E-01  0.34732333761E+01  0.00000000000E+00 0.  1.
</event>
<event>
 7    1  0.2442667E-009  0.4778727E+02  0.7816164E-02  0.1312668E+00
        -11   -1    0    0    0    0  0.00000000000E+00  0.00000000000E+00  0.45593999997E+02  0.45594000000E+02  0.51100000000E-03 0.  1.
         11   -1    0    0    0    0 -0.00000000000E+00 -0.00000000000E+00 -0.45593999997E+02  0.45594000000E+02  0.51100000000E-03 0. -1.
    9900012    2    1    2    0    0  0.39229842037E+02  0.15109122904E+02 -0.10786902081E+02  0.47787270078E+02  0.19999995595E+02 0.  0.
        -12    1    1    2    0    0 -0.39229842037E+02 -0.15109122904E+02  0.10786902081E+02  0.43400729922E+02  0.00000000000E+00 0.  1.
         11    1    3    3    0    0  0.14206869305E+02  0.50787822267E+01  0.23920695085E+01  0.15275835857E+02  0.51100000000E-03 0. -1.
        -11    1    3    3    0    0  0.50640040047E+01 -0.22651874758E+01 -0.55797295487E+01  0.78682013801E+01  0.51100000000E-03 0.  1.
        -12    1    3    3    0    0  0.19958968728E+02  0.12295528153E+02 -0.75992420405E+01  0.24643232841E+02  0.00000000000E+00 0.  1.
</event>
<event>
 7    1  0.2442667E-009  0.4778727E+02  0.7816164E-02  0.1312668E+00
        -11   -1    0    0    0    0  0.00000000000E+00  0.00000000000E+00  0.45593999997E+02  0.45594000000E+02  0.51100000000E-03 0.  1.
         11   -1    0    0    0    0 -0.00000000000E+00 -0.00000000000E+00 -0.45593999997E+02  0.45594000000E+02  0.51100000000E-03 0. -1.
    9900012    2    1    2    0    0  0.10314704044E+02 -0.39527075708E+02 -0.14657436984E+02  0.47787270830E+02  0.19999999021E+02 0.  0.
        -12    1    1    2    0    0 -0.10314704044E+02  0.39527075708E+02  0.14657436984E+02  0.43400729170E+02  0.00000000000E+00 0.  1.
         11    1    3    3    0    0  0.40015302194E+01 -0.32394628401E+02 -0.14731290894E+02  0.35811103375E+02  0.51100000000E-03 0. -1.
        -11    1    3    3    0    0  0.44583519253E+00 -0.23200056243E+01 -0.29742885016E+01  0.37983664210E+01  0.51100000000E-03 0.  1.
         12    1    3    3    0    0  0.58673386319E+01 -0.48124416836E+01  0.30481424118E+01  0.81778010334E+01  0.00000000000E+00 0. -1.
</event>
<event>
 7    1  0.2442667E-009  0.4778729E+02  0.7816164E-02  0.1312668E+00
        -11   -1    0    0    0    0  0.00000000000E+00  0.00000000000E+00  0.45593999997E+02  0.45594000000E+02  0.51100000000E-03 0. -1.
         11   -1    0    0    0    0 -0.00000000000E+00 -0.00000000000E+00 -0.45593999997E+02  0.45594000000E+02  0.51100000000E-03 0.  1.
    9900012    2    1    2    0    0  0.15801704186E+02 -0.39850152639E+02  0.67744553090E+01  0.47787288425E+02  0.20000079243E+02 0.  0.
        -12    1    1    2    0    0 -0.15801704186E+02  0.39850152639E+02 -0.67744553090E+01  0.43400711575E+02  0.00000000000E+00 0.  1.
         11    1    3    3    0    0  0.22929835454E+01 -0.12032198307E+02 -0.22721278596E+01  0.12457693804E+02  0.51100000000E-03 0. -1.
        -11    1    3    3    0    0  0.10159239839E+02 -0.28368562180E+02  0.10091898386E+02  0.31777852155E+02  0.51100000000E-03 0.  1.
        -12    1    3    3    0    0  0.33494808010E+01  0.55060784864E+00 -0.10453152172E+01  0.35517424657E+01  0.00000000000E+00 0.  1.
</event>
<event>
 7    1  0.2442667E-009  0.4778728E+02  0.7816164E-02  0.1312668E+00
        -11   -1    0    0    0    0  0.00000000000E+00  0.00000000000E+00  0.45593999997E+02  0.45594000000E+02  0.51100000000E-03 0.  1.
         11   -1    0    0    0    0 -0.00000000000E+00 -0.00000000000E+00 -0.45593999997E+02  0.45594000000E+02  0.51100000000E-03 0. -1.
    9900012    2    1    2    0    0 -0.16642758490E+01 -0.18233784767E+02 -0.39349478389E+02  0.47787283755E+02  0.20000057954E+02 0.  0.
        -12    1    1    2    0    0  0.16642758490E+01  0.18233784767E+02  0.39349478389E+02  0.43400716245E+02  0.00000000000E+00 0.  1.
         11    1    3    3    0    0 -0.62555549791E+01 -0.94491226575E+01 -0.22203722554E+02  0.24928361010E+02  0.51100000000E-03 0. -1.
        -11    1    3    3    0    0  0.19583307333E+01  0.17296227409E+01 -0.45839443283E-01  0.26131887805E+01  0.51100000000E-03 0.  1.
         12    1    3    3    0    0  0.26329483968E+01 -0.10514284851E+02 -0.17099916392E+02  0.20245733965E+02  0.00000000000E+00 0. -1.
</event>
<event>
 7    1  0.2442667E-009  0.4778727E+02  0.7816164E-02  0.1312668E+00
        -11   -1    0    0    0    0  0.00000000000E+00  0.00000000000E+00  0.45593999997E+02  0.45594000000E+02  0.51100000000E-03 0.  1.
         11   -1    0    0    0    0 -0.00000000000E+00 -0.00000000000E+00 -0.45593999997E+02  0.45594000000E+02  0.51100000000E-03 0. -1.
    9900012    2    1    2    0    0  0.40336324765E+02 -0.44062199085E+01 -0.15400957515E+02  0.47787270032E+02  0.19999995383E+02 0.  0.
        -12    1    1    2    0    0 -0.40336324765E+02  0.44062199085E+01  0.15400957515E+02  0.43400729968E+02  0.00000000000E+00 0.  1.
         11    1    3    3    0    0  0.35276622002E+02  0.19704478664E+01 -0.80606548106E+01  0.36239438198E+02  0.51100000000E-03 0. -1.
        -11    1    3    3    0    0  0.23309484008E+01 -0.45984611821E+01 -0.62745058745E+01  0.81208737166E+01  0.51100000000E-03 0.  1.
         12    1    3    3    0    0  0.27287543613E+01 -0.17782065928E+01 -0.10657968302E+01  0.34269581168E+01  0.00000000000E+00 0. -1.
</event>
<event>
 7    1  0.2442667E-009  0.4778727E+02  0.7816164E-02  0.1312668E+00
        -11   -1    0    0    0    0  0.00000000000E+00  0.00000000000E+00  0.45593999997E+02  0.45594000000E+02  0.51100000000E-03 0.  1.
         11   -1    0    0    0    0 -0.00000000000E+00 -0.00000000000E+00 -0.45593999997E+02  0.45594000000E+02  0.51100000000E-03 0. -1.
    9900012    2    1    2    0    0 -0.27483606439E+02 -0.33495520296E+02  0.25149636626E+01  0.47787267921E+02  0.19999985758E+02 0.  0.
        -12    1    1    2    0    0  0.27483606439E+02  0.33495520296E+02 -0.25149636626E+01  0.43400732079E+02  0.00000000000E+00 0.  1.
         11    1    3    3    0    0 -0.14706691161E+02 -0.11641386076E+02  0.41548051009E+01  0.19211221730E+02  0.51100000000E-03 0. -1.
        -11    1    3    3    0    0 -0.79332713630E+01 -0.22210373554E+02 -0.51278493121E+00  0.23590261477E+02  0.51100000000E-03 0.  1.
        -12    1    3    3    0    0 -0.48436439148E+01  0.35623933388E+00 -0.11270565071E+01  0.49857847132E+01  0.00000000000E+00 0.  1.
</event>
<event>
 7    1  0.2442667E-009  0.4778727E+02  0.7816164E-02  0.1312668E+00
        -11   -1    0    0    0    0  0.00000000000E+00  0.00000000000E+00  0.45593999997E+02  0.45594000000E+02  0.51100000000E-03 0.  1.
         11   -1    0    0    0    0 -0.00000000000E+00 -0.00000000000E+00 -0.45593999997E+02  0.45594000000E+02  0.51100000000E-03 0. -1.
    9900012    2    1    2    0    0 -0.37731343513E+02 -0.74963260075E+01 -0.20094141019E+02  0.47787266248E+02  0.19999978131E+02 0.  0.
        -12    1    1    2    0    0  0.37731343513E+02  0.74963260075E+01  0.20094141019E+02  0.43400733752E+02  0.00000000000E+00 0.  1.
         11    1    3    3    0    0 -0.14582496498E+02 -0.11839662538E+02 -0.52804975160E+01  0.19511803284E+02  0.51100000000E-03 0. -1.
        -11    1    3    3    0    0  0.50911456863E-01  0.31010188379E+00  0.17735500194E+00  0.36084652223E+00  0.51100000000E-03 0.  1.
         12    1    3    3    0    0 -0.23199758473E+02  0.40332346471E+01 -0.14990998504E+02  0.27914616442E+02  0.00000000000E+00 0. -1.
</event>
<event>
 7    1  0.2442667E-009  0.4778727E+02  0.7816164E-02  0.1312668E+00
        -11   -1    0    0    0    0  0.00000000000E+00  0.00000000000E+00  0.45593999997E+02  0.45594000000E+02  0.51100000000E-03 0.  1.
         11   -1    0    0    0    0 -0.00000000000E+00 -0.00000000000E+00 -0.45593999997E+02  0.45594000000E+02  0.51100000000E-03 0. -1.
    9900012    2    1    2    0    0  0.41468623923E+01  0.13775278543E+02 -0.40947142861E+02  0.47787271030E+02  0.19999999936E+02 0.  0.
        -12    1    1    2    0    0 -0.41468623923E+01 -0.13775278543E+02  0.40947142861E+02  0.43400728970E+02  0.00000000000E+00 0.  1.
         11    1    3    3    0    0  0.34126660616E+01  0.11778967706E+02 -0.27114163579E+02  0.29758498563E+02  0.51100000000E-03 0. -1.
        -11    1    3    3    0    0 -0.81484695590E+00 -0.41250650421E+01 -0.94473671187E+01  0.10340835696E+02  0.51100000000E-03 0.  1.
        -12    1    3    3    0    0  0.15490432867E+01  0.61213758789E+01 -0.43856121632E+01  0.76879367714E+01  0.00000000000E+00 0.  1.
</event>
<event>
 7    1  0.2442667E-009  0.4778727E+02  0.7816164E-02  0.1312668E+00
        -11   -1    0    0    0    0  0.00000000000E+00  0.00000000000E+00  0.45593999997E+02  0.45594000000E+02  0.51100000000E-03 0. -1.
         11   -1    0    0    0    0 -0.00000000000E+00 -0.00000000000E+00 -0.45593999997E+02  0.45594000000E+02  0.51100000000E-03 0.  1.
    9900012    2    1    2    0    0 -0.76230231797E+01 -0.31396421148E+02  0.28978916795E+02  0.47787270030E+02  0.19999995374E+02 0.  0.
        -12    1    1    2    0    0  0.76230231797E+01  0.31396421148E+02 -0.28978916795E+02  0.43400729970E+02  0.00000000000E+00 0.  1.
         11    1    3    3    0    0 -0.58926914772E+01 -0.66606441549E+01  0.18138999188E+02  0.20201764409E+02  0.51100000000E-03 0. -1.
        -11    1    3    3    0    0  0.25427032589E+00 -0.20100038767E+02  0.10074948917E+02  0.22485124144E+02  0.51100000000E-03 0.  1.
        -12    1    3    3    0    0 -0.19846020284E+01 -0.46357382266E+01  0.76496868921E+00  0.51003814771E+01  0.00000000000E+00 0.  1.
</event>
<event>
 7    1  0.2442667E-009  0.4778727E+02  0.7816164E-02  0.1312668E+00
        -11   -1    0    0    0    0  0.00000000000E+00  0.00000000000E+00  0.45593999997E+02  0.45594000000E+02  0.51100000000E-03 0.  1.
         11   -1    0    0    0    0 -0.00000000000E+00 -0.00000000000E+00 -0.45593999997E+02  0.45594000000E+02  0.51100000000E-03 0. -1.
    9900012    2    1    2    0    0 -0.10125544010E+02  0.35829620576E+02 -0.22301008686E+02  0.47787270276E+02  0.19999996496E+02 0.  0.
        -12    1    1    2    0    0  0.10125544010E+02 -0.35829620576E+02  0.22301008686E+02  0.43400729724E+02  0.00000000000E+00 0.  1.
         11    1    3    3    0    0 -0.15488631909E+00  0.16961779255E+02 -0.91297737466E+01  0.19263403495E+02  0.51100000000E-03 0. -1.
        -11    1    3    3    0    0 -0.81445279020E+01  0.24545324673E+01 -0.65307679615E+01  0.10724224672E+02  0.51100000000E-03 0.  1.
        -12    1    3    3    0    0 -0.18261297892E+01  0.16413308854E+02 -0.66404669784E+01  0.17799642110E+02  0.00000000000E+00 0.  1.
</event>
<event>
 7    1  0.2442667E-009  0.4778725E+02  0.7816164E-02  0.1312668E+00
        -11   -1    0    0    0    0  0.00000000000E+00  0.00000000000E+00  0.45593999997E+02  0.45594000000E+02  0.51100000000E-03 0.  1.
         11   -1    0    0    0    0 -0.00000000000E+00 -0.00000000000E+00 -0.45593999997E+02  0.45594000000E+02  0.51100000000E-03 0. -1.
    9900012    2    1    2    0    0  0.12850379071E+02  0.26449448238E+02 -0.31920522341E+02  0.47787247692E+02  0.19999893528E+02 0.  0.
        -12    1    1    2    0    0 -0.12850379071E+02 -0.26449448238E+02  0.31920522341E+02  0.43400752308E+02  0.00000000000E+00 0.  1.
         11    1    3    3    0    0  0.97461741465E+01  0.23046193112E+02 -0.23594187902E+02  0.34391868668E+02  0.51100000000E-03 0. -1.
        -11    1    3    3    0    0 -0.23653261375E+01 -0.17653407323E+01 -0.26890426471E+01  0.39927617331E+01  0.51100000000E-03 0.  1.
        -12    1    3    3    0    0  0.54695310617E+01  0.51685958578E+01 -0.56372917919E+01  0.94026172911E+01  0.00000000000E+00 0.  1.
</event>
<event>
 7    1  0.2442667E-009  0.4778727E+02  0.7816164E-02  0.1312668E+00
        -11   -1    0    0    0    0  0.00000000000E+00  0.00000000000E+00  0.45593999997E+02  0.45594000000E+02  0.51100000000E-03 0.  1.
         11   -1    0    0    0    0 -0.00000000000E+00 -0.00000000000E+00 -0.45593999997E+02  0.45594000000E+02  0.51100000000E-03 0. -1.
    9900012    2    1    2    0    0  0.14483817772E+02  0.28992642337E+02  0.28866395857E+02  0.47787273086E+02  0.20000009308E+02 0.  0.
        -12    1    1    2    0    0 -0.14483817772E+02 -0.28992642337E+02 -0.28866395857E+02  0.43400726914E+02  0.00000000000E+00 0.  1.
         11    1    3    3    0    0  0.50372849245E+01  0.23009124242E+02  0.13078994814E+02  0.26941680412E+02  0.51100000000E-03 0. -1.
        -11    1    3    3    0    0  0.65842233307E+01  0.49888496458E+01  0.15784395432E+02  0.17815379790E+02  0.51100000000E-03 0.  1.
        -12    1    3    3    0    0  0.28623095166E+01  0.99466844834E+00  0.30056116081E-02  0.30302128844E+01  0.00000000000E+00 0.  1.
</event>
<event>
 7    1  0.2442667E-009  0.4778727E+02  0.7816164E-02  0.1312668E+00
        -11   -1    0    0    0    0  0.00000000000E+00  0.00000000000E+00  0.45593999997E+02  0.45594000000E+02  0.51100000000E-03 0. -1.
         11   -1    0    0    0    0 -0.00000000000E+00 -0.00000000000E+00 -0.45593999997E+02  0.45594000000E+02  0.51100000000E-03 0.  1.
    9900012    2    1    2    0    0 -0.24661560833E+02  0.14391735939E+02  0.32684991875E+02  0.47787270284E+02  0.19999996534E+02 0.  0.
        -12    1    1    2    0    0  0.24661560833E+02 -0.14391735939E+02 -0.32684991875E+02  0.43400729716E+02  0.00000000000E+00 0.  1.
         11    1    3    3    0    0 -0.74940540094E+01  0.25040925211E+01  0.53396566463E+01  0.95364174726E+01  0.51100000000E-03 0. -1.
        -11    1    3    3    0    0 -0.18208349416E+02  0.38318815175E+01  0.19643479282E+02  0.27057227924E+02  0.51100000000E-03 0.  1.
        -12    1    3    3    0    0  0.10408425926E+01  0.80557618999E+01  0.77018559467E+01  0.11193624887E+02  0.00000000000E+00 0.  1.
</event>
<event>
 7    1  0.2442667E-009  0.4778727E+02  0.7816164E-02  0.1312668E+00
        -11   -1    0    0    0    0  0.00000000000E+00  0.00000000000E+00  0.45593999997E+02  0.45594000000E+02  0.51100000000E-03 0. -1.
         11   -1    0    0    0    0 -0.00000000000E+00 -0.00000000000E+00 -0.45593999997E+02  0.45594000000E+02  0.51100000000E-03 0.  1.
    9900012    2    1    2    0    0  0.39123534002E+02 -0.18768569301E+02 -0.84429178900E+00  0.47787274948E+02  0.20000017799E+02 0.  0.
        -12    1    1    2    0    0 -0.39123534002E+02  0.18768569301E+02  0.84429178900E+00  0.43400725052E+02  0.00000000000E+00 0.  1.
         11    1    3    3    0    0  0.21294590174E+02 -0.12254315901E+02  0.71233566418E+00  0.24579162948E+02  0.51100000000E-03 0. -1.
        -11    1    3    3    0    0  0.72675622673E+01  0.32600510226E+01  0.23358376426E+01  0.83006946536E+01  0.51100000000E-03 0.  1.
        -12    1    3    3    0    0  0.10561381561E+02 -0.97743044228E+01 -0.38924650958E+01  0.14907417346E+02  0.00000000000E+00 0.  1.
</event>
<event>
 7    1  0.2442667E-009  0.4778727E+02  0.7816164E-02  0.1312668E+00
        -11   -1    0    0    0    0  0.00000000000E+00  0.00000000000E+00  0.45593999997E+02  0.45594000000E+02  0.51100000000E-03 0.  1.
         11   -1    0    0    0    0 -0.00000000000E+00 -0.00000000000E+00 -0.45593999997E+02  0.45594000000E+02  0.51100000000E-03 0. -1.
    9900012    2    1    2    0    0 -0.13307880467E+02  0.31698922772E+02 -0.26489659053E+02  0.47787269313E+02  0.19999992105E+02 0.  0.
        -12    1    1    2    0    0  0.13307880467E+02 -0.31698922772E+02  0.26489659053E+02  0.43400730687E+02  0.00000000000E+00 0.  1.
         11    1    3    3    0    0  0.34442143027E+01  0.54366204428E+01 -0.88801702119E+01  0.10967081529E+02  0.51100000000E-03 0. -1.
        -11    1    3    3    0    0 -0.76160778621E+00 -0.32265298440E+00  0.43096620662E+00  0.93267545305E+00  0.51100000000E-03 0.  1.
         12    1    3    3    0    0 -0.15990486983E+02  0.26584955314E+02 -0.18040455048E+02  0.35887512331E+02  0.00000000000E+00 0. -1.
</event>
<event>
 7    1  0.2442667E-009  0.4778727E+02  0.7816164E-02  0.1312668E+00
        -11   -1    0    0    0    0  0.00000000000E+00  0.00000000000E+00  0.45593999997E+02  0.45594000000E+02  0.51100000000E-03 0.  1.
         11   -1    0    0    0    0 -0.00000000000E+00 -0.00000000000E+00 -0.45593999997E+02  0.45594000000E+02  0.51100000000E-03 0. -1.
    9900012    2    1    2    0    0  0.52297172517E+01  0.40839565597E+02  0.13726010525E+02  0.47787269296E+02  0.19999992028E+02 0.  0.
        -12    1    1    2    0    0 -0.52297172517E+01 -0.40839565597E+02 -0.13726010525E+02  0.43400730704E+02  0.00000000000E+00 0.  1.
         11    1    3    3    0    0  0.12530330877E+02  0.30138075735E+02  0.10876631285E+02  0.34403690344E+02  0.51100000000E-03 0. -1.
        -11    1    3    3    0    0 -0.41436777163E+01  0.75207140732E+01  0.21018412202E+01  0.88401890231E+01  0.51100000000E-03 0.  1.
         12    1    3    3    0    0 -0.31569359094E+01  0.31807757885E+01  0.74753801999E+00  0.45433899287E+01  0.00000000000E+00 0. -1.
</event>
<event>
 7    1  0.2442667E-009  0.4778727E+02  0.7816164E-02  0.1312668E+00
        -11   -1    0    0    0    0  0.00000000000E+00  0.00000000000E+00  0.45593999997E+02  0.45594000000E+02  0.51100000000E-03 0.  1.
         11   -1    0    0    0    0 -0.00000000000E+00 -0.00000000000E+00 -0.45593999997E+02  0.45594000000E+02  0.51100000000E-03 0. -1.
    9900012    2    1    2    0    0  0.34443150423E+02 -0.82252045172E+01  0.25092600686E+02  0.47787271785E+02  0.20000003376E+02 0.  0.
        -12    1    1    2    0    0 -0.34443150423E+02  0.82252045172E+01 -0.25092600686E+02  0.43400728215E+02  0.00000000000E+00 0.  1.
         11    1    3    3    0    0  0.10000833875E+02  0.28310601397E+01  0.94646785750E+00  0.10436828128E+02  0.51100000000E-03 0.  1.
        -11    1    3    3    0    0  0.10237245223E+02 -0.97620837063E+01  0.10569899497E+02  0.17658489281E+02  0.51100000000E-03 0. -1.
         12    1    3    3    0    0  0.14205071325E+02 -0.12941809507E+01  0.13576233331E+02  0.19691954376E+02  0.00000000000E+00 0. -1.
</event>
<event>
 7    1  0.2442667E-009  0.4778727E+02  0.7816164E-02  0.1312668E+00
        -11   -1    0    0    0    0  0.00000000000E+00  0.00000000000E+00  0.45593999997E+02  0.45594000000E+02  0.51100000000E-03 0.  1.
         11   -1    0    0    0    0 -0.00000000000E+00 -0.00000000000E+00 -0.45593999997E+02  0.45594000000E+02  0.51100000000E-03 0. -1.
    9900012    2    1    2    0    0  0.26701698706E+01  0.19932083594E+02 -0.38460437985E+02  0.47787273583E+02  0.20000011575E+02 0.  0.
        -12    1    1    2    0    0 -0.26701698706E+01 -0.19932083594E+02  0.38460437985E+02  0.43400726417E+02  0.00000000000E+00 0.  1.
         11    1    3    3    0    0  0.37495723199E+01 -0.20671684116E+01 -0.42156330089E+01  0.60086637242E+01  0.51100000000E-03 0. -1.
        -11    1    3    3    0    0  0.16920674594E+00 -0.88762064637E+00 -0.22162576707E+01  0.23933866505E+01  0.51100000000E-03 0.  1.
         12    1    3    3    0    0 -0.12486091952E+01  0.22886872652E+02 -0.32028547305E+02  0.39385223209E+02  0.00000000000E+00 0. -1.
</event>
<event>
 7    1  0.2442667E-009  0.4778727E+02  0.7816164E-02  0.1312668E+00
        -11   -1    0    0    0    0  0.00000000000E+00  0.00000000000E+00  0.45593999997E+02  0.45594000000E+02  0.51100000000E-03 0. -1.
         11   -1    0    0    0    0 -0.00000000000E+00 -0.00000000000E+00 -0.45593999997E+02  0.45594000000E+02  0.51100000000E-03 0.  1.
    9900012    2    1    2    0    0  0.97283391696E+01 -0.42291345384E+02 -0.65202848839E+00  0.47787267074E+02  0.19999981897E+02 0.  0.
        -12    1    1    2    0    0 -0.97283391696E+01  0.42291345384E+02  0.65202848839E+00  0.43400732926E+02  0.00000000000E+00 0.  1.
         11    1    3    3    0    0  0.49049807683E+01 -0.77326894521E+01 -0.42801571519E+00  0.91671435144E+01  0.51100000000E-03 0. -1.
        -11    1    3    3    0    0  0.20586617937E+01 -0.11695677235E+02  0.78281593261E+01  0.14223467688E+02  0.51100000000E-03 0.  1.
        -12    1    3    3    0    0  0.27646966076E+01 -0.22862978697E+02 -0.80521720993E+01  0.24396655872E+02  0.00000000000E+00 0.  1.
</event>
<event>
 7    1  0.2442667E-009  0.4778727E+02  0.7816164E-02  0.1312668E+00
        -11   -1    0    0    0    0  0.00000000000E+00  0.00000000000E+00  0.45593999997E+02  0.45594000000E+02  0.51100000000E-03 0.  1.
         11   -1    0    0    0    0 -0.00000000000E+00 -0.00000000000E+00 -0.45593999997E+02  0.45594000000E+02  0.51100000000E-03 0. -1.
    9900012    2    1    2    0    0  0.33709581751E+02 -0.26809835850E+02 -0.53403990655E+01  0.47787273482E+02  0.20000011113E+02 0.  0.
        -12    1    1    2    0    0 -0.33709581751E+02  0.26809835850E+02  0.53403990655E+01  0.43400726518E+02  0.00000000000E+00 0.  1.
         11    1    3    3    0    0  0.21430785871E+02 -0.15839277489E+02  0.55247748172E+01  0.27215518210E+02  0.51100000000E-03 0.  1.
        -11    1    3    3    0    0  0.51977783753E+01 -0.84285671024E+01 -0.68812787848E+01  0.12058592016E+02  0.51100000000E-03 0. -1.
        -12    1    3    3    0    0  0.70810175046E+01 -0.25419912593E+01 -0.39838950979E+01  0.85131632554E+01  0.00000000000E+00 0.  1.
</event>
<event>
 7    1  0.2442667E-009  0.4778727E+02  0.7816164E-02  0.1312668E+00
        -11   -1    0    0    0    0  0.00000000000E+00  0.00000000000E+00  0.45593999997E+02  0.45594000000E+02  0.51100000000E-03 0. -1.
         11   -1    0    0    0    0 -0.00000000000E+00 -0.00000000000E+00 -0.45593999997E+02  0.45594000000E+02  0.51100000000E-03 0.  1.
    9900012    2    1    2    0    0 -0.18120981846E+02 -0.37986119500E+02  0.10597551293E+02  0.47787270154E+02  0.19999995941E+02 0.  0.
        -12    1    1    2    0    0  0.18120981846E+02  0.37986119500E+02 -0.10597551293E+02  0.43400729846E+02  0.00000000000E+00 0.  1.
         11    1    3    3    0    0 -0.28517873871E+01 -0.95685411612E+01  0.51650138766E+01  0.11241309526E+02  0.51100000000E-03 0. -1.
        -11    1    3    3    0    0 -0.38644871120E+01 -0.10900052895E+01  0.56522351589E+01  0.69332629203E+01  0.51100000000E-03 0.  1.
        -12    1    3    3    0    0 -0.11404707347E+02 -0.27327573049E+02 -0.21969774281E+00  0.29612697708E+02  0.00000000000E+00 0.  1.
</event>
<event>
 7    1  0.2442667E-009  0.4778727E+02  0.7816164E-02  0.1312668E+00
        -11   -1    0    0    0    0  0.00000000000E+00  0.00000000000E+00  0.45593999997E+02  0.45594000000E+02  0.51100000000E-03 0.  1.
         11   -1    0    0    0    0 -0.00000000000E+00 -0.00000000000E+00 -0.45593999997E+02  0.45594000000E+02  0.51100000000E-03 0. -1.
    9900012    2    1    2    0    0 -0.39866718874E+02 -0.43648991176E+01 -0.16589636076E+02  0.47787266790E+02  0.19999980600E+02 0.  0.
        -12    1    1    2    0    0  0.39866718874E+02  0.43648991176E+01  0.16589636076E+02  0.43400733210E+02  0.00000000000E+00 0.  1.
         11    1    3    3    0    0 -0.94642639776E+01 -0.67011639679E+01 -0.89376836612E+01  0.14641040969E+02  0.51100000000E-03 0. -1.
        -11    1    3    3    0    0 -0.63948074411E+01  0.42822965743E+01 -0.43333280054E+01  0.88322906442E+01  0.51100000000E-03 0.  1.
         12    1    3    3    0    0 -0.24007647455E+02 -0.19460317240E+01 -0.33186244093E+01  0.24313935177E+02  0.00000000000E+00 0. -1.
</event>
<event>
 7    1  0.2442667E-009  0.4778725E+02  0.7816164E-02  0.1312668E+00
        -11   -1    0    0    0    0  0.00000000000E+00  0.00000000000E+00  0.45593999997E+02  0.45594000000E+02  0.51100000000E-03 0.  1.
         11   -1    0    0    0    0 -0.00000000000E+00 -0.00000000000E+00 -0.45593999997E+02  0.45594000000E+02  0.51100000000E-03 0. -1.
    9900012    2    1    2    0    0  0.45080867117E+00 -0.42720089474E+02 -0.76430414563E+01  0.47787247059E+02  0.19999890640E+02 0.  0.
        -12    1    1    2    0    0 -0.45080867117E+00  0.42720089474E+02  0.76430414563E+01  0.43400752941E+02  0.00000000000E+00 0.  1.
         11    1    3    3    0    0 -0.36128957732E+01 -0.29225189037E+02  0.12413211074E+01  0.29473811571E+02  0.51100000000E-03 0. -1.
        -11    1    3    3    0    0 -0.19493268203E+01 -0.17315466375E+01 -0.26060008462E+01  0.36863761992E+01  0.51100000000E-03 0.  1.
         12    1    3    3    0    0  0.60130312646E+01 -0.11763353799E+02 -0.62783617175E+01  0.14627059289E+02  0.00000000000E+00 0. -1.
</event>
<event>
 7    1  0.2442667E-009  0.4778727E+02  0.7816164E-02  0.1312668E+00
        -11   -1    0    0    0    0  0.00000000000E+00  0.00000000000E+00  0.45593999997E+02  0.45594000000E+02  0.51100000000E-03 0.  1.
         11   -1    0    0    0    0 -0.00000000000E+00 -0.00000000000E+00 -0.45593999997E+02  0.45594000000E+02  0.51100000000E-03 0. -1.
    9900012    2    1    2    0    0  0.37866238106E+02  0.12003209621E+02 -0.17484128699E+02  0.47787265146E+02  0.19999973107E+02 0.  0.
        -12    1    1    2    0    0 -0.37866238106E+02 -0.12003209621E+02  0.17484128699E+02  0.43400734854E+02  0.00000000000E+00 0.  1.
         11    1    3    3    0    0  0.21815850293E+02  0.28236388548E+01 -0.14159454205E+02  0.26160932782E+02  0.51100000000E-03 0. -1.
        -11    1    3    3    0    0  0.12714190140E+02  0.11618221476E+02 -0.29863497152E+01  0.17480045368E+02  0.51100000000E-03 0.  1.
        -12    1    3    3    0    0  0.33361976728E+01 -0.24386507098E+01 -0.33832477843E+00  0.41462869959E+01  0.00000000000E+00 0.  1.
</event>
<event>
 7    1  0.2442667E-009  0.4778727E+02  0.7816164E-02  0.1312668E+00
        -11   -1    0    0    0    0  0.00000000000E+00  0.00000000000E+00  0.45593999997E+02  0.45594000000E+02  0.51100000000E-03 0.  1.
         11   -1    0    0    0    0 -0.00000000000E+00 -0.00000000000E+00 -0.45593999997E+02  0.45594000000E+02  0.51100000000E-03 0. -1.
    9900012    2    1    2    0    0  0.38065614962E+02 -0.20483447963E+02  0.38807702523E+01  0.47787273501E+02  0.20000011199E+02 0.  0.
        -12    1    1    2    0    0 -0.38065614962E+02  0.20483447963E+02 -0.38807702523E+01  0.43400726499E+02  0.00000000000E+00 0.  1.
         11    1    3    3    0    0  0.74053050053E+01 -0.10642285340E+02 -0.55075553391E+01  0.14086516445E+02  0.51100000000E-03 0. -1.
        -11    1    3    3    0    0  0.27402945708E+02 -0.97478825094E+01  0.80554640000E+01  0.30180012382E+02  0.51100000000E-03 0.  1.
         12    1    3    3    0    0  0.32573642493E+01 -0.93280113540E-01  0.13328615914E+01  0.35207446732E+01  0.00000000000E+00 0. -1.
</event>
<event>
 7    1  0.2442667E-009  0.4778727E+02  0.7816164E-02  0.1312668E+00
        -11   -1    0    0    0    0  0.00000000000E+00  0.00000000000E+00  0.45593999997E+02  0.45594000000E+02  0.51100000000E-03 0.  1.
         11   -1    0    0    0    0 -0.00000000000E+00 -0.00000000000E+00 -0.45593999997E+02  0.45594000000E+02  0.51100000000E-03 0. -1.
    9900012    2    1    2    0    0  0.31308301425E+02 -0.28777596257E+02  0.86754529826E+01  0.47787271101E+02  0.20000000260E+02 0.  0.
        -12    1    1    2    0    0 -0.31308301425E+02  0.28777596257E+02 -0.86754529826E+01  0.43400728899E+02  0.00000000000E+00 0.  1.
         11    1    3    3    0    0  0.16267776229E+02 -0.13266070079E+02  0.43831254603E+01  0.21443902347E+02  0.51100000000E-03 0. -1.
        -11    1    3    3    0    0 -0.21069528138E+01 -0.56257325191E+01  0.23672004220E+01  0.64569152569E+01  0.51100000000E-03 0.  1.
        -12    1    3    3    0    0  0.17147478010E+02 -0.98857936588E+01  0.19251271004E+01  0.19886453498E+02  0.00000000000E+00 0.  1.
</event>
<event>
 7    1  0.2442667E-009  0.4778727E+02  0.7816164E-02  0.1312668E+00
        -11   -1    0    0    0    0  0.00000000000E+00  0.00000000000E+00  0.45593999997E+02  0.45594000000E+02  0.51100000000E-03 0.  1.
         11   -1    0    0    0    0 -0.00000000000E+00 -0.00000000000E+00 -0.45593999997E+02  0.45594000000E+02  0.51100000000E-03 0. -1.
    9900012    2    1    2    0    0  0.16504656459E+02  0.27900738716E+02 -0.28857721504E+02  0.47787274245E+02  0.20000014591E+02 0.  0.
        -12    1    1    2    0    0 -0.16504656459E+02 -0.27900738716E+02  0.28857721504E+02  0.43400725755E+02  0.00000000000E+00 0.  1.
         11    1    3    3    0    0 -0.24233055632E+01  0.24539255977E+01 -0.27987847900E+01  0.44415489701E+01  0.51100000000E-03 0. -1.
        -11    1    3    3    0    0  0.14215785502E+02  0.75058899022E+01 -0.11511595919E+02  0.19772298337E+02  0.51100000000E-03 0.  1.
        -12    1    3    3    0    0  0.47121765200E+01  0.17940923216E+02 -0.14547340795E+02  0.23573426938E+02  0.00000000000E+00 0.  1.
</event>
<event>
 7    1  0.2442667E-009  0.4778727E+02  0.7816164E-02  0.1312668E+00
        -11   -1    0    0    0    0  0.00000000000E+00  0.00000000000E+00  0.45593999997E+02  0.45594000000E+02  0.51100000000E-03 0.  1.
         11   -1    0    0    0    0 -0.00000000000E+00 -0.00000000000E+00 -0.45593999997E+02  0.45594000000E+02  0.51100000000E-03 0. -1.
    9900012    2    1    2    0    0  0.72462998312E+01 -0.34101565120E+02 -0.25849523170E+02  0.47787268981E+02  0.19999990591E+02 0.  0.
        -12    1    1    2    0    0 -0.72462998312E+01  0.34101565120E+02  0.25849523170E+02  0.43400731019E+02  0.00000000000E+00 0.  1.
         11    1    3    3    0    0  0.58428761173E+00 -0.21930233988E+02 -0.13062340117E+02  0.25532357595E+02  0.51100000000E-03 0. -1.
        -11    1    3    3    0    0  0.92162683495E+01 -0.54792401544E+01 -0.96867052733E+01  0.14449703605E+02  0.51100000000E-03 0.  1.
        -12    1    3    3    0    0 -0.25542561301E+01 -0.66920909775E+01 -0.31004777801E+01  0.78052077803E+01  0.00000000000E+00 0.  1.
</event>
<event>
 7    1  0.2442667E-009  0.4778727E+02  0.7816164E-02  0.1312668E+00
        -11   -1    0    0    0    0  0.00000000000E+00  0.00000000000E+00  0.45593999997E+02  0.45594000000E+02  0.51100000000E-03 0. -1.
         11   -1    0    0    0    0 -0.00000000000E+00 -0.00000000000E+00 -0.45593999997E+02  0.45594000000E+02  0.51100000000E-03 0.  1.
    9900012    2    1    2    0    0 -0.20974111979E+02  0.18144328087E+02  0.33384022999E+02  0.47787274123E+02  0.20000014038E+02 0.  0.
        -12    1    1    2    0    0  0.20974111979E+02 -0.18144328087E+02 -0.33384022999E+02  0.43400725877E+02  0.00000000000E+00 0.  1.
         11    1    3    3    0    0 -0.12740460234E+02  0.94422067654E+01  0.26951969267E+02  0.31271124751E+02  0.51100000000E-03 0. -1.
        -11    1    3    3    0    0 -0.23261111574E+01 -0.53314914137E+00 -0.16454248019E+01  0.28987004267E+01  0.51100000000E-03 0.  1.
        -12    1    3    3    0    0 -0.59075405884E+01  0.92352704628E+01  0.80774785336E+01  0.13617448946E+02  0.00000000000E+00 0.  1.
</event>
<event>
 7    1  0.2442667E-009  0.4778727E+02  0.7816164E-02  0.1312668E+00
        -11   -1    0    0    0    0  0.00000000000E+00  0.00000000000E+00  0.45593999997E+02  0.45594000000E+02  0.51100000000E-03 0.  1.
         11   -1    0    0    0    0 -0.00000000000E+00 -0.00000000000E+00 -0.45593999997E+02  0.45594000000E+02  0.51100000000E-03 0. -1.
    9900012    2    1    2    0    0  0.35214901607E+02  0.11741371260E+02  0.22487201744E+02  0.47787270323E+02  0.19999996710E+02 0.  0.
        -12    1    1    2    0    0 -0.35214901607E+02 -0.11741371260E+02 -0.22487201744E+02  0.43400729677E+02  0.00000000000E+00 0.  1.
         11    1    3    3    0    0  0.18283813199E+02  0.21181022224E+01  0.90474468660E+01  0.20509521623E+02  0.51100000000E-03 0. -1.
        -11    1    3    3    0    0  0.57734616523E+01  0.10900127444E+02  0.86668434085E+01  0.15075138894E+02  0.51100000000E-03 0.  1.
        -12    1    3    3    0    0  0.11157626755E+02 -0.12768584060E+01  0.47729114696E+01  0.12202609806E+02  0.00000000000E+00 0.  1.
</event>
<event>
 7    1  0.2442667E-009  0.4778727E+02  0.7816164E-02  0.1312668E+00
        -11   -1    0    0    0    0  0.00000000000E+00  0.00000000000E+00  0.45593999997E+02  0.45594000000E+02  0.51100000000E-03 0.  1.
         11   -1    0    0    0    0 -0.00000000000E+00 -0.00000000000E+00 -0.45593999997E+02  0.45594000000E+02  0.51100000000E-03 0. -1.
    9900012    2    1    2    0    0  0.32515246129E+01 -0.11822649522E+02 -0.41632632041E+02  0.47787268386E+02  0.19999987878E+02 0.  0.
        -12    1    1    2    0    0 -0.32515246129E+01  0.11822649522E+02  0.41632632041E+02  0.43400731614E+02  0.00000000000E+00 0.  1.
         11    1    3    3    0    0  0.11629461296E+01 -0.28109907703E+01 -0.39672710176E+01  0.49993351958E+01  0.51100000000E-03 0. -1.
        -11    1    3    3    0    0 -0.46232312145E+01 -0.17882201620E+01 -0.29703916219E+02  0.30114691385E+02  0.51100000000E-03 0.  1.
        -12    1    3    3    0    0  0.67118096978E+01 -0.72234385897E+01 -0.79614448043E+01  0.12673241805E+02  0.00000000000E+00 0.  1.
</event>
<event>
 7    1  0.2442667E-009  0.4778727E+02  0.7816164E-02  0.1312668E+00
        -11   -1    0    0    0    0  0.00000000000E+00  0.00000000000E+00  0.45593999997E+02  0.45594000000E+02  0.51100000000E-03 0.  1.
         11   -1    0    0    0    0 -0.00000000000E+00 -0.00000000000E+00 -0.45593999997E+02  0.45594000000E+02  0.51100000000E-03 0. -1.
    9900012    2    1    2    0    0 -0.28785568523E+02  0.28655279361E+02 -0.15293436721E+02  0.47787271928E+02  0.20000004029E+02 0.  0.
        -12    1    1    2    0    0  0.28785568523E+02 -0.28655279361E+02  0.15293436721E+02  0.43400728072E+02  0.00000000000E+00 0.  1.
         11    1    3    3    0    0 -0.16575673936E+00  0.81020163191E+01 -0.38893191015E+01  0.89887122029E+01  0.51100000000E-03 0. -1.
        -11    1    3    3    0    0 -0.14546415908E+02  0.62836898998E+01 -0.21987694841E+00  0.15847123419E+02  0.51100000000E-03 0.  1.
        -12    1    3    3    0    0 -0.14073395876E+02  0.14269573142E+02 -0.11184240671E+02  0.22951436306E+02  0.00000000000E+00 0.  1.
</event>
<event>
 7    1  0.2442667E-009  0.4778727E+02  0.7816164E-02  0.1312668E+00
        -11   -1    0    0    0    0  0.00000000000E+00  0.00000000000E+00  0.45593999997E+02  0.45594000000E+02  0.51100000000E-03 0.  1.
         11   -1    0    0    0    0 -0.00000000000E+00 -0.00000000000E+00 -0.45593999997E+02  0.45594000000E+02  0.51100000000E-03 0. -1.
    9900012    2    1    2    0    0  0.94132900750E+01 -0.38648833079E+02 -0.17357455954E+02  0.47787267223E+02  0.19999982576E+02 0.  0.
        -12    1    1    2    0    0 -0.94132900750E+01  0.38648833079E+02  0.17357455954E+02  0.43400732777E+02  0.00000000000E+00 0.  1.
         11    1    3    3    0    0  0.48842708141E+01 -0.86733806739E+01 -0.59810314448E+01  0.11612767590E+02  0.51100000000E-03 0. -1.
        -11    1    3    3    0    0 -0.10138225515E+01  0.12726239397E+01 -0.29014094547E+01  0.33264973986E+01  0.51100000000E-03 0.  1.
        -12    1    3    3    0    0  0.55428418125E+01 -0.31248076345E+02 -0.84750150545E+01  0.32848002234E+02  0.00000000000E+00 0.  1.
</event>
<event>
 7    1  0.2594493E-009  0.4778727E+02  0.7816164E-02  0.1312668E+00
        -11   -1    0    0    0    0  0.00000000000E+00  0.00000000000E+00  0.45593999997E+02  0.45594000000E+02  0.51100000000E-03 0. -1.
         11   -1    0    0    0    0 -0.00000000000E+00 -0.00000000000E+00 -0.45593999997E+02  0.45594000000E+02  0.51100000000E-03 0.  1.
    9900012    2    1    2    0    0  0.22505906812E+02 -0.15126418577E+02  0.33886562313E+02  0.47787268604E+02  0.19999988871E+02 0.  0.
        -12    1    1    2    0    0 -0.22505906812E+02  0.15126418577E+02 -0.33886562313E+02  0.43400731396E+02  0.00000000000E+00 0.  1.
         11    1    3    3    0    0  0.44233282960E+01 -0.48434184881E+01  0.93807621003E+01  0.11446538067E+02  0.51100000000E-03 0. -1.
        -11    1    3    3    0    0  0.43933163703E+01 -0.12045471596E+02  0.14081538602E+02  0.19044273269E+02  0.51100000000E-03 0.  1.
        -12    1    3    3    0    0  0.13689262145E+02  0.17624715069E+01  0.10424261610E+02  0.17296457268E+02  0.00000000000E+00 0.  1.
</event>
<event>
 7    1  0.2442667E-009  0.4778727E+02  0.7816164E-02  0.1312668E+00
        -11   -1    0    0    0    0  0.00000000000E+00  0.00000000000E+00  0.45593999997E+02  0.45594000000E+02  0.51100000000E-03 0. -1.
         11   -1    0    0    0    0 -0.00000000000E+00 -0.00000000000E+00 -0.45593999997E+02  0.45594000000E+02  0.51100000000E-03 0.  1.
    9900012    2    1    2    0    0 -0.92221772031E+01  0.17988679280E+02  0.38405498095E+02  0.47787269378E+02  0.19999992401E+02 0.  0.
        -12    1    1    2    0    0  0.92221772031E+01 -0.17988679280E+02 -0.38405498095E+02  0.43400730622E+02  0.00000000000E+00 0.  1.
         11    1    3    3    0    0  0.43321866838E+01  0.54391742974E+01  0.15112133139E+02  0.16635174384E+02  0.51100000000E-03 0. -1.
        -11    1    3    3    0    0 -0.69288102192E+01  0.51735574597E+01  0.41454755706E+01  0.95895294885E+01  0.51100000000E-03 0.  1.
        -12    1    3    3    0    0 -0.66255536677E+01  0.73759475227E+01  0.19147889386E+02  0.21562565506E+02  0.00000000000E+00 0.  1.
</event>
<event>
 7    1  0.2442667E-009  0.4778727E+02  0.7816164E-02  0.1312668E+00
        -11   -1    0    0    0    0  0.00000000000E+00  0.00000000000E+00  0.45593999997E+02  0.45594000000E+02  0.51100000000E-03 0.  1.
         11   -1    0    0    0    0 -0.00000000000E+00 -0.00000000000E+00 -0.45593999997E+02  0.45594000000E+02  0.51100000000E-03 0. -1.
    9900012    2    1    2    0    0 -0.29517700007E+02  0.19959695882E+02 -0.24777792657E+02  0.47787273250E+02  0.20000010058E+02 0.  0.
        -12    1    1    2    0    0  0.29517700007E+02 -0.19959695882E+02  0.24777792657E+02  0.43400726750E+02  0.00000000000E+00 0.  1.
         11    1    3    3    0    0 -0.91233182316E+01  0.72523592167E+01 -0.56297969307E+01  0.12943193714E+02  0.51100000000E-03 0. -1.
        -11    1    3    3    0    0 -0.13239085148E+02  0.99231791868E+01 -0.27966771473E+01  0.16779876760E+02  0.51100000000E-03 0.  1.
        -12    1    3    3    0    0 -0.71552966274E+01  0.27841574784E+01 -0.16351318579E+02  0.18064202777E+02  0.00000000000E+00 0.  1.
</event>
<event>
 7    1  0.2442667E-009  0.4778728E+02  0.7816164E-02  0.1312668E+00
        -11   -1    0    0    0    0  0.00000000000E+00  0.00000000000E+00  0.45593999997E+02  0.45594000000E+02  0.51100000000E-03 0. -1.
         11   -1    0    0    0    0 -0.00000000000E+00 -0.00000000000E+00 -0.45593999997E+02  0.45594000000E+02  0.51100000000E-03 0.  1.
    9900012    2    1    2    0    0 -0.11622543565E+02 -0.14954002416E+02  0.39050188025E+02  0.47787275444E+02  0.20000020060E+02 0.  0.
        -12    1    1    2    0    0  0.11622543565E+02  0.14954002416E+02 -0.39050188025E+02  0.43400724556E+02  0.00000000000E+00 0.  1.
         11    1    3    3    0    0 -0.65795166733E+01 -0.10914670186E+01  0.24110384862E+02  0.25015834953E+02  0.51100000000E-03 0. -1.
        -11    1    3    3    0    0  0.32412765028E+00 -0.43214435083E+01  0.10508481299E+00  0.43348559155E+01  0.51100000000E-03 0.  1.
         12    1    3    3    0    0 -0.53671545424E+01 -0.95410918889E+01  0.14834718350E+02  0.18436584576E+02  0.00000000000E+00 0. -1.
</event>
<event>
 7    1  0.3216543E-009  0.4778726E+02  0.7816164E-02  0.1312668E+00
        -11   -1    0    0    0    0  0.00000000000E+00  0.00000000000E+00  0.45593999997E+02  0.45594000000E+02  0.51100000000E-03 0. -1.
         11   -1    0    0    0    0 -0.00000000000E+00 -0.00000000000E+00 -0.45593999997E+02  0.45594000000E+02  0.51100000000E-03 0.  1.
    9900012    2    1    2    0    0  0.12289684870E+02  0.80583852661E+01  0.40836869514E+02  0.47787264534E+02  0.19999970317E+02 0.  0.
        -12    1    1    2    0    0 -0.12289684870E+02 -0.80583852661E+01 -0.40836869514E+02  0.43400735466E+02  0.00000000000E+00 0.  1.
         11    1    3    3    0    0  0.18293366020E+00  0.63790125086E+01  0.25819110849E+02  0.26596085249E+02  0.51100000000E-03 0. -1.
        -11    1    3    3    0    0  0.98369519128E+01 -0.12738131506E+01  0.14291395752E+02  0.17396327649E+02  0.51100000000E-03 0.  1.
        -12    1    3    3    0    0  0.22697992970E+01  0.29531859082E+01  0.72636291301E+00  0.37948516359E+01  0.00000000000E+00 0.  1.
</event>
<event>
 7    1  0.2442667E-009  0.4778727E+02  0.7816164E-02  0.1312668E+00
        -11   -1    0    0    0    0  0.00000000000E+00  0.00000000000E+00  0.45593999997E+02  0.45594000000E+02  0.51100000000E-03 0.  1.
         11   -1    0    0    0    0 -0.00000000000E+00 -0.00000000000E+00 -0.45593999997E+02  0.45594000000E+02  0.51100000000E-03 0. -1.
    9900012    2    1    2    0    0  0.39547270202E+02 -0.10269748032E+02 -0.14634508884E+02  0.47787272410E+02  0.20000006227E+02 0.  0.
        -12    1    1    2    0    0 -0.39547270202E+02  0.10269748032E+02  0.14634508884E+02  0.43400727590E+02  0.00000000000E+00 0.  1.
         11    1    3    3    0    0  0.89217229411E+01 -0.71832208311E+01 -0.10227494910E+02  0.15355697774E+02  0.51100000000E-03 0. -1.
        -11    1    3    3    0    0  0.13518505213E+02  0.13371358303E+01  0.18002886479E+01  0.13703246145E+02  0.51100000000E-03 0.  1.
         12    1    3    3    0    0  0.17107042048E+02 -0.44236630314E+01 -0.62073026218E+01  0.18728328491E+02  0.00000000000E+00 0. -1.
</event>
<event>
 7    1  0.2442667E-009  0.4778727E+02  0.7816164E-02  0.1312668E+00
        -11   -1    0    0    0    0  0.00000000000E+00  0.00000000000E+00  0.45593999997E+02  0.45594000000E+02  0.51100000000E-03 0.  1.
         11   -1    0    0    0    0 -0.00000000000E+00 -0.00000000000E+00 -0.45593999997E+02  0.45594000000E+02  0.51100000000E-03 0. -1.
    9900012    2    1    2    0    0 -0.82562536280E+01 -0.27881321467E+02 -0.32219396131E+02  0.47787270770E+02  0.19999998748E+02 0.  0.
        -12    1    1    2    0    0  0.82562536280E+01  0.27881321467E+02  0.32219396131E+02  0.43400729230E+02  0.00000000000E+00 0.  1.
         11    1    3    3    0    0 -0.50219405415E+00 -0.75630940687E+01 -0.16606419246E+02  0.18254472087E+02  0.51100000000E-03 0. -1.
        -11    1    3    3    0    0 -0.81268052328E+01 -0.53836256747E+01 -0.37060014504E+01  0.10428942214E+02  0.51100000000E-03 0.  1.
        -12    1    3    3    0    0  0.37274565898E+00 -0.14934601723E+02 -0.11906975434E+02  0.19103856468E+02  0.00000000000E+00 0.  1.
</event>
<event>
 7    1  0.2442667E-009  0.4778727E+02  0.7816164E-02  0.1312668E+00
        -11   -1    0    0    0    0  0.00000000000E+00  0.00000000000E+00  0.45593999997E+02  0.45594000000E+02  0.51100000000E-03 0. -1.
         11   -1    0    0    0    0 -0.00000000000E+00 -0.00000000000E+00 -0.45593999997E+02  0.45594000000E+02  0.51100000000E-03 0.  1.
    9900012    2    1    2    0    0  0.37896789631E+02  0.15560904869E+02  0.14328804065E+02  0.47787273616E+02  0.20000011726E+02 0.  0.
        -12    1    1    2    0    0 -0.37896789631E+02 -0.15560904869E+02 -0.14328804065E+02  0.43400726384E+02  0.00000000000E+00 0.  1.
         11    1    3    3    0    0  0.30414894273E+02  0.39258862473E+01  0.78050501730E+01  0.31644860324E+02  0.51100000000E-03 0. -1.
        -11    1    3    3    0    0  0.42771773956E+01  0.40295505370E+01  0.44667757856E+00  0.58933051104E+01  0.51100000000E-03 0.  1.
         12    1    3    3    0    0  0.32047179628E+01  0.76054680844E+01  0.60770763136E+01  0.10249108182E+02  0.00000000000E+00 0. -1.
</event>
<event>
 7    1  0.2442667E-009  0.4778727E+02  0.7816164E-02  0.1312668E+00
        -11   -1    0    0    0    0  0.00000000000E+00  0.00000000000E+00  0.45593999997E+02  0.45594000000E+02  0.51100000000E-03 0.  1.
         11   -1    0    0    0    0 -0.00000000000E+00 -0.00000000000E+00 -0.45593999997E+02  0.45594000000E+02  0.51100000000E-03 0. -1.
    9900012    2    1    2    0    0  0.25221257140E+01  0.38936491037E+02 -0.19005574443E+02  0.47787270602E+02  0.19999997981E+02 0.  0.
        -12    1    1    2    0    0 -0.25221257140E+01 -0.38936491037E+02  0.19005574443E+02  0.43400729398E+02  0.00000000000E+00 0.  1.
         11    1    3    3    0    0 -0.30020179797E+01  0.23786889319E+02 -0.17344795375E+02  0.29591724220E+02  0.51100000000E-03 0. -1.
        -11    1    3    3    0    0  0.20989191663E+01  0.10464197603E+02  0.26130539694E+01  0.10987854406E+02  0.51100000000E-03 0.  1.
         12    1    3    3    0    0  0.34252245274E+01  0.46854041145E+01 -0.42738330378E+01  0.72076919755E+01  0.00000000000E+00 0. -1.
</event>
<event>
 7    1  0.2442667E-009  0.4778726E+02  0.7816164E-02  0.1312668E+00
        -11   -1    0    0    0    0  0.00000000000E+00  0.00000000000E+00  0.45593999997E+02  0.45594000000E+02  0.51100000000E-03 0.  1.
         11   -1    0    0    0    0 -0.00000000000E+00 -0.00000000000E+00 -0.45593999997E+02  0.45594000000E+02  0.51100000000E-03 0. -1.
    9900012    2    1    2    0    0  0.12970688354E+02  0.36566613245E+02 -0.19449109958E+02  0.47787264537E+02  0.19999970329E+02 0.  0.
        -12    1    1    2    0    0 -0.12970688354E+02 -0.36566613245E+02  0.19449109958E+02  0.43400735463E+02  0.00000000000E+00 0.  1.
         11    1    3    3    0    0  0.49038540783E+01  0.13651189655E+02 -0.16293415832E+01  0.14596489923E+02  0.51100000000E-03 0. -1.
        -11    1    3    3    0    0  0.40022323698E+01 -0.67546728249E+00 -0.23835558835E+01  0.47069585618E+01  0.51100000000E-03 0.  1.
        -12    1    3    3    0    0  0.40646019057E+01  0.23590890873E+02 -0.15436212491E+02  0.28483816052E+02  0.00000000000E+00 0.  1.
</event>
<event>
 7    1  0.2442667E-009  0.4778727E+02  0.7816164E-02  0.1312668E+00
        -11   -1    0    0    0    0  0.00000000000E+00  0.00000000000E+00  0.45593999997E+02  0.45594000000E+02  0.51100000000E-03 0.  1.
         11   -1    0    0    0    0 -0.00000000000E+00 -0.00000000000E+00 -0.45593999997E+02  0.45594000000E+02  0.51100000000E-03 0. -1.
    9900012    2    1    2    0    0  0.10433137698E+02  0.42114946511E+02  0.10508325679E+01  0.47787270387E+02  0.19999997005E+02 0.  0.
        -12    1    1    2    0    0 -0.10433137698E+02 -0.42114946511E+02 -0.10508325679E+01  0.43400729613E+02  0.00000000000E+00 0.  1.
         11    1    3    3    0    0  0.39648529717E+01  0.30361226423E+02  0.10826897357E+01  0.30638151810E+02  0.51100000000E-03 0. -1.
        -11    1    3    3    0    0  0.31040170995E+01 -0.10781862051E+01  0.18177230146E+01  0.37551997105E+01  0.51100000000E-03 0.  1.
        -12    1    3    3    0    0  0.33642676265E+01  0.12831906293E+02 -0.18495801823E+01  0.13393918867E+02  0.00000000000E+00 0.  1.
</event>
<event>
 7    1  0.2442667E-009  0.4778728E+02  0.7816164E-02  0.1312668E+00
        -11   -1    0    0    0    0  0.00000000000E+00  0.00000000000E+00  0.45593999997E+02  0.45594000000E+02  0.51100000000E-03 0. -1.
         11   -1    0    0    0    0 -0.00000000000E+00 -0.00000000000E+00 -0.45593999997E+02  0.45594000000E+02  0.51100000000E-03 0.  1.
    9900012    2    1    2    0    0  0.10369372784E+02  0.19014363861E+02  0.37610543509E+02  0.47787275259E+02  0.20000019216E+02 0.  0.
        -12    1    1    2    0    0 -0.10369372784E+02 -0.19014363861E+02 -0.37610543509E+02  0.43400724741E+02  0.00000000000E+00 0.  1.
         11    1    3    3    0    0  0.36920814065E+01  0.11511425489E+02  0.29226288744E+02  0.31627841151E+02  0.51100000000E-03 0. -1.
        -11    1    3    3    0    0  0.13771675683E+01  0.48181571954E+01 -0.94452479281E+00  0.50993486462E+01  0.51100000000E-03 0.  1.
        -12    1    3    3    0    0  0.53001238094E+01  0.26847811764E+01  0.93287795586E+01  0.11060085461E+02  0.00000000000E+00 0.  1.
</event>
<event>
 7    1  0.2442667E-009  0.4778726E+02  0.7816164E-02  0.1312668E+00
        -11   -1    0    0    0    0  0.00000000000E+00  0.00000000000E+00  0.45593999997E+02  0.45594000000E+02  0.51100000000E-03 0.  1.
         11   -1    0    0    0    0 -0.00000000000E+00 -0.00000000000E+00 -0.45593999997E+02  0.45594000000E+02  0.51100000000E-03 0. -1.
    9900012    2    1    2    0    0  0.17805478325E+02 -0.27049184940E+02 -0.28895169576E+02  0.47787259348E+02  0.19999946669E+02 0.  0.
        -12    1    1    2    0    0 -0.17805478325E+02  0.27049184940E+02  0.28895169576E+02  0.43400740652E+02  0.00000000000E+00 0.  1.
         11    1    3    3    0    0  0.66811264092E+01 -0.21657561510E+02 -0.25971683668E+02  0.34470505849E+02  0.51100000000E-03 0. -1.
        -11    1    3    3    0    0  0.22884409797E+01 -0.11875115854E+01  0.10122703217E+01  0.27698081790E+01  0.51100000000E-03 0.  1.
         12    1    3    3    0    0  0.88359109362E+01 -0.42041118455E+01 -0.39357562300E+01  0.10546945320E+02  0.00000000000E+00 0. -1.
</event>
<event>
 7    1  0.2442667E-009  0.4778728E+02  0.7816164E-02  0.1312668E+00
        -11   -1    0    0    0    0  0.00000000000E+00  0.00000000000E+00  0.45593999997E+02  0.45594000000E+02  0.51100000000E-03 0.  1.
         11   -1    0    0    0    0 -0.00000000000E+00 -0.00000000000E+00 -0.45593999997E+02  0.45594000000E+02  0.51100000000E-03 0. -1.
    9900012    2    1    2    0    0  0.25745892400E+02  0.34511044550E+02 -0.54551993814E+01  0.47787281438E+02  0.20000047388E+02 0.  0.
        -12    1    1    2    0    0 -0.25745892400E+02 -0.34511044550E+02  0.54551993814E+01  0.43400718562E+02  0.00000000000E+00 0.  1.
         11    1    3    3    0    0  0.16747570171E+02  0.29733773135E+02 -0.88407880050E+01  0.35252487916E+02  0.51100000000E-03 0. -1.
        -11    1    3    3    0    0  0.49195954493E+01  0.55576945394E+01  0.38408688863E+01  0.83571922343E+01  0.51100000000E-03 0.  1.
         12    1    3    3    0    0  0.40787267801E+01 -0.78042312452E+00 -0.45528026273E+00  0.41776012876E+01  0.00000000000E+00 0. -1.
</event>
<event>
 7    1  0.2442667E-009  0.4778726E+02  0.7816164E-02  0.1312668E+00
        -11   -1    0    0    0    0  0.00000000000E+00  0.00000000000E+00  0.45593999997E+02  0.45594000000E+02  0.51100000000E-03 0.  1.
         11   -1    0    0    0    0 -0.00000000000E+00 -0.00000000000E+00 -0.45593999997E+02  0.45594000000E+02  0.51100000000E-03 0. -1.
    9900012    2    1    2    0    0 -0.14411415045E+02 -0.40698612270E+02 -0.44224359214E+01  0.47787264249E+02  0.19999969015E+02 0.  0.
        -12    1    1    2    0    0  0.14411415045E+02  0.40698612270E+02  0.44224359214E+01  0.43400735751E+02  0.00000000000E+00 0.  1.
         11    1    3    3    0    0 -0.11975113096E+02 -0.28205110580E+02  0.15848893512E+01  0.30682950820E+02  0.51100000000E-03 0. -1.
        -11    1    3    3    0    0  0.10089320399E+01 -0.93665015179E+01 -0.76857380391E+01  0.12158119263E+02  0.51100000000E-03 0.  1.
        -12    1    3    3    0    0 -0.34452339885E+01 -0.31270001718E+01  0.16784127665E+01  0.49461941657E+01  0.00000000000E+00 0.  1.
</event>
<event>
 7    1  0.2442667E-009  0.4778728E+02  0.7816164E-02  0.1312668E+00
        -11   -1    0    0    0    0  0.00000000000E+00  0.00000000000E+00  0.45593999997E+02  0.45594000000E+02  0.51100000000E-03 0.  1.
         11   -1    0    0    0    0 -0.00000000000E+00 -0.00000000000E+00 -0.45593999997E+02  0.45594000000E+02  0.51100000000E-03 0. -1.
    9900012    2    1    2    0    0  0.38750760791E+02  0.32979997853E+01 -0.19264583846E+02  0.47787280476E+02  0.20000043002E+02 0.  0.
        -12    1    1    2    0    0 -0.38750760791E+02 -0.32979997853E+01  0.19264583846E+02  0.43400719524E+02  0.00000000000E+00 0.  1.
         11    1    3    3    0    0  0.30452050759E+02  0.29403065756E+01 -0.10773077430E+02  0.32435042713E+02  0.51100000000E-03 0. -1.
        -11    1    3    3    0    0  0.56801379638E+01 -0.35221535355E-01 -0.10560937570E+02  0.11991605833E+02  0.51100000000E-03 0.  1.
        -12    1    3    3    0    0  0.26185720679E+01  0.39291474514E+00  0.20694311535E+01  0.33606319303E+01  0.00000000000E+00 0.  1.
</event>
<event>
 7    1  0.2442667E-009  0.4778727E+02  0.7816164E-02  0.1312668E+00
        -11   -1    0    0    0    0  0.00000000000E+00  0.00000000000E+00  0.45593999997E+02  0.45594000000E+02  0.51100000000E-03 0. -1.
         11   -1    0    0    0    0 -0.00000000000E+00 -0.00000000000E+00 -0.45593999997E+02  0.45594000000E+02  0.51100000000E-03 0.  1.
    9900012    2    1    2    0    0 -0.82243102931E+01  0.34698892170E+02  0.24738045869E+02  0.47787270616E+02  0.19999998049E+02 0.  0.
        -12    1    1    2    0    0  0.82243102931E+01 -0.34698892170E+02 -0.24738045869E+02  0.43400729384E+02  0.00000000000E+00 0.  1.
         11    1    3    3    0    0 -0.46281634949E+01  0.12567515706E+02  0.58248023167E-01  0.13392749585E+02  0.51100000000E-03 0. -1.
        -11    1    3    3    0    0 -0.53043464998E+01  0.88765506299E+01  0.13261275327E+02  0.16816380896E+02  0.51100000000E-03 0.  1.
         12    1    3    3    0    0  0.17081997017E+01  0.13254825834E+02  0.11418522519E+02  0.17578140135E+02  0.00000000000E+00 0. -1.
</event>
<event>
 7    1  0.2442667E-009  0.4778727E+02  0.7816164E-02  0.1312668E+00
        -11   -1    0    0    0    0  0.00000000000E+00  0.00000000000E+00  0.45593999997E+02  0.45594000000E+02  0.51100000000E-03 0.  1.
         11   -1    0    0    0    0 -0.00000000000E+00 -0.00000000000E+00 -0.45593999997E+02  0.45594000000E+02  0.51100000000E-03 0. -1.
    9900012    2    1    2    0    0 -0.72822904519E+01  0.39637037334E+02 -0.16108901188E+02  0.47787272122E+02  0.20000004914E+02 0.  0.
        -12    1    1    2    0    0  0.72822904519E+01 -0.39637037334E+02  0.16108901188E+02  0.43400727878E+02  0.00000000000E+00 0.  1.
         11    1    3    3    0    0 -0.92619331173E+01  0.16877522811E+02 -0.84085608303E+01  0.21008047905E+02  0.51100000000E-03 0. -1.
        -11    1    3    3    0    0 -0.33467953912E+01  0.17482445492E+02 -0.33555065297E+01  0.18113430490E+02  0.51100000000E-03 0.  1.
         12    1    3    3    0    0  0.53264380565E+01  0.52770690313E+01 -0.43448338276E+01  0.86657937271E+01  0.00000000000E+00 0. -1.
</event>
<event>
 7    1  0.2442667E-009  0.4778727E+02  0.7816164E-02  0.1312668E+00
        -11   -1    0    0    0    0  0.00000000000E+00  0.00000000000E+00  0.45593999997E+02  0.45594000000E+02  0.51100000000E-03 0.  1.
         11   -1    0    0    0    0 -0.00000000000E+00 -0.00000000000E+00 -0.45593999997E+02  0.45594000000E+02  0.51100000000E-03 0. -1.
    9900012    2    1    2    0    0 -0.15339291700E+02  0.18604905375E+02 -0.36085827238E+02  0.47787270729E+02  0.19999998561E+02 0.  0.
        -12    1    1    2    0    0  0.15339291700E+02 -0.18604905375E+02  0.36085827238E+02  0.43400729271E+02  0.00000000000E+00 0.  1.
         11    1    3    3    0    0 -0.39709896881E+01  0.54008564268E+01 -0.79833242001E+01  0.10424561132E+02  0.51100000000E-03 0. -1.
        -11    1    3    3    0    0 -0.12280070245E+02  0.11656622449E+02 -0.11055389687E+02  0.20221241641E+02  0.51100000000E-03 0.  1.
        -12    1    3    3    0    0  0.91176823308E+00  0.15474264992E+01 -0.17047113351E+02  0.17141467956E+02  0.00000000000E+00 0.  1.
</event>
<event>
 7    1  0.2442667E-009  0.4778727E+02  0.7816164E-02  0.1312668E+00
        -11   -1    0    0    0    0  0.00000000000E+00  0.00000000000E+00  0.45593999997E+02  0.45594000000E+02  0.51100000000E-03 0. -1.
         11   -1    0    0    0    0 -0.00000000000E+00 -0.00000000000E+00 -0.45593999997E+02  0.45594000000E+02  0.51100000000E-03 0.  1.
    9900012    2    1    2    0    0  0.23614050351E+02 -0.23462726907E+02  0.27847807442E+02  0.47787270660E+02  0.19999998248E+02 0.  0.
        -12    1    1    2    0    0 -0.23614050351E+02  0.23462726907E+02 -0.27847807442E+02  0.43400729340E+02  0.00000000000E+00 0.  1.
         11    1    3    3    0    0  0.97845510500E+01 -0.36519829475E+01  0.57824803633E+01  0.11937817979E+02  0.51100000000E-03 0. -1.
        -11    1    3    3    0    0  0.79004489599E+01 -0.17642260881E+02  0.22325113369E+02  0.29530952405E+02  0.51100000000E-03 0.  1.
        -12    1    3    3    0    0  0.59290503413E+01 -0.21684830794E+01 -0.25978629066E+00  0.63185002755E+01  0.00000000000E+00 0.  1.
</event>
<event>
 7    1  0.2442667E-009  0.4778728E+02  0.7816164E-02  0.1312668E+00
        -11   -1    0    0    0    0  0.00000000000E+00  0.00000000000E+00  0.45593999997E+02  0.45594000000E+02  0.51100000000E-03 0. -1.
         11   -1    0    0    0    0 -0.00000000000E+00 -0.00000000000E+00 -0.45593999997E+02  0.45594000000E+02  0.51100000000E-03 0.  1.
    9900012    2    1    2    0    0  0.30210606383E+02 -0.21696802184E+02  0.22364936146E+02  0.47787281897E+02  0.20000049481E+02 0.  0.
        -12    1    1    2    0    0 -0.30210606383E+02  0.21696802184E+02 -0.22364936146E+02  0.43400718103E+02  0.00000000000E+00 0.  1.
         11    1    3    3    0    0  0.17610431389E+02 -0.28586784759E+01  0.15249407556E+02  0.23470061086E+02  0.51100000000E-03 0. -1.
        -11    1    3    3    0    0  0.48544859584E+01 -0.11772700905E+02  0.32425946677E+01  0.13140659837E+02  0.51100000000E-03 0.  1.
        -12    1    3    3    0    0  0.77456890361E+01 -0.70654228033E+01  0.38729339223E+01  0.11176560974E+02  0.00000000000E+00 0.  1.
</event>
<event>
 7    1  0.2442667E-009  0.4778727E+02  0.7816164E-02  0.1312668E+00
        -11   -1    0    0    0    0  0.00000000000E+00  0.00000000000E+00  0.45593999997E+02  0.45594000000E+02  0.51100000000E-03 0. -1.
         11   -1    0    0    0    0 -0.00000000000E+00 -0.00000000000E+00 -0.45593999997E+02  0.45594000000E+02  0.51100000000E-03 0.  1.
    9900012    2    1    2    0    0  0.26330730771E+01 -0.41961920478E+02  0.10765099315E+02  0.47787271811E+02  0.20000003496E+02 0.  0.
        -12    1    1    2    0    0 -0.26330730771E+01  0.41961920478E+02 -0.10765099315E+02  0.43400728189E+02  0.00000000000E+00 0.  1.
         11    1    3    3    0    0 -0.37701174089E+00 -0.14884014226E+02  0.18262832573E+01  0.15000377600E+02  0.51100000000E-03 0. -1.
        -11    1    3    3    0    0 -0.32005394293E+01 -0.24501450115E+02  0.81396368069E+01  0.26015729818E+02  0.51100000000E-03 0.  1.
        -12    1    3    3    0    0  0.62106242472E+01 -0.25764561376E+01  0.79917925051E+00  0.67711643935E+01  0.00000000000E+00 0.  1.
</event>
<event>
 7    1  0.2442667E-009  0.4778727E+02  0.7816164E-02  0.1312668E+00
        -11   -1    0    0    0    0  0.00000000000E+00  0.00000000000E+00  0.45593999997E+02  0.45594000000E+02  0.51100000000E-03 0. -1.
         11   -1    0    0    0    0 -0.00000000000E+00 -0.00000000000E+00 -0.45593999997E+02  0.45594000000E+02  0.51100000000E-03 0.  1.
    9900012    2    1    2    0    0  0.32099050204E+02 -0.22851958454E+02  0.18195120512E+02  0.47787269135E+02  0.19999991293E+02 0.  0.
        -12    1    1    2    0    0 -0.32099050204E+02  0.22851958454E+02 -0.18195120512E+02  0.43400730865E+02  0.00000000000E+00 0.  1.
         11    1    3    3    0    0  0.30833993215E+01 -0.57301469393E+01  0.10019210940E+02  0.11946820641E+02  0.51100000000E-03 0. -1.
        -11    1    3    3    0    0  0.25417226765E+01 -0.43066343386E+01 -0.85365657653E+00  0.50730842002E+01  0.51100000000E-03 0.  1.
         12    1    3    3    0    0  0.26473928206E+02 -0.12815177176E+02  0.90295661489E+01  0.30767364293E+02  0.00000000000E+00 0. -1.
</event>
<event>
 7    1  0.2442667E-009  0.4778727E+02  0.7816164E-02  0.1312668E+00
        -11   -1    0    0    0    0  0.00000000000E+00  0.00000000000E+00  0.45593999997E+02  0.45594000000E+02  0.51100000000E-03 0. -1.
         11   -1    0    0    0    0 -0.00000000000E+00 -0.00000000000E+00 -0.45593999997E+02  0.45594000000E+02  0.51100000000E-03 0.  1.
    9900012    2    1    2    0    0 -0.16239413510E+02  0.14286255622E+02  0.37627216264E+02  0.47787273570E+02  0.20000011516E+02 0.  0.
        -12    1    1    2    0    0  0.16239413510E+02 -0.14286255622E+02 -0.37627216264E+02  0.43400726430E+02  0.00000000000E+00 0.  1.
         11    1    3    3    0    0 -0.46652270912E+01  0.11801212221E+02  0.20288281622E+02  0.23930050672E+02  0.51100000000E-03 0. -1.
        -11    1    3    3    0    0 -0.12479375532E+02  0.36799674441E+01  0.10116657553E+02  0.16481011327E+02  0.51100000000E-03 0.  1.
         12    1    3    3    0    0  0.90518911369E+00 -0.11949240431E+01  0.72222770886E+01  0.73762115713E+01  0.00000000000E+00 0. -1.
</event>
<event>
 7    1  0.2442667E-009  0.4778727E+02  0.7816164E-02  0.1312668E+00
        -11   -1    0    0    0    0  0.00000000000E+00  0.00000000000E+00  0.45593999997E+02  0.45594000000E+02  0.51100000000E-03 0. -1.
         11   -1    0    0    0    0 -0.00000000000E+00 -0.00000000000E+00 -0.45593999997E+02  0.45594000000E+02  0.51100000000E-03 0.  1.
    9900012    2    1    2    0    0 -0.21802459317E+02 -0.22553383046E+02  0.29993678435E+02  0.47787273449E+02  0.20000010963E+02 0.  0.
        -12    1    1    2    0    0  0.21802459317E+02  0.22553383046E+02 -0.29993678435E+02  0.43400726551E+02  0.00000000000E+00 0.  1.
         11    1    3    3    0    0 -0.19117780356E+02 -0.13639786268E+02  0.28788904243E+02  0.37152850536E+02  0.51100000000E-03 0. -1.
        -11    1    3    3    0    0  0.46004621499E+00 -0.66060248132E+01  0.12220893287E+01  0.67338480040E+01  0.51100000000E-03 0.  1.
         12    1    3    3    0    0 -0.31447251760E+01 -0.23075719648E+01 -0.17315136469E-01  0.39005749088E+01  0.00000000000E+00 0. -1.
</event>
<event>
 7    1  0.2442667E-009  0.4778727E+02  0.7816164E-02  0.1312668E+00
        -11   -1    0    0    0    0  0.00000000000E+00  0.00000000000E+00  0.45593999997E+02  0.45594000000E+02  0.51100000000E-03 0.  1.
         11   -1    0    0    0    0 -0.00000000000E+00 -0.00000000000E+00 -0.45593999997E+02  0.45594000000E+02  0.51100000000E-03 0. -1.
    9900012    2    1    2    0    0 -0.11027146770E+01 -0.34189718678E+01 -0.43251799139E+02  0.47787268704E+02  0.19999989327E+02 0.  0.
        -12    1    1    2    0    0  0.11027146770E+01  0.34189718678E+01  0.43251799139E+02  0.43400731296E+02  0.00000000000E+00 0.  1.
         11    1    3    3    0    0 -0.55977466860E+01  0.42659539469E+01 -0.20951293318E+02  0.22101805877E+02  0.51100000000E-03 0. -1.
        -11    1    3    3    0    0  0.26610803621E+01 -0.28913571910E+01 -0.14117827873E+01  0.41754551847E+01  0.51100000000E-03 0.  1.
        -12    1    3    3    0    0  0.18339516470E+01 -0.47935686237E+01 -0.20888723033E+02  0.21510007642E+02  0.00000000000E+00 0.  1.
</event>
<event>
 7    1  0.2442667E-009  0.4778728E+02  0.7816164E-02  0.1312668E+00
        -11   -1    0    0    0    0  0.00000000000E+00  0.00000000000E+00  0.45593999997E+02  0.45594000000E+02  0.51100000000E-03 0.  1.
         11   -1    0    0    0    0 -0.00000000000E+00 -0.00000000000E+00 -0.45593999997E+02  0.45594000000E+02  0.51100000000E-03 0. -1.
    9900012    2    1    2    0    0 -0.41428308372E+02  0.53305829141E+01 -0.11785714216E+02  0.47787275255E+02  0.20000019199E+02 0.  0.
        -12    1    1    2    0    0  0.41428308372E+02 -0.53305829141E+01  0.11785714216E+02  0.43400724745E+02  0.00000000000E+00 0.  1.
         11    1    3    3    0    0 -0.53195407409E+01 -0.21483935395E+01  0.36677835607E+01  0.68092396788E+01  0.51100000000E-03 0. -1.
        -11    1    3    3    0    0 -0.16078253565E+02 -0.11724334279E+01 -0.70873185549E+01  0.17610080136E+02  0.51100000000E-03 0.  1.
         12    1    3    3    0    0 -0.20030514067E+02  0.86514098815E+01 -0.83661792217E+01  0.23367955441E+02  0.00000000000E+00 0. -1.
</event>
<event>
 7    1  0.2442667E-009  0.4778727E+02  0.7816164E-02  0.1312668E+00
        -11   -1    0    0    0    0  0.00000000000E+00  0.00000000000E+00  0.45593999997E+02  0.45594000000E+02  0.51100000000E-03 0. -1.
         11   -1    0    0    0    0 -0.00000000000E+00 -0.00000000000E+00 -0.45593999997E+02  0.45594000000E+02  0.51100000000E-03 0.  1.
    9900012    2    1    2    0    0  0.11396891729E+02 -0.13134258423E+01  0.41857008376E+02  0.47787269837E+02  0.19999994493E+02 0.  0.
        -12    1    1    2    0    0 -0.11396891729E+02  0.13134258423E+01 -0.41857008376E+02  0.43400730163E+02  0.00000000000E+00 0.  1.
         11    1    3    3    0    0  0.61359630221E+01 -0.19080161046E+01  0.19528790379E+01  0.67159738282E+01  0.51100000000E-03 0. -1.
        -11    1    3    3    0    0  0.20666000056E+01 -0.36876590565E+01  0.14105290857E+02  0.14725111047E+02  0.51100000000E-03 0.  1.
         12    1    3    3    0    0  0.31943287012E+01  0.42822493189E+01  0.25798838481E+02  0.26346184962E+02  0.00000000000E+00 0. -1.
</event>
<event>
 7    1  0.2442667E-009  0.4778727E+02  0.7816164E-02  0.1312668E+00
        -11   -1    0    0    0    0  0.00000000000E+00  0.00000000000E+00  0.45593999997E+02  0.45594000000E+02  0.51100000000E-03 0.  1.
         11   -1    0    0    0    0 -0.00000000000E+00 -0.00000000000E+00 -0.45593999997E+02  0.45594000000E+02  0.51100000000E-03 0. -1.
    9900012    2    1    2    0    0 -0.13329551276E+02 -0.26419158590E+02 -0.31748615058E+02  0.47787269178E+02  0.19999991489E+02 0.  0.
        -12    1    1    2    0    0  0.13329551276E+02  0.26419158590E+02  0.31748615058E+02  0.43400730822E+02  0.00000000000E+00 0.  1.
         11    1    3    3    0    0 -0.53130987145E+01 -0.75871483308E+01 -0.20497393270E+02  0.22493042677E+02  0.51100000000E-03 0. -1.
        -11    1    3    3    0    0 -0.78366851501E+01 -0.18259784860E+02 -0.12798025109E+02  0.23635203071E+02  0.51100000000E-03 0.  1.
         12    1    3    3    0    0 -0.17976741107E+00 -0.57222539857E+00  0.15468033201E+01  0.16590234295E+01  0.00000000000E+00 0. -1.
</event>
<event>
 7    1  0.2442667E-009  0.4778727E+02  0.7816164E-02  0.1312668E+00
        -11   -1    0    0    0    0  0.00000000000E+00  0.00000000000E+00  0.45593999997E+02  0.45594000000E+02  0.51100000000E-03 0. -1.
         11   -1    0    0    0    0 -0.00000000000E+00 -0.00000000000E+00 -0.45593999997E+02  0.45594000000E+02  0.51100000000E-03 0.  1.
    9900012    2    1    2    0    0 -0.24417164820E+02  0.33836005647E+02  0.11939432952E+02  0.47787271029E+02  0.19999999931E+02 0.  0.
        -12    1    1    2    0    0  0.24417164820E+02 -0.33836005647E+02 -0.11939432952E+02  0.43400728971E+02  0.00000000000E+00 0.  1.
         11    1    3    3    0    0 -0.11729458497E+01  0.64110601790E+01  0.29506409371E+01  0.71542838066E+01  0.51100000000E-03 0. -1.
        -11    1    3    3    0    0 -0.27742117459E+01 -0.46720629614E+00  0.50909029385E+01  0.58165131758E+01  0.51100000000E-03 0.  1.
        -12    1    3    3    0    0 -0.20470007224E+02  0.27892151764E+02  0.38978890761E+01  0.34816474047E+02  0.00000000000E+00 0.  1.
</event>
<event>
 7    1  0.2442667E-009  0.4778727E+02  0.7816164E-02  0.1312668E+00
        -11   -1    0    0    0    0  0.00000000000E+00  0.00000000000E+00  0.45593999997E+02  0.45594000000E+02  0.51100000000E-03 0.  1.
         11   -1    0    0    0    0 -0.00000000000E+00 -0.00000000000E+00 -0.45593999997E+02  0.45594000000E+02  0.51100000000E-03 0. -1.
    9900012    2    1    2    0    0 -0.17814070763E+02 -0.12214186476E+02 -0.37644335285E+02  0.47787269044E+02  0.19999990881E+02 0.  0.
        -12    1    1    2    0    0  0.17814070763E+02  0.12214186476E+02  0.37644335285E+02  0.43400730956E+02  0.00000000000E+00 0.  1.
         11    1    3    3    0    0 -0.72974957692E+01 -0.80124290445E+00 -0.29390122458E+01  0.79077953903E+01  0.51100000000E-03 0.  1.
        -11    1    3    3    0    0 -0.99690066538E+00 -0.32759654268E+01 -0.21146890696E+02  0.21422342234E+02  0.51100000000E-03 0. -1.
        -12    1    3    3    0    0 -0.95196743284E+01 -0.81369781446E+01 -0.13558432343E+02  0.18457131420E+02  0.00000000000E+00 0.  1.
</event>
<event>
 7    1  0.2442667E-009  0.4778726E+02  0.7816164E-02  0.1312668E+00
        -11   -1    0    0    0    0  0.00000000000E+00  0.00000000000E+00  0.45593999997E+02  0.45594000000E+02  0.51100000000E-03 0.  1.
         11   -1    0    0    0    0 -0.00000000000E+00 -0.00000000000E+00 -0.45593999997E+02  0.45594000000E+02  0.51100000000E-03 0. -1.
    9900012    2    1    2    0    0 -0.33932240080E+02 -0.26806364157E+02 -0.36940319623E+01  0.47787263274E+02  0.19999964572E+02 0.  0.
        -12    1    1    2    0    0  0.33932240080E+02  0.26806364157E+02  0.36940319623E+01  0.43400736726E+02  0.00000000000E+00 0.  1.
         11    1    3    3    0    0 -0.22015119054E+02 -0.59571991847E+01 -0.73958888428E+00  0.22818866779E+02  0.51100000000E-03 0. -1.
        -11    1    3    3    0    0 -0.43186797046E+01 -0.83555044200E+01  0.18314912591E+01  0.95822653374E+01  0.51100000000E-03 0.  1.
         12    1    3    3    0    0 -0.75984413215E+01 -0.12493660553E+02 -0.47859343371E+01  0.15386131158E+02  0.00000000000E+00 0. -1.
</event>
<event>
 7    1  0.2442667E-009  0.4778728E+02  0.7816164E-02  0.1312668E+00
        -11   -1    0    0    0    0  0.00000000000E+00  0.00000000000E+00  0.45593999997E+02  0.45594000000E+02  0.51100000000E-03 0.  1.
         11   -1    0    0    0    0 -0.00000000000E+00 -0.00000000000E+00 -0.45593999997E+02  0.45594000000E+02  0.51100000000E-03 0. -1.
    9900012    2    1    2    0    0 -0.28451118450E+02 -0.12964552802E+02 -0.30101113451E+02  0.47787276487E+02  0.20000024815E+02 0.  0.
        -12    1    1    2    0    0  0.28451118450E+02  0.12964552802E+02  0.30101113451E+02  0.43400723513E+02  0.00000000000E+00 0.  1.
         11    1    3    3    0    0 -0.58333504882E+01  0.43043941827E+00  0.10313061560E+01  0.59394316782E+01  0.51100000000E-03 0. -1.
        -11    1    3    3    0    0 -0.10483205488E+01  0.14563282877E+00  0.55465727895E+00  0.11949183454E+01  0.51100000000E-03 0.  1.
         12    1    3    3    0    0 -0.21569447413E+02 -0.13540625049E+02 -0.31687076886E+02  0.40652926463E+02  0.00000000000E+00 0. -1.
</event>
<event>
 7    1  0.2442667E-009  0.4778727E+02  0.7816164E-02  0.1312668E+00
        -11   -1    0    0    0    0  0.00000000000E+00  0.00000000000E+00  0.45593999997E+02  0.45594000000E+02  0.51100000000E-03 0.  1.
         11   -1    0    0    0    0 -0.00000000000E+00 -0.00000000000E+00 -0.45593999997E+02  0.45594000000E+02  0.51100000000E-03 0. -1.
    9900012    2    1    2    0    0 -0.47184779287E+01  0.39224289042E+02 -0.17967035006E+02  0.47787271530E+02  0.20000002213E+02 0.  0.
        -12    1    1    2    0    0  0.47184779287E+01 -0.39224289042E+02  0.17967035006E+02  0.43400728470E+02  0.00000000000E+00 0.  1.
         11    1    3    3    0    0  0.61592480853E+01  0.18784463915E+02 -0.48516995939E+01  0.20355132295E+02  0.51100000000E-03 0. -1.
        -11    1    3    3    0    0 -0.60198799846E+01  0.83596108416E+01 -0.92632935765E+01  0.13853904020E+02  0.51100000000E-03 0.  1.
        -12    1    3    3    0    0 -0.48578460294E+01  0.12080214286E+02 -0.38520418360E+01  0.13578235215E+02  0.00000000000E+00 0.  1.
</event>
<event>
 7    1  0.2442667E-009  0.4778727E+02  0.7816164E-02  0.1312668E+00
        -11   -1    0    0    0    0  0.00000000000E+00  0.00000000000E+00  0.45593999997E+02  0.45594000000E+02  0.51100000000E-03 0.  1.
         11   -1    0    0    0    0 -0.00000000000E+00 -0.00000000000E+00 -0.45593999997E+02  0.45594000000E+02  0.51100000000E-03 0. -1.
    9900012    2    1    2    0    0 -0.90124317608E+01 -0.41277347846E+02 -0.99287415035E+01  0.47787270982E+02  0.19999999716E+02 0.  0.
        -12    1    1    2    0    0  0.90124317608E+01  0.41277347846E+02  0.99287415035E+01  0.43400729018E+02  0.00000000000E+00 0.  1.
         11    1    3    3    0    0 -0.11542259747E+02 -0.29709181313E+02 -0.13876947937E+01  0.31902741441E+02  0.51100000000E-03 0. -1.
        -11    1    3    3    0    0  0.32612456668E+01 -0.41438411879E+01 -0.60357730483E+01  0.80148424589E+01  0.51100000000E-03 0.  1.
         12    1    3    3    0    0 -0.73141768051E+00 -0.74243253448E+01 -0.25052736615E+01  0.78696870820E+01  0.00000000000E+00 0. -1.
</event>
<event>
 7    1  0.2442667E-009  0.4778726E+02  0.7816164E-02  0.1312668E+00
        -11   -1    0    0    0    0  0.00000000000E+00  0.00000000000E+00  0.45593999997E+02  0.45594000000E+02  0.51100000000E-03 0.  1.
         11   -1    0    0    0    0 -0.00000000000E+00 -0.00000000000E+00 -0.45593999997E+02  0.45594000000E+02  0.51100000000E-03 0. -1.
    9900012    2    1    2    0    0  0.25334913545E+02  0.20457723465E+02 -0.28692304863E+02  0.47787255167E+02  0.19999927607E+02 0.  0.
        -12    1    1    2    0    0 -0.25334913545E+02 -0.20457723465E+02  0.28692304863E+02  0.43400744833E+02  0.00000000000E+00 0.  1.
         11    1    3    3    0    0  0.22512853247E+02  0.14616984839E+02 -0.20520222941E+02  0.33787044217E+02  0.51100000000E-03 0. -1.
        -11    1    3    3    0    0 -0.72552203072E+00 -0.26303299102E+00  0.16979974860E+01  0.18651445775E+01  0.51100000000E-03 0.  1.
        -12    1    3    3    0    0  0.35475823292E+01  0.61037716170E+01 -0.98700794086E+01  0.12135066373E+02  0.00000000000E+00 0.  1.
</event>
<event>
 7    1  0.2442667E-009  0.4778727E+02  0.7816164E-02  0.1312668E+00
        -11   -1    0    0    0    0  0.00000000000E+00  0.00000000000E+00  0.45593999997E+02  0.45594000000E+02  0.51100000000E-03 0.  1.
         11   -1    0    0    0    0 -0.00000000000E+00 -0.00000000000E+00 -0.45593999997E+02  0.45594000000E+02  0.51100000000E-03 0. -1.
    9900012    2    1    2    0    0 -0.24697805440E+02 -0.18867205783E+02 -0.30293072819E+02  0.47787270646E+02  0.19999998185E+02 0.  0.
        -12    1    1    2    0    0  0.24697805440E+02  0.18867205783E+02  0.30293072819E+02  0.43400729354E+02  0.00000000000E+00 0.  1.
         11    1    3    3    0    0 -0.22280121886E+02 -0.11901201110E+02 -0.16749110542E+02  0.30308004278E+02  0.51100000000E-03 0. -1.
        -11    1    3    3    0    0 -0.12292557928E+01 -0.49223932670E+01 -0.14155621249E+02  0.15037374721E+02  0.51100000000E-03 0.  1.
        -12    1    3    3    0    0 -0.11884277614E+01 -0.20436114057E+01  0.61165897213E+00  0.24418916478E+01  0.00000000000E+00 0.  1.
</event>
<event>
 7    1  0.2442667E-009  0.4778728E+02  0.7816164E-02  0.1312668E+00
        -11   -1    0    0    0    0  0.00000000000E+00  0.00000000000E+00  0.45593999997E+02  0.45594000000E+02  0.51100000000E-03 0.  1.
         11   -1    0    0    0    0 -0.00000000000E+00 -0.00000000000E+00 -0.45593999997E+02  0.45594000000E+02  0.51100000000E-03 0. -1.
    9900012    2    1    2    0    0  0.12420994848E+02 -0.29070192603E+01 -0.41483621814E+02  0.47787277048E+02  0.20000027371E+02 0.  0.
        -12    1    1    2    0    0 -0.12420994848E+02  0.29070192603E+01  0.41483621814E+02  0.43400722952E+02  0.00000000000E+00 0.  1.
         11    1    3    3    0    0  0.10687293765E+01  0.27189068173E+01 -0.24716823696E+02  0.24888873229E+02  0.51100000000E-03 0. -1.
        -11    1    3    3    0    0  0.95973724566E+01 -0.59024041734E+01 -0.76705760286E+01  0.13630321712E+02  0.51100000000E-03 0.  1.
        -12    1    3    3    0    0  0.17548930148E+01  0.27647809582E+00 -0.90962220897E+01  0.92680821067E+01  0.00000000000E+00 0.  1.
</event>
<event>
 7    1  0.2442667E-009  0.4778727E+02  0.7816164E-02  0.1312668E+00
        -11   -1    0    0    0    0  0.00000000000E+00  0.00000000000E+00  0.45593999997E+02  0.45594000000E+02  0.51100000000E-03 0.  1.
         11   -1    0    0    0    0 -0.00000000000E+00 -0.00000000000E+00 -0.45593999997E+02  0.45594000000E+02  0.51100000000E-03 0. -1.
    9900012    2    1    2    0    0 -0.27083357149E+02 -0.15000892945E+02 -0.30415263903E+02  0.47787270722E+02  0.19999998529E+02 0.  0.
        -12    1    1    2    0    0  0.27083357149E+02  0.15000892945E+02  0.30415263903E+02  0.43400729278E+02  0.00000000000E+00 0.  1.
         11    1    3    3    0    0 -0.86518969143E+01  0.37595427256E+01 -0.87209164373E+01  0.12846939927E+02  0.51100000000E-03 0.  1.
        -11    1    3    3    0    0 -0.15810426105E+02 -0.14163526920E+02 -0.20512278021E+02  0.29518276005E+02  0.51100000000E-03 0. -1.
        -12    1    3    3    0    0 -0.26210341289E+01 -0.45969087512E+01 -0.11820694443E+01  0.54220547897E+01  0.00000000000E+00 0.  1.
</event>
<event>
 7    1  0.2442667E-009  0.4778727E+02  0.7816164E-02  0.1312668E+00
        -11   -1    0    0    0    0  0.00000000000E+00  0.00000000000E+00  0.45593999997E+02  0.45594000000E+02  0.51100000000E-03 0.  1.
         11   -1    0    0    0    0 -0.00000000000E+00 -0.00000000000E+00 -0.45593999997E+02  0.45594000000E+02  0.51100000000E-03 0. -1.
    9900012    2    1    2    0    0 -0.24603384418E+02 -0.27756480971E+02 -0.22536077225E+02  0.47787268009E+02  0.19999986159E+02 0.  0.
        -12    1    1    2    0    0  0.24603384418E+02  0.27756480971E+02  0.22536077225E+02  0.43400731991E+02  0.00000000000E+00 0.  1.
         11    1    3    3    0    0 -0.15085156586E+01 -0.14443054052E+01  0.16644488277E+01  0.26705856581E+01  0.51100000000E-03 0. -1.
        -11    1    3    3    0    0 -0.14630483230E+02 -0.78355058550E+01 -0.54595764844E+01  0.17471495849E+02  0.51100000000E-03 0.  1.
        -12    1    3    3    0    0 -0.84643855290E+01 -0.18476669711E+02 -0.18740949568E+02  0.27645186501E+02  0.00000000000E+00 0.  1.
</event>
<event>
 7    1  0.2442667E-009  0.4778727E+02  0.7816164E-02  0.1312668E+00
        -11   -1    0    0    0    0  0.00000000000E+00  0.00000000000E+00  0.45593999997E+02  0.45594000000E+02  0.51100000000E-03 0.  1.
         11   -1    0    0    0    0 -0.00000000000E+00 -0.00000000000E+00 -0.45593999997E+02  0.45594000000E+02  0.51100000000E-03 0. -1.
    9900012    2    1    2    0    0  0.75484063086E+01 -0.19443027694E+02 -0.38060661728E+02  0.47787265733E+02  0.19999975784E+02 0.  0.
        -12    1    1    2    0    0 -0.75484063086E+01  0.19443027694E+02  0.38060661728E+02  0.43400734267E+02  0.00000000000E+00 0.  1.
         11    1    3    3    0    0  0.82292738764E+01 -0.56738602207E+01 -0.28872846253E+02  0.30554130479E+02  0.51100000000E-03 0. -1.
        -11    1    3    3    0    0  0.61715723914E+00 -0.99102840762E+01 -0.41653482531E+01  0.10767763921E+02  0.51100000000E-03 0.  1.
         12    1    3    3    0    0 -0.12980248070E+01 -0.38588833971E+01 -0.50224672221E+01  0.64653713326E+01  0.00000000000E+00 0. -1.
</event>
<event>
 7    1  0.2442667E-009  0.4778727E+02  0.7816164E-02  0.1312668E+00
        -11   -1    0    0    0    0  0.00000000000E+00  0.00000000000E+00  0.45593999997E+02  0.45594000000E+02  0.51100000000E-03 0. -1.
         11   -1    0    0    0    0 -0.00000000000E+00 -0.00000000000E+00 -0.45593999997E+02  0.45594000000E+02  0.51100000000E-03 0.  1.
    9900012    2    1    2    0    0 -0.12865666755E+02  0.66648447991E+01  0.40910605747E+02  0.47787271897E+02  0.20000003888E+02 0.  0.
        -12    1    1    2    0    0  0.12865666755E+02 -0.66648447991E+01 -0.40910605747E+02  0.43400728103E+02  0.00000000000E+00 0.  1.
         11    1    3    3    0    0  0.15647040563E+01  0.26055868212E+01  0.15296860429E+02  0.15595875119E+02  0.51100000000E-03 0. -1.
        -11    1    3    3    0    0 -0.76355497310E+01  0.26815497789E+01  0.31535126555E+01  0.86854459437E+01  0.51100000000E-03 0.  1.
        -12    1    3    3    0    0 -0.67948210802E+01  0.13777081991E+01  0.22460232662E+02  0.23505950835E+02  0.00000000000E+00 0.  1.
</event>
<event>
 7    1  0.2442667E-009  0.4778728E+02  0.7816164E-02  0.1312668E+00
        -11   -1    0    0    0    0  0.00000000000E+00  0.00000000000E+00  0.45593999997E+02  0.45594000000E+02  0.51100000000E-03 0. -1.
         11   -1    0    0    0    0 -0.00000000000E+00 -0.00000000000E+00 -0.45593999997E+02  0.45594000000E+02  0.51100000000E-03 0.  1.
    9900012    2    1    2    0    0  0.29430200555E+01  0.43300816916E+02  0.28332731522E-01  0.47787275174E+02  0.20000018830E+02 0.  0.
        -12    1    1    2    0    0 -0.29430200555E+01 -0.43300816916E+02 -0.28332731522E-01  0.43400724826E+02  0.00000000000E+00 0.  1.
         11    1    3    3    0    0 -0.24134174881E+01  0.81401598555E+01  0.54195410024E+01  0.10072646692E+02  0.51100000000E-03 0. -1.
        -11    1    3    3    0    0  0.23723585105E+01  0.27880289820E+02 -0.85165851739E+01  0.29248433610E+02  0.51100000000E-03 0.  1.
         12    1    3    3    0    0  0.29840790330E+01  0.72803672401E+01  0.31253769030E+01  0.84661948720E+01  0.00000000000E+00 0. -1.
</event>
<event>
 7    1  0.2442667E-009  0.4778728E+02  0.7816164E-02  0.1312668E+00
        -11   -1    0    0    0    0  0.00000000000E+00  0.00000000000E+00  0.45593999997E+02  0.45594000000E+02  0.51100000000E-03 0.  1.
         11   -1    0    0    0    0 -0.00000000000E+00 -0.00000000000E+00 -0.45593999997E+02  0.45594000000E+02  0.51100000000E-03 0. -1.
    9900012    2    1    2    0    0  0.15321099332E+01 -0.15973925631E+02 -0.40325042077E+02  0.47787277892E+02  0.20000031223E+02 0.  0.
        -12    1    1    2    0    0 -0.15321099332E+01  0.15973925631E+02  0.40325042077E+02  0.43400722108E+02  0.00000000000E+00 0.  1.
         11    1    3    3    0    0 -0.10519842229E+01 -0.43762569531E+01 -0.54851931536E+01  0.70954661523E+01  0.51100000000E-03 0. -1.
        -11    1    3    3    0    0  0.49632149665E+01 -0.14561293585E+02 -0.33123764935E+02  0.36521891756E+02  0.51100000000E-03 0.  1.
        -12    1    3    3    0    0 -0.23791208105E+01  0.29636249070E+01 -0.17160839884E+01  0.41699199843E+01  0.00000000000E+00 0.  1.
</event>
<event>
 7    1  0.2442667E-009  0.4778728E+02  0.7816164E-02  0.1312668E+00
        -11   -1    0    0    0    0  0.00000000000E+00  0.00000000000E+00  0.45593999997E+02  0.45594000000E+02  0.51100000000E-03 0.  1.
         11   -1    0    0    0    0 -0.00000000000E+00 -0.00000000000E+00 -0.45593999997E+02  0.45594000000E+02  0.51100000000E-03 0. -1.
    9900012    2    1    2    0    0 -0.57573607414E+01 -0.29641085334E+02 -0.31175012782E+02  0.47787279218E+02  0.20000037265E+02 0.  0.
        -12    1    1    2    0    0  0.57573607414E+01  0.29641085334E+02  0.31175012782E+02  0.43400720782E+02  0.00000000000E+00 0.  1.
         11    1    3    3    0    0 -0.51088770117E+01 -0.10822107961E+02 -0.17637371085E+01  0.12096669537E+02  0.51100000000E-03 0. -1.
        -11    1    3    3    0    0  0.32038632676E+01 -0.56553076781E+01 -0.91641643719E+01  0.11235174839E+02  0.51100000000E-03 0.  1.
         12    1    3    3    0    0 -0.38523469973E+01 -0.13163669694E+02 -0.20247111302E+02  0.24455434841E+02  0.00000000000E+00 0. -1.
</event>
<event>
 7    1  0.2442667E-009  0.4778727E+02  0.7816164E-02  0.1312668E+00
        -11   -1    0    0    0    0  0.00000000000E+00  0.00000000000E+00  0.45593999997E+02  0.45594000000E+02  0.51100000000E-03 0.  1.
         11   -1    0    0    0    0 -0.00000000000E+00 -0.00000000000E+00 -0.45593999997E+02  0.45594000000E+02  0.51100000000E-03 0. -1.
    9900012    2    1    2    0    0 -0.34552355857E+02  0.20255213422E+02 -0.16717784327E+02  0.47787270987E+02  0.19999999739E+02 0.  0.
        -12    1    1    2    0    0  0.34552355857E+02 -0.20255213422E+02  0.16717784327E+02  0.43400729013E+02  0.00000000000E+00 0.  1.
         11    1    3    3    0    0 -0.16874180320E+02  0.89962336313E+01 -0.13796209927E+02  0.23579770772E+02  0.51100000000E-03 0. -1.
        -11    1    3    3    0    0 -0.83106455850E+01 -0.77076017119E+00  0.11531405617E+01  0.84255940263E+01  0.51100000000E-03 0.  1.
         12    1    3    3    0    0 -0.93675299515E+01  0.12029739962E+02 -0.40747149615E+01  0.15781906189E+02  0.00000000000E+00 0. -1.
</event>
<event>
 7    1  0.2442667E-009  0.4778727E+02  0.7816164E-02  0.1312668E+00
        -11   -1    0    0    0    0  0.00000000000E+00  0.00000000000E+00  0.45593999997E+02  0.45594000000E+02  0.51100000000E-03 0. -1.
         11   -1    0    0    0    0 -0.00000000000E+00 -0.00000000000E+00 -0.45593999997E+02  0.45594000000E+02  0.51100000000E-03 0.  1.
    9900012    2    1    2    0    0  0.12211608401E+02 -0.29576219875E+02  0.29321446048E+02  0.47787270051E+02  0.19999995470E+02 0.  0.
        -12    1    1    2    0    0 -0.12211608401E+02  0.29576219875E+02 -0.29321446048E+02  0.43400729949E+02  0.00000000000E+00 0.  1.
         11    1    3    3    0    0  0.72014386502E+01 -0.19852244542E+02  0.11736077884E+02  0.24160046696E+02  0.51100000000E-03 0. -1.
        -11    1    3    3    0    0 -0.31483315340E+01 -0.24442459507E+00  0.47682133036E+01  0.57190552716E+01  0.51100000000E-03 0.  1.
        -12    1    3    3    0    0  0.81585012843E+01 -0.94795507374E+01  0.12817154860E+02  0.17908168083E+02  0.00000000000E+00 0.  1.
</event>
<event>
 7    1  0.2442667E-009  0.4778727E+02  0.7816164E-02  0.1312668E+00
        -11   -1    0    0    0    0  0.00000000000E+00  0.00000000000E+00  0.45593999997E+02  0.45594000000E+02  0.51100000000E-03 0.  1.
         11   -1    0    0    0    0 -0.00000000000E+00 -0.00000000000E+00 -0.45593999997E+02  0.45594000000E+02  0.51100000000E-03 0. -1.
    9900012    2    1    2    0    0  0.79924681750E+01 -0.22817145190E+02 -0.36043332023E+02  0.47787269068E+02  0.19999990988E+02 0.  0.
        -12    1    1    2    0    0 -0.79924681750E+01  0.22817145190E+02  0.36043332023E+02  0.43400730932E+02  0.00000000000E+00 0.  1.
         11    1    3    3    0    0  0.30432304616E+01 -0.51085113407E+01  0.45108292693E+00  0.59633560877E+01  0.51100000000E-03 0. -1.
        -11    1    3    3    0    0  0.15062590056E+01 -0.64453444165E+01 -0.22898780097E+02  0.23836220569E+02  0.51100000000E-03 0.  1.
         12    1    3    3    0    0  0.34429787079E+01 -0.11263289433E+02 -0.13595634853E+02  0.17987692411E+02  0.00000000000E+00 0. -1.
</event>
<event>
 7    1  0.2442667E-009  0.4778727E+02  0.7816164E-02  0.1312668E+00
        -11   -1    0    0    0    0  0.00000000000E+00  0.00000000000E+00  0.45593999997E+02  0.45594000000E+02  0.51100000000E-03 0. -1.
         11   -1    0    0    0    0 -0.00000000000E+00 -0.00000000000E+00 -0.45593999997E+02  0.45594000000E+02  0.51100000000E-03 0.  1.
    9900012    2    1    2    0    0  0.37869888620E+01 -0.17313569600E+02  0.39617198271E+02  0.47787269871E+02  0.19999994649E+02 0.  0.
        -12    1    1    2    0    0 -0.37869888620E+01  0.17313569600E+02 -0.39617198271E+02  0.43400730129E+02  0.00000000000E+00 0.  1.
         11    1    3    3    0    0  0.67976329027E+01 -0.13840305794E+02  0.31284105002E+02  0.34877745104E+02  0.51100000000E-03 0. -1.
        -11    1    3    3    0    0 -0.71310269054E+00 -0.42907945450E+01  0.12997109532E+00  0.43515889077E+01  0.51100000000E-03 0.  1.
         12    1    3    3    0    0 -0.22975413502E+01  0.81753073916E+00  0.82031221737E+01  0.85579358587E+01  0.00000000000E+00 0. -1.
</event>
<event>
 7    1  0.2618114E-009  0.4778727E+02  0.7816164E-02  0.1312668E+00
        -11   -1    0    0    0    0  0.00000000000E+00  0.00000000000E+00  0.45593999997E+02  0.45594000000E+02  0.51100000000E-03 0. -1.
         11   -1    0    0    0    0 -0.00000000000E+00 -0.00000000000E+00 -0.45593999997E+02  0.45594000000E+02  0.51100000000E-03 0.  1.
    9900012    2    1    2    0    0  0.42122832343E+02  0.91496743688E+01  0.50570559255E+01  0.47787270049E+02  0.19999995462E+02 0.  0.
        -12    1    1    2    0    0 -0.42122832343E+02 -0.91496743688E+01 -0.50570559255E+01  0.43400729951E+02  0.00000000000E+00 0.  1.
         11    1    3    3    0    0  0.25489502970E+02  0.37409238010E+01  0.16577042912E+01  0.25815833442E+02  0.51100000000E-03 0. -1.
        -11    1    3    3    0    0  0.32164119910E+01  0.59123823134E+01 -0.26649842006E+01  0.72390408043E+01  0.51100000000E-03 0.  1.
        -12    1    3    3    0    0  0.13416917382E+02 -0.50363174563E+00  0.60643358349E+01  0.14732395803E+02  0.00000000000E+00 0.  1.
</event>
<event>
 7    1  0.2442667E-009  0.4778727E+02  0.7816164E-02  0.1312668E+00
        -11   -1    0    0    0    0  0.00000000000E+00  0.00000000000E+00  0.45593999997E+02  0.45594000000E+02  0.51100000000E-03 0.  1.
         11   -1    0    0    0    0 -0.00000000000E+00 -0.00000000000E+00 -0.45593999997E+02  0.45594000000E+02  0.51100000000E-03 0. -1.
    9900012    2    1    2    0    0 -0.14517127999E+02  0.33689237429E+01 -0.40761833694E+02  0.47787265690E+02  0.19999975588E+02 0.  0.
        -12    1    1    2    0    0  0.14517127999E+02 -0.33689237429E+01  0.40761833694E+02  0.43400734310E+02  0.00000000000E+00 0.  1.
         11    1    3    3    0    0 -0.42621762927E+01 -0.52444115456E+01 -0.23030642324E+02  0.24001676719E+02  0.51100000000E-03 0. -1.
        -11    1    3    3    0    0  0.13518623934E+01  0.20883788357E+01 -0.21315359905E+01  0.32760195409E+01  0.51100000000E-03 0.  1.
         12    1    3    3    0    0 -0.11606814100E+02  0.65249564528E+01 -0.15599655379E+02  0.20509569430E+02  0.00000000000E+00 0. -1.
</event>
<event>
 7    1  0.2442667E-009  0.4778730E+02  0.7816164E-02  0.1312668E+00
        -11   -1    0    0    0    0  0.00000000000E+00  0.00000000000E+00  0.45593999997E+02  0.45594000000E+02  0.51100000000E-03 0.  1.
         11   -1    0    0    0    0 -0.00000000000E+00 -0.00000000000E+00 -0.45593999997E+02  0.45594000000E+02  0.51100000000E-03 0. -1.
    9900012    2    1    2    0    0 -0.77848415107E+01  0.29614837974E+02 -0.30756767921E+02  0.47787295414E+02  0.20000111111E+02 0.  0.
        -12    1    1    2    0    0  0.77848415107E+01 -0.29614837974E+02  0.30756767921E+02  0.43400704586E+02  0.00000000000E+00 0.  1.
         11    1    3    3    0    0 -0.15963378358E+00  0.13969190477E+02 -0.82760867316E+01  0.16237529904E+02  0.51100000000E-03 0. -1.
        -11    1    3    3    0    0 -0.10424688899E+02  0.58624379092E+01 -0.12212585160E+02  0.17093552979E+02  0.51100000000E-03 0.  1.
        -12    1    3    3    0    0  0.27994811722E+01  0.97832095878E+01 -0.10268096030E+02  0.14456212531E+02  0.00000000000E+00 0.  1.
</event>
<event>
 7    1  0.2442667E-009  0.4778727E+02  0.7816164E-02  0.1312668E+00
        -11   -1    0    0    0    0  0.00000000000E+00  0.00000000000E+00  0.45593999997E+02  0.45594000000E+02  0.51100000000E-03 0.  1.
         11   -1    0    0    0    0 -0.00000000000E+00 -0.00000000000E+00 -0.45593999997E+02  0.45594000000E+02  0.51100000000E-03 0. -1.
    9900012    2    1    2    0    0 -0.51469025640E+01  0.38952456975E+02 -0.18434719990E+02  0.47787269458E+02  0.19999992769E+02 0.  0.
        -12    1    1    2    0    0  0.51469025640E+01 -0.38952456975E+02  0.18434719990E+02  0.43400730542E+02  0.00000000000E+00 0.  1.
         11    1    3    3    0    0  0.50340592168E+01  0.12533534681E+02  0.78431201082E+00  0.13529463751E+02  0.51100000000E-03 0. -1.
        -11    1    3    3    0    0 -0.37210041288E+01  0.91723016339E+01 -0.76350443308E+01  0.12500835619E+02  0.51100000000E-03 0.  1.
         12    1    3    3    0    0 -0.64599576519E+01  0.17246620661E+02 -0.11583987671E+02  0.21756970088E+02  0.00000000000E+00 0. -1.
</event>
<event>
 7    1  0.2442667E-009  0.4778727E+02  0.7816164E-02  0.1312668E+00
        -11   -1    0    0    0    0  0.00000000000E+00  0.00000000000E+00  0.45593999997E+02  0.45594000000E+02  0.51100000000E-03 0.  1.
         11   -1    0    0    0    0 -0.00000000000E+00 -0.00000000000E+00 -0.45593999997E+02  0.45594000000E+02  0.51100000000E-03 0. -1.
    9900012    2    1    2    0    0 -0.18292348422E+02  0.20175524308E+01 -0.39305757489E+02  0.47787273043E+02  0.20000009113E+02 0.  0.
        -12    1    1    2    0    0  0.18292348422E+02 -0.20175524308E+01  0.39305757489E+02  0.43400726957E+02  0.00000000000E+00 0.  1.
         11    1    3    3    0    0 -0.20669103393E+01  0.11508050416E+01 -0.10984348391E+02  0.11236208454E+02  0.51100000000E-03 0. -1.
        -11    1    3    3    0    0 -0.10718702205E+02  0.84817846446E+01 -0.17826017072E+02  0.22463261843E+02  0.51100000000E-03 0.  1.
        -12    1    3    3    0    0 -0.55067358777E+01 -0.76150372554E+01 -0.10495392026E+02  0.14087802746E+02  0.00000000000E+00 0.  1.
</event>
<event>
 7    1  0.2442667E-009  0.4778727E+02  0.7816164E-02  0.1312668E+00
        -11   -1    0    0    0    0  0.00000000000E+00  0.00000000000E+00  0.45593999997E+02  0.45594000000E+02  0.51100000000E-03 0. -1.
         11   -1    0    0    0    0 -0.00000000000E+00 -0.00000000000E+00 -0.45593999997E+02  0.45594000000E+02  0.51100000000E-03 0.  1.
    9900012    2    1    2    0    0 -0.36108612341E+02  0.21065243156E+02  0.11663910885E+02  0.47787272223E+02  0.20000005375E+02 0.  0.
        -12    1    1    2    0    0  0.36108612341E+02 -0.21065243156E+02 -0.11663910885E+02  0.43400727777E+02  0.00000000000E+00 0.  1.
         11    1    3    3    0    0 -0.14472761607E+02  0.36778351618E+01  0.12213398176E+02  0.19291303618E+02  0.51100000000E-03 0. -1.
        -11    1    3    3    0    0 -0.18244403380E+02  0.11153846664E+02 -0.78523812482E-01  0.21383935942E+02  0.51100000000E-03 0.  1.
         12    1    3    3    0    0 -0.33914473541E+01  0.62335613303E+01 -0.47096347878E+00  0.71120326639E+01  0.00000000000E+00 0. -1.
</event>
<event>
 7    1  0.2442667E-009  0.4778727E+02  0.7816164E-02  0.1312668E+00
        -11   -1    0    0    0    0  0.00000000000E+00  0.00000000000E+00  0.45593999997E+02  0.45594000000E+02  0.51100000000E-03 0.  1.
         11   -1    0    0    0    0 -0.00000000000E+00 -0.00000000000E+00 -0.45593999997E+02  0.45594000000E+02  0.51100000000E-03 0. -1.
    9900012    2    1    2    0    0  0.20372376156E+02  0.19837009510E+02 -0.32788454403E+02  0.47787269607E+02  0.19999993444E+02 0.  0.
        -12    1    1    2    0    0 -0.20372376156E+02 -0.19837009510E+02  0.32788454403E+02  0.43400730393E+02  0.00000000000E+00 0.  1.
         11    1    3    3    0    0  0.16761661380E+02  0.16912237373E+02 -0.19779193773E+02  0.30954701933E+02  0.51100000000E-03 0. -1.
        -11    1    3    3    0    0  0.25689211207E+01  0.41184909936E+01 -0.13115828525E+01  0.50280785225E+01  0.51100000000E-03 0.  1.
         12    1    3    3    0    0  0.10417936548E+01 -0.11937188565E+01 -0.11697677778E+02  0.11804489151E+02  0.00000000000E+00 0. -1.
</event>
<event>
 7    1  0.2442667E-009  0.4778727E+02  0.7816164E-02  0.1312668E+00
        -11   -1    0    0    0    0  0.00000000000E+00  0.00000000000E+00  0.45593999997E+02  0.45594000000E+02  0.51100000000E-03 0.  1.
         11   -1    0    0    0    0 -0.00000000000E+00 -0.00000000000E+00 -0.45593999997E+02  0.45594000000E+02  0.51100000000E-03 0. -1.
    9900012    2    1    2    0    0  0.28548214993E+02 -0.32096026172E+02 -0.62022464465E+01  0.47787270325E+02  0.19999996721E+02 0.  0.
        -12    1    1    2    0    0 -0.28548214993E+02  0.32096026172E+02  0.62022464465E+01  0.43400729675E+02  0.00000000000E+00 0.  1.
         11    1    3    3    0    0  0.88890499587E+01 -0.22553100995E+02 -0.59669111685E+01  0.24965207846E+02  0.51100000000E-03 0. -1.
        -11    1    3    3    0    0  0.55748058384E+01 -0.57762793895E+00  0.20560444928E+01  0.59698771670E+01  0.51100000000E-03 0.  1.
         12    1    3    3    0    0  0.14084359196E+02 -0.89652972380E+01 -0.22913797707E+01  0.16852185312E+02  0.00000000000E+00 0. -1.
</event>
<event>
 7    1  0.2442667E-009  0.4778728E+02  0.7816164E-02  0.1312668E+00
        -11   -1    0    0    0    0  0.00000000000E+00  0.00000000000E+00  0.45593999997E+02  0.45594000000E+02  0.51100000000E-03 0.  1.
         11   -1    0    0    0    0 -0.00000000000E+00 -0.00000000000E+00 -0.45593999997E+02  0.45594000000E+02  0.51100000000E-03 0. -1.
    9900012    2    1    2    0    0  0.34841041417E+01  0.49568162252E+01 -0.42975732507E+02  0.47787278886E+02  0.20000035751E+02 0.  0.
        -12    1    1    2    0    0 -0.34841041417E+01 -0.49568162252E+01  0.42975732507E+02  0.43400721114E+02  0.00000000000E+00 0.  1.
         11    1    3    3    0    0 -0.11164190452E+01  0.97908201431E+01 -0.18579602533E+02  0.21031124105E+02  0.51100000000E-03 0. -1.
        -11    1    3    3    0    0  0.16251616974E+01  0.45472220325E+00 -0.74801560833E-01  0.16892360283E+01  0.51100000000E-03 0.  1.
         12    1    3    3    0    0  0.29753614895E+01 -0.52887261211E+01 -0.24321328413E+02  0.25066918752E+02  0.00000000000E+00 0. -1.
</event>
<event>
 7    1  0.2442667E-009  0.4778727E+02  0.7816164E-02  0.1312668E+00
        -11   -1    0    0    0    0  0.00000000000E+00  0.00000000000E+00  0.45593999997E+02  0.45594000000E+02  0.51100000000E-03 0. -1.
         11   -1    0    0    0    0 -0.00000000000E+00 -0.00000000000E+00 -0.45593999997E+02  0.45594000000E+02  0.51100000000E-03 0.  1.
    9900012    2    1    2    0    0 -0.22581731030E+02 -0.52969369628E+01  0.36682848703E+02  0.47787268365E+02  0.19999987783E+02 0.  0.
        -12    1    1    2    0    0  0.22581731030E+02  0.52969369628E+01 -0.36682848703E+02  0.43400731635E+02  0.00000000000E+00 0.  1.
         11    1    3    3    0    0 -0.13191816136E+02 -0.67332630932E+01  0.22384422031E+02  0.26840700341E+02  0.51100000000E-03 0. -1.
        -11    1    3    3    0    0 -0.22327344114E+01 -0.51134418697E+01  0.58135097834E+01  0.80578711189E+01  0.51100000000E-03 0.  1.
         12    1    3    3    0    0 -0.71571804819E+01  0.65497680001E+01  0.84849168891E+01  0.12888696905E+02  0.00000000000E+00 0. -1.
</event>
<event>
 7    1  0.2442667E-009  0.4778727E+02  0.7816164E-02  0.1312668E+00
        -11   -1    0    0    0    0  0.00000000000E+00  0.00000000000E+00  0.45593999997E+02  0.45594000000E+02  0.51100000000E-03 0.  1.
         11   -1    0    0    0    0 -0.00000000000E+00 -0.00000000000E+00 -0.45593999997E+02  0.45594000000E+02  0.51100000000E-03 0. -1.
    9900012    2    1    2    0    0  0.12894602148E+02  0.40143176475E+02 -0.10289691896E+02  0.47787272571E+02  0.20000006959E+02 0.  0.
        -12    1    1    2    0    0 -0.12894602148E+02 -0.40143176475E+02  0.10289691896E+02  0.43400727429E+02  0.00000000000E+00 0.  1.
         11    1    3    3    0    0  0.37362310159E+01  0.23348439453E+02 -0.36857465281E+01  0.23931021182E+02  0.51100000000E-03 0. -1.
        -11    1    3    3    0    0  0.40715477096E+01 -0.90114577371E+00 -0.28881126365E+01  0.50725495877E+01  0.51100000000E-03 0.  1.
        -12    1    3    3    0    0  0.50868234230E+01  0.17695882796E+02 -0.37158327309E+01  0.18783701801E+02  0.00000000000E+00 0.  1.
</event>
<event>
 7    1  0.2442667E-009  0.4778727E+02  0.7816164E-02  0.1312668E+00
        -11   -1    0    0    0    0  0.00000000000E+00  0.00000000000E+00  0.45593999997E+02  0.45594000000E+02  0.51100000000E-03 0. -1.
         11   -1    0    0    0    0 -0.00000000000E+00 -0.00000000000E+00 -0.45593999997E+02  0.45594000000E+02  0.51100000000E-03 0.  1.
    9900012    2    1    2    0    0  0.83781912903E+01  0.34911106855E+02  0.24385318259E+02  0.47787271691E+02  0.20000002949E+02 0.  0.
        -12    1    1    2    0    0 -0.83781912903E+01 -0.34911106855E+02 -0.24385318259E+02  0.43400728309E+02  0.00000000000E+00 0.  1.
         11    1    3    3    0    0  0.60388418639E+00  0.72556114661E+01  0.43865453036E+01  0.85000208129E+01  0.51100000000E-03 0. -1.
        -11    1    3    3    0    0 -0.25769769534E+01  0.13375300365E+02  0.14605183334E+01  0.13699364369E+02  0.51100000000E-03 0.  1.
        -12    1    3    3    0    0  0.10351284057E+02  0.14280195024E+02  0.18538254622E+02  0.25587886509E+02  0.00000000000E+00 0.  1.
</event>
<event>
 7    1  0.2442667E-009  0.4778726E+02  0.7816164E-02  0.1312668E+00
        -11   -1    0    0    0    0  0.00000000000E+00  0.00000000000E+00  0.45593999997E+02  0.45594000000E+02  0.51100000000E-03 0.  1.
         11   -1    0    0    0    0 -0.00000000000E+00 -0.00000000000E+00 -0.45593999997E+02  0.45594000000E+02  0.51100000000E-03 0. -1.
    9900012    2    1    2    0    0 -0.54946459987E+01 -0.99284725434E+01 -0.41891028299E+02  0.47787263213E+02  0.19999964293E+02 0.  0.
        -12    1    1    2    0    0  0.54946459987E+01  0.99284725434E+01  0.41891028299E+02  0.43400736787E+02  0.00000000000E+00 0.  1.
         11    1    3    3    0    0 -0.78502282762E+01 -0.10177647145E+02 -0.26383851815E+02  0.29348223494E+02  0.51100000000E-03 0. -1.
        -11    1    3    3    0    0  0.45953003527E+01 -0.24991379402E+01 -0.45851876175E+01  0.69560348995E+01  0.51100000000E-03 0.  1.
         12    1    3    3    0    0 -0.22397180751E+01  0.27483125416E+01 -0.10921988867E+02  0.11483004819E+02  0.00000000000E+00 0. -1.
</event>
<event>
 7    1  0.2442667E-009  0.4778727E+02  0.7816164E-02  0.1312668E+00
        -11   -1    0    0    0    0  0.00000000000E+00  0.00000000000E+00  0.45593999997E+02  0.45594000000E+02  0.51100000000E-03 0. -1.
         11   -1    0    0    0    0 -0.00000000000E+00 -0.00000000000E+00 -0.45593999997E+02  0.45594000000E+02  0.51100000000E-03 0.  1.
    9900012    2    1    2    0    0 -0.36454596310E+01 -0.40049206075E+02  0.16321620348E+02  0.47787267588E+02  0.19999984240E+02 0.  0.
        -12    1    1    2    0    0  0.36454596310E+01  0.40049206075E+02 -0.16321620348E+02  0.43400732412E+02  0.00000000000E+00 0.  1.
         11    1    3    3    0    0  0.26114343232E+01 -0.29816154121E+02  0.70137588123E+01  0.30741103570E+02  0.51100000000E-03 0. -1.
        -11    1    3    3    0    0  0.14597986689E+01 -0.80826602314E+00 -0.75243147527E-01  0.16703197030E+01  0.51100000000E-03 0.  1.
         12    1    3    3    0    0 -0.77166926231E+01 -0.94247859305E+01  0.93831046836E+01  0.15375844314E+02  0.00000000000E+00 0. -1.
</event>
<event>
 7    1  0.2442667E-009  0.4778727E+02  0.7816164E-02  0.1312668E+00
        -11   -1    0    0    0    0  0.00000000000E+00  0.00000000000E+00  0.45593999997E+02  0.45594000000E+02  0.51100000000E-03 0.  1.
         11   -1    0    0    0    0 -0.00000000000E+00 -0.00000000000E+00 -0.45593999997E+02  0.45594000000E+02  0.51100000000E-03 0. -1.
    9900012    2    1    2    0    0 -0.19839133314E+02  0.38510839181E+02 -0.26357994422E+01  0.47787269778E+02  0.19999994227E+02 0.  0.
        -12    1    1    2    0    0  0.19839133314E+02 -0.38510839181E+02  0.26357994422E+01  0.43400730222E+02  0.00000000000E+00 0.  1.
         11    1    3    3    0    0 -0.82508315611E+01  0.16795253390E+02 -0.54074855954E+01  0.19478132831E+02  0.51100000000E-03 0. -1.
        -11    1    3    3    0    0  0.19983268616E+01  0.80842458263E+01  0.35377202718E+01  0.90478619468E+01  0.51100000000E-03 0.  1.
        -12    1    3    3    0    0 -0.13586628615E+02  0.13631339965E+02 -0.76603411861E+00  0.19261275000E+02  0.00000000000E+00 0.  1.
</event>
<event>
 7    1  0.2442667E-009  0.4778727E+02  0.7816164E-02  0.1312668E+00
        -11   -1    0    0    0    0  0.00000000000E+00  0.00000000000E+00  0.45593999997E+02  0.45594000000E+02  0.51100000000E-03 0.  1.
         11   -1    0    0    0    0 -0.00000000000E+00 -0.00000000000E+00 -0.45593999997E+02  0.45594000000E+02  0.51100000000E-03 0. -1.
    9900012    2    1    2    0    0 -0.10124345593E+02  0.39522543054E+02 -0.14801663125E+02  0.47787274033E+02  0.20000013628E+02 0.  0.
        -12    1    1    2    0    0  0.10124345593E+02 -0.39522543054E+02  0.14801663125E+02  0.43400725967E+02  0.00000000000E+00 0.  1.
         11    1    3    3    0    0  0.42714093873E+01  0.16365067424E+02 -0.64306100151E+01  0.18094560381E+02  0.51100000000E-03 0. -1.
        -11    1    3    3    0    0 -0.98832293699E+01  0.19543551206E+02 -0.93789588384E+01  0.23824220568E+02  0.51100000000E-03 0.  1.
         12    1    3    3    0    0 -0.45125256102E+01  0.36139244247E+01  0.10079057284E+01  0.58684930849E+01  0.00000000000E+00 0. -1.
</event>
<event>
 7    1  0.2442667E-009  0.4778725E+02  0.7816164E-02  0.1312668E+00
        -11   -1    0    0    0    0  0.00000000000E+00  0.00000000000E+00  0.45593999997E+02  0.45594000000E+02  0.51100000000E-03 0.  1.
         11   -1    0    0    0    0 -0.00000000000E+00 -0.00000000000E+00 -0.45593999997E+02  0.45594000000E+02  0.51100000000E-03 0. -1.
    9900012    2    1    2    0    0  0.41914778038E+02 -0.17334240584E+01 -0.11125285589E+02  0.47787247053E+02  0.19999890614E+02 0.  0.
        -12    1    1    2    0    0 -0.41914778038E+02  0.17334240584E+01  0.11125285589E+02  0.43400752947E+02  0.00000000000E+00 0.  1.
         11    1    3    3    0    0  0.25068433296E+02  0.44635877759E+01 -0.86176474736E+01  0.26881477117E+02  0.51100000000E-03 0. -1.
        -11    1    3    3    0    0  0.26006378506E+00 -0.37345643669E+01  0.76588013955E+00  0.38211486273E+01  0.51100000000E-03 0.  1.
        -12    1    3    3    0    0  0.16586280956E+02 -0.24624474674E+01 -0.32735182552E+01  0.17084621309E+02  0.00000000000E+00 0.  1.
</event>
<event>
 7    1  0.2442667E-009  0.4778727E+02  0.7816164E-02  0.1312668E+00
        -11   -1    0    0    0    0  0.00000000000E+00  0.00000000000E+00  0.45593999997E+02  0.45594000000E+02  0.51100000000E-03 0.  1.
         11   -1    0    0    0    0 -0.00000000000E+00 -0.00000000000E+00 -0.45593999997E+02  0.45594000000E+02  0.51100000000E-03 0. -1.
    9900012    2    1    2    0    0 -0.28188676134E+02  0.23223127951E+01 -0.32918510970E+02  0.47787274621E+02  0.20000016309E+02 0.  0.
        -12    1    1    2    0    0  0.28188676134E+02 -0.23223127951E+01  0.32918510970E+02  0.43400725379E+02  0.00000000000E+00 0.  1.
         11    1    3    3    0    0 -0.19129048009E+01  0.37409773137E+01  0.60569263661E+00  0.42451124685E+01  0.51100000000E-03 0. -1.
        -11    1    3    3    0    0  0.27620119035E+00 -0.83660622202E+00 -0.15559866011E+00  0.89465539311E+00  0.51100000000E-03 0.  1.
         12    1    3    3    0    0 -0.26551972524E+02 -0.58205829659E+00 -0.33368604946E+02  0.42647506760E+02  0.00000000000E+00 0. -1.
</event>
<event>
 7    1  0.2442667E-009  0.4778727E+02  0.7816164E-02  0.1312668E+00
        -11   -1    0    0    0    0  0.00000000000E+00  0.00000000000E+00  0.45593999997E+02  0.45594000000E+02  0.51100000000E-03 0.  1.
         11   -1    0    0    0    0 -0.00000000000E+00 -0.00000000000E+00 -0.45593999997E+02  0.45594000000E+02  0.51100000000E-03 0. -1.
    9900012    2    1    2    0    0  0.12413199859E+02 -0.22324786424E+02 -0.35087602001E+02  0.47787269202E+02  0.19999991600E+02 0.  0.
        -12    1    1    2    0    0 -0.12413199859E+02  0.22324786424E+02  0.35087602001E+02  0.43400730798E+02  0.00000000000E+00 0.  1.
         11    1    3    3    0    0 -0.11568114946E+01 -0.55860489488E+01 -0.14570810323E+01  0.58877195150E+01  0.51100000000E-03 0. -1.
        -11    1    3    3    0    0 -0.43885736007E-01  0.17994102096E+01 -0.40297134271E+01  0.44134333150E+01  0.51100000000E-03 0.  1.
         12    1    3    3    0    0  0.13613897089E+02 -0.18538147685E+02 -0.29600807542E+02  0.37486116372E+02  0.00000000000E+00 0. -1.
</event>
<event>
 7    1  0.2442667E-009  0.4778727E+02  0.7816164E-02  0.1312668E+00
        -11   -1    0    0    0    0  0.00000000000E+00  0.00000000000E+00  0.45593999997E+02  0.45594000000E+02  0.51100000000E-03 0.  1.
         11   -1    0    0    0    0 -0.00000000000E+00 -0.00000000000E+00 -0.45593999997E+02  0.45594000000E+02  0.51100000000E-03 0. -1.
    9900012    2    1    2    0    0  0.19644840391E+02  0.29949230171E+02 -0.24510144631E+02  0.47787270378E+02  0.19999996964E+02 0.  0.
        -12    1    1    2    0    0 -0.19644840391E+02 -0.29949230171E+02  0.24510144631E+02  0.43400729622E+02  0.00000000000E+00 0.  1.
         11    1    3    3    0    0  0.41500434266E+01  0.14730581779E+02 -0.69676649062E+01  0.16815506370E+02  0.51100000000E-03 0. -1.
        -11    1    3    3    0    0  0.12441773739E+02  0.32181800771E+01 -0.11260709163E+02  0.17086778160E+02  0.51100000000E-03 0.  1.
        -12    1    3    3    0    0  0.30530232255E+01  0.12000468316E+02 -0.62817705617E+01  0.13884985848E+02  0.00000000000E+00 0.  1.
</event>
<event>
 7    1  0.2442667E-009  0.4778727E+02  0.7816164E-02  0.1312668E+00
        -11   -1    0    0    0    0  0.00000000000E+00  0.00000000000E+00  0.45593999997E+02  0.45594000000E+02  0.51100000000E-03 0.  1.
         11   -1    0    0    0    0 -0.00000000000E+00 -0.00000000000E+00 -0.45593999997E+02  0.45594000000E+02  0.51100000000E-03 0. -1.
    9900012    2    1    2    0    0 -0.40623950555E+02  0.46147389782E+01 -0.14560980448E+02  0.47787270443E+02  0.19999997256E+02 0.  0.
        -12    1    1    2    0    0  0.40623950555E+02 -0.46147389782E+01  0.14560980448E+02  0.43400729557E+02  0.00000000000E+00 0.  1.
         11    1    3    3    0    0 -0.18849216275E+02  0.99684897723E+00 -0.15514845495E+02  0.24433523959E+02  0.51100000000E-03 0. -1.
        -11    1    3    3    0    0 -0.50381671801E+01  0.41236762063E+01  0.11337521868E+01  0.66085723323E+01  0.51100000000E-03 0.  1.
         12    1    3    3    0    0 -0.16736567100E+02 -0.50578620530E+00 -0.17988713944E+00  0.16745174151E+02  0.00000000000E+00 0. -1.
</event>
<event>
 7    1  0.2442667E-009  0.4778727E+02  0.7816164E-02  0.1312668E+00
        -11   -1    0    0    0    0  0.00000000000E+00  0.00000000000E+00  0.45593999997E+02  0.45594000000E+02  0.51100000000E-03 0.  1.
         11   -1    0    0    0    0 -0.00000000000E+00 -0.00000000000E+00 -0.45593999997E+02  0.45594000000E+02  0.51100000000E-03 0. -1.
    9900012    2    1    2    0    0 -0.19235286188E+02 -0.37668733842E+02  0.97310541704E+01  0.47787272365E+02  0.20000006021E+02 0.  0.
        -12    1    1    2    0    0  0.19235286188E+02  0.37668733842E+02 -0.97310541704E+01  0.43400727635E+02  0.00000000000E+00 0.  1.
         11    1    3    3    0    0 -0.44374928181E+01 -0.15266829147E+02  0.10674163682E+02  0.19149547914E+02  0.51100000000E-03 0. -1.
        -11    1    3    3    0    0 -0.22388527577E+01 -0.64611647844E+01 -0.42864198115E+01  0.80704713061E+01  0.51100000000E-03 0.  1.
         12    1    3    3    0    0 -0.12558940612E+02 -0.15940739910E+02  0.33433103000E+01  0.20567253145E+02  0.00000000000E+00 0. -1.
</event>
<event>
 7    1  0.2442667E-009  0.4778726E+02  0.7816164E-02  0.1312668E+00
        -11   -1    0    0    0    0  0.00000000000E+00  0.00000000000E+00  0.45593999997E+02  0.45594000000E+02  0.51100000000E-03 0.  1.
         11   -1    0    0    0    0 -0.00000000000E+00 -0.00000000000E+00 -0.45593999997E+02  0.45594000000E+02  0.51100000000E-03 0. -1.
    9900012    2    1    2    0    0  0.32318515722E+02 -0.26410414898E+02 -0.11900738593E+02  0.47787262073E+02  0.19999959097E+02 0.  0.
        -12    1    1    2    0    0 -0.32318515722E+02  0.26410414898E+02  0.11900738593E+02  0.43400737927E+02  0.00000000000E+00 0.  1.
         11    1    3    3    0    0  0.66236062125E+01 -0.15010342676E+02 -0.77729701109E+00  0.16425186070E+02  0.51100000000E-03 0. -1.
        -11    1    3    3    0    0  0.10738310582E+01 -0.22526417635E+01 -0.29292542680E+01  0.38481214747E+01  0.51100000000E-03 0.  1.
         12    1    3    3    0    0  0.24621078451E+02 -0.91474304576E+01 -0.81941873138E+01  0.27513954529E+02  0.00000000000E+00 0. -1.
</event>
<event>
 7    1  0.2442667E-009  0.4778727E+02  0.7816164E-02  0.1312668E+00
        -11   -1    0    0    0    0  0.00000000000E+00  0.00000000000E+00  0.45593999997E+02  0.45594000000E+02  0.51100000000E-03 0.  1.
         11   -1    0    0    0    0 -0.00000000000E+00 -0.00000000000E+00 -0.45593999997E+02  0.45594000000E+02  0.51100000000E-03 0. -1.
    9900012    2    1    2    0    0 -0.12173451215E+02 -0.11011383958E+02 -0.40176856454E+02  0.47787270908E+02  0.19999999378E+02 0.  0.
        -12    1    1    2    0    0  0.12173451215E+02  0.11011383958E+02  0.40176856454E+02  0.43400729092E+02  0.00000000000E+00 0.  1.
         11    1    3    3    0    0 -0.10180180550E+02 -0.44316614043E+01 -0.24083329204E+02  0.26519472933E+02  0.51100000000E-03 0.  1.
        -11    1    3    3    0    0 -0.91990631553E+00 -0.71576909973E+01 -0.25263992401E+01  0.76460095097E+01  0.51100000000E-03 0. -1.
        -12    1    3    3    0    0 -0.10733643497E+01  0.57796844329E+00 -0.13567128010E+02  0.13621788466E+02  0.00000000000E+00 0.  1.
</event>
<event>
 7    1  0.2442667E-009  0.4778727E+02  0.7816164E-02  0.1312668E+00
        -11   -1    0    0    0    0  0.00000000000E+00  0.00000000000E+00  0.45593999997E+02  0.45594000000E+02  0.51100000000E-03 0.  1.
         11   -1    0    0    0    0 -0.00000000000E+00 -0.00000000000E+00 -0.45593999997E+02  0.45594000000E+02  0.51100000000E-03 0. -1.
    9900012    2    1    2    0    0 -0.41945198413E+02 -0.48009078885E+01 -0.10058575919E+02  0.47787270329E+02  0.19999996737E+02 0.  0.
        -12    1    1    2    0    0  0.41945198413E+02  0.48009078885E+01  0.10058575919E+02  0.43400729671E+02  0.00000000000E+00 0.  1.
         11    1    3    3    0    0 -0.17202262872E+01  0.40421677230E+01  0.25778520328E+00  0.44005399501E+01  0.51100000000E-03 0. -1.
        -11    1    3    3    0    0 -0.21801667000E+02 -0.10229101948E+01 -0.27864877173E+01  0.22002807624E+02  0.51100000000E-03 0.  1.
         12    1    3    3    0    0 -0.18423305126E+02 -0.78201654167E+01 -0.75298734046E+01  0.21383922755E+02  0.00000000000E+00 0. -1.
</event>
<event>
 7    1  0.2442667E-009  0.4778727E+02  0.7816164E-02  0.1312668E+00
        -11   -1    0    0    0    0  0.00000000000E+00  0.00000000000E+00  0.45593999997E+02  0.45594000000E+02  0.51100000000E-03 0.  1.
         11   -1    0    0    0    0 -0.00000000000E+00 -0.00000000000E+00 -0.45593999997E+02  0.45594000000E+02  0.51100000000E-03 0. -1.
    9900012    2    1    2    0    0  0.18979847433E+02 -0.38790162803E+02 -0.43257344524E+01  0.47787270543E+02  0.19999997713E+02 0.  0.
        -12    1    1    2    0    0 -0.18979847433E+02  0.38790162803E+02  0.43257344524E+01  0.43400729457E+02  0.00000000000E+00 0.  1.
         11    1    3    3    0    0  0.15830284372E+02 -0.25549887972E+02 -0.19001770457E+01  0.30116529544E+02  0.51100000000E-03 0. -1.
        -11    1    3    3    0    0  0.58333616702E+00 -0.41397172553E+01 -0.62099717923E+01  0.74860730667E+01  0.51100000000E-03 0.  1.
        -12    1    3    3    0    0  0.25662268943E+01 -0.91005575753E+01  0.37844143856E+01  0.10184667933E+02  0.00000000000E+00 0.  1.
</event>
<event>
 7    1  0.2442667E-009  0.4778731E+02  0.7816164E-02  0.1312668E+00
        -11   -1    0    0    0    0  0.00000000000E+00  0.00000000000E+00  0.45593999997E+02  0.45594000000E+02  0.51100000000E-03 0.  1.
         11   -1    0    0    0    0 -0.00000000000E+00 -0.00000000000E+00 -0.45593999997E+02  0.45594000000E+02  0.51100000000E-03 0. -1.
    9900012    2    1    2    0    0  0.11508491602E+02  0.16097979913E+02 -0.38626796897E+02  0.47787311356E+02  0.20000183795E+02 0.  0.
        -12    1    1    2    0    0 -0.11508491602E+02 -0.16097979913E+02  0.38626796897E+02  0.43400688644E+02  0.00000000000E+00 0.  1.
         11    1    3    3    0    0  0.24391565827E+01  0.95167134043E+01 -0.53443282129E+01  0.11183879611E+02  0.51100000000E-03 0. -1.
        -11    1    3    3    0    0 -0.99321661414E+00  0.66307293235E+00  0.13856460460E+00  0.12022251732E+01  0.51100000000E-03 0.  1.
         12    1    3    3    0    0  0.10062551633E+02  0.59181935765E+01 -0.33421033289E+02  0.35401206571E+02  0.00000000000E+00 0. -1.
</event>
<event>
 7    1  0.2442667E-009  0.4778727E+02  0.7816164E-02  0.1312668E+00
        -11   -1    0    0    0    0  0.00000000000E+00  0.00000000000E+00  0.45593999997E+02  0.45594000000E+02  0.51100000000E-03 0.  1.
         11   -1    0    0    0    0 -0.00000000000E+00 -0.00000000000E+00 -0.45593999997E+02  0.45594000000E+02  0.51100000000E-03 0. -1.
    9900012    2    1    2    0    0  0.39605264209E+02 -0.10389848536E+02 -0.14390890424E+02  0.47787266909E+02  0.19999981145E+02 0.  0.
        -12    1    1    2    0    0 -0.39605264209E+02  0.10389848536E+02  0.14390890424E+02  0.43400733091E+02  0.00000000000E+00 0.  1.
         11    1    3    3    0    0  0.25185851263E+02 -0.29988611613E+01 -0.34102269099E+01  0.25591989371E+02  0.51100000000E-03 0. -1.
        -11    1    3    3    0    0  0.55177671723E+00 -0.17116590270E+01  0.17669947146E+01  0.25212109695E+01  0.51100000000E-03 0.  1.
         12    1    3    3    0    0  0.13867636228E+02 -0.56793283477E+01 -0.12747658229E+02  0.19674066569E+02  0.00000000000E+00 0. -1.
</event>
<event>
 7    1  0.2442667E-009  0.4778727E+02  0.7816164E-02  0.1312668E+00
        -11   -1    0    0    0    0  0.00000000000E+00  0.00000000000E+00  0.45593999997E+02  0.45594000000E+02  0.51100000000E-03 0. -1.
         11   -1    0    0    0    0 -0.00000000000E+00 -0.00000000000E+00 -0.45593999997E+02  0.45594000000E+02  0.51100000000E-03 0.  1.
    9900012    2    1    2    0    0 -0.19088978252E+02 -0.35351950072E+02  0.16415658260E+02  0.47787270735E+02  0.19999998591E+02 0.  0.
        -12    1    1    2    0    0  0.19088978252E+02  0.35351950072E+02 -0.16415658260E+02  0.43400729265E+02  0.00000000000E+00 0.  1.
         11    1    3    3    0    0 -0.96662768207E+01 -0.21542683086E+01  0.38110840684E+01  0.10611415625E+02  0.51100000000E-03 0. -1.
        -11    1    3    3    0    0 -0.67905516359E+01 -0.20249733826E+02  0.10489671166E+02  0.23794884176E+02  0.51100000000E-03 0.  1.
         12    1    3    3    0    0 -0.26321497956E+01 -0.12947947938E+02  0.21149030255E+01  0.13380970934E+02  0.00000000000E+00 0. -1.
</event>
<event>
 7    1  0.2442667E-009  0.4778727E+02  0.7816164E-02  0.1312668E+00
        -11   -1    0    0    0    0  0.00000000000E+00  0.00000000000E+00  0.45593999997E+02  0.45594000000E+02  0.51100000000E-03 0.  1.
         11   -1    0    0    0    0 -0.00000000000E+00 -0.00000000000E+00 -0.45593999997E+02  0.45594000000E+02  0.51100000000E-03 0. -1.
    9900012    2    1    2    0    0 -0.22936565142E+01  0.58764312870E+01 -0.42939840243E+02  0.47787272069E+02  0.20000004671E+02 0.  0.
        -12    1    1    2    0    0  0.22936565142E+01 -0.58764312870E+01  0.42939840243E+02  0.43400727931E+02  0.00000000000E+00 0.  1.
         11    1    3    3    0    0 -0.27460255762E+00  0.93409078914E+00 -0.25430604007E+02  0.25449234814E+02  0.51100000000E-03 0. -1.
        -11    1    3    3    0    0 -0.27454405874E+01 -0.28487453027E+01 -0.10190308726E+01  0.40854887099E+01  0.51100000000E-03 0.  1.
        -12    1    3    3    0    0  0.72638663079E+00  0.77910858005E+01 -0.16490205363E+02  0.18252548545E+02  0.00000000000E+00 0.  1.
</event>
<event>
 7    1  0.2442667E-009  0.4778727E+02  0.7816164E-02  0.1312668E+00
        -11   -1    0    0    0    0  0.00000000000E+00  0.00000000000E+00  0.45593999997E+02  0.45594000000E+02  0.51100000000E-03 0.  1.
         11   -1    0    0    0    0 -0.00000000000E+00 -0.00000000000E+00 -0.45593999997E+02  0.45594000000E+02  0.51100000000E-03 0. -1.
    9900012    2    1    2    0    0 -0.57468919207E+01  0.32370229693E+02 -0.28333104877E+02  0.47787269947E+02  0.19999994996E+02 0.  0.
        -12    1    1    2    0    0  0.57468919207E+01 -0.32370229693E+02  0.28333104877E+02  0.43400730053E+02  0.00000000000E+00 0.  1.
         11    1    3    3    0    0 -0.10298939258E+01  0.32295804732E+01 -0.67704461402E+01  0.75716453119E+01  0.51100000000E-03 0. -1.
        -11    1    3    3    0    0 -0.29924188487E+01  0.62023461466E+00 -0.80468777120E+01  0.86076421113E+01  0.51100000000E-03 0.  1.
        -12    1    3    3    0    0 -0.17245791462E+01  0.28520414606E+02 -0.13515781025E+02  0.31607982524E+02  0.00000000000E+00 0.  1.
</event>
<event>
 7    1  0.2442667E-009  0.4778727E+02  0.7816164E-02  0.1312668E+00
        -11   -1    0    0    0    0  0.00000000000E+00  0.00000000000E+00  0.45593999997E+02  0.45594000000E+02  0.51100000000E-03 0. -1.
         11   -1    0    0    0    0 -0.00000000000E+00 -0.00000000000E+00 -0.45593999997E+02  0.45594000000E+02  0.51100000000E-03 0.  1.
    9900012    2    1    2    0    0 -0.17484934066E+01 -0.18505160606E+02  0.39218937881E+02  0.47787270895E+02  0.19999999321E+02 0.  0.
        -12    1    1    2    0    0  0.17484934066E+01  0.18505160606E+02 -0.39218937881E+02  0.43400729105E+02  0.00000000000E+00 0.  1.
         11    1    3    3    0    0 -0.48190134378E+01 -0.14984353986E+01  0.63227788118E+01  0.80898536032E+01  0.51100000000E-03 0. -1.
        -11    1    3    3    0    0  0.73004956239E+01 -0.12972480968E+02  0.16165898524E+02  0.21975412947E+02  0.51100000000E-03 0.  1.
        -12    1    3    3    0    0 -0.42299755927E+01 -0.40342442393E+01  0.16730260546E+02  0.17722004346E+02  0.00000000000E+00 0.  1.
</event>
<event>
 7    1  0.2442667E-009  0.4778727E+02  0.7816164E-02  0.1312668E+00
        -11   -1    0    0    0    0  0.00000000000E+00  0.00000000000E+00  0.45593999997E+02  0.45594000000E+02  0.51100000000E-03 0.  1.
         11   -1    0    0    0    0 -0.00000000000E+00 -0.00000000000E+00 -0.45593999997E+02  0.45594000000E+02  0.51100000000E-03 0. -1.
    9900012    2    1    2    0    0 -0.88445573923E+01  0.99665485139E+00 -0.42478275251E+02  0.47787269769E+02  0.19999994183E+02 0.  0.
        -12    1    1    2    0    0  0.88445573923E+01 -0.99665485139E+00  0.42478275251E+02  0.43400730231E+02  0.00000000000E+00 0.  1.
         11    1    3    3    0    0 -0.10305841914E+02 -0.34570896228E+00 -0.34903978111E+02  0.36395296131E+02  0.51100000000E-03 0. -1.
        -11    1    3    3    0    0  0.44386866864E+01 -0.10905474783E+01 -0.32673626093E+01  0.56184421314E+01  0.51100000000E-03 0.  1.
         12    1    3    3    0    0 -0.29774021642E+01  0.24329112919E+01 -0.43069345306E+01  0.57735315062E+01  0.00000000000E+00 0. -1.
</event>
<event>
 7    1  0.2442667E-009  0.4778727E+02  0.7816164E-02  0.1312668E+00
        -11   -1    0    0    0    0  0.00000000000E+00  0.00000000000E+00  0.45593999997E+02  0.45594000000E+02  0.51100000000E-03 0.  1.
         11   -1    0    0    0    0 -0.00000000000E+00 -0.00000000000E+00 -0.45593999997E+02  0.45594000000E+02  0.51100000000E-03 0. -1.
    9900012    2    1    2    0    0  0.18392895406E+02  0.23696698464E+02 -0.31365442980E+02  0.47787272669E+02  0.20000007409E+02 0.  0.
        -12    1    1    2    0    0 -0.18392895406E+02 -0.23696698464E+02  0.31365442980E+02  0.43400727331E+02  0.00000000000E+00 0.  1.
         11    1    3    3    0    0 -0.95724612394E+00  0.77753970802E+01 -0.70228129842E+01  0.10521075153E+02  0.51100000000E-03 0. -1.
        -11    1    3    3    0    0  0.15697530974E+02  0.59917195724E+01 -0.10387540795E+02  0.19753839782E+02  0.51100000000E-03 0.  1.
        -12    1    3    3    0    0  0.36526105559E+01  0.99295818112E+01 -0.13955089201E+02  0.17512357735E+02  0.00000000000E+00 0.  1.
</event>
<event>
 7    1  0.2442667E-009  0.4778727E+02  0.7816164E-02  0.1312668E+00
        -11   -1    0    0    0    0  0.00000000000E+00  0.00000000000E+00  0.45593999997E+02  0.45594000000E+02  0.51100000000E-03 0. -1.
         11   -1    0    0    0    0 -0.00000000000E+00 -0.00000000000E+00 -0.45593999997E+02  0.45594000000E+02  0.51100000000E-03 0.  1.
    9900012    2    1    2    0    0  0.10438921222E+02  0.33900695482E+02  0.25007901223E+02  0.47787270121E+02  0.19999995792E+02 0.  0.
        -12    1    1    2    0    0 -0.10438921222E+02 -0.33900695482E+02 -0.25007901223E+02  0.43400729879E+02  0.00000000000E+00 0.  1.
         11    1    3    3    0    0  0.14690435942E+01  0.94923822881E+01  0.18907474702E+01  0.97897056566E+01  0.51100000000E-03 0. -1.
        -11    1    3    3    0    0 -0.40998886348E+01  0.68093857255E+01  0.85704851612E+01  0.11688885188E+02  0.51100000000E-03 0.  1.
        -12    1    3    3    0    0  0.13069766263E+02  0.17598927468E+02  0.14546668591E+02  0.26308679277E+02  0.00000000000E+00 0.  1.
</event>
<event>
 7    1  0.2442667E-009  0.4778726E+02  0.7816164E-02  0.1312668E+00
        -11   -1    0    0    0    0  0.00000000000E+00  0.00000000000E+00  0.45593999997E+02  0.45594000000E+02  0.51100000000E-03 0. -1.
         11   -1    0    0    0    0 -0.00000000000E+00 -0.00000000000E+00 -0.45593999997E+02  0.45594000000E+02  0.51100000000E-03 0.  1.
    9900012    2    1    2    0    0 -0.41356335841E+02  0.11845660908E+02 -0.57408826240E+01  0.47787263488E+02  0.19999965546E+02 0.  0.
        -12    1    1    2    0    0  0.41356335841E+02 -0.11845660908E+02  0.57408826240E+01  0.43400736512E+02  0.00000000000E+00 0.  1.
         11    1    3    3    0    0 -0.29082737999E+01 -0.35523661058E+01 -0.60239644507E+00  0.46303610208E+01  0.51100000000E-03 0. -1.
        -11    1    3    3    0    0 -0.32219408208E+02  0.10619207814E+02 -0.28192815092E+00  0.33925467183E+02  0.51100000000E-03 0.  1.
         12    1    3    3    0    0 -0.62286538327E+01  0.47788191999E+01 -0.48565580280E+01  0.92314352835E+01  0.00000000000E+00 0. -1.
</event>
<event>
 7    1  0.2442667E-009  0.4778727E+02  0.7816164E-02  0.1312668E+00
        -11   -1    0    0    0    0  0.00000000000E+00  0.00000000000E+00  0.45593999997E+02  0.45594000000E+02  0.51100000000E-03 0.  1.
         11   -1    0    0    0    0 -0.00000000000E+00 -0.00000000000E+00 -0.45593999997E+02  0.45594000000E+02  0.51100000000E-03 0. -1.
    9900012    2    1    2    0    0  0.28023730608E+02  0.31509089828E+02 -0.10269914804E+02  0.47787269948E+02  0.19999995002E+02 0.  0.
        -12    1    1    2    0    0 -0.28023730608E+02 -0.31509089828E+02  0.10269914804E+02  0.43400730052E+02  0.00000000000E+00 0.  1.
         11    1    3    3    0    0  0.10610671444E+02  0.47759348857E+01 -0.42986888503E+01  0.12404621261E+02  0.51100000000E-03 0. -1.
        -11    1    3    3    0    0  0.15824134568E+01  0.63877245812E+01  0.40470057248E+01  0.77256270471E+01  0.51100000000E-03 0.  1.
        -12    1    3    3    0    0  0.15830645706E+02  0.20345430361E+02 -0.10018231678E+02  0.27657021640E+02  0.00000000000E+00 0.  1.
</event>
<event>
 7    1  0.2442667E-009  0.4778726E+02  0.7816164E-02  0.1312668E+00
        -11   -1    0    0    0    0  0.00000000000E+00  0.00000000000E+00  0.45593999997E+02  0.45594000000E+02  0.51100000000E-03 0.  1.
         11   -1    0    0    0    0 -0.00000000000E+00 -0.00000000000E+00 -0.45593999997E+02  0.45594000000E+02  0.51100000000E-03 0. -1.
    9900012    2    1    2    0    0  0.92475693265E+01  0.17976321410E+02 -0.38405191734E+02  0.47787257818E+02  0.19999939693E+02 0.  0.
        -12    1    1    2    0    0 -0.92475693265E+01 -0.17976321410E+02  0.38405191734E+02  0.43400742182E+02  0.00000000000E+00 0.  1.
         11    1    3    3    0    0  0.13607390683E+02  0.13186523938E+02 -0.31971113189E+02  0.37164466545E+02  0.51100000000E-03 0. -1.
        -11    1    3    3    0    0 -0.51539743812E+01  0.45967115892E+01 -0.68314619824E+01  0.97140147434E+01  0.51100000000E-03 0.  1.
         12    1    3    3    0    0  0.79415302463E+00  0.19308588267E+00  0.39738343718E+00  0.90877652961E+00  0.00000000000E+00 0. -1.
</event>
<event>
 7    1  0.2442667E-009  0.4778727E+02  0.7816164E-02  0.1312668E+00
        -11   -1    0    0    0    0  0.00000000000E+00  0.00000000000E+00  0.45593999997E+02  0.45594000000E+02  0.51100000000E-03 0.  1.
         11   -1    0    0    0    0 -0.00000000000E+00 -0.00000000000E+00 -0.45593999997E+02  0.45594000000E+02  0.51100000000E-03 0. -1.
    9900012    2    1    2    0    0 -0.19515641102E+02  0.22197801113E+02 -0.31780822498E+02  0.47787270737E+02  0.19999998601E+02 0.  0.
        -12    1    1    2    0    0  0.19515641102E+02 -0.22197801113E+02  0.31780822498E+02  0.43400729263E+02  0.00000000000E+00 0.  1.
         11    1    3    3    0    0 -0.50743295808E+01  0.14047596204E+01 -0.14370450097E+02  0.15304640033E+02  0.51100000000E-03 0. -1.
        -11    1    3    3    0    0 -0.82630005019E+01  0.10327577360E+02 -0.28735451407E+01  0.13534891701E+02  0.51100000000E-03 0.  1.
         12    1    3    3    0    0 -0.61783110197E+01  0.10465464133E+02 -0.14536827260E+02  0.18947739004E+02  0.00000000000E+00 0. -1.
</event>
<event>
 7    1  0.2442667E-009  0.4778727E+02  0.7816164E-02  0.1312668E+00
        -11   -1    0    0    0    0  0.00000000000E+00  0.00000000000E+00  0.45593999997E+02  0.45594000000E+02  0.51100000000E-03 0. -1.
         11   -1    0    0    0    0 -0.00000000000E+00 -0.00000000000E+00 -0.45593999997E+02  0.45594000000E+02  0.51100000000E-03 0.  1.
    9900012    2    1    2    0    0 -0.67912858801E-01 -0.34556377614E+02 -0.26257864228E+02  0.47787270976E+02  0.19999999688E+02 0.  0.
        -12    1    1    2    0    0  0.67912858801E-01  0.34556377614E+02  0.26257864228E+02  0.43400729024E+02  0.00000000000E+00 0.  1.
         11    1    3    3    0    0  0.46591895604E+01 -0.13995431818E+02 -0.23689243161E+01  0.14939610498E+02  0.51100000000E-03 0. -1.
        -11    1    3    3    0    0 -0.34950400264E+01 -0.15372579447E+02 -0.11983285952E+02  0.19802288911E+02  0.51100000000E-03 0.  1.
         12    1    3    3    0    0 -0.12320623929E+01 -0.51883663489E+01 -0.11905653960E+02  0.13045371567E+02  0.00000000000E+00 0. -1.
</event>
<event>
 7    1  0.2442667E-009  0.4778727E+02  0.7816164E-02  0.1312668E+00
        -11   -1    0    0    0    0  0.00000000000E+00  0.00000000000E+00  0.45593999997E+02  0.45594000000E+02  0.51100000000E-03 0.  1.
         11   -1    0    0    0    0 -0.00000000000E+00 -0.00000000000E+00 -0.45593999997E+02  0.45594000000E+02  0.51100000000E-03 0. -1.
    9900012    2    1    2    0    0  0.42167871098E+02  0.35758415190E+01  0.96284545056E+01  0.47787272683E+02  0.20000007469E+02 0.  0.
        -12    1    1    2    0    0 -0.42167871098E+02 -0.35758415190E+01 -0.96284545056E+01  0.43400727317E+02  0.00000000000E+00 0.  1.
         11    1    3    3    0    0  0.28604594799E+02  0.60502542442E+00  0.37488661334E+01  0.28855552272E+02  0.51100000000E-03 0. -1.
        -11    1    3    3    0    0  0.51571337548E+01  0.28546159156E+01  0.83028967971E+01  0.10182482805E+02  0.51100000000E-03 0.  1.
        -12    1    3    3    0    0  0.84061425446E+01  0.11620017889E+00 -0.24233084249E+01  0.87492376059E+01  0.00000000000E+00 0.  1.
</event>
<event>
 7    1  0.2442667E-009  0.4778726E+02  0.7816164E-02  0.1312668E+00
        -11   -1    0    0    0    0  0.00000000000E+00  0.00000000000E+00  0.45593999997E+02  0.45594000000E+02  0.51100000000E-03 0.  1.
         11   -1    0    0    0    0 -0.00000000000E+00 -0.00000000000E+00 -0.45593999997E+02  0.45594000000E+02  0.51100000000E-03 0. -1.
    9900012    2    1    2    0    0 -0.40450303821E+02  0.10908402824E+02 -0.11331562037E+02  0.47787255426E+02  0.19999928789E+02 0.  0.
        -12    1    1    2    0    0  0.40450303821E+02 -0.10908402824E+02  0.11331562037E+02  0.43400744574E+02  0.00000000000E+00 0.  1.
         11    1    3    3    0    0 -0.24061922584E+02  0.27957069254E+01  0.13576361144E+00  0.24224172383E+02  0.51100000000E-03 0. -1.
        -11    1    3    3    0    0 -0.73035309276E+01 -0.61948881633E+00 -0.14647736286E+01  0.74746834346E+01  0.51100000000E-03 0.  1.
         12    1    3    3    0    0 -0.90848503099E+01  0.87321847147E+01 -0.10002552019E+02  0.16088399608E+02  0.00000000000E+00 0. -1.
</event>
<event>
 7    1  0.2442667E-009  0.4778728E+02  0.7816164E-02  0.1312668E+00
        -11   -1    0    0    0    0  0.00000000000E+00  0.00000000000E+00  0.45593999997E+02  0.45594000000E+02  0.51100000000E-03 0.  1.
         11   -1    0    0    0    0 -0.00000000000E+00 -0.00000000000E+00 -0.45593999997E+02  0.45594000000E+02  0.51100000000E-03 0. -1.
    9900012    2    1    2    0    0  0.20664642896E+02 -0.24986561033E+01 -0.38083489089E+02  0.47787275472E+02  0.20000020187E+02 0.  0.
        -12    1    1    2    0    0 -0.20664642896E+02  0.24986561033E+01  0.38083489089E+02  0.43400724528E+02  0.00000000000E+00 0.  1.
         11    1    3    3    0    0 -0.18949243265E+01 -0.39570773497E+01 -0.76684014849E+01  0.88347937695E+01  0.51100000000E-03 0. -1.
        -11    1    3    3    0    0 -0.34635110516E+00 -0.92526217829E+00 -0.28341539369E+00  0.10278101640E+01  0.51100000000E-03 0.  1.
         12    1    3    3    0    0  0.22905918327E+02  0.23836834247E+01 -0.30131672211E+02  0.37924671539E+02  0.00000000000E+00 0. -1.
</event>
<event>
 7    1  0.2442667E-009  0.4778728E+02  0.7816164E-02  0.1312668E+00
        -11   -1    0    0    0    0  0.00000000000E+00  0.00000000000E+00  0.45593999997E+02  0.45594000000E+02  0.51100000000E-03 0.  1.
         11   -1    0    0    0    0 -0.00000000000E+00 -0.00000000000E+00 -0.45593999997E+02  0.45594000000E+02  0.51100000000E-03 0. -1.
    9900012    2    1    2    0    0  0.22505513926E+02  0.42405491544E+01 -0.36866546485E+02  0.47787278072E+02  0.20000032039E+02 0.  0.
        -12    1    1    2    0    0 -0.22505513926E+02 -0.42405491544E+01  0.36866546485E+02  0.43400721928E+02  0.00000000000E+00 0.  1.
         11    1    3    3    0    0  0.21662913672E+02  0.91490240177E+01 -0.22832080285E+02  0.32776368921E+02  0.51100000000E-03 0. -1.
        -11    1    3    3    0    0 -0.27345487841E+00 -0.27756484336E+01 -0.91475301518E+01  0.95632792460E+01  0.51100000000E-03 0.  1.
         12    1    3    3    0    0  0.11160551318E+01 -0.21328264297E+01 -0.48869360485E+01  0.54476299047E+01  0.00000000000E+00 0. -1.
</event>
<event>
 7    1  0.2442667E-009  0.4778728E+02  0.7816164E-02  0.1312668E+00
        -11   -1    0    0    0    0  0.00000000000E+00  0.00000000000E+00  0.45593999997E+02  0.45594000000E+02  0.51100000000E-03 0.  1.
         11   -1    0    0    0    0 -0.00000000000E+00 -0.00000000000E+00 -0.45593999997E+02  0.45594000000E+02  0.51100000000E-03 0. -1.
    9900012    2    1    2    0    0 -0.19959137217E+02 -0.18221454191E+02 -0.33959304559E+02  0.47787275151E+02  0.20000018723E+02 0.  0.
        -12    1    1    2    0    0  0.19959137217E+02  0.18221454191E+02  0.33959304559E+02  0.43400724849E+02  0.00000000000E+00 0.  1.
         11    1    3    3    0    0 -0.14495981927E+02 -0.34742749337E+01 -0.19338801970E+02  0.24417070673E+02  0.51100000000E-03 0. -1.
        -11    1    3    3    0    0 -0.11178963120E+01 -0.12844172243E+02 -0.13120884929E+02  0.18395110066E+02  0.51100000000E-03 0.  1.
        -12    1    3    3    0    0 -0.43452589777E+01 -0.19030070144E+01 -0.14996176607E+01  0.49750944120E+01  0.00000000000E+00 0.  1.
</event>
<event>
 7    1  0.2442667E-009  0.4778727E+02  0.7816164E-02  0.1312668E+00
        -11   -1    0    0    0    0  0.00000000000E+00  0.00000000000E+00  0.45593999997E+02  0.45594000000E+02  0.51100000000E-03 0.  1.
         11   -1    0    0    0    0 -0.00000000000E+00 -0.00000000000E+00 -0.45593999997E+02  0.45594000000E+02  0.51100000000E-03 0. -1.
    9900012    2    1    2    0    0  0.11125624589E+00 -0.34862773072E+02 -0.25849526167E+02  0.47787270430E+02  0.19999997197E+02 0.  0.
        -12    1    1    2    0    0 -0.11125624589E+00  0.34862773072E+02  0.25849526167E+02  0.43400729570E+02  0.00000000000E+00 0.  1.
         11    1    3    3    0    0  0.12184547953E+01 -0.29696563339E+02 -0.26464081734E+02  0.39795956183E+02  0.51100000000E-03 0. -1.
        -11    1    3    3    0    0  0.12142848070E+01  0.74663830593E+00 -0.55975833651E+00  0.15314326654E+01  0.51100000000E-03 0.  1.
         12    1    3    3    0    0 -0.23214833563E+01 -0.59128480388E+01  0.11743139036E+01  0.64598815815E+01  0.00000000000E+00 0. -1.
</event>
<event>
 7    1  0.2442667E-009  0.4778727E+02  0.7816164E-02  0.1312668E+00
        -11   -1    0    0    0    0  0.00000000000E+00  0.00000000000E+00  0.45593999997E+02  0.45594000000E+02  0.51100000000E-03 0.  1.
         11   -1    0    0    0    0 -0.00000000000E+00 -0.00000000000E+00 -0.45593999997E+02  0.45594000000E+02  0.51100000000E-03 0. -1.
    9900012    2    1    2    0    0 -0.85836593983E+01 -0.31023235902E+02 -0.29111901544E+02  0.47787272056E+02  0.20000004614E+02 0.  0.
        -12    1    1    2    0    0  0.85836593983E+01  0.31023235902E+02  0.29111901544E+02  0.43400727944E+02  0.00000000000E+00 0.  1.
         11    1    3    3    0    0 -0.85046604949E+01 -0.29901350599E+02 -0.27983494231E+02  0.41826976551E+02  0.51100000000E-03 0. -1.
        -11    1    3    3    0    0 -0.13201106467E+01 -0.65504736011E+00 -0.31872117678E+01  0.35114239672E+01  0.51100000000E-03 0.  1.
         12    1    3    3    0    0  0.12411117433E+01 -0.46683794366E+00  0.20588044552E+01  0.24488715381E+01  0.00000000000E+00 0. -1.
</event>
<event>
 7    1  0.2442667E-009  0.4778727E+02  0.7816164E-02  0.1312668E+00
        -11   -1    0    0    0    0  0.00000000000E+00  0.00000000000E+00  0.45593999997E+02  0.45594000000E+02  0.51100000000E-03 0.  1.
         11   -1    0    0    0    0 -0.00000000000E+00 -0.00000000000E+00 -0.45593999997E+02  0.45594000000E+02  0.51100000000E-03 0. -1.
    9900012    2    1    2    0    0 -0.92391599385E+01 -0.18277636809E+02 -0.38264726662E+02  0.47787269704E+02  0.19999993888E+02 0.  0.
        -12    1    1    2    0    0  0.92391599385E+01  0.18277636809E+02  0.38264726662E+02  0.43400730296E+02  0.00000000000E+00 0.  1.
         11    1    3    3    0    0 -0.56612834280E+01 -0.68941132021E+01 -0.17342153464E+02  0.19502031021E+02  0.51100000000E-03 0. -1.
        -11    1    3    3    0    0 -0.74612688528E+01 -0.72297079609E+00 -0.64038688171E+01  0.98591457923E+01  0.51100000000E-03 0.  1.
        -12    1    3    3    0    0  0.38833923423E+01 -0.10660552811E+02 -0.14518704381E+02  0.18426092891E+02  0.00000000000E+00 0.  1.
</event>
<event>
 7    1  0.2442667E-009  0.4778727E+02  0.7816164E-02  0.1312668E+00
        -11   -1    0    0    0    0  0.00000000000E+00  0.00000000000E+00  0.45593999997E+02  0.45594000000E+02  0.51100000000E-03 0. -1.
         11   -1    0    0    0    0 -0.00000000000E+00 -0.00000000000E+00 -0.45593999997E+02  0.45594000000E+02  0.51100000000E-03 0.  1.
    9900012    2    1    2    0    0  0.24910899996E+02 -0.18210784664E+01  0.35493011101E+02  0.47787273019E+02  0.20000009005E+02 0.  0.
        -12    1    1    2    0    0 -0.24910899996E+02  0.18210784664E+01 -0.35493011101E+02  0.43400726981E+02  0.00000000000E+00 0.  1.
         11    1    3    3    0    0  0.13988754789E+02 -0.58772348798E+01  0.23197421269E+02  0.27719081950E+02  0.51100000000E-03 0. -1.
        -11    1    3    3    0    0 -0.20173808719E+01  0.10565884797E+01  0.56315087977E+00  0.23459207089E+01  0.51100000000E-03 0.  1.
         12    1    3    3    0    0  0.12939526079E+02  0.29995679336E+01  0.11732438952E+02  0.17722270360E+02  0.00000000000E+00 0. -1.
</event>
<event>
 7    1  0.2442667E-009  0.4778727E+02  0.7816164E-02  0.1312668E+00
        -11   -1    0    0    0    0  0.00000000000E+00  0.00000000000E+00  0.45593999997E+02  0.45594000000E+02  0.51100000000E-03 0.  1.
         11   -1    0    0    0    0 -0.00000000000E+00 -0.00000000000E+00 -0.45593999997E+02  0.45594000000E+02  0.51100000000E-03 0. -1.
    9900012    2    1    2    0    0  0.36135344985E+02  0.21207402514E+02 -0.11318392680E+02  0.47787273146E+02  0.20000009583E+02 0.  0.
        -12    1    1    2    0    0 -0.36135344985E+02 -0.21207402514E+02  0.11318392680E+02  0.43400726854E+02  0.00000000000E+00 0.  1.
         11    1    3    3    0    0  0.64749490899E+01  0.14564367485E+01  0.40325049385E+01  0.77657755607E+01  0.51100000000E-03 0.  1.
        -11    1    3    3    0    0  0.21923275744E+02  0.17589441997E+02 -0.15270740587E+02  0.31987716509E+02  0.51100000000E-03 0. -1.
         12    1    3    3    0    0  0.77371201507E+01  0.21615237685E+01 -0.80157030994E-01  0.80337810760E+01  0.00000000000E+00 0. -1.
</event>
<event>
 7    1  0.2442667E-009  0.4778728E+02  0.7816164E-02  0.1312668E+00
        -11   -1    0    0    0    0  0.00000000000E+00  0.00000000000E+00  0.45593999997E+02  0.45594000000E+02  0.51100000000E-03 0.  1.
         11   -1    0    0    0    0 -0.00000000000E+00 -0.00000000000E+00 -0.45593999997E+02  0.45594000000E+02  0.51100000000E-03 0. -1.
    9900012    2    1    2    0    0 -0.22984363749E+02 -0.66096153086E+01 -0.36216771291E+02  0.47787279796E+02  0.20000039902E+02 0.  0.
        -12    1    1    2    0    0  0.22984363749E+02  0.66096153086E+01  0.36216771291E+02  0.43400720204E+02  0.00000000000E+00 0.  1.
         11    1    3    3    0    0 -0.13158213705E+02 -0.58130843161E+01 -0.22981610907E+02  0.27112450596E+02  0.51100000000E-03 0. -1.
        -11    1    3    3    0    0 -0.37068627220E+01  0.28188035640E+01  0.10008289054E+01  0.47632072736E+01  0.51100000000E-03 0.  1.
        -12    1    3    3    0    0 -0.61192873227E+01 -0.36153345565E+01 -0.14235989289E+02  0.15911621927E+02  0.00000000000E+00 0.  1.
</event>
<event>
 7    1  0.2442667E-009  0.4778727E+02  0.7816164E-02  0.1312668E+00
        -11   -1    0    0    0    0  0.00000000000E+00  0.00000000000E+00  0.45593999997E+02  0.45594000000E+02  0.51100000000E-03 0.  1.
         11   -1    0    0    0    0 -0.00000000000E+00 -0.00000000000E+00 -0.45593999997E+02  0.45594000000E+02  0.51100000000E-03 0. -1.
    9900012    2    1    2    0    0  0.62395046407E+01 -0.42581059992E+02  0.56164980866E+01  0.47787272599E+02  0.20000007087E+02 0.  0.
        -12    1    1    2    0    0 -0.62395046407E+01  0.42581059992E+02 -0.56164980866E+01  0.43400727401E+02  0.00000000000E+00 0.  1.
         11    1    3    3    0    0  0.33641359416E+01  0.20276571922E+00 -0.12906750810E+01  0.36089287879E+01  0.51100000000E-03 0.  1.
        -11    1    3    3    0    0  0.17646257896E+01 -0.28997240126E+02  0.80829257183E+00  0.29062126148E+02  0.51100000000E-03 0. -1.
        -12    1    3    3    0    0  0.11107429096E+01 -0.13786585585E+02  0.60988805957E+01  0.15116217663E+02  0.00000000000E+00 0.  1.
</event>
<event>
 7    1  0.2442667E-009  0.4778728E+02  0.7816164E-02  0.1312668E+00
        -11   -1    0    0    0    0  0.00000000000E+00  0.00000000000E+00  0.45593999997E+02  0.45594000000E+02  0.51100000000E-03 0.  1.
         11   -1    0    0    0    0 -0.00000000000E+00 -0.00000000000E+00 -0.45593999997E+02  0.45594000000E+02  0.51100000000E-03 0. -1.
    9900012    2    1    2    0    0  0.33593732553E+02  0.26486133691E+02 -0.73190559291E+01  0.47787277374E+02  0.20000028861E+02 0.  0.
        -12    1    1    2    0    0 -0.33593732553E+02 -0.26486133691E+02  0.73190559291E+01  0.43400722626E+02  0.00000000000E+00 0.  1.
         11    1    3    3    0    0  0.17440875482E+02  0.47568022040E+01 -0.55819103644E+01  0.18920069460E+02  0.51100000000E-03 0. -1.
        -11    1    3    3    0    0  0.89611722334E+01  0.17781927844E+02 -0.40997835604E+01  0.20329972729E+02  0.51100000000E-03 0.  1.
        -12    1    3    3    0    0  0.71916848377E+01  0.39474036431E+01  0.23626379957E+01  0.85372351862E+01  0.00000000000E+00 0.  1.
</event>
<event>
 7    1  0.2442667E-009  0.4778727E+02  0.7816164E-02  0.1312668E+00
        -11   -1    0    0    0    0  0.00000000000E+00  0.00000000000E+00  0.45593999997E+02  0.45594000000E+02  0.51100000000E-03 0. -1.
         11   -1    0    0    0    0 -0.00000000000E+00 -0.00000000000E+00 -0.45593999997E+02  0.45594000000E+02  0.51100000000E-03 0.  1.
    9900012    2    1    2    0    0  0.17324395309E+02  0.37732010325E+02  0.12640565288E+02  0.47787272278E+02  0.20000005624E+02 0.  0.
        -12    1    1    2    0    0 -0.17324395309E+02 -0.37732010325E+02 -0.12640565288E+02  0.43400727722E+02  0.00000000000E+00 0.  1.
         11    1    3    3    0    0  0.26351745688E+01  0.23684137573E+02  0.10250651601E+02  0.25941441288E+02  0.51100000000E-03 0. -1.
        -11    1    3    3    0    0  0.77554899418E+01  0.34904144445E+01  0.34342534107E+01  0.91719525719E+01  0.51100000000E-03 0.  1.
        -12    1    3    3    0    0  0.69337307980E+01  0.10557458308E+02 -0.10443397229E+01  0.12673878418E+02  0.00000000000E+00 0.  1.
</event>
<event>
 7    1  0.2442667E-009  0.4778727E+02  0.7816164E-02  0.1312668E+00
        -11   -1    0    0    0    0  0.00000000000E+00  0.00000000000E+00  0.45593999997E+02  0.45594000000E+02  0.51100000000E-03 0.  1.
         11   -1    0    0    0    0 -0.00000000000E+00 -0.00000000000E+00 -0.45593999997E+02  0.45594000000E+02  0.51100000000E-03 0. -1.
    9900012    2    1    2    0    0  0.74437305304E+01  0.41987158662E+02 -0.80804053042E+01  0.47787267672E+02  0.19999984626E+02 0.  0.
        -12    1    1    2    0    0 -0.74437305304E+01 -0.41987158662E+02  0.80804053042E+01  0.43400732328E+02  0.00000000000E+00 0.  1.
         11    1    3    3    0    0 -0.13680953824E+01  0.48336042621E+01  0.46144974043E+01  0.68212170244E+01  0.51100000000E-03 0.  1.
        -11    1    3    3    0    0  0.98313441354E+01  0.31589762858E+02 -0.12296886801E+02  0.35295635285E+02  0.51100000000E-03 0. -1.
         12    1    3    3    0    0 -0.10195182225E+01  0.55637915419E+01 -0.39801590766E+00  0.56704153631E+01  0.00000000000E+00 0. -1.
</event>
<event>
 7    1  0.2442667E-009  0.4778727E+02  0.7816164E-02  0.1312668E+00
        -11   -1    0    0    0    0  0.00000000000E+00  0.00000000000E+00  0.45593999997E+02  0.45594000000E+02  0.51100000000E-03 0. -1.
         11   -1    0    0    0    0 -0.00000000000E+00 -0.00000000000E+00 -0.45593999997E+02  0.45594000000E+02  0.51100000000E-03 0.  1.
    9900012    2    1    2    0    0 -0.27667158426E+02 -0.15463709678E+02 -0.29648356705E+02  0.47787273881E+02  0.20000012932E+02 0.  0.
        -12    1    1    2    0    0  0.27667158426E+02  0.15463709678E+02  0.29648356705E+02  0.43400726119E+02  0.00000000000E+00 0.  1.
         11    1    3    3    0    0 -0.11556720314E+02 -0.96978646493E+01 -0.75412132165E+01  0.16866424049E+02  0.51100000000E-03 0. -1.
        -11    1    3    3    0    0  0.27633894526E+00 -0.50572125508E+01 -0.68556999287E+01  0.85236367690E+01  0.51100000000E-03 0.  1.
        -12    1    3    3    0    0 -0.16386777057E+02 -0.70863247781E+00 -0.15251443560E+02  0.22397213063E+02  0.00000000000E+00 0.  1.
</event>
<event>
 7    1  0.2442667E-009  0.4778727E+02  0.7816164E-02  0.1312668E+00
        -11   -1    0    0    0    0  0.00000000000E+00  0.00000000000E+00  0.45593999997E+02  0.45594000000E+02  0.51100000000E-03 0.  1.
         11   -1    0    0    0    0 -0.00000000000E+00 -0.00000000000E+00 -0.45593999997E+02  0.45594000000E+02  0.51100000000E-03 0. -1.
    9900012    2    1    2    0    0 -0.26728738882E+02  0.14913776453E+02 -0.30769742199E+02  0.47787271373E+02  0.20000001499E+02 0.  0.
        -12    1    1    2    0    0  0.26728738882E+02 -0.14913776453E+02  0.30769742199E+02  0.43400728627E+02  0.00000000000E+00 0.  1.
         11    1    3    3    0    0 -0.14280112546E+02  0.55650454344E+01 -0.15831946871E+02  0.22035015022E+02  0.51100000000E-03 0. -1.
        -11    1    3    3    0    0 -0.83229580533E+00  0.92914302021E+01 -0.73628036378E+01  0.11884202505E+02  0.51100000000E-03 0.  1.
         12    1    3    3    0    0 -0.11616330531E+02  0.57300816948E-01 -0.75749916903E+01  0.13868053846E+02  0.00000000000E+00 0. -1.
</event>
<event>
 7    1  0.2442667E-009  0.4778727E+02  0.7816164E-02  0.1312668E+00
        -11   -1    0    0    0    0  0.00000000000E+00  0.00000000000E+00  0.45593999997E+02  0.45594000000E+02  0.51100000000E-03 0.  1.
         11   -1    0    0    0    0 -0.00000000000E+00 -0.00000000000E+00 -0.45593999997E+02  0.45594000000E+02  0.51100000000E-03 0. -1.
    9900012    2    1    2    0    0  0.14134217367E+02  0.39771883936E+02 -0.10101708952E+02  0.47787269866E+02  0.19999994625E+02 0.  0.
        -12    1    1    2    0    0 -0.14134217367E+02 -0.39771883936E+02  0.10101708952E+02  0.43400730134E+02  0.00000000000E+00 0.  1.
         11    1    3    3    0    0  0.24090277646E+01  0.81326109858E+01 -0.93724239344E+01  0.12640613390E+02  0.51100000000E-03 0. -1.
        -11    1    3    3    0    0  0.54559519163E+01  0.25781450806E+02 -0.21894874885E+01  0.26443231132E+02  0.51100000000E-03 0.  1.
        -12    1    3    3    0    0  0.62692376866E+01  0.58578221448E+01  0.14602024708E+01  0.87034253433E+01  0.00000000000E+00 0.  1.
</event>
<event>
 7    1  0.2442667E-009  0.4778726E+02  0.7816164E-02  0.1312668E+00
        -11   -1    0    0    0    0  0.00000000000E+00  0.00000000000E+00  0.45593999997E+02  0.45594000000E+02  0.51100000000E-03 0. -1.
         11   -1    0    0    0    0 -0.00000000000E+00 -0.00000000000E+00 -0.45593999997E+02  0.45594000000E+02  0.51100000000E-03 0.  1.
    9900012    2    1    2    0    0 -0.28543434828E+02  0.11239431557E+02  0.30701324206E+02  0.47787264966E+02  0.19999972285E+02 0.  0.
        -12    1    1    2    0    0  0.28543434828E+02 -0.11239431557E+02 -0.30701324206E+02  0.43400735034E+02  0.00000000000E+00 0.  1.
         11    1    3    3    0    0 -0.25024534351E+02  0.43519899466E+01  0.21787974529E+02  0.33464652551E+02  0.51100000000E-03 0. -1.
        -11    1    3    3    0    0 -0.61519061979E+01  0.53591597010E+01  0.67275140610E+01  0.10574780767E+02  0.51100000000E-03 0.  1.
         12    1    3    3    0    0  0.26330057211E+01  0.15282819094E+01  0.21858356153E+01  0.37478316477E+01  0.00000000000E+00 0. -1.
</event>
<event>
 7    1  0.2442667E-009  0.4778727E+02  0.7816164E-02  0.1312668E+00
        -11   -1    0    0    0    0  0.00000000000E+00  0.00000000000E+00  0.45593999997E+02  0.45594000000E+02  0.51100000000E-03 0. -1.
         11   -1    0    0    0    0 -0.00000000000E+00 -0.00000000000E+00 -0.45593999997E+02  0.45594000000E+02  0.51100000000E-03 0.  1.
    9900012    2    1    2    0    0 -0.11331710629E+02 -0.25189615629E+02  0.33476840190E+02  0.47787271545E+02  0.20000002280E+02 0.  0.
        -12    1    1    2    0    0  0.11331710629E+02  0.25189615629E+02 -0.33476840190E+02  0.43400728455E+02  0.00000000000E+00 0.  1.
         11    1    3    3    0    0 -0.64649170494E+01 -0.33004785379E+01  0.15411911211E+02  0.17035707161E+02  0.51100000000E-03 0. -1.
        -11    1    3    3    0    0 -0.43827504700E+01 -0.13666942238E+02  0.47930590608E+01  0.15131663069E+02  0.51100000000E-03 0.  1.
        -12    1    3    3    0    0 -0.48404310937E+00 -0.82221948538E+01  0.13271869918E+02  0.15619901314E+02  0.00000000000E+00 0.  1.
</event>
<event>
 7    1  0.2442667E-009  0.4778727E+02  0.7816164E-02  0.1312668E+00
        -11   -1    0    0    0    0  0.00000000000E+00  0.00000000000E+00  0.45593999997E+02  0.45594000000E+02  0.51100000000E-03 0.  1.
         11   -1    0    0    0    0 -0.00000000000E+00 -0.00000000000E+00 -0.45593999997E+02  0.45594000000E+02  0.51100000000E-03 0. -1.
    9900012    2    1    2    0    0  0.31624424279E+02 -0.27263553412E+02 -0.11841367957E+02  0.47787267855E+02  0.19999985456E+02 0.  0.
        -12    1    1    2    0    0 -0.31624424279E+02  0.27263553412E+02  0.11841367957E+02  0.43400732145E+02  0.00000000000E+00 0.  1.
         11    1    3    3    0    0  0.26518219723E+02 -0.20352382903E+02 -0.78459072908E+01  0.34336478104E+02  0.51100000000E-03 0. -1.
        -11    1    3    3    0    0  0.14507621292E+01 -0.23003848943E+01 -0.65075278188E+01  0.70529710046E+01  0.51100000000E-03 0.  1.
        -12    1    3    3    0    0  0.36554424271E+01 -0.46107856152E+01  0.25120671528E+01  0.63978187461E+01  0.00000000000E+00 0.  1.
</event>
<event>
 7    1  0.2442667E-009  0.4778727E+02  0.7816164E-02  0.1312668E+00
        -11   -1    0    0    0    0  0.00000000000E+00  0.00000000000E+00  0.45593999997E+02  0.45594000000E+02  0.51100000000E-03 0. -1.
         11   -1    0    0    0    0 -0.00000000000E+00 -0.00000000000E+00 -0.45593999997E+02  0.45594000000E+02  0.51100000000E-03 0.  1.
    9900012    2    1    2    0    0 -0.30218676624E+02  0.17695460232E+02  0.25638362668E+02  0.47787269937E+02  0.19999994949E+02 0.  0.
        -12    1    1    2    0    0  0.30218676624E+02 -0.17695460232E+02 -0.25638362668E+02  0.43400730063E+02  0.00000000000E+00 0.  1.
         11    1    3    3    0    0 -0.12890285509E+02  0.12030352874E+02  0.46119148098E+01  0.18225219046E+02  0.51100000000E-03 0. -1.
        -11    1    3    3    0    0 -0.36691041515E+01 -0.25872916498E+01  0.69966062324E+01  0.83131764319E+01  0.51100000000E-03 0.  1.
        -12    1    3    3    0    0 -0.13659286963E+02  0.82523990073E+01  0.14029841626E+02  0.21248874459E+02  0.00000000000E+00 0.  1.
</event>
<event>
 7    1  0.2442667E-009  0.4778726E+02  0.7816164E-02  0.1312668E+00
        -11   -1    0    0    0    0  0.00000000000E+00  0.00000000000E+00  0.45593999997E+02  0.45594000000E+02  0.51100000000E-03 0.  1.
         11   -1    0    0    0    0 -0.00000000000E+00 -0.00000000000E+00 -0.45593999997E+02  0.45594000000E+02  0.51100000000E-03 0. -1.
    9900012    2    1    2    0    0  0.47640017195E+01  0.38984626898E+02 -0.18469623649E+02  0.47787264471E+02  0.19999970028E+02 0.  0.
        -12    1    1    2    0    0 -0.47640017195E+01 -0.38984626898E+02  0.18469623649E+02  0.43400735529E+02  0.00000000000E+00 0.  1.
         11    1    3    3    0    0  0.60323260068E+01  0.16928747329E+02 -0.15426801735E+02  0.23684544649E+02  0.51100000000E-03 0. -1.
        -11    1    3    3    0    0 -0.48617519510E+01  0.15843553874E+02 -0.33968211504E+01  0.16917246395E+02  0.51100000000E-03 0.  1.
         12    1    3    3    0    0  0.35934276636E+01  0.62123256950E+01  0.35399923684E+00  0.71854734273E+01  0.00000000000E+00 0. -1.
</event>
<event>
 7    1  0.2442667E-009  0.4778727E+02  0.7816164E-02  0.1312668E+00
        -11   -1    0    0    0    0  0.00000000000E+00  0.00000000000E+00  0.45593999997E+02  0.45594000000E+02  0.51100000000E-03 0. -1.
         11   -1    0    0    0    0 -0.00000000000E+00 -0.00000000000E+00 -0.45593999997E+02  0.45594000000E+02  0.51100000000E-03 0.  1.
    9900012    2    1    2    0    0  0.34508647063E+02 -0.16414563579E+02 -0.20575193533E+02  0.47787271797E+02  0.20000003431E+02 0.  0.
        -12    1    1    2    0    0 -0.34508647063E+02  0.16414563579E+02  0.20575193533E+02  0.43400728203E+02  0.00000000000E+00 0.  1.
         11    1    3    3    0    0  0.83480887096E+01 -0.33945156684E+01 -0.36679678047E+01  0.97297127297E+01  0.51100000000E-03 0. -1.
        -11    1    3    3    0    0  0.15351423269E+02 -0.41089580919E+01  0.26762423512E+00  0.15894066691E+02  0.51100000000E-03 0.  1.
        -12    1    3    3    0    0  0.10809135084E+02 -0.89110898185E+01 -0.17174849964E+02  0.22163492376E+02  0.00000000000E+00 0.  1.
</event>
<event>
 7    1  0.2442667E-009  0.4778727E+02  0.7816164E-02  0.1312668E+00
        -11   -1    0    0    0    0  0.00000000000E+00  0.00000000000E+00  0.45593999997E+02  0.45594000000E+02  0.51100000000E-03 0.  1.
         11   -1    0    0    0    0 -0.00000000000E+00 -0.00000000000E+00 -0.45593999997E+02  0.45594000000E+02  0.51100000000E-03 0. -1.
    9900012    2    1    2    0    0 -0.12627844281E+02  0.14481564980E+02 -0.38915871617E+02  0.47787271444E+02  0.20000001821E+02 0.  0.
        -12    1    1    2    0    0  0.12627844281E+02 -0.14481564980E+02  0.38915871617E+02  0.43400728556E+02  0.00000000000E+00 0.  1.
         11    1    3    3    0    0 -0.58192406713E+01  0.38816367699E+01 -0.26885892719E+02  0.27780962791E+02  0.51100000000E-03 0. -1.
        -11    1    3    3    0    0 -0.31974599696E+01  0.57605831301E+01 -0.47747719522E-01  0.65886530005E+01  0.51100000000E-03 0.  1.
        -12    1    3    3    0    0 -0.36111436403E+01  0.48393450803E+01 -0.11982231178E+02  0.13417655653E+02  0.00000000000E+00 0.  1.
</event>
<event>
 7    1  0.2442667E-009  0.4778727E+02  0.7816164E-02  0.1312668E+00
        -11   -1    0    0    0    0  0.00000000000E+00  0.00000000000E+00  0.45593999997E+02  0.45594000000E+02  0.51100000000E-03 0. -1.
         11   -1    0    0    0    0 -0.00000000000E+00 -0.00000000000E+00 -0.45593999997E+02  0.45594000000E+02  0.51100000000E-03 0.  1.
    9900012    2    1    2    0    0 -0.10446186547E+02  0.39941291828E+02 -0.13386328169E+02  0.47787269729E+02  0.19999994000E+02 0.  0.
        -12    1    1    2    0    0  0.10446186547E+02 -0.39941291828E+02  0.13386328169E+02  0.43400730271E+02  0.00000000000E+00 0.  1.
         11    1    3    3    0    0  0.28797890315E+01  0.28234908626E+01 -0.49395139067E+01  0.63768396100E+01  0.51100000000E-03 0. -1.
        -11    1    3    3    0    0 -0.71854336127E+01  0.12913679760E+02  0.75657362736E+00  0.14797499284E+02  0.51100000000E-03 0.  1.
         12    1    3    3    0    0 -0.61405419662E+01  0.24204121206E+02 -0.92033878894E+01  0.26612930835E+02  0.00000000000E+00 0. -1.
</event>
<event>
 7    1  0.2442667E-009  0.4778727E+02  0.7816164E-02  0.1312668E+00
        -11   -1    0    0    0    0  0.00000000000E+00  0.00000000000E+00  0.45593999997E+02  0.45594000000E+02  0.51100000000E-03 0.  1.
         11   -1    0    0    0    0 -0.00000000000E+00 -0.00000000000E+00 -0.45593999997E+02  0.45594000000E+02  0.51100000000E-03 0. -1.
    9900012    2    1    2    0    0 -0.41290213309E+02 -0.31502903532E+01 -0.12992957874E+02  0.47787274214E+02  0.20000014452E+02 0.  0.
        -12    1    1    2    0    0  0.41290213309E+02  0.31502903532E+01  0.12992957874E+02  0.43400725786E+02  0.00000000000E+00 0.  1.
         11    1    3    3    0    0 -0.24526164183E+02 -0.50474561279E+01  0.18196231342E+01  0.25106185922E+02  0.51100000000E-03 0. -1.
        -11    1    3    3    0    0 -0.90749761402E+01  0.10483162876E+01 -0.10119665373E+02  0.13633113603E+02  0.51100000000E-03 0.  1.
         12    1    3    3    0    0 -0.76890729854E+01  0.84884948711E+00 -0.46929156356E+01  0.90479746899E+01  0.00000000000E+00 0. -1.
</event>
<event>
 7    1  0.2442667E-009  0.4778727E+02  0.7816164E-02  0.1312668E+00
        -11   -1    0    0    0    0  0.00000000000E+00  0.00000000000E+00  0.45593999997E+02  0.45594000000E+02  0.51100000000E-03 0.  1.
         11   -1    0    0    0    0 -0.00000000000E+00 -0.00000000000E+00 -0.45593999997E+02  0.45594000000E+02  0.51100000000E-03 0. -1.
    9900012    2    1    2    0    0  0.42159980829E+02  0.87583706608E+01 -0.54268067573E+01  0.47787271069E+02  0.20000000112E+02 0.  0.
        -12    1    1    2    0    0 -0.42159980829E+02 -0.87583706608E+01  0.54268067573E+01  0.43400728931E+02  0.00000000000E+00 0.  1.
         11    1    3    3    0    0  0.15376003658E+02 -0.43334121907E+01  0.78253342062E-01  0.15975170532E+02  0.51100000000E-03 0.  1.
        -11    1    3    3    0    0  0.23944517180E+02  0.11526716717E+02 -0.14414927078E+01  0.26613586807E+02  0.51100000000E-03 0. -1.
        -12    1    3    3    0    0  0.28394599918E+01  0.15650661346E+01 -0.40635673916E+01  0.51985137296E+01  0.00000000000E+00 0.  1.
</event>
<event>
 7    1  0.2442667E-009  0.4778727E+02  0.7816164E-02  0.1312668E+00
        -11   -1    0    0    0    0  0.00000000000E+00  0.00000000000E+00  0.45593999997E+02  0.45594000000E+02  0.51100000000E-03 0.  1.
         11   -1    0    0    0    0 -0.00000000000E+00 -0.00000000000E+00 -0.45593999997E+02  0.45594000000E+02  0.51100000000E-03 0. -1.
    9900012    2    1    2    0    0  0.11215976941E+02 -0.40016736901E+02 -0.12509435407E+02  0.47787270223E+02  0.19999996255E+02 0.  0.
        -12    1    1    2    0    0 -0.11215976941E+02  0.40016736901E+02  0.12509435407E+02  0.43400729777E+02  0.00000000000E+00 0.  1.
         11    1    3    3    0    0 -0.15358549848E+01 -0.25782427770E+02 -0.49702480087E+01  0.26302011287E+02  0.51100000000E-03 0. -1.
        -11    1    3    3    0    0  0.85156528053E+00 -0.11439438150E+01  0.10965765516E+01  0.17989583857E+01  0.51100000000E-03 0.  1.
         12    1    3    3    0    0  0.11900266645E+02 -0.13090365317E+02 -0.86357639500E+01  0.19686300550E+02  0.00000000000E+00 0. -1.
</event>
<event>
 7    1  0.2442667E-009  0.4778726E+02  0.7816164E-02  0.1312668E+00
        -11   -1    0    0    0    0  0.00000000000E+00  0.00000000000E+00  0.45593999997E+02  0.45594000000E+02  0.51100000000E-03 0.  1.
         11   -1    0    0    0    0 -0.00000000000E+00 -0.00000000000E+00 -0.45593999997E+02  0.45594000000E+02  0.51100000000E-03 0. -1.
    9900012    2    1    2    0    0  0.22579353701E+02 -0.99827537266E+01 -0.35695118033E+02  0.47787262254E+02  0.19999959919E+02 0.  0.
        -12    1    1    2    0    0 -0.22579353701E+02  0.99827537266E+01  0.35695118033E+02  0.43400737746E+02  0.00000000000E+00 0.  1.
         11    1    3    3    0    0  0.17388776200E+02 -0.11320951924E+02 -0.22924496641E+02  0.30920317539E+02  0.51100000000E-03 0. -1.
        -11    1    3    3    0    0  0.41067434700E+00  0.37794688360E+01 -0.10010056462E+01  0.39312912213E+01  0.51100000000E-03 0.  1.
        -12    1    3    3    0    0  0.47799031533E+01 -0.24412706386E+01 -0.11769615746E+02  0.12935653493E+02  0.00000000000E+00 0.  1.
</event>
<event>
 7    1  0.2442667E-009  0.4778728E+02  0.7816164E-02  0.1312668E+00
        -11   -1    0    0    0    0  0.00000000000E+00  0.00000000000E+00  0.45593999997E+02  0.45594000000E+02  0.51100000000E-03 0.  1.
         11   -1    0    0    0    0 -0.00000000000E+00 -0.00000000000E+00 -0.45593999997E+02  0.45594000000E+02  0.51100000000E-03 0. -1.
    9900012    2    1    2    0    0 -0.47502122713E+01 -0.41656650941E+02 -0.11215239487E+02  0.47787277875E+02  0.20000031143E+02 0.  0.
        -12    1    1    2    0    0  0.47502122713E+01  0.41656650941E+02  0.11215239487E+02  0.43400722125E+02  0.00000000000E+00 0.  1.
         11    1    3    3    0    0  0.49873261595E+01 -0.21622557577E+02 -0.41321346395E+01  0.22571729117E+02  0.51100000000E-03 0. -1.
        -11    1    3    3    0    0 -0.42831538606E+01 -0.70526367237E+01  0.19600065587E+01  0.84809620752E+01  0.51100000000E-03 0.  1.
         12    1    3    3    0    0 -0.54543845702E+01 -0.12981456640E+02 -0.90431114062E+01  0.16734586683E+02  0.00000000000E+00 0. -1.
</event>
<event>
 7    1  0.2442667E-009  0.4778728E+02  0.7816164E-02  0.1312668E+00
        -11   -1    0    0    0    0  0.00000000000E+00  0.00000000000E+00  0.45593999997E+02  0.45594000000E+02  0.51100000000E-03 0.  1.
         11   -1    0    0    0    0 -0.00000000000E+00 -0.00000000000E+00 -0.45593999997E+02  0.45594000000E+02  0.51100000000E-03 0. -1.
    9900012    2    1    2    0    0 -0.18691799052E+02 -0.12677314577E+02 -0.37061101678E+02  0.47787275188E+02  0.20000018891E+02 0.  0.
        -12    1    1    2    0    0  0.18691799052E+02  0.12677314577E+02  0.37061101678E+02  0.43400724812E+02  0.00000000000E+00 0.  1.
         11    1    3    3    0    0 -0.62028822085E+00 -0.86040205678E+00 -0.50256088423E-01  0.10618733972E+01  0.51100000000E-03 0. -1.
        -11    1    3    3    0    0 -0.79820341033E+01  0.29937105534E+01 -0.45919495556E+01  0.96830352827E+01  0.51100000000E-03 0.  1.
        -12    1    3    3    0    0 -0.10089476728E+02 -0.14810623074E+02 -0.32418896033E+02  0.37042366508E+02  0.00000000000E+00 0.  1.
</event>
<event>
 7    1  0.2442667E-009  0.4778727E+02  0.7816164E-02  0.1312668E+00
        -11   -1    0    0    0    0  0.00000000000E+00  0.00000000000E+00  0.45593999997E+02  0.45594000000E+02  0.51100000000E-03 0.  1.
         11   -1    0    0    0    0 -0.00000000000E+00 -0.00000000000E+00 -0.45593999997E+02  0.45594000000E+02  0.51100000000E-03 0. -1.
    9900012    2    1    2    0    0  0.73280573155E+01  0.15145395787E+02 -0.40006747060E+02  0.47787271344E+02  0.20000001365E+02 0.  0.
        -12    1    1    2    0    0 -0.73280573155E+01 -0.15145395787E+02  0.40006747060E+02  0.43400728656E+02  0.00000000000E+00 0.  1.
         11    1    3    3    0    0 -0.37117603339E+00  0.20032092992E+01 -0.10289141479E+02  0.10488901362E+02  0.51100000000E-03 0. -1.
        -11    1    3    3    0    0  0.77456881559E+00  0.89423228278E+01 -0.31319734699E+01  0.95065426147E+01  0.51100000000E-03 0.  1.
        -12    1    3    3    0    0  0.69246645333E+01  0.41998636596E+01 -0.26585632111E+02  0.27791827367E+02  0.00000000000E+00 0.  1.
</event>
<event>
 7    1  0.2442667E-009  0.4778727E+02  0.7816164E-02  0.1312668E+00
        -11   -1    0    0    0    0  0.00000000000E+00  0.00000000000E+00  0.45593999997E+02  0.45594000000E+02  0.51100000000E-03 0.  1.
         11   -1    0    0    0    0 -0.00000000000E+00 -0.00000000000E+00 -0.45593999997E+02  0.45594000000E+02  0.51100000000E-03 0. -1.
    9900012    2    1    2    0    0 -0.35742640540E+00 -0.36441230779E+02 -0.23569727308E+02  0.47787273051E+02  0.20000009149E+02 0.  0.
        -12    1    1    2    0    0  0.35742640540E+00  0.36441230779E+02  0.23569727308E+02  0.43400726949E+02  0.00000000000E+00 0.  1.
         11    1    3    3    0    0 -0.90735474119E-01 -0.51990414544E+01  0.52567953767E+00  0.52263375521E+01  0.51100000000E-03 0.  1.
        -11    1    3    3    0    0 -0.19734805936E+01 -0.32513339801E+02 -0.23945172492E+02  0.40427505199E+02  0.51100000000E-03 0. -1.
        -12    1    3    3    0    0  0.17067896623E+01  0.12711504765E+01 -0.15023435411E+00  0.21334303004E+01  0.00000000000E+00 0.  1.
</event>
<event>
 7    1  0.2442667E-009  0.4778727E+02  0.7816164E-02  0.1312668E+00
        -11   -1    0    0    0    0  0.00000000000E+00  0.00000000000E+00  0.45593999997E+02  0.45594000000E+02  0.51100000000E-03 0.  1.
         11   -1    0    0    0    0 -0.00000000000E+00 -0.00000000000E+00 -0.45593999997E+02  0.45594000000E+02  0.51100000000E-03 0. -1.
    9900012    2    1    2    0    0  0.31036049653E+02 -0.30248048640E+02 -0.23328914385E+01  0.47787271814E+02  0.20000003511E+02 0.  0.
        -12    1    1    2    0    0 -0.31036049653E+02  0.30248048640E+02  0.23328914385E+01  0.43400728186E+02  0.00000000000E+00 0.  1.
         11    1    3    3    0    0  0.21411076193E+02 -0.22263043520E+02 -0.15454345847E+00  0.30888528202E+02  0.51100000000E-03 0. -1.
        -11    1    3    3    0    0  0.40635660963E+01 -0.45473945830E+01 -0.66152003679E+01  0.89973464467E+01  0.51100000000E-03 0.  1.
        -12    1    3    3    0    0  0.55614073631E+01 -0.34376105364E+01  0.44368523879E+01  0.79013971657E+01  0.00000000000E+00 0.  1.
</event>
<event>
 7    1  0.2442667E-009  0.4778727E+02  0.7816164E-02  0.1312668E+00
        -11   -1    0    0    0    0  0.00000000000E+00  0.00000000000E+00  0.45593999997E+02  0.45594000000E+02  0.51100000000E-03 0.  1.
         11   -1    0    0    0    0 -0.00000000000E+00 -0.00000000000E+00 -0.45593999997E+02  0.45594000000E+02  0.51100000000E-03 0. -1.
    9900012    2    1    2    0    0  0.31040562929E+02 -0.13592515977E+02 -0.27117344868E+02  0.47787269243E+02  0.19999991785E+02 0.  0.
        -12    1    1    2    0    0 -0.31040562929E+02  0.13592515977E+02  0.27117344868E+02  0.43400730757E+02  0.00000000000E+00 0.  1.
         11    1    3    3    0    0  0.53977629021E+01 -0.33198466877E+01 -0.10005740203E+02  0.11843650773E+02  0.51100000000E-03 0. -1.
        -11    1    3    3    0    0  0.12032413958E+02 -0.98636590887E+01 -0.15943578095E+02  0.22277083269E+02  0.51100000000E-03 0.  1.
        -12    1    3    3    0    0  0.13610386069E+02 -0.40901020087E+00 -0.11680265711E+01  0.13666535200E+02  0.00000000000E+00 0.  1.
</event>
<event>
 7    1  0.2442667E-009  0.4778727E+02  0.7816164E-02  0.1312668E+00
        -11   -1    0    0    0    0  0.00000000000E+00  0.00000000000E+00  0.45593999997E+02  0.45594000000E+02  0.51100000000E-03 0. -1.
         11   -1    0    0    0    0 -0.00000000000E+00 -0.00000000000E+00 -0.45593999997E+02  0.45594000000E+02  0.51100000000E-03 0.  1.
    9900012    2    1    2    0    0  0.21462460397E+02  0.47216517336E+01  0.37425820289E+02  0.47787271600E+02  0.20000002532E+02 0.  0.
        -12    1    1    2    0    0 -0.21462460397E+02 -0.47216517336E+01 -0.37425820289E+02  0.43400728400E+02  0.00000000000E+00 0.  1.
         11    1    3    3    0    0  0.38117495523E+01 -0.17060816154E+00  0.23248610360E+02  0.23559635518E+02  0.51100000000E-03 0. -1.
        -11    1    3    3    0    0  0.17041651482E+02  0.56967054976E+01  0.14581483806E+02  0.23140657057E+02  0.51100000000E-03 0.  1.
         12    1    3    3    0    0  0.60905936241E+00 -0.80444560244E+00 -0.40427387693E+00  0.10869790255E+01  0.00000000000E+00 0. -1.
</event>
<event>
 7    1  0.2442667E-009  0.4778727E+02  0.7816164E-02  0.1312668E+00
        -11   -1    0    0    0    0  0.00000000000E+00  0.00000000000E+00  0.45593999997E+02  0.45594000000E+02  0.51100000000E-03 0.  1.
         11   -1    0    0    0    0 -0.00000000000E+00 -0.00000000000E+00 -0.45593999997E+02  0.45594000000E+02  0.51100000000E-03 0. -1.
    9900012    2    1    2    0    0  0.24555872381E+02  0.19989591631E+02 -0.29682464790E+02  0.47787270076E+02  0.19999995583E+02 0.  0.
        -12    1    1    2    0    0 -0.24555872381E+02 -0.19989591631E+02  0.29682464790E+02  0.43400729924E+02  0.00000000000E+00 0.  1.
         11    1    3    3    0    0  0.15986489125E+02  0.46334406527E+01 -0.15978274485E+02  0.23072534811E+02  0.51100000000E-03 0. -1.
        -11    1    3    3    0    0  0.56548401819E+01  0.14029446181E+02 -0.14960473677E+02  0.21274829036E+02  0.51100000000E-03 0.  1.
         12    1    3    3    0    0  0.29145430740E+01  0.13267047974E+01  0.12562833717E+01  0.34399062284E+01  0.00000000000E+00 0. -1.
</event>
<event>
 7    1  0.2442667E-009  0.4778727E+02  0.7816164E-02  0.1312668E+00
        -11   -1    0    0    0    0  0.00000000000E+00  0.00000000000E+00  0.45593999997E+02  0.45594000000E+02  0.51100000000E-03 0. -1.
         11   -1    0    0    0    0 -0.00000000000E+00 -0.00000000000E+00 -0.45593999997E+02  0.45594000000E+02  0.51100000000E-03 0.  1.
    9900012    2    1    2    0    0  0.26332920613E+02  0.14673082805E+01  0.34468068985E+02  0.47787268656E+02  0.19999989112E+02 0.  0.
        -12    1    1    2    0    0 -0.26332920613E+02 -0.14673082805E+01 -0.34468068985E+02  0.43400731344E+02  0.00000000000E+00 0.  1.
         11    1    3    3    0    0  0.28561310143E+02 -0.16363608577E+01  0.29768439437E+02  0.41286633438E+02  0.51100000000E-03 0. -1.
        -11    1    3    3    0    0 -0.16681448941E+01  0.30800093823E+01  0.47885276117E+01  0.59328881779E+01  0.51100000000E-03 0.  1.
         12    1    3    3    0    0 -0.56024463561E+00  0.23659755941E-01 -0.88898063326E-01  0.56774704001E+00  0.00000000000E+00 0. -1.
</event>
<event>
 7    1  0.2442667E-009  0.4778727E+02  0.7816164E-02  0.1312668E+00
        -11   -1    0    0    0    0  0.00000000000E+00  0.00000000000E+00  0.45593999997E+02  0.45594000000E+02  0.51100000000E-03 0.  1.
         11   -1    0    0    0    0 -0.00000000000E+00 -0.00000000000E+00 -0.45593999997E+02  0.45594000000E+02  0.51100000000E-03 0. -1.
    9900012    2    1    2    0    0  0.10827685094E+02  0.24827763988E+02 -0.33911157646E+02  0.47787271411E+02  0.20000001674E+02 0.  0.
        -12    1    1    2    0    0 -0.10827685094E+02 -0.24827763988E+02  0.33911157646E+02  0.43400728589E+02  0.00000000000E+00 0.  1.
         11    1    3    3    0    0  0.84073390845E+01  0.31998935138E+01 -0.37483344164E+01  0.97453927647E+01  0.51100000000E-03 0. -1.
        -11    1    3    3    0    0  0.29019590684E+01  0.31644515230E+01 -0.88714430819E+01  0.98558420489E+01  0.51100000000E-03 0.  1.
         12    1    3    3    0    0 -0.48161305918E+00  0.18463418951E+02 -0.21291380147E+02  0.28186036598E+02  0.00000000000E+00 0. -1.
</event>
<event>
 7    1  0.2442667E-009  0.4778728E+02  0.7816164E-02  0.1312668E+00
        -11   -1    0    0    0    0  0.00000000000E+00  0.00000000000E+00  0.45593999997E+02  0.45594000000E+02  0.51100000000E-03 0. -1.
         11   -1    0    0    0    0 -0.00000000000E+00 -0.00000000000E+00 -0.45593999997E+02  0.45594000000E+02  0.51100000000E-03 0.  1.
    9900012    2    1    2    0    0  0.20659980791E+02  0.10667077845E+02  0.36646979397E+02  0.47787280479E+02  0.20000043017E+02 0.  0.
        -12    1    1    2    0    0 -0.20659980791E+02 -0.10667077845E+02 -0.36646979397E+02  0.43400719521E+02  0.00000000000E+00 0.  1.
         11    1    3    3    0    0  0.15159468188E+02  0.35508219201E+01  0.30036431788E+02  0.33832012161E+02  0.51100000000E-03 0. -1.
        -11    1    3    3    0    0  0.39087884087E+01 -0.15849179357E+00 -0.12528269656E+00  0.39140059386E+01  0.51100000000E-03 0.  1.
         12    1    3    3    0    0  0.15917241937E+01  0.72747477182E+01  0.67358303050E+01  0.10041262379E+02  0.00000000000E+00 0. -1.
</event>
<event>
 7    1  0.2442667E-009  0.4778728E+02  0.7816164E-02  0.1312668E+00
        -11   -1    0    0    0    0  0.00000000000E+00  0.00000000000E+00  0.45593999997E+02  0.45594000000E+02  0.51100000000E-03 0.  1.
         11   -1    0    0    0    0 -0.00000000000E+00 -0.00000000000E+00 -0.45593999997E+02  0.45594000000E+02  0.51100000000E-03 0. -1.
    9900012    2    1    2    0    0 -0.20240028854E+02 -0.46289624931E+01 -0.38112159356E+02  0.47787277050E+02  0.20000027383E+02 0.  0.
        -12    1    1    2    0    0  0.20240028854E+02  0.46289624931E+01  0.38112159356E+02  0.43400722950E+02  0.00000000000E+00 0.  1.
         11    1    3    3    0    0 -0.11581431841E+02 -0.54706933879E+01 -0.14681720278E+02  0.19483607475E+02  0.51100000000E-03 0. -1.
        -11    1    3    3    0    0 -0.58691378279E+01  0.67127180497E+01 -0.16793814674E+02  0.19014194015E+02  0.51100000000E-03 0.  1.
        -12    1    3    3    0    0 -0.27894591852E+01 -0.58709871550E+01 -0.66366244036E+01  0.92894755608E+01  0.00000000000E+00 0.  1.
</event>
<event>
 7    1  0.2442667E-009  0.4778728E+02  0.7816164E-02  0.1312668E+00
        -11   -1    0    0    0    0  0.00000000000E+00  0.00000000000E+00  0.45593999997E+02  0.45594000000E+02  0.51100000000E-03 0.  1.
         11   -1    0    0    0    0 -0.00000000000E+00 -0.00000000000E+00 -0.45593999997E+02  0.45594000000E+02  0.51100000000E-03 0. -1.
    9900012    2    1    2    0    0  0.34084133342E+02 -0.17930155692E+02 -0.20010104792E+02  0.47787275091E+02  0.20000018452E+02 0.  0.
        -12    1    1    2    0    0 -0.34084133342E+02  0.17930155692E+02  0.20010104792E+02  0.43400724909E+02  0.00000000000E+00 0.  1.
         11    1    3    3    0    0  0.90691748724E+01 -0.53845557900E+01 -0.72401968071E+01  0.12793116274E+02  0.51100000000E-03 0. -1.
        -11    1    3    3    0    0 -0.65913961222E+00  0.10784135014E+01 -0.46464737272E+01  0.48153046703E+01  0.51100000000E-03 0.  1.
        -12    1    3    3    0    0  0.25674098082E+02 -0.13624013403E+02 -0.81234342580E+01  0.30178854148E+02  0.00000000000E+00 0.  1.
</event>
<event>
 7    1  0.2442667E-009  0.4778727E+02  0.7816164E-02  0.1312668E+00
        -11   -1    0    0    0    0  0.00000000000E+00  0.00000000000E+00  0.45593999997E+02  0.45594000000E+02  0.51100000000E-03 0.  1.
         11   -1    0    0    0    0 -0.00000000000E+00 -0.00000000000E+00 -0.45593999997E+02  0.45594000000E+02  0.51100000000E-03 0. -1.
    9900012    2    1    2    0    0 -0.26829582126E+02  0.32701750904E+02 -0.97155685501E+01  0.47787271187E+02  0.20000000651E+02 0.  0.
        -12    1    1    2    0    0  0.26829582126E+02 -0.32701750904E+02  0.97155685501E+01  0.43400728813E+02  0.00000000000E+00 0.  1.
         11    1    3    3    0    0 -0.13578254783E+02  0.34423937819E+01 -0.17510626295E+01  0.14116844495E+02  0.51100000000E-03 0. -1.
        -11    1    3    3    0    0 -0.12996233046E+02  0.25488477757E+02 -0.85155972394E+01  0.29850962604E+02  0.51100000000E-03 0.  1.
        -12    1    3    3    0    0 -0.25509429712E+00  0.37708793643E+01  0.55109131883E+00  0.38194640883E+01  0.00000000000E+00 0.  1.
</event>
<event>
 7    1  0.2442667E-009  0.4778728E+02  0.7816164E-02  0.1312668E+00
        -11   -1    0    0    0    0  0.00000000000E+00  0.00000000000E+00  0.45593999997E+02  0.45594000000E+02  0.51100000000E-03 0. -1.
         11   -1    0    0    0    0 -0.00000000000E+00 -0.00000000000E+00 -0.45593999997E+02  0.45594000000E+02  0.51100000000E-03 0.  1.
    9900012    2    1    2    0    0 -0.19399879280E+02  0.16936591860E+02  0.34934501133E+02  0.47787276166E+02  0.20000023350E+02 0.  0.
        -12    1    1    2    0    0  0.19399879280E+02 -0.16936591860E+02 -0.34934501133E+02  0.43400723834E+02  0.00000000000E+00 0.  1.
         11    1    3    3    0    0 -0.14502266006E+02  0.11600277970E+01  0.17222368859E+02  0.22544874655E+02  0.51100000000E-03 0. -1.
        -11    1    3    3    0    0 -0.30608936745E-01  0.10986544858E+02  0.92016656419E+01  0.14330937013E+02  0.51100000000E-03 0.  1.
        -12    1    3    3    0    0 -0.48670043369E+01  0.47900192053E+01  0.85104666320E+01  0.10911464498E+02  0.00000000000E+00 0.  1.
</event>
<event>
 7    1  0.2442667E-009  0.4778727E+02  0.7816164E-02  0.1312668E+00
        -11   -1    0    0    0    0  0.00000000000E+00  0.00000000000E+00  0.45593999997E+02  0.45594000000E+02  0.51100000000E-03 0.  1.
         11   -1    0    0    0    0 -0.00000000000E+00 -0.00000000000E+00 -0.45593999997E+02  0.45594000000E+02  0.51100000000E-03 0. -1.
    9900012    2    1    2    0    0 -0.16480010528E+02 -0.14681620001E+02 -0.37369537548E+02  0.47787273631E+02  0.20000011792E+02 0.  0.
        -12    1    1    2    0    0  0.16480010528E+02  0.14681620001E+02  0.37369537548E+02  0.43400726369E+02  0.00000000000E+00 0.  1.
         11    1    3    3    0    0 -0.88238998807E+01 -0.12043137879E+02 -0.14744522377E+02  0.20983310498E+02  0.51100000000E-03 0. -1.
        -11    1    3    3    0    0 -0.36903653256E+00 -0.35157572651E+00 -0.17719366967E+02  0.17726696235E+02  0.51100000000E-03 0.  1.
        -12    1    3    3    0    0 -0.72870741152E+01 -0.22869063948E+01 -0.49056482037E+01  0.90772668969E+01  0.00000000000E+00 0.  1.
</event>
<event>
 7    1  0.2442667E-009  0.4778727E+02  0.7816164E-02  0.1312668E+00
        -11   -1    0    0    0    0  0.00000000000E+00  0.00000000000E+00  0.45593999997E+02  0.45594000000E+02  0.51100000000E-03 0.  1.
         11   -1    0    0    0    0 -0.00000000000E+00 -0.00000000000E+00 -0.45593999997E+02  0.45594000000E+02  0.51100000000E-03 0. -1.
    9900012    2    1    2    0    0 -0.33522396314E+02  0.33853237410E+01 -0.27357116770E+02  0.47787270635E+02  0.19999998132E+02 0.  0.
        -12    1    1    2    0    0  0.33522396314E+02 -0.33853237410E+01  0.27357116770E+02  0.43400729365E+02  0.00000000000E+00 0.  1.
         11    1    3    3    0    0 -0.16101377114E+01 -0.11622675634E+01 -0.87019691225E+00  0.21680987676E+01  0.51100000000E-03 0. -1.
        -11    1    3    3    0    0 -0.73523063401E+01 -0.57872810044E+01 -0.23054214178E+01  0.96365968120E+01  0.51100000000E-03 0.  1.
        -12    1    3    3    0    0 -0.24559952262E+02  0.10334872309E+02 -0.24181498440E+02  0.35982575055E+02  0.00000000000E+00 0.  1.
</event>
<event>
 7    1  0.2442667E-009  0.4778727E+02  0.7816164E-02  0.1312668E+00
        -11   -1    0    0    0    0  0.00000000000E+00  0.00000000000E+00  0.45593999997E+02  0.45594000000E+02  0.51100000000E-03 0.  1.
         11   -1    0    0    0    0 -0.00000000000E+00 -0.00000000000E+00 -0.45593999997E+02  0.45594000000E+02  0.51100000000E-03 0. -1.
    9900012    2    1    2    0    0  0.21684909719E+02 -0.60986850406E+01 -0.37097088578E+02  0.47787271323E+02  0.20000001269E+02 0.  0.
        -12    1    1    2    0    0 -0.21684909719E+02  0.60986850406E+01  0.37097088578E+02  0.43400728677E+02  0.00000000000E+00 0.  1.
         11    1    3    3    0    0  0.76306702957E+01 -0.24112075435E+01 -0.18814940810E+02  0.20446101069E+02  0.51100000000E-03 0. -1.
        -11    1    3    3    0    0  0.12196173353E+02 -0.56074177669E+01 -0.58805975834E+01  0.14655074434E+02  0.51100000000E-03 0.  1.
        -12    1    3    3    0    0  0.18580660699E+01  0.19199402698E+01 -0.12401550185E+02  0.12686095820E+02  0.00000000000E+00 0.  1.
</event>
<event>
 7    1  0.2442667E-009  0.4778727E+02  0.7816164E-02  0.1312668E+00
        -11   -1    0    0    0    0  0.00000000000E+00  0.00000000000E+00  0.45593999997E+02  0.45594000000E+02  0.51100000000E-03 0.  1.
         11   -1    0    0    0    0 -0.00000000000E+00 -0.00000000000E+00 -0.45593999997E+02  0.45594000000E+02  0.51100000000E-03 0. -1.
    9900012    2    1    2    0    0 -0.33148726569E+02 -0.22873405263E+02 -0.16173823255E+02  0.47787270741E+02  0.19999998619E+02 0.  0.
        -12    1    1    2    0    0  0.33148726569E+02  0.22873405263E+02  0.16173823255E+02  0.43400729259E+02  0.00000000000E+00 0.  1.
         11    1    3    3    0    0 -0.15740259073E+02 -0.79893969076E+01 -0.51870745608E+01  0.18398151032E+02  0.51100000000E-03 0. -1.
        -11    1    3    3    0    0 -0.50962819699E+01 -0.14017649834E+02 -0.60802503247E+01  0.16107018378E+02  0.51100000000E-03 0.  1.
        -12    1    3    3    0    0 -0.12312185526E+02 -0.86635852203E+00 -0.49064983696E+01  0.13282101331E+02  0.00000000000E+00 0.  1.
</event>
<event>
 7    1  0.2442667E-009  0.4778731E+02  0.7816164E-02  0.1312668E+00
        -11   -1    0    0    0    0  0.00000000000E+00  0.00000000000E+00  0.45593999997E+02  0.45594000000E+02  0.51100000000E-03 0.  1.
         11   -1    0    0    0    0 -0.00000000000E+00 -0.00000000000E+00 -0.45593999997E+02  0.45594000000E+02  0.51100000000E-03 0. -1.
    9900012    2    1    2    0    0 -0.24063025628E+02  0.11438499435E+02 -0.34260060804E+02  0.47787306019E+02  0.20000159463E+02 0.  0.
        -12    1    1    2    0    0  0.24063025628E+02 -0.11438499435E+02  0.34260060804E+02  0.43400693981E+02  0.00000000000E+00 0.  1.
         11    1    3    3    0    0 -0.13732310270E+02  0.13023654204E+02 -0.26916304126E+02  0.32904093093E+02  0.51100000000E-03 0. -1.
        -11    1    3    3    0    0 -0.42276867950E+01 -0.72318317461E+00  0.11012005227E+01  0.44282019368E+01  0.51100000000E-03 0.  1.
         12    1    3    3    0    0 -0.61030285631E+01 -0.86197159446E+00 -0.84449572007E+01  0.10455010990E+02  0.00000000000E+00 0. -1.
</event>
<event>
 7    1  0.2442667E-009  0.4778727E+02  0.7816164E-02  0.1312668E+00
        -11   -1    0    0    0    0  0.00000000000E+00  0.00000000000E+00  0.45593999997E+02  0.45594000000E+02  0.51100000000E-03 0.  1.
         11   -1    0    0    0    0 -0.00000000000E+00 -0.00000000000E+00 -0.45593999997E+02  0.45594000000E+02  0.51100000000E-03 0. -1.
    9900012    2    1    2    0    0  0.36497700321E+02  0.17419458822E+02  0.15751301670E+02  0.47787272141E+02  0.20000005001E+02 0.  0.
        -12    1    1    2    0    0 -0.36497700321E+02 -0.17419458822E+02 -0.15751301670E+02  0.43400727859E+02  0.00000000000E+00 0.  1.
         11    1    3    3    0    0  0.53016529469E+01 -0.41286114299E+00  0.24327421626E+01  0.58477528149E+01  0.51100000000E-03 0. -1.
        -11    1    3    3    0    0  0.32438018305E+02  0.13732201962E+02  0.13309090247E+02  0.37655415092E+02  0.51100000000E-03 0.  1.
        -12    1    3    3    0    0 -0.12419709305E+01  0.41001180023E+01  0.94692604471E-02  0.42841042345E+01  0.00000000000E+00 0.  1.
</event>
<event>
 7    1  0.2442667E-009  0.4778727E+02  0.7816164E-02  0.1312668E+00
        -11   -1    0    0    0    0  0.00000000000E+00  0.00000000000E+00  0.45593999997E+02  0.45594000000E+02  0.51100000000E-03 0.  1.
         11   -1    0    0    0    0 -0.00000000000E+00 -0.00000000000E+00 -0.45593999997E+02  0.45594000000E+02  0.51100000000E-03 0. -1.
    9900012    2    1    2    0    0  0.35437977750E+02  0.24433265407E+02 -0.55487473957E+01  0.47787270477E+02  0.19999997413E+02 0.  0.
        -12    1    1    2    0    0 -0.35437977750E+02 -0.24433265407E+02  0.55487473957E+01  0.43400729523E+02  0.00000000000E+00 0.  1.
         11    1    3    3    0    0  0.19206282008E+02  0.21365299427E+02 -0.75707629676E+01  0.29709825653E+02  0.51100000000E-03 0. -1.
        -11    1    3    3    0    0  0.13957155519E+02  0.42998582158E+01  0.36075745169E+01  0.15043455886E+02  0.51100000000E-03 0.  1.
         12    1    3    3    0    0  0.22745402236E+01 -0.12318922351E+01 -0.15855589450E+01  0.30339889380E+01  0.00000000000E+00 0. -1.
</event>
<event>
 7    1  0.2442667E-009  0.4778727E+02  0.7816164E-02  0.1312668E+00
        -11   -1    0    0    0    0  0.00000000000E+00  0.00000000000E+00  0.45593999997E+02  0.45594000000E+02  0.51100000000E-03 0.  1.
         11   -1    0    0    0    0 -0.00000000000E+00 -0.00000000000E+00 -0.45593999997E+02  0.45594000000E+02  0.51100000000E-03 0. -1.
    9900012    2    1    2    0    0  0.15361307303E+02 -0.38881910681E+02  0.11655494109E+02  0.47787270937E+02  0.19999999511E+02 0.  0.
        -12    1    1    2    0    0 -0.15361307303E+02  0.38881910681E+02 -0.11655494109E+02  0.43400729063E+02  0.00000000000E+00 0.  1.
         11    1    3    3    0    0  0.17939039931E+02 -0.30865504633E+02  0.34896779235E+01  0.35870132174E+02  0.51100000000E-03 0. -1.
        -11    1    3    3    0    0 -0.15426278112E+01 -0.54562438620E+01  0.40793131722E+01  0.69850621947E+01  0.51100000000E-03 0.  1.
         12    1    3    3    0    0 -0.10351048165E+01 -0.25601621855E+01  0.40865030136E+01  0.49320765685E+01  0.00000000000E+00 0. -1.
</event>
<event>
 7    1  0.2442667E-009  0.4778727E+02  0.7816164E-02  0.1312668E+00
        -11   -1    0    0    0    0  0.00000000000E+00  0.00000000000E+00  0.45593999997E+02  0.45594000000E+02  0.51100000000E-03 0. -1.
         11   -1    0    0    0    0 -0.00000000000E+00 -0.00000000000E+00 -0.45593999997E+02  0.45594000000E+02  0.51100000000E-03 0.  1.
    9900012    2    1    2    0    0 -0.38276829113E+02  0.99962729529E+01  0.17848866334E+02  0.47787272480E+02  0.20000006544E+02 0.  0.
        -12    1    1    2    0    0  0.38276829113E+02 -0.99962729529E+01 -0.17848866334E+02  0.43400727520E+02  0.00000000000E+00 0.  1.
         11    1    3    3    0    0 -0.15889819986E+01 -0.40862733075E+00 -0.58213655622E+00  0.17408972740E+01  0.51100000000E-03 0. -1.
        -11    1    3    3    0    0 -0.26660440638E+02  0.11363950329E+02  0.52435658656E+01  0.29451883562E+02  0.51100000000E-03 0.  1.
        -12    1    3    3    0    0 -0.10027406476E+02 -0.95905004586E+00  0.13187437025E+02  0.16594491644E+02  0.00000000000E+00 0.  1.
</event>
<event>
 7    1  0.2442667E-009  0.4778727E+02  0.7816164E-02  0.1312668E+00
        -11   -1    0    0    0    0  0.00000000000E+00  0.00000000000E+00  0.45593999997E+02  0.45594000000E+02  0.51100000000E-03 0.  1.
         11   -1    0    0    0    0 -0.00000000000E+00 -0.00000000000E+00 -0.45593999997E+02  0.45594000000E+02  0.51100000000E-03 0. -1.
    9900012    2    1    2    0    0  0.24449985129E+02 -0.23035144380E+02 -0.27480968882E+02  0.47787270742E+02  0.19999998622E+02 0.  0.
        -12    1    1    2    0    0 -0.24449985129E+02  0.23035144380E+02  0.27480968882E+02  0.43400729258E+02  0.00000000000E+00 0.  1.
         11    1    3    3    0    0  0.10655784809E+02 -0.99047620199E+01 -0.32267090714E+01  0.14901735210E+02  0.51100000000E-03 0. -1.
        -11    1    3    3    0    0  0.69530971566E+01 -0.13598636557E+02 -0.17977986801E+02  0.23589753834E+02  0.51100000000E-03 0.  1.
        -12    1    3    3    0    0  0.68411031636E+01  0.46825419746E+00 -0.62762730099E+01  0.92957816984E+01  0.00000000000E+00 0.  1.
</event>
<event>
 7    1  0.2442667E-009  0.4778727E+02  0.7816164E-02  0.1312668E+00
        -11   -1    0    0    0    0  0.00000000000E+00  0.00000000000E+00  0.45593999997E+02  0.45594000000E+02  0.51100000000E-03 0. -1.
         11   -1    0    0    0    0 -0.00000000000E+00 -0.00000000000E+00 -0.45593999997E+02  0.45594000000E+02  0.51100000000E-03 0.  1.
    9900012    2    1    2    0    0  0.42203530289E+02  0.23265774774E+01  0.98525284713E+01  0.47787271332E+02  0.20000001312E+02 0.  0.
        -12    1    1    2    0    0 -0.42203530289E+02 -0.23265774774E+01 -0.98525284713E+01  0.43400728668E+02  0.00000000000E+00 0.  1.
         11    1    3    3    0    0  0.15714429660E+01 -0.18566793596E+01 -0.60460958014E-01  0.24331763249E+01  0.51100000000E-03 0.  1.
        -11    1    3    3    0    0  0.28431797914E+02 -0.49932511087E+01  0.80923902495E+01  0.29979767669E+02  0.51100000000E-03 0. -1.
        -12    1    3    3    0    0  0.12200289409E+02  0.91765079457E+01  0.18205991798E+01  0.15374327339E+02  0.00000000000E+00 0.  1.
</event>
<event>
 7    1  0.2442667E-009  0.4778727E+02  0.7816164E-02  0.1312668E+00
        -11   -1    0    0    0    0  0.00000000000E+00  0.00000000000E+00  0.45593999997E+02  0.45594000000E+02  0.51100000000E-03 0.  1.
         11   -1    0    0    0    0 -0.00000000000E+00 -0.00000000000E+00 -0.45593999997E+02  0.45594000000E+02  0.51100000000E-03 0. -1.
    9900012    2    1    2    0    0  0.41691352070E+01 -0.22474913132E+02 -0.36893357052E+02  0.47787271858E+02  0.20000003710E+02 0.  0.
        -12    1    1    2    0    0 -0.41691352070E+01  0.22474913132E+02  0.36893357052E+02  0.43400728142E+02  0.00000000000E+00 0.  1.
         11    1    3    3    0    0  0.87733174928E+01 -0.11781886314E+02 -0.15096102441E+02  0.21063623955E+02  0.51100000000E-03 0. -1.
        -11    1    3    3    0    0 -0.46516743346E+01 -0.24784866591E+01 -0.15503922731E+02  0.16375365356E+02  0.51100000000E-03 0.  1.
        -12    1    3    3    0    0  0.47492048766E-01 -0.82145401597E+01 -0.62933318797E+01  0.10348282547E+02  0.00000000000E+00 0.  1.
</event>
<event>
 7    1  0.2442667E-009  0.4778727E+02  0.7816164E-02  0.1312668E+00
        -11   -1    0    0    0    0  0.00000000000E+00  0.00000000000E+00  0.45593999997E+02  0.45594000000E+02  0.51100000000E-03 0.  1.
         11   -1    0    0    0    0 -0.00000000000E+00 -0.00000000000E+00 -0.45593999997E+02  0.45594000000E+02  0.51100000000E-03 0. -1.
    9900012    2    1    2    0    0  0.13448523066E+02 -0.40991374264E+02 -0.47399973814E+01  0.47787272910E+02  0.20000008507E+02 0.  0.
        -12    1    1    2    0    0 -0.13448523066E+02  0.40991374264E+02  0.47399973814E+01  0.43400727090E+02  0.00000000000E+00 0.  1.
         11    1    3    3    0    0  0.27723971796E+01  0.94152215490E-01 -0.27523533834E+01  0.39077487341E+01  0.51100000000E-03 0. -1.
        -11    1    3    3    0    0  0.78433102656E+00  0.32089839559E+00 -0.98058560747E+00  0.12960321501E+01  0.51100000000E-03 0.  1.
         12    1    3    3    0    0  0.98917948602E+01 -0.41406424875E+02 -0.10070583906E+01  0.42583492026E+02  0.00000000000E+00 0. -1.
</event>
<event>
 7    1  0.2442667E-009  0.4778727E+02  0.7816164E-02  0.1312668E+00
        -11   -1    0    0    0    0  0.00000000000E+00  0.00000000000E+00  0.45593999997E+02  0.45594000000E+02  0.51100000000E-03 0.  1.
         11   -1    0    0    0    0 -0.00000000000E+00 -0.00000000000E+00 -0.45593999997E+02  0.45594000000E+02  0.51100000000E-03 0. -1.
    9900012    2    1    2    0    0  0.11916125867E+01  0.41962917177E+02 -0.11014387386E+02  0.47787273185E+02  0.20000009760E+02 0.  0.
        -12    1    1    2    0    0 -0.11916125867E+01 -0.41962917177E+02  0.11014387386E+02  0.43400726815E+02  0.00000000000E+00 0.  1.
         11    1    3    3    0    0  0.40771344746E+00  0.26346410647E+02  0.33949332369E+00  0.26351752128E+02  0.51100000000E-03 0. -1.
        -11    1    3    3    0    0 -0.30527385807E+00 -0.11918936829E+01 -0.23419353800E+00  0.12524574061E+01  0.51100000000E-03 0.  1.
         12    1    3    3    0    0  0.10891729973E+01  0.16808400214E+02 -0.11119687172E+02  0.20183063651E+02  0.00000000000E+00 0. -1.
</event>
<event>
 7    1  0.2442667E-009  0.4778727E+02  0.7816164E-02  0.1312668E+00
        -11   -1    0    0    0    0  0.00000000000E+00  0.00000000000E+00  0.45593999997E+02  0.45594000000E+02  0.51100000000E-03 0.  1.
         11   -1    0    0    0    0 -0.00000000000E+00 -0.00000000000E+00 -0.45593999997E+02  0.45594000000E+02  0.51100000000E-03 0. -1.
    9900012    2    1    2    0    0 -0.31521382843E+02  0.23493147079E+02 -0.18387429295E+02  0.47787273138E+02  0.20000009547E+02 0.  0.
        -12    1    1    2    0    0  0.31521382843E+02 -0.23493147079E+02  0.18387429295E+02  0.43400726862E+02  0.00000000000E+00 0.  1.
         11    1    3    3    0    0 -0.19388301993E+02  0.15361898605E+02 -0.20109709959E+02  0.31879376058E+02  0.51100000000E-03 0. -1.
        -11    1    3    3    0    0 -0.15558388686E+01 -0.48184462581E+00  0.15762958608E+01  0.22666093026E+01  0.51100000000E-03 0.  1.
         12    1    3    3    0    0 -0.10577241982E+02  0.86130930996E+01  0.14598480301E+00  0.13641287778E+02  0.00000000000E+00 0. -1.
</event>
<event>
 7    1  0.2442667E-009  0.4778727E+02  0.7816164E-02  0.1312668E+00
        -11   -1    0    0    0    0  0.00000000000E+00  0.00000000000E+00  0.45593999997E+02  0.45594000000E+02  0.51100000000E-03 0.  1.
         11   -1    0    0    0    0 -0.00000000000E+00 -0.00000000000E+00 -0.45593999997E+02  0.45594000000E+02  0.51100000000E-03 0. -1.
    9900012    2    1    2    0    0  0.19321964444E+02 -0.73454353453E+01 -0.38161885071E+02  0.47787271866E+02  0.20000003748E+02 0.  0.
        -12    1    1    2    0    0 -0.19321964444E+02  0.73454353453E+01  0.38161885071E+02  0.43400728134E+02  0.00000000000E+00 0.  1.
         11    1    3    3    0    0  0.69799646873E+00 -0.11926414213E+01 -0.14889804296E+02  0.14953790987E+02  0.51100000000E-03 0. -1.
        -11    1    3    3    0    0  0.14005034263E+02  0.31773271343E+00 -0.94821692467E+01  0.16916071432E+02  0.51100000000E-03 0.  1.
        -12    1    3    3    0    0  0.46189337116E+01 -0.64705266374E+01 -0.13789911528E+02  0.15917409448E+02  0.00000000000E+00 0.  1.
</event>
<event>
 7    1  0.2442667E-009  0.4778727E+02  0.7816164E-02  0.1312668E+00
        -11   -1    0    0    0    0  0.00000000000E+00  0.00000000000E+00  0.45593999997E+02  0.45594000000E+02  0.51100000000E-03 0.  1.
         11   -1    0    0    0    0 -0.00000000000E+00 -0.00000000000E+00 -0.45593999997E+02  0.45594000000E+02  0.51100000000E-03 0. -1.
    9900012    2    1    2    0    0  0.38661148681E+01 -0.23628128763E+02 -0.36199279915E+02  0.47787272134E+02  0.20000004966E+02 0.  0.
        -12    1    1    2    0    0 -0.38661148681E+01  0.23628128763E+02  0.36199279915E+02  0.43400727866E+02  0.00000000000E+00 0.  1.
         11    1    3    3    0    0 -0.44637550370E+01 -0.12062506610E+02 -0.17437078668E+02  0.21667507644E+02  0.51100000000E-03 0. -1.
        -11    1    3    3    0    0  0.83180715019E+01 -0.76864690237E+01 -0.19121543015E+02  0.22223985401E+02  0.51100000000E-03 0.  1.
        -12    1    3    3    0    0  0.11798403175E-01 -0.38791531290E+01  0.35934176896E+00  0.38957790886E+01  0.00000000000E+00 0.  1.
</event>
<event>
 7    1  0.2442667E-009  0.4778727E+02  0.7816164E-02  0.1312668E+00
        -11   -1    0    0    0    0  0.00000000000E+00  0.00000000000E+00  0.45593999997E+02  0.45594000000E+02  0.51100000000E-03 0.  1.
         11   -1    0    0    0    0 -0.00000000000E+00 -0.00000000000E+00 -0.45593999997E+02  0.45594000000E+02  0.51100000000E-03 0. -1.
    9900012    2    1    2    0    0 -0.34109412949E+02  0.23262226359E+02  0.13380603045E+02  0.47787265389E+02  0.19999974216E+02 0.  0.
        -12    1    1    2    0    0  0.34109412949E+02 -0.23262226359E+02 -0.13380603045E+02  0.43400734611E+02  0.00000000000E+00 0.  1.
         11    1    3    3    0    0 -0.17947112352E+02  0.12449893457E+02  0.14571652179E+02  0.26257032131E+02  0.51100000000E-03 0. -1.
        -11    1    3    3    0    0 -0.68344622758E+01  0.47333377861E+01  0.40232606794E+01  0.92358533959E+01  0.51100000000E-03 0.  1.
         12    1    3    3    0    0 -0.93278383212E+01  0.60789951160E+01 -0.52143098134E+01  0.12294379862E+02  0.00000000000E+00 0. -1.
</event>
<event>
 7    1  0.2442667E-009  0.4778727E+02  0.7816164E-02  0.1312668E+00
        -11   -1    0    0    0    0  0.00000000000E+00  0.00000000000E+00  0.45593999997E+02  0.45594000000E+02  0.51100000000E-03 0. -1.
         11   -1    0    0    0    0 -0.00000000000E+00 -0.00000000000E+00 -0.45593999997E+02  0.45594000000E+02  0.51100000000E-03 0.  1.
    9900012    2    1    2    0    0  0.41393076520E+02  0.10286434243E+02 -0.80265668580E+01  0.47787270873E+02  0.19999999218E+02 0.  0.
        -12    1    1    2    0    0 -0.41393076520E+02 -0.10286434243E+02  0.80265668580E+01  0.43400729127E+02  0.00000000000E+00 0.  1.
         11    1    3    3    0    0  0.12144173985E+02  0.16882138593E+01 -0.29649586998E+01  0.12614357224E+02  0.51100000000E-03 0. -1.
        -11    1    3    3    0    0  0.40960847902E+01 -0.46092131237E+01  0.63172790194E+00  0.61985350392E+01  0.51100000000E-03 0.  1.
        -12    1    3    3    0    0  0.25152817745E+02  0.13207433507E+02 -0.56933360601E+01  0.28974378610E+02  0.00000000000E+00 0.  1.
</event>
<event>
 7    1  0.2442667E-009  0.4778728E+02  0.7816164E-02  0.1312668E+00
        -11   -1    0    0    0    0  0.00000000000E+00  0.00000000000E+00  0.45593999997E+02  0.45594000000E+02  0.51100000000E-03 0.  1.
         11   -1    0    0    0    0 -0.00000000000E+00 -0.00000000000E+00 -0.45593999997E+02  0.45594000000E+02  0.51100000000E-03 0. -1.
    9900012    2    1    2    0    0  0.11227978821E+02 -0.27767263298E+02 -0.31409145702E+02  0.47787275891E+02  0.20000022097E+02 0.  0.
        -12    1    1    2    0    0 -0.11227978821E+02  0.27767263298E+02  0.31409145702E+02  0.43400724109E+02  0.00000000000E+00 0.  1.
         11    1    3    3    0    0 -0.40249716759E+00 -0.22989350798E+01 -0.13364994072E+00  0.23377273235E+01  0.51100000000E-03 0. -1.
        -11    1    3    3    0    0 -0.11524098751E+01 -0.97100904502E+01 -0.19936254850E+02  0.22205138207E+02  0.51100000000E-03 0.  1.
        -12    1    3    3    0    0  0.12782885864E+02 -0.15758237768E+02 -0.11339240911E+02  0.23244410360E+02  0.00000000000E+00 0.  1.
</event>
<event>
 7    1  0.2442667E-009  0.4778727E+02  0.7816164E-02  0.1312668E+00
        -11   -1    0    0    0    0  0.00000000000E+00  0.00000000000E+00  0.45593999997E+02  0.45594000000E+02  0.51100000000E-03 0.  1.
         11   -1    0    0    0    0 -0.00000000000E+00 -0.00000000000E+00 -0.45593999997E+02  0.45594000000E+02  0.51100000000E-03 0. -1.
    9900012    2    1    2    0    0 -0.13549550437E+02 -0.14244718169E+02 -0.38692651096E+02  0.47787267730E+02  0.19999984887E+02 0.  0.
        -12    1    1    2    0    0  0.13549550437E+02  0.14244718169E+02  0.38692651096E+02  0.43400732270E+02  0.00000000000E+00 0.  1.
         11    1    3    3    0    0 -0.39634754142E+01 -0.30975921707E+01 -0.13009001512E+01  0.51958210207E+01  0.51100000000E-03 0. -1.
        -11    1    3    3    0    0 -0.11820276937E+02 -0.35389122603E+01 -0.25013570589E+02  0.27891245234E+02  0.51100000000E-03 0.  1.
        -12    1    3    3    0    0  0.22342019143E+01 -0.76082137380E+01 -0.12378180356E+02  0.14700201475E+02  0.00000000000E+00 0.  1.
</event>
<event>
 7    1  0.2442667E-009  0.4778727E+02  0.7816164E-02  0.1312668E+00
        -11   -1    0    0    0    0  0.00000000000E+00  0.00000000000E+00  0.45593999997E+02  0.45594000000E+02  0.51100000000E-03 0. -1.
         11   -1    0    0    0    0 -0.00000000000E+00 -0.00000000000E+00 -0.45593999997E+02  0.45594000000E+02  0.51100000000E-03 0.  1.
    9900012    2    1    2    0    0 -0.30662010748E+02  0.17369001321E+02  0.25333422731E+02  0.47787269392E+02  0.19999992467E+02 0.  0.
        -12    1    1    2    0    0  0.30662010748E+02 -0.17369001321E+02 -0.25333422731E+02  0.43400730608E+02  0.00000000000E+00 0.  1.
         11    1    3    3    0    0  0.10429273720E+01  0.62944540825E+01  0.47866200155E+01  0.79761883838E+01  0.51100000000E-03 0. -1.
        -11    1    3    3    0    0 -0.22051852658E+02  0.69238039325E+01  0.17104645558E+02  0.28753993923E+02  0.51100000000E-03 0.  1.
        -12    1    3    3    0    0 -0.96530854621E+01  0.41507433056E+01  0.34421571574E+01  0.11057087086E+02  0.00000000000E+00 0.  1.
</event>
<event>
 7    1  0.2442667E-009  0.4778727E+02  0.7816164E-02  0.1312668E+00
        -11   -1    0    0    0    0  0.00000000000E+00  0.00000000000E+00  0.45593999997E+02  0.45594000000E+02  0.51100000000E-03 0. -1.
         11   -1    0    0    0    0 -0.00000000000E+00 -0.00000000000E+00 -0.45593999997E+02  0.45594000000E+02  0.51100000000E-03 0.  1.
    9900012    2    1    2    0    0 -0.40780545279E+02 -0.10366438204E+02 -0.10635182049E+02  0.47787274067E+02  0.20000013782E+02 0.  0.
        -12    1    1    2    0    0  0.40780545279E+02  0.10366438204E+02  0.10635182049E+02  0.43400725933E+02  0.00000000000E+00 0.  1.
         11    1    3    3    0    0 -0.28389102387E+02 -0.16541870236E+01 -0.76587261283E+01  0.29450527249E+02  0.51100000000E-03 0. -1.
        -11    1    3    3    0    0 -0.14805554699E+01 -0.41585671045E+01  0.27491137234E+01  0.52003222388E+01  0.51100000000E-03 0.  1.
        -12    1    3    3    0    0 -0.10910887422E+02 -0.45536840756E+01 -0.57255696441E+01  0.13136424580E+02  0.00000000000E+00 0.  1.
</event>
<event>
 7    1  0.2442667E-009  0.4778727E+02  0.7816164E-02  0.1312668E+00
        -11   -1    0    0    0    0  0.00000000000E+00  0.00000000000E+00  0.45593999997E+02  0.45594000000E+02  0.51100000000E-03 0.  1.
         11   -1    0    0    0    0 -0.00000000000E+00 -0.00000000000E+00 -0.45593999997E+02  0.45594000000E+02  0.51100000000E-03 0. -1.
    9900012    2    1    2    0    0  0.27190294511E+02 -0.18951026009E+02 -0.28020879258E+02  0.47787272164E+02  0.20000005103E+02 0.  0.
        -12    1    1    2    0    0 -0.27190294511E+02  0.18951026009E+02  0.28020879258E+02  0.43400727836E+02  0.00000000000E+00 0.  1.
         11    1    3    3    0    0  0.15798278310E+02 -0.11117530445E+02 -0.49106092378E+01  0.19932364739E+02  0.51100000000E-03 0. -1.
        -11    1    3    3    0    0  0.31839011052E+01 -0.64885676090E+01 -0.10390577911E+02  0.12657126271E+02  0.51100000000E-03 0.  1.
         12    1    3    3    0    0  0.82081150956E+01 -0.13449279544E+01 -0.12719692109E+02  0.15197781153E+02  0.00000000000E+00 0. -1.
</event>
<event>
 7    1  0.2442667E-009  0.4778727E+02  0.7816164E-02  0.1312668E+00
        -11   -1    0    0    0    0  0.00000000000E+00  0.00000000000E+00  0.45593999997E+02  0.45594000000E+02  0.51100000000E-03 0.  1.
         11   -1    0    0    0    0 -0.00000000000E+00 -0.00000000000E+00 -0.45593999997E+02  0.45594000000E+02  0.51100000000E-03 0. -1.
    9900012    2    1    2    0    0  0.23118427355E+02  0.23497256880E+02 -0.28231902115E+02  0.47787273494E+02  0.20000011169E+02 0.  0.
        -12    1    1    2    0    0 -0.23118427355E+02 -0.23497256880E+02  0.28231902115E+02  0.43400726506E+02  0.00000000000E+00 0.  1.
         11    1    3    3    0    0  0.12641349374E+02  0.11313759287E+02 -0.18913351920E+02  0.25407080594E+02  0.51100000000E-03 0. -1.
        -11    1    3    3    0    0 -0.26168451599E+01  0.40703570898E+00 -0.53992177457E+00  0.27027897519E+01  0.51100000000E-03 0.  1.
        -12    1    3    3    0    0  0.13093923141E+02  0.11776461883E+02 -0.87786284202E+01  0.19677403148E+02  0.00000000000E+00 0.  1.
</event>
<event>
 7    1  0.2442667E-009  0.4778727E+02  0.7816164E-02  0.1312668E+00
        -11   -1    0    0    0    0  0.00000000000E+00  0.00000000000E+00  0.45593999997E+02  0.45594000000E+02  0.51100000000E-03 0.  1.
         11   -1    0    0    0    0 -0.00000000000E+00 -0.00000000000E+00 -0.45593999997E+02  0.45594000000E+02  0.51100000000E-03 0. -1.
    9900012    2    1    2    0    0 -0.12043287520E+02 -0.80963482201E+01 -0.40902711430E+02  0.47787269233E+02  0.19999991740E+02 0.  0.
        -12    1    1    2    0    0  0.12043287520E+02  0.80963482201E+01  0.40902711430E+02  0.43400730767E+02  0.00000000000E+00 0.  1.
         11    1    3    3    0    0 -0.91360883193E+01 -0.94764080341E+01 -0.21949745122E+02  0.25594173755E+02  0.51100000000E-03 0. -1.
        -11    1    3    3    0    0  0.26195386314E+01  0.42589403077E+01 -0.59348334232E+01  0.77603352510E+01  0.51100000000E-03 0.  1.
        -12    1    3    3    0    0 -0.55267378326E+01 -0.28788804937E+01 -0.13018132885E+02  0.14432760227E+02  0.00000000000E+00 0.  1.
</event>
<event>
 7    1  0.2442667E-009  0.4778727E+02  0.7816164E-02  0.1312668E+00
        -11   -1    0    0    0    0  0.00000000000E+00  0.00000000000E+00  0.45593999997E+02  0.45594000000E+02  0.51100000000E-03 0.  1.
         11   -1    0    0    0    0 -0.00000000000E+00 -0.00000000000E+00 -0.45593999997E+02  0.45594000000E+02  0.51100000000E-03 0. -1.
    9900012    2    1    2    0    0 -0.35954222310E+02  0.57660510198E+01 -0.23615044997E+02  0.47787265024E+02  0.19999972549E+02 0.  0.
        -12    1    1    2    0    0  0.35954222310E+02 -0.57660510198E+01  0.23615044997E+02  0.43400734976E+02  0.00000000000E+00 0.  1.
         11    1    3    3    0    0 -0.18486373135E+02  0.19374397071E+01 -0.60508438839E+01  0.19547694910E+02  0.51100000000E-03 0. -1.
        -11    1    3    3    0    0 -0.97456327153E+01  0.13567668406E+00 -0.17081010647E+02  0.19666130534E+02  0.51100000000E-03 0.  1.
        -12    1    3    3    0    0 -0.77222164590E+01  0.36929346286E+01 -0.48319046634E+00  0.85734395803E+01  0.00000000000E+00 0.  1.
</event>
<event>
 7    1  0.2442667E-009  0.4778728E+02  0.7816164E-02  0.1312668E+00
        -11   -1    0    0    0    0  0.00000000000E+00  0.00000000000E+00  0.45593999997E+02  0.45594000000E+02  0.51100000000E-03 0. -1.
         11   -1    0    0    0    0 -0.00000000000E+00 -0.00000000000E+00 -0.45593999997E+02  0.45594000000E+02  0.51100000000E-03 0.  1.
    9900012    2    1    2    0    0  0.95271812129E+01 -0.39993134566E+02  0.13907009270E+02  0.47787275339E+02  0.20000019580E+02 0.  0.
        -12    1    1    2    0    0 -0.95271812129E+01  0.39993134566E+02 -0.13907009270E+02  0.43400724661E+02  0.00000000000E+00 0.  1.
         11    1    3    3    0    0  0.12717300131E+02 -0.20860828846E+02  0.35348617350E+01  0.24686011232E+02  0.51100000000E-03 0. -1.
        -11    1    3    3    0    0 -0.60818943613E+00 -0.12920947687E+02  0.10025799791E+02  0.16365739984E+02  0.51100000000E-03 0.  1.
         12    1    3    3    0    0 -0.25819294816E+01 -0.62113580326E+01  0.34634774473E+00  0.67355241234E+01  0.00000000000E+00 0. -1.
</event>
<event>
 7    1  0.2442667E-009  0.4778727E+02  0.7816164E-02  0.1312668E+00
        -11   -1    0    0    0    0  0.00000000000E+00  0.00000000000E+00  0.45593999997E+02  0.45594000000E+02  0.51100000000E-03 0.  1.
         11   -1    0    0    0    0 -0.00000000000E+00 -0.00000000000E+00 -0.45593999997E+02  0.45594000000E+02  0.51100000000E-03 0. -1.
    9900012    2    1    2    0    0 -0.38716935423E+02 -0.13143526639E+02  0.14555753312E+02  0.47787270334E+02  0.19999996763E+02 0.  0.
        -12    1    1    2    0    0  0.38716935423E+02  0.13143526639E+02 -0.14555753312E+02  0.43400729666E+02  0.00000000000E+00 0.  1.
         11    1    3    3    0    0 -0.16391852040E+01  0.23303140419E+00 -0.18920017933E+01  0.25141405719E+01  0.51100000000E-03 0. -1.
        -11    1    3    3    0    0 -0.51530982504E+00 -0.88283409958E-01  0.45673311227E+01  0.45971569499E+01  0.51100000000E-03 0.  1.
        -12    1    3    3    0    0 -0.36562440394E+02 -0.13288274633E+02  0.11880423983E+02  0.40675972813E+02  0.00000000000E+00 0.  1.
</event>
<event>
 7    1  0.2442667E-009  0.4778726E+02  0.7816164E-02  0.1312668E+00
        -11   -1    0    0    0    0  0.00000000000E+00  0.00000000000E+00  0.45593999997E+02  0.45594000000E+02  0.51100000000E-03 0. -1.
         11   -1    0    0    0    0 -0.00000000000E+00 -0.00000000000E+00 -0.45593999997E+02  0.45594000000E+02  0.51100000000E-03 0.  1.
    9900012    2    1    2    0    0 -0.21159217370E+02 -0.29679768853E+02  0.23558919992E+02  0.47787264176E+02  0.19999968685E+02 0.  0.
        -12    1    1    2    0    0  0.21159217370E+02  0.29679768853E+02 -0.23558919992E+02  0.43400735824E+02  0.00000000000E+00 0.  1.
         11    1    3    3    0    0 -0.52922599696E+01 -0.38812553029E+01 -0.17863470127E+01  0.68017052437E+01  0.51100000000E-03 0. -1.
        -11    1    3    3    0    0 -0.60350390849E+01 -0.10670527618E+02  0.17367534597E+02  0.21258248156E+02  0.51100000000E-03 0.  1.
         12    1    3    3    0    0 -0.98319183155E+01 -0.15127985932E+02  0.79777324074E+01  0.19727310777E+02  0.00000000000E+00 0. -1.
</event>
<event>
 7    1  0.2442667E-009  0.4778727E+02  0.7816164E-02  0.1312668E+00
        -11   -1    0    0    0    0  0.00000000000E+00  0.00000000000E+00  0.45593999997E+02  0.45594000000E+02  0.51100000000E-03 0.  1.
         11   -1    0    0    0    0 -0.00000000000E+00 -0.00000000000E+00 -0.45593999997E+02  0.45594000000E+02  0.51100000000E-03 0. -1.
    9900012    2    1    2    0    0 -0.23035064361E+02 -0.36754810392E+02  0.14466905815E+01  0.47787272002E+02  0.20000004366E+02 0.  0.
        -12    1    1    2    0    0  0.23035064361E+02  0.36754810392E+02 -0.14466905815E+01  0.43400727998E+02  0.00000000000E+00 0.  1.
         11    1    3    3    0    0 -0.36054044231E+01 -0.16353404209E+01 -0.47387833891E+01  0.61748965672E+01  0.51100000000E-03 0. -1.
        -11    1    3    3    0    0 -0.47145260828E+01 -0.37749190461E+01  0.32572897772E+01  0.68619754403E+01  0.51100000000E-03 0.  1.
         12    1    3    3    0    0 -0.14715133856E+02 -0.31344550925E+02  0.29281841934E+01  0.34750399994E+02  0.00000000000E+00 0. -1.
</event>
<event>
 7    1  0.2442667E-009  0.4778726E+02  0.7816164E-02  0.1312668E+00
        -11   -1    0    0    0    0  0.00000000000E+00  0.00000000000E+00  0.45593999997E+02  0.45594000000E+02  0.51100000000E-03 0. -1.
         11   -1    0    0    0    0 -0.00000000000E+00 -0.00000000000E+00 -0.45593999997E+02  0.45594000000E+02  0.51100000000E-03 0.  1.
    9900012    2    1    2    0    0 -0.18390592750E+02  0.29378402670E+02  0.26121245374E+02  0.47787263773E+02  0.19999966849E+02 0.  0.
        -12    1    1    2    0    0  0.18390592750E+02 -0.29378402670E+02 -0.26121245374E+02  0.43400736227E+02  0.00000000000E+00 0.  1.
         11    1    3    3    0    0 -0.38532521763E+01 -0.11796149979E+01  0.65775931116E+01  0.77138690215E+01  0.51100000000E-03 0. -1.
        -11    1    3    3    0    0 -0.10916957094E+02  0.12948261709E+02  0.82126806228E+01  0.18822474778E+02  0.51100000000E-03 0.  1.
         12    1    3    3    0    0 -0.36203834793E+01  0.17609755958E+02  0.11330971640E+02  0.21250919974E+02  0.00000000000E+00 0. -1.
</event>
<event>
 7    1  0.2442667E-009  0.4778727E+02  0.7816164E-02  0.1312668E+00
        -11   -1    0    0    0    0  0.00000000000E+00  0.00000000000E+00  0.45593999997E+02  0.45594000000E+02  0.51100000000E-03 0.  1.
         11   -1    0    0    0    0 -0.00000000000E+00 -0.00000000000E+00 -0.45593999997E+02  0.45594000000E+02  0.51100000000E-03 0. -1.
    9900012    2    1    2    0    0 -0.40687411580E+02 -0.89095750994E+01 -0.12197428445E+02  0.47787271317E+02  0.20000001243E+02 0.  0.
        -12    1    1    2    0    0  0.40687411580E+02  0.89095750994E+01  0.12197428445E+02  0.43400728683E+02  0.00000000000E+00 0.  1.
         11    1    3    3    0    0 -0.16689731923E+02 -0.44684837944E+01  0.42425726645E+01  0.17790838152E+02  0.51100000000E-03 0. -1.
        -11    1    3    3    0    0 -0.63004105597E+00 -0.96239097533E+00 -0.20016932633E+01  0.23086628821E+01  0.51100000000E-03 0.  1.
         12    1    3    3    0    0 -0.23367638601E+02 -0.34787003297E+01 -0.14438307847E+02  0.27687770283E+02  0.00000000000E+00 0. -1.
</event>
<event>
 7    1  0.2442667E-009  0.4778727E+02  0.7816164E-02  0.1312668E+00
        -11   -1    0    0    0    0  0.00000000000E+00  0.00000000000E+00  0.45593999997E+02  0.45594000000E+02  0.51100000000E-03 0.  1.
         11   -1    0    0    0    0 -0.00000000000E+00 -0.00000000000E+00 -0.45593999997E+02  0.45594000000E+02  0.51100000000E-03 0. -1.
    9900012    2    1    2    0    0 -0.38610574528E+02 -0.65966047535E+01 -0.18690415345E+02  0.47787270911E+02  0.19999999390E+02 0.  0.
        -12    1    1    2    0    0  0.38610574528E+02  0.65966047535E+01  0.18690415345E+02  0.43400729089E+02  0.00000000000E+00 0.  1.
         11    1    3    3    0    0 -0.88704166923E+01  0.19639361915E+01  0.57760805315E+00  0.91035690245E+01  0.51100000000E-03 0.  1.
        -11    1    3    3    0    0 -0.25502282155E+02 -0.67063825230E+01 -0.21035487748E+02  0.33731790743E+02  0.51100000000E-03 0. -1.
         12    1    3    3    0    0 -0.42378756807E+01 -0.18541584219E+01  0.17674643498E+01  0.49519111428E+01  0.00000000000E+00 0. -1.
</event>
<event>
 7    1  0.2442667E-009  0.4778727E+02  0.7816164E-02  0.1312668E+00
        -11   -1    0    0    0    0  0.00000000000E+00  0.00000000000E+00  0.45593999997E+02  0.45594000000E+02  0.51100000000E-03 0. -1.
         11   -1    0    0    0    0 -0.00000000000E+00 -0.00000000000E+00 -0.45593999997E+02  0.45594000000E+02  0.51100000000E-03 0.  1.
    9900012    2    1    2    0    0  0.17937353258E+01  0.43310593775E+02  0.21443711957E+01  0.47787270198E+02  0.19999996141E+02 0.  0.
        -12    1    1    2    0    0 -0.17937353258E+01 -0.43310593775E+02 -0.21443711957E+01  0.43400729802E+02  0.00000000000E+00 0.  1.
         11    1    3    3    0    0  0.32237344743E+01  0.17176752807E+02 -0.59056162573E+00  0.17486625296E+02  0.51100000000E-03 0. -1.
        -11    1    3    3    0    0 -0.58273950919E+00  0.24825879698E+02 -0.23867166752E+01  0.24947150235E+02  0.51100000000E-03 0.  1.
        -12    1    3    3    0    0 -0.84725963940E+00  0.13079612698E+01  0.51216494967E+01  0.53534946667E+01  0.00000000000E+00 0.  1.
</event>
<event>
 7    1  0.2442667E-009  0.4778725E+02  0.7816164E-02  0.1312668E+00
        -11   -1    0    0    0    0  0.00000000000E+00  0.00000000000E+00  0.45593999997E+02  0.45594000000E+02  0.51100000000E-03 0.  1.
         11   -1    0    0    0    0 -0.00000000000E+00 -0.00000000000E+00 -0.45593999997E+02  0.45594000000E+02  0.51100000000E-03 0. -1.
    9900012    2    1    2    0    0  0.40678922965E+02 -0.77167003601E+01 -0.13011636380E+02  0.47787252088E+02  0.19999913571E+02 0.  0.
        -12    1    1    2    0    0 -0.40678922965E+02  0.77167003601E+01  0.13011636380E+02  0.43400747912E+02  0.00000000000E+00 0.  1.
         11    1    3    3    0    0  0.38651579001E+02 -0.87615472664E+01 -0.13145850838E+02  0.41755510586E+02  0.51100000000E-03 0. -1.
        -11    1    3    3    0    0  0.15615972139E+01  0.30180290341E+01  0.13627351451E+01  0.36611654492E+01  0.51100000000E-03 0.  1.
        -12    1    3    3    0    0  0.46574674970E+00 -0.19731821278E+01 -0.12285206871E+01  0.23705760530E+01  0.00000000000E+00 0.  1.
</event>
<event>
 7    1  0.2442667E-009  0.4778727E+02  0.7816164E-02  0.1312668E+00
        -11   -1    0    0    0    0  0.00000000000E+00  0.00000000000E+00  0.45593999997E+02  0.45594000000E+02  0.51100000000E-03 0. -1.
         11   -1    0    0    0    0 -0.00000000000E+00 -0.00000000000E+00 -0.45593999997E+02  0.45594000000E+02  0.51100000000E-03 0.  1.
    9900012    2    1    2    0    0 -0.20637575649E+02 -0.13815280898E+02  0.35592862108E+02  0.47787270191E+02  0.19999996107E+02 0.  0.
        -12    1    1    2    0    0  0.20637575649E+02  0.13815280898E+02 -0.35592862108E+02  0.43400729809E+02  0.00000000000E+00 0.  1.
         11    1    3    3    0    0 -0.13005625774E+02 -0.16443569108E+02  0.23400967542E+02  0.31418824754E+02  0.51100000000E-03 0. -1.
        -11    1    3    3    0    0 -0.76252982301E+01  0.41690853597E+01  0.76697505680E+01  0.11591010304E+02  0.51100000000E-03 0.  1.
         12    1    3    3    0    0 -0.66516446099E-02 -0.15407971503E+01  0.45221439984E+01  0.47774351325E+01  0.00000000000E+00 0. -1.
</event>
<event>
 7    1  0.2442667E-009  0.4778727E+02  0.7816164E-02  0.1312668E+00
        -11   -1    0    0    0    0  0.00000000000E+00  0.00000000000E+00  0.45593999997E+02  0.45594000000E+02  0.51100000000E-03 0. -1.
         11   -1    0    0    0    0 -0.00000000000E+00 -0.00000000000E+00 -0.45593999997E+02  0.45594000000E+02  0.51100000000E-03 0.  1.
    9900012    2    1    2    0    0 -0.36266523752E+02  0.23241140152E+02 -0.53115018212E+01  0.47787269681E+02  0.19999993784E+02 0.  0.
        -12    1    1    2    0    0  0.36266523752E+02 -0.23241140152E+02  0.53115018212E+01  0.43400730319E+02  0.00000000000E+00 0.  1.
         11    1    3    3    0    0 -0.28900146448E+02  0.19306589985E+02  0.19344505217E+01  0.34809553008E+02  0.51100000000E-03 0. -1.
        -11    1    3    3    0    0  0.98474608035E+00  0.70234952700E+00 -0.26486325976E+01  0.29117476880E+01  0.51100000000E-03 0.  1.
         12    1    3    3    0    0 -0.83511233848E+01  0.32322006396E+01 -0.45973197454E+01  0.10065968985E+02  0.00000000000E+00 0. -1.
</event>
<event>
 7    1  0.2442667E-009  0.4778727E+02  0.7816164E-02  0.1312668E+00
        -11   -1    0    0    0    0  0.00000000000E+00  0.00000000000E+00  0.45593999997E+02  0.45594000000E+02  0.51100000000E-03 0. -1.
         11   -1    0    0    0    0 -0.00000000000E+00 -0.00000000000E+00 -0.45593999997E+02  0.45594000000E+02  0.51100000000E-03 0.  1.
    9900012    2    1    2    0    0  0.60699560922E+01  0.35372791680E+02  0.24403775478E+02  0.47787274018E+02  0.20000013557E+02 0.  0.
        -12    1    1    2    0    0 -0.60699560922E+01 -0.35372791680E+02 -0.24403775478E+02  0.43400725982E+02  0.00000000000E+00 0.  1.
         11    1    3    3    0    0  0.27123351124E+01 -0.47060531792E+00 -0.95337501347E+00  0.29132722675E+01  0.51100000000E-03 0.  1.
        -11    1    3    3    0    0  0.24708269313E+01  0.82701094577E+01  0.23332901309E+01  0.89411374703E+01  0.51100000000E-03 0. -1.
         12    1    3    3    0    0  0.88679404864E+00  0.27573287540E+02  0.23023860361E+02  0.35932864280E+02  0.00000000000E+00 0. -1.
</event>
<event>
 7    1  0.2442667E-009  0.4778725E+02  0.7816164E-02  0.1312668E+00
        -11   -1    0    0    0    0  0.00000000000E+00  0.00000000000E+00  0.45593999997E+02  0.45594000000E+02  0.51100000000E-03 0. -1.
         11   -1    0    0    0    0 -0.00000000000E+00 -0.00000000000E+00 -0.45593999997E+02  0.45594000000E+02  0.51100000000E-03 0.  1.
    9900012    2    1    2    0    0  0.10289723878E+01  0.19966491196E+02  0.38521493991E+02  0.47787250535E+02  0.19999906488E+02 0.  0.
        -12    1    1    2    0    0 -0.10289723878E+01 -0.19966491196E+02 -0.38521493991E+02  0.43400749465E+02  0.00000000000E+00 0.  1.
         11    1    3    3    0    0  0.14048314434E+00  0.15267633814E+01 -0.18692347794E+01  0.24175981590E+01  0.51100000000E-03 0. -1.
        -11    1    3    3    0    0 -0.12768807965E+01  0.35076706950E+00  0.33552399562E+00  0.13660302772E+01  0.51100000000E-03 0.  1.
         12    1    3    3    0    0  0.21653700400E+01  0.18088960745E+02  0.40055204775E+02  0.44003622099E+02  0.00000000000E+00 0. -1.
</event>
<event>
 7    1  0.2442667E-009  0.4778727E+02  0.7816164E-02  0.1312668E+00
        -11   -1    0    0    0    0  0.00000000000E+00  0.00000000000E+00  0.45593999997E+02  0.45594000000E+02  0.51100000000E-03 0. -1.
         11   -1    0    0    0    0 -0.00000000000E+00 -0.00000000000E+00 -0.45593999997E+02  0.45594000000E+02  0.51100000000E-03 0.  1.
    9900012    2    1    2    0    0 -0.35476274129E+02  0.56639593869E+01  0.24351123612E+02  0.47787266329E+02  0.19999978502E+02 0.  0.
        -12    1    1    2    0    0  0.35476274129E+02 -0.56639593869E+01 -0.24351123612E+02  0.43400733671E+02  0.00000000000E+00 0.  1.
         11    1    3    3    0    0 -0.83638396188E+01 -0.20617181606E+01  0.67405030037E+01  0.10937955748E+02  0.51100000000E-03 0. -1.
        -11    1    3    3    0    0  0.20622548743E+01  0.13221133988E+01  0.19014720329E+01  0.31010442046E+01  0.51100000000E-03 0.  1.
        -12    1    3    3    0    0 -0.29174689384E+02  0.64035641487E+01  0.15709148575E+02  0.33748266377E+02  0.00000000000E+00 0.  1.
</event>
<event>
 7    1  0.2442667E-009  0.4778727E+02  0.7816164E-02  0.1312668E+00
        -11   -1    0    0    0    0  0.00000000000E+00  0.00000000000E+00  0.45593999997E+02  0.45594000000E+02  0.51100000000E-03 0.  1.
         11   -1    0    0    0    0 -0.00000000000E+00 -0.00000000000E+00 -0.45593999997E+02  0.45594000000E+02  0.51100000000E-03 0. -1.
    9900012    2    1    2    0    0  0.59057075114E+01 -0.84963104035E+01 -0.42149244591E+02  0.47787268540E+02  0.19999988582E+02 0.  0.
        -12    1    1    2    0    0 -0.59057075114E+01  0.84963104035E+01  0.42149244591E+02  0.43400731460E+02  0.00000000000E+00 0.  1.
         11    1    3    3    0    0 -0.43953667699E+01  0.17590899727E+00 -0.17572187637E+02  0.18114413367E+02  0.51100000000E-03 0. -1.
        -11    1    3    3    0    0  0.26773877775E+01 -0.22024236885E-01 -0.13220770980E+02  0.13489168838E+02  0.51100000000E-03 0.  1.
         12    1    3    3    0    0  0.76236865038E+01 -0.86501951639E+01 -0.11356285975E+02  0.16183686336E+02  0.00000000000E+00 0. -1.
</event>
<event>
 7    1  0.2442667E-009  0.4778727E+02  0.7816164E-02  0.1312668E+00
        -11   -1    0    0    0    0  0.00000000000E+00  0.00000000000E+00  0.45593999997E+02  0.45594000000E+02  0.51100000000E-03 0.  1.
         11   -1    0    0    0    0 -0.00000000000E+00 -0.00000000000E+00 -0.45593999997E+02  0.45594000000E+02  0.51100000000E-03 0. -1.
    9900012    2    1    2    0    0 -0.36220034418E+02  0.71151613905E+01 -0.22827769742E+02  0.47787268598E+02  0.19999988845E+02 0.  0.
        -12    1    1    2    0    0  0.36220034418E+02 -0.71151613905E+01  0.22827769742E+02  0.43400731402E+02  0.00000000000E+00 0.  1.
         11    1    3    3    0    0 -0.21309737944E+02  0.34898159629E+01 -0.20732019931E+02  0.29934936067E+02  0.51100000000E-03 0. -1.
        -11    1    3    3    0    0  0.17725033233E+00  0.15004923263E+01 -0.21353536512E+01  0.26158421929E+01  0.51100000000E-03 0.  1.
         12    1    3    3    0    0 -0.15087546807E+02  0.21248531014E+01  0.39603839680E-01  0.15236490338E+02  0.00000000000E+00 0. -1.
</event>
<event>
 7    1  0.2442667E-009  0.4778728E+02  0.7816164E-02  0.1312668E+00
        -11   -1    0    0    0    0  0.00000000000E+00  0.00000000000E+00  0.45593999997E+02  0.45594000000E+02  0.51100000000E-03 0.  1.
         11   -1    0    0    0    0 -0.00000000000E+00 -0.00000000000E+00 -0.45593999997E+02  0.45594000000E+02  0.51100000000E-03 0. -1.
    9900012    2    1    2    0    0 -0.32911067543E+02  0.28100713675E+02  0.32915618679E+01  0.47787275865E+02  0.20000021980E+02 0.  0.
        -12    1    1    2    0    0  0.32911067543E+02 -0.28100713675E+02 -0.32915618679E+01  0.43400724135E+02  0.00000000000E+00 0.  1.
         11    1    3    3    0    0 -0.11161986302E+02  0.25660767891E+01  0.53323237081E+01  0.12633620410E+02  0.51100000000E-03 0. -1.
        -11    1    3    3    0    0 -0.36183725798E+01  0.10665407501E+02 -0.31007794227E+01  0.11681539735E+02  0.51100000000E-03 0.  1.
         12    1    3    3    0    0 -0.18130708662E+02  0.14869229385E+02  0.10600175826E+01  0.23472115720E+02  0.00000000000E+00 0. -1.
</event>
<event>
 7    1  0.2442667E-009  0.4778727E+02  0.7816164E-02  0.1312668E+00
        -11   -1    0    0    0    0  0.00000000000E+00  0.00000000000E+00  0.45593999997E+02  0.45594000000E+02  0.51100000000E-03 0.  1.
         11   -1    0    0    0    0 -0.00000000000E+00 -0.00000000000E+00 -0.45593999997E+02  0.45594000000E+02  0.51100000000E-03 0. -1.
    9900012    2    1    2    0    0  0.35778962037E+02 -0.12598747093E+02 -0.21089356144E+02  0.47787268493E+02  0.19999988367E+02 0.  0.
        -12    1    1    2    0    0 -0.35778962037E+02  0.12598747093E+02  0.21089356144E+02  0.43400731507E+02  0.00000000000E+00 0.  1.
         11    1    3    3    0    0  0.76711638064E+01  0.27605796379E+01  0.43034405286E+00  0.81641135677E+01  0.51100000000E-03 0. -1.
        -11    1    3    3    0    0  0.29706951129E+01  0.68192208599E+00 -0.38189852150E+00  0.30717900200E+01  0.51100000000E-03 0.  1.
         12    1    3    3    0    0  0.25137103118E+02 -0.16041248817E+02 -0.21137801675E+02  0.36551364905E+02  0.00000000000E+00 0. -1.
</event>
<event>
 7    1  0.2442667E-009  0.4778727E+02  0.7816164E-02  0.1312668E+00
        -11   -1    0    0    0    0  0.00000000000E+00  0.00000000000E+00  0.45593999997E+02  0.45594000000E+02  0.51100000000E-03 0.  1.
         11   -1    0    0    0    0 -0.00000000000E+00 -0.00000000000E+00 -0.45593999997E+02  0.45594000000E+02  0.51100000000E-03 0. -1.
    9900012    2    1    2    0    0 -0.41051575659E+02 -0.11379242802E+02  0.83008793482E+01  0.47787266956E+02  0.19999981357E+02 0.  0.
        -12    1    1    2    0    0  0.41051575659E+02  0.11379242802E+02 -0.83008793482E+01  0.43400733044E+02  0.00000000000E+00 0.  1.
         11    1    3    3    0    0  0.47197649598E+00  0.14537409798E+01 -0.20115116549E+01  0.25263222376E+01  0.51100000000E-03 0. -1.
        -11    1    3    3    0    0 -0.56094549340E+01 -0.41132746043E+01  0.30568567763E+01  0.75979856698E+01  0.51100000000E-03 0.  1.
         12    1    3    3    0    0 -0.35914097221E+02 -0.87197091776E+01  0.72555342268E+01  0.37662959048E+02  0.00000000000E+00 0. -1.
</event>
<event>
 7    1  0.2442667E-009  0.4778727E+02  0.7816164E-02  0.1312668E+00
        -11   -1    0    0    0    0  0.00000000000E+00  0.00000000000E+00  0.45593999997E+02  0.45594000000E+02  0.51100000000E-03 0.  1.
         11   -1    0    0    0    0 -0.00000000000E+00 -0.00000000000E+00 -0.45593999997E+02  0.45594000000E+02  0.51100000000E-03 0. -1.
    9900012    2    1    2    0    0  0.28731138741E+02 -0.32410604188E+02  0.27744241662E+01  0.47787273893E+02  0.20000012987E+02 0.  0.
        -12    1    1    2    0    0 -0.28731138741E+02  0.32410604188E+02 -0.27744241662E+01  0.43400726107E+02  0.00000000000E+00 0.  1.
         11    1    3    3    0    0 -0.20073778281E+01 -0.30866144606E+01 -0.19560570259E+01  0.41692821831E+01  0.51100000000E-03 0. -1.
        -11    1    3    3    0    0  0.28838225123E+02 -0.23403912981E+02  0.42328046669E+01  0.37380516404E+02  0.51100000000E-03 0.  1.
        -12    1    3    3    0    0  0.19002914466E+01 -0.59200767462E+01  0.49767652522E+00  0.62374753055E+01  0.00000000000E+00 0.  1.
</event>
<event>
 7    1  0.2442667E-009  0.4778727E+02  0.7816164E-02  0.1312668E+00
        -11   -1    0    0    0    0  0.00000000000E+00  0.00000000000E+00  0.45593999997E+02  0.45594000000E+02  0.51100000000E-03 0.  1.
         11   -1    0    0    0    0 -0.00000000000E+00 -0.00000000000E+00 -0.45593999997E+02  0.45594000000E+02  0.51100000000E-03 0. -1.
    9900012    2    1    2    0    0  0.63432379683E+01 -0.35609430673E+02 -0.23986560987E+02  0.47787270412E+02  0.19999997118E+02 0.  0.
        -12    1    1    2    0    0 -0.63432379683E+01  0.35609430673E+02  0.23986560987E+02  0.43400729588E+02  0.00000000000E+00 0.  1.
         11    1    3    3    0    0 -0.51239662276E+01 -0.56157008300E+01 -0.76258574546E+01  0.10767768009E+02  0.51100000000E-03 0. -1.
        -11    1    3    3    0    0  0.51856827020E+01 -0.17681557838E+02 -0.49066849406E+01  0.19068412363E+02  0.51100000000E-03 0.  1.
         12    1    3    3    0    0  0.62815214939E+01 -0.12312172005E+02 -0.11454018591E+02  0.17951090041E+02  0.00000000000E+00 0. -1.
</event>
<event>
 7    1  0.2442667E-009  0.4778728E+02  0.7816164E-02  0.1312668E+00
        -11   -1    0    0    0    0  0.00000000000E+00  0.00000000000E+00  0.45593999997E+02  0.45594000000E+02  0.51100000000E-03 0.  1.
         11   -1    0    0    0    0 -0.00000000000E+00 -0.00000000000E+00 -0.45593999997E+02  0.45594000000E+02  0.51100000000E-03 0. -1.
    9900012    2    1    2    0    0 -0.37319106416E+02  0.38782391972E+01 -0.21814350855E+02  0.47787281732E+02  0.20000048727E+02 0.  0.
        -12    1    1    2    0    0  0.37319106416E+02 -0.38782391972E+01  0.21814350855E+02  0.43400718268E+02  0.00000000000E+00 0.  1.
         11    1    3    3    0    0 -0.16694040995E+02 -0.68113019385E+01 -0.12740590320E+02  0.22077306919E+02  0.51100000000E-03 0. -1.
        -11    1    3    3    0    0 -0.65825967912E+01  0.60653020283E+01 -0.54800296320E+01  0.10495198628E+02  0.51100000000E-03 0.  1.
         12    1    3    3    0    0 -0.14042468629E+02  0.46242391074E+01 -0.35937309033E+01  0.15214776184E+02  0.00000000000E+00 0. -1.
</event>
<event>
 7    1  0.2442667E-009  0.4778727E+02  0.7816164E-02  0.1312668E+00
        -11   -1    0    0    0    0  0.00000000000E+00  0.00000000000E+00  0.45593999997E+02  0.45594000000E+02  0.51100000000E-03 0.  1.
         11   -1    0    0    0    0 -0.00000000000E+00 -0.00000000000E+00 -0.45593999997E+02  0.45594000000E+02  0.51100000000E-03 0. -1.
    9900012    2    1    2    0    0  0.89660195523E+01 -0.79730558936E+01 -0.41709281664E+02  0.47787270699E+02  0.19999998426E+02 0.  0.
        -12    1    1    2    0    0 -0.89660195523E+01  0.79730558936E+01  0.41709281664E+02  0.43400729301E+02  0.00000000000E+00 0.  1.
         11    1    3    3    0    0  0.62537093752E+01  0.38668845084E+01 -0.78310929136E+01  0.10741866376E+02  0.51100000000E-03 0. -1.
        -11    1    3    3    0    0 -0.17887653429E+01 -0.42655443312E+01 -0.48180699476E+01  0.66789481338E+01  0.51100000000E-03 0.  1.
         12    1    3    3    0    0  0.45010755199E+01 -0.75743960708E+01 -0.29060118803E+02  0.30366456190E+02  0.00000000000E+00 0. -1.
</event>
<event>
 7    1  0.2442667E-009  0.4778727E+02  0.7816164E-02  0.1312668E+00
        -11   -1    0    0    0    0  0.00000000000E+00  0.00000000000E+00  0.45593999997E+02  0.45594000000E+02  0.51100000000E-03 0.  1.
         11   -1    0    0    0    0 -0.00000000000E+00 -0.00000000000E+00 -0.45593999997E+02  0.45594000000E+02  0.51100000000E-03 0. -1.
    9900012    2    1    2    0    0  0.35867404475E+02  0.22701774257E+02 -0.90433369518E+01  0.47787271879E+02  0.20000003806E+02 0.  0.
        -12    1    1    2    0    0 -0.35867404475E+02 -0.22701774257E+02  0.90433369518E+01  0.43400728121E+02  0.00000000000E+00 0.  1.
         11    1    3    3    0    0  0.31176743007E+02  0.14106450176E+02 -0.67698726796E+01  0.34882838437E+02  0.51100000000E-03 0. -1.
        -11    1    3    3    0    0  0.37015874129E+01  0.98701581374E+01 -0.56810520799E+00  0.10556728415E+02  0.51100000000E-03 0.  1.
         12    1    3    3    0    0  0.98907405501E+00 -0.12748340561E+01 -0.17053590642E+01  0.23477050272E+01  0.00000000000E+00 0. -1.
</event>
<event>
 7    1  0.2442667E-009  0.4778727E+02  0.7816164E-02  0.1312668E+00
        -11   -1    0    0    0    0  0.00000000000E+00  0.00000000000E+00  0.45593999997E+02  0.45594000000E+02  0.51100000000E-03 0.  1.
         11   -1    0    0    0    0 -0.00000000000E+00 -0.00000000000E+00 -0.45593999997E+02  0.45594000000E+02  0.51100000000E-03 0. -1.
    9900012    2    1    2    0    0 -0.29017877071E+02 -0.29181496985E+02 -0.13784993453E+02  0.47787274194E+02  0.20000014360E+02 0.  0.
        -12    1    1    2    0    0  0.29017877071E+02  0.29181496985E+02  0.13784993453E+02  0.43400725806E+02  0.00000000000E+00 0.  1.
         11    1    3    3    0    0 -0.13351170974E+02 -0.20955787600E+02 -0.13586653797E+02  0.28319533223E+02  0.51100000000E-03 0. -1.
        -11    1    3    3    0    0 -0.16527294842E+02 -0.76181435630E+01  0.49727161060E+00  0.18205352659E+02  0.51100000000E-03 0.  1.
        -12    1    3    3    0    0  0.86058874476E+00 -0.60756582194E+00 -0.69561126620E+00  0.12623883116E+01  0.00000000000E+00 0.  1.
</event>
<event>
 7    1  0.2442667E-009  0.4778727E+02  0.7816164E-02  0.1312668E+00
        -11   -1    0    0    0    0  0.00000000000E+00  0.00000000000E+00  0.45593999997E+02  0.45594000000E+02  0.51100000000E-03 0.  1.
         11   -1    0    0    0    0 -0.00000000000E+00 -0.00000000000E+00 -0.45593999997E+02  0.45594000000E+02  0.51100000000E-03 0. -1.
    9900012    2    1    2    0    0 -0.16630730900E+02  0.34886349677E+02 -0.19748030934E+02  0.47787270400E+02  0.19999997060E+02 0.  0.
        -12    1    1    2    0    0  0.16630730900E+02 -0.34886349677E+02  0.19748030934E+02  0.43400729600E+02  0.00000000000E+00 0.  1.
         11    1    3    3    0    0 -0.10248028881E+02  0.20265268049E+02 -0.14001141321E+02  0.26678364710E+02  0.51100000000E-03 0. -1.
        -11    1    3    3    0    0 -0.33755211963E+01  0.12123864571E+02  0.16991870792E+01  0.12699191804E+02  0.51100000000E-03 0.  1.
        -12    1    3    3    0    0 -0.30071808231E+01  0.24972170574E+01 -0.74460766924E+01  0.84097138860E+01  0.00000000000E+00 0.  1.
</event>
<event>
 7    1  0.2442667E-009  0.4778727E+02  0.7816164E-02  0.1312668E+00
        -11   -1    0    0    0    0  0.00000000000E+00  0.00000000000E+00  0.45593999997E+02  0.45594000000E+02  0.51100000000E-03 0.  1.
         11   -1    0    0    0    0 -0.00000000000E+00 -0.00000000000E+00 -0.45593999997E+02  0.45594000000E+02  0.51100000000E-03 0. -1.
    9900012    2    1    2    0    0  0.29497482218E+02  0.30214798402E+02 -0.10029369117E+02  0.47787265622E+02  0.19999975277E+02 0.  0.
        -12    1    1    2    0    0 -0.29497482218E+02 -0.30214798402E+02  0.10029369117E+02  0.43400734378E+02  0.00000000000E+00 0.  1.
         11    1    3    3    0    0  0.15503137443E+02  0.56731959905E+01 -0.65769872798E+01  0.17770458218E+02  0.51100000000E-03 0. -1.
        -11    1    3    3    0    0  0.14484389485E+02  0.24370965121E+02 -0.46337292781E+01  0.28726519576E+02  0.51100000000E-03 0.  1.
         12    1    3    3    0    0 -0.49004470974E+00  0.17063729001E+00  0.11813474411E+01  0.12902878279E+01  0.00000000000E+00 0. -1.
</event>
<event>
 7    1  0.2442667E-009  0.4778722E+02  0.7816164E-02  0.1312668E+00
        -11   -1    0    0    0    0  0.00000000000E+00  0.00000000000E+00  0.45593999997E+02  0.45594000000E+02  0.51100000000E-03 0.  1.
         11   -1    0    0    0    0 -0.00000000000E+00 -0.00000000000E+00 -0.45593999997E+02  0.45594000000E+02  0.51100000000E-03 0. -1.
    9900012    2    1    2    0    0 -0.90411182534E+01  0.10380406915E+02 -0.41159850282E+02  0.47787217262E+02  0.19999754785E+02 0.  0.
        -12    1    1    2    0    0  0.90411182534E+01 -0.10380406915E+02  0.41159850282E+02  0.43400782738E+02  0.00000000000E+00 0.  1.
         11    1    3    3    0    0  0.58022749416E+01  0.58922283616E+01 -0.14536593251E+02  0.16724152988E+02  0.51100000000E-03 0. -1.
        -11    1    3    3    0    0 -0.90019192492E+01  0.67952577133E+00 -0.15301482602E+02  0.17766025878E+02  0.51100000000E-03 0.  1.
        -12    1    3    3    0    0 -0.58414739458E+01  0.38086527818E+01 -0.11321774430E+02  0.13297038396E+02  0.00000000000E+00 0.  1.
</event>
<event>
 7    1  0.2442667E-009  0.4778727E+02  0.7816164E-02  0.1312668E+00
        -11   -1    0    0    0    0  0.00000000000E+00  0.00000000000E+00  0.45593999997E+02  0.45594000000E+02  0.51100000000E-03 0.  1.
         11   -1    0    0    0    0 -0.00000000000E+00 -0.00000000000E+00 -0.45593999997E+02  0.45594000000E+02  0.51100000000E-03 0. -1.
    9900012    2    1    2    0    0  0.14165863948E+02 -0.32911169193E+02 -0.24490949734E+02  0.47787269846E+02  0.19999994536E+02 0.  0.
        -12    1    1    2    0    0 -0.14165863948E+02  0.32911169193E+02  0.24490949734E+02  0.43400730154E+02  0.00000000000E+00 0.  1.
         11    1    3    3    0    0  0.33835825390E+01  0.98706659172E+00 -0.30557850627E+01  0.46648423194E+01  0.51100000000E-03 0. -1.
        -11    1    3    3    0    0 -0.20984900452E+01 -0.15911629221E+01 -0.16700008030E+01  0.31183910688E+01  0.51100000000E-03 0.  1.
         12    1    3    3    0    0  0.12880771455E+02 -0.32307072862E+02 -0.19765163868E+02  0.40004036458E+02  0.00000000000E+00 0. -1.
</event>
<event>
 7    1  0.2442667E-009  0.4778727E+02  0.7816164E-02  0.1312668E+00
        -11   -1    0    0    0    0  0.00000000000E+00  0.00000000000E+00  0.45593999997E+02  0.45594000000E+02  0.51100000000E-03 0.  1.
         11   -1    0    0    0    0 -0.00000000000E+00 -0.00000000000E+00 -0.45593999997E+02  0.45594000000E+02  0.51100000000E-03 0. -1.
    9900012    2    1    2    0    0  0.34615681380E+02  0.11820770411E+02 -0.23359087429E+02  0.47787274476E+02  0.20000015645E+02 0.  0.
        -12    1    1    2    0    0 -0.34615681380E+02 -0.11820770411E+02  0.23359087429E+02  0.43400725524E+02  0.00000000000E+00 0.  1.
         11    1    3    3    0    0  0.35546840106E+02  0.14158124159E+02 -0.19214406990E+02  0.42816162339E+02  0.51100000000E-03 0. -1.
        -11    1    3    3    0    0  0.12218771865E+00 -0.40591061649E+00 -0.13464543461E+01  0.14116064729E+01  0.51100000000E-03 0.  1.
         12    1    3    3    0    0 -0.10533464448E+01 -0.19314431311E+01 -0.27982260926E+01  0.35595056633E+01  0.00000000000E+00 0. -1.
</event>
<event>
 7    1  0.2442667E-009  0.4778728E+02  0.7816164E-02  0.1312668E+00
        -11   -1    0    0    0    0  0.00000000000E+00  0.00000000000E+00  0.45593999997E+02  0.45594000000E+02  0.51100000000E-03 0. -1.
         11   -1    0    0    0    0 -0.00000000000E+00 -0.00000000000E+00 -0.45593999997E+02  0.45594000000E+02  0.51100000000E-03 0.  1.
    9900012    2    1    2    0    0  0.34943602367E+02 -0.25439318266E+02 -0.39253536949E+01  0.47787278095E+02  0.20000032147E+02 0.  0.
        -12    1    1    2    0    0 -0.34943602367E+02  0.25439318266E+02  0.39253536949E+01  0.43400721905E+02  0.00000000000E+00 0.  1.
         11    1    3    3    0    0  0.18990058188E+02 -0.20641841640E+02 -0.57478910949E+01  0.28631210044E+02  0.51100000000E-03 0. -1.
        -11    1    3    3    0    0  0.86398855572E+01 -0.14421097733E+01 -0.35813696460E+01  0.94632717304E+01  0.51100000000E-03 0.  1.
         12    1    3    3    0    0  0.73136586213E+01 -0.33553668526E+01  0.54039070460E+01  0.96927963203E+01  0.00000000000E+00 0. -1.
</event>
<event>
 7    1  0.2442667E-009  0.4778727E+02  0.7816164E-02  0.1312668E+00
        -11   -1    0    0    0    0  0.00000000000E+00  0.00000000000E+00  0.45593999997E+02  0.45594000000E+02  0.51100000000E-03 0.  1.
         11   -1    0    0    0    0 -0.00000000000E+00 -0.00000000000E+00 -0.45593999997E+02  0.45594000000E+02  0.51100000000E-03 0. -1.
    9900012    2    1    2    0    0  0.10716050074E+02  0.40205921625E+02 -0.12339921104E+02  0.47787268258E+02  0.19999987295E+02 0.  0.
        -12    1    1    2    0    0 -0.10716050074E+02 -0.40205921625E+02  0.12339921104E+02  0.43400731742E+02  0.00000000000E+00 0.  1.
         11    1    3    3    0    0  0.92121866140E+01  0.80236921117E+01 -0.31985093817E+00  0.12220733292E+02  0.51100000000E-03 0.  1.
        -11    1    3    3    0    0 -0.74599472990E+00  0.28000214542E+02 -0.74685889545E+01  0.28988762371E+02  0.51100000000E-03 0. -1.
        -12    1    3    3    0    0  0.22498581903E+01  0.41820149708E+01 -0.45514812114E+01  0.65777725949E+01  0.00000000000E+00 0.  1.
</event>
<event>
 7    1  0.2442667E-009  0.4778726E+02  0.7816164E-02  0.1312668E+00
        -11   -1    0    0    0    0  0.00000000000E+00  0.00000000000E+00  0.45593999997E+02  0.45594000000E+02  0.51100000000E-03 0.  1.
         11   -1    0    0    0    0 -0.00000000000E+00 -0.00000000000E+00 -0.45593999997E+02  0.45594000000E+02  0.51100000000E-03 0. -1.
    9900012    2    1    2    0    0  0.40481851006E+02 -0.18514573327E+01 -0.15537582895E+02  0.47787255336E+02  0.19999928381E+02 0.  0.
        -12    1    1    2    0    0 -0.40481851006E+02  0.18514573327E+01  0.15537582895E+02  0.43400744664E+02  0.00000000000E+00 0.  1.
         11    1    3    3    0    0  0.10769986252E+02 -0.67918056728E+01 -0.81930292563E+01  0.15140903435E+02  0.51100000000E-03 0. -1.
        -11    1    3    3    0    0  0.28323879895E+02  0.31708681583E+01 -0.89615040425E+01  0.29876497990E+02  0.51100000000E-03 0.  1.
        -12    1    3    3    0    0  0.13879848594E+01  0.17694801818E+01  0.16169504041E+01  0.27698539118E+01  0.00000000000E+00 0.  1.
</event>
<event>
 7    1  0.2442667E-009  0.4778727E+02  0.7816164E-02  0.1312668E+00
        -11   -1    0    0    0    0  0.00000000000E+00  0.00000000000E+00  0.45593999997E+02  0.45594000000E+02  0.51100000000E-03 0.  1.
         11   -1    0    0    0    0 -0.00000000000E+00 -0.00000000000E+00 -0.45593999997E+02  0.45594000000E+02  0.51100000000E-03 0. -1.
    9900012    2    1    2    0    0 -0.32584178020E+02 -0.42294025934E+01 -0.28355013766E+02  0.47787270637E+02  0.19999998144E+02 0.  0.
        -12    1    1    2    0    0  0.32584178020E+02  0.42294025934E+01  0.28355013766E+02  0.43400729363E+02  0.00000000000E+00 0.  1.
         11    1    3    3    0    0 -0.21402913080E+01 -0.27173861750E+01 -0.28358162465E+01  0.44729060522E+01  0.51100000000E-03 0. -1.
        -11    1    3    3    0    0 -0.71060223658E+01 -0.50687225256E+01 -0.15247669795E+02  0.17569261121E+02  0.51100000000E-03 0.  1.
        -12    1    3    3    0    0 -0.23337864346E+02  0.35567061071E+01 -0.10271527725E+02  0.25745103464E+02  0.00000000000E+00 0.  1.
</event>
<event>
 7    1  0.2442667E-009  0.4778727E+02  0.7816164E-02  0.1312668E+00
        -11   -1    0    0    0    0  0.00000000000E+00  0.00000000000E+00  0.45593999997E+02  0.45594000000E+02  0.51100000000E-03 0. -1.
         11   -1    0    0    0    0 -0.00000000000E+00 -0.00000000000E+00 -0.45593999997E+02  0.45594000000E+02  0.51100000000E-03 0.  1.
    9900012    2    1    2    0    0 -0.94816353803E+00 -0.25073497883E+02  0.35412482807E+02  0.47787271334E+02  0.20000001321E+02 0.  0.
        -12    1    1    2    0    0  0.94816353803E+00  0.25073497883E+02 -0.35412482807E+02  0.43400728666E+02  0.00000000000E+00 0.  1.
         11    1    3    3    0    0 -0.32367010343E+01 -0.10976192499E+02  0.51095928723E+01  0.12532397015E+02  0.51100000000E-03 0. -1.
        -11    1    3    3    0    0  0.28220633983E+01 -0.64957980539E+01  0.24967369847E+02  0.25952437102E+02  0.51100000000E-03 0.  1.
        -12    1    3    3    0    0 -0.53352590204E+00 -0.76015073302E+01  0.53355200874E+01  0.93024372173E+01  0.00000000000E+00 0.  1.
</event>
<event>
 7    1  0.2442667E-009  0.4778726E+02  0.7816164E-02  0.1312668E+00
        -11   -1    0    0    0    0  0.00000000000E+00  0.00000000000E+00  0.45593999997E+02  0.45594000000E+02  0.51100000000E-03 0.  1.
         11   -1    0    0    0    0 -0.00000000000E+00 -0.00000000000E+00 -0.45593999997E+02  0.45594000000E+02  0.51100000000E-03 0. -1.
    9900012    2    1    2    0    0 -0.61159583350E+00  0.11413824511E+02 -0.41868538292E+02  0.47787263392E+02  0.19999965108E+02 0.  0.
        -12    1    1    2    0    0  0.61159583350E+00 -0.11413824511E+02  0.41868538292E+02  0.43400736608E+02  0.00000000000E+00 0.  1.
         11    1    3    3    0    0 -0.50482391067E+00  0.15515260053E+02 -0.21405089141E+02  0.26441557879E+02  0.51100000000E-03 0. -1.
        -11    1    3    3    0    0  0.10280303100E+01 -0.35301850014E+01 -0.19218083675E+02  0.19566650017E+02  0.51100000000E-03 0.  1.
        -12    1    3    3    0    0 -0.11348022329E+01 -0.57125054078E+00 -0.12453654764E+01  0.17790554960E+01  0.00000000000E+00 0.  1.
</event>
<event>
 7    1  0.2442667E-009  0.4778730E+02  0.7816164E-02  0.1312668E+00
        -11   -1    0    0    0    0  0.00000000000E+00  0.00000000000E+00  0.45593999997E+02  0.45594000000E+02  0.51100000000E-03 0. -1.
         11   -1    0    0    0    0 -0.00000000000E+00 -0.00000000000E+00 -0.45593999997E+02  0.45594000000E+02  0.51100000000E-03 0.  1.
    9900012    2    1    2    0    0 -0.13259262998E+02  0.97105642214E+01  0.40168617289E+02  0.47787298074E+02  0.20000123238E+02 0.  0.
        -12    1    1    2    0    0  0.13259262998E+02 -0.97105642214E+01 -0.40168617289E+02  0.43400701926E+02  0.00000000000E+00 0.  1.
         11    1    3    3    0    0 -0.60213436521E+01  0.81812408158E+01  0.15313836826E+02  0.18376693915E+02  0.51100000000E-03 0. -1.
        -11    1    3    3    0    0  0.63594143729E+00 -0.36240325392E+01  0.10699080244E+01  0.38318059448E+01  0.51100000000E-03 0.  1.
        -12    1    3    3    0    0 -0.78738607835E+01  0.51533559448E+01  0.23784872439E+02  0.25578798214E+02  0.00000000000E+00 0.  1.
</event>
<event>
 7    1  0.2880647E-009  0.4778727E+02  0.7816164E-02  0.1312668E+00
        -11   -1    0    0    0    0  0.00000000000E+00  0.00000000000E+00  0.45593999997E+02  0.45594000000E+02  0.51100000000E-03 0. -1.
         11   -1    0    0    0    0 -0.00000000000E+00 -0.00000000000E+00 -0.45593999997E+02  0.45594000000E+02  0.51100000000E-03 0.  1.
    9900012    2    1    2    0    0  0.12460364809E+01 -0.42200644535E+01  0.43177098219E+02  0.47787270035E+02  0.19999995396E+02 0.  0.
        -12    1    1    2    0    0 -0.12460364809E+01  0.42200644535E+01 -0.43177098219E+02  0.43400729965E+02  0.00000000000E+00 0.  1.
         11    1    3    3    0    0  0.25954800508E+00  0.14246778877E+01  0.13466067163E+02  0.13543708404E+02  0.51100000000E-03 0. -1.
        -11    1    3    3    0    0 -0.33107013595E+01 -0.59699949075E+01  0.29101183389E+02  0.29891143464E+02  0.51100000000E-03 0.  1.
        -12    1    3    3    0    0  0.42971898354E+01  0.32525256625E+00  0.60984766708E+00  0.43524181658E+01  0.00000000000E+00 0.  1.
</event>
<event>
 7    1  0.2442667E-009  0.4778727E+02  0.7816164E-02  0.1312668E+00
        -11   -1    0    0    0    0  0.00000000000E+00  0.00000000000E+00  0.45593999997E+02  0.45594000000E+02  0.51100000000E-03 0. -1.
         11   -1    0    0    0    0 -0.00000000000E+00 -0.00000000000E+00 -0.45593999997E+02  0.45594000000E+02  0.51100000000E-03 0.  1.
    9900012    2    1    2    0    0  0.40448771168E+02 -0.12997814749E+02 -0.88643559913E+01  0.47787273227E+02  0.20000009953E+02 0.  0.
        -12    1    1    2    0    0 -0.40448771168E+02  0.12997814749E+02  0.88643559913E+01  0.43400726773E+02  0.00000000000E+00 0.  1.
         11    1    3    3    0    0  0.30899661946E+02 -0.13485657099E+02 -0.64941079712E+01  0.34334028228E+02  0.51100000000E-03 0. -1.
        -11    1    3    3    0    0  0.27826749764E+01  0.43829537382E+01  0.30375215347E+00  0.52005604628E+01  0.51100000000E-03 0.  1.
        -12    1    3    3    0    0  0.67664342453E+01 -0.38951113884E+01 -0.26740001736E+01  0.82526845361E+01  0.00000000000E+00 0.  1.
</event>
<event>
 7    1  0.2442667E-009  0.4778727E+02  0.7816164E-02  0.1312668E+00
        -11   -1    0    0    0    0  0.00000000000E+00  0.00000000000E+00  0.45593999997E+02  0.45594000000E+02  0.51100000000E-03 0.  1.
         11   -1    0    0    0    0 -0.00000000000E+00 -0.00000000000E+00 -0.45593999997E+02  0.45594000000E+02  0.51100000000E-03 0. -1.
    9900012    2    1    2    0    0  0.13016010187E+02  0.27915132842E+02 -0.30576981542E+02  0.47787274626E+02  0.20000016332E+02 0.  0.
        -12    1    1    2    0    0 -0.13016010187E+02 -0.27915132842E+02  0.30576981542E+02  0.43400725374E+02  0.00000000000E+00 0.  1.
         11    1    3    3    0    0  0.99782816650E+01  0.22229552757E+02 -0.26239042226E+02  0.35807910550E+02  0.51100000000E-03 0. -1.
        -11    1    3    3    0    0  0.60389730272E+01  0.42279334043E+01 -0.45037133781E+01  0.86387528351E+01  0.51100000000E-03 0.  1.
         12    1    3    3    0    0 -0.30012445054E+01  0.14576466800E+01  0.16577406221E+00  0.33406112412E+01  0.00000000000E+00 0. -1.
</event>
<event>
 7    1  0.2442667E-009  0.4778727E+02  0.7816164E-02  0.1312668E+00
        -11   -1    0    0    0    0  0.00000000000E+00  0.00000000000E+00  0.45593999997E+02  0.45594000000E+02  0.51100000000E-03 0.  1.
         11   -1    0    0    0    0 -0.00000000000E+00 -0.00000000000E+00 -0.45593999997E+02  0.45594000000E+02  0.51100000000E-03 0. -1.
    9900012    2    1    2    0    0  0.73262903640E+01  0.26324428071E+02 -0.33719038361E+02  0.47787267383E+02  0.19999983305E+02 0.  0.
        -12    1    1    2    0    0 -0.73262903640E+01 -0.26324428071E+02  0.33719038361E+02  0.43400732617E+02  0.00000000000E+00 0.  1.
         11    1    3    3    0    0  0.65961607582E+01  0.89506639732E+00 -0.11113469517E+02  0.12954523749E+02  0.51100000000E-03 0. -1.
        -11    1    3    3    0    0 -0.20766603984E+01  0.18290336966E+02 -0.12977923137E+02  0.22522775893E+02  0.51100000000E-03 0.  1.
         12    1    3    3    0    0  0.28067900041E+01  0.71390247075E+01 -0.96276457074E+01  0.12309967740E+02  0.00000000000E+00 0. -1.
</event>
<event>
 7    1  0.2442667E-009  0.4778727E+02  0.7816164E-02  0.1312668E+00
        -11   -1    0    0    0    0  0.00000000000E+00  0.00000000000E+00  0.45593999997E+02  0.45594000000E+02  0.51100000000E-03 0.  1.
         11   -1    0    0    0    0 -0.00000000000E+00 -0.00000000000E+00 -0.45593999997E+02  0.45594000000E+02  0.51100000000E-03 0. -1.
    9900012    2    1    2    0    0 -0.43095293607E+02 -0.93511483553E+00  0.50541233268E+01  0.47787274967E+02  0.20000017884E+02 0.  0.
        -12    1    1    2    0    0  0.43095293607E+02  0.93511483553E+00 -0.50541233268E+01  0.43400725033E+02  0.00000000000E+00 0.  1.
         11    1    3    3    0    0 -0.14895005510E+02  0.74435216964E+01  0.16964827250E+01  0.16737540389E+02  0.51100000000E-03 0. -1.
        -11    1    3    3    0    0 -0.44554331443E+01 -0.24245443646E+01 -0.28182385782E+01  0.58027380455E+01  0.51100000000E-03 0.  1.
         12    1    3    3    0    0 -0.23744854952E+02 -0.59540921673E+01  0.61758791800E+01  0.25246996532E+02  0.00000000000E+00 0. -1.
</event>
<event>
 7    1  0.2442667E-009  0.4778726E+02  0.7816164E-02  0.1312668E+00
        -11   -1    0    0    0    0  0.00000000000E+00  0.00000000000E+00  0.45593999997E+02  0.45594000000E+02  0.51100000000E-03 0. -1.
         11   -1    0    0    0    0 -0.00000000000E+00 -0.00000000000E+00 -0.45593999997E+02  0.45594000000E+02  0.51100000000E-03 0.  1.
    9900012    2    1    2    0    0 -0.41422252128E+02  0.11966022055E+02  0.49633825519E+01  0.47787264736E+02  0.19999971235E+02 0.  0.
        -12    1    1    2    0    0  0.41422252128E+02 -0.11966022055E+02 -0.49633825519E+01  0.43400735264E+02  0.00000000000E+00 0.  1.
         11    1    3    3    0    0 -0.83062092104E+00  0.11237289239E+01  0.47556726344E+01  0.49567247529E+01  0.51100000000E-03 0.  1.
        -11    1    3    3    0    0 -0.32356398690E+02  0.50407806154E+01 -0.22946598464E+00  0.32747498535E+02  0.51100000000E-03 0. -1.
        -12    1    3    3    0    0 -0.82352325169E+01  0.58015125154E+01  0.43717590212E+00  0.10083041448E+02  0.00000000000E+00 0.  1.
</event>
<event>
 7    1  0.2442667E-009  0.4778727E+02  0.7816164E-02  0.1312668E+00
        -11   -1    0    0    0    0  0.00000000000E+00  0.00000000000E+00  0.45593999997E+02  0.45594000000E+02  0.51100000000E-03 0. -1.
         11   -1    0    0    0    0 -0.00000000000E+00 -0.00000000000E+00 -0.45593999997E+02  0.45594000000E+02  0.51100000000E-03 0.  1.
    9900012    2    1    2    0    0 -0.22763808177E+02  0.28825083767E+02  0.23120272541E+02  0.47787269370E+02  0.19999992364E+02 0.  0.
        -12    1    1    2    0    0  0.22763808177E+02 -0.28825083767E+02 -0.23120272541E+02  0.43400730630E+02  0.00000000000E+00 0.  1.
         11    1    3    3    0    0 -0.18707018731E+02  0.21634645720E+02  0.93980062631E+01  0.30105364426E+02  0.51100000000E-03 0. -1.
        -11    1    3    3    0    0  0.15991877593E+01  0.46199819417E+01  0.52233028700E+01  0.71543362909E+01  0.51100000000E-03 0.  1.
         12    1    3    3    0    0 -0.56559772055E+01  0.25704561055E+01  0.84989634075E+01  0.10527568653E+02  0.00000000000E+00 0. -1.
</event>
<event>
 7    1  0.2442667E-009  0.4778727E+02  0.7816164E-02  0.1312668E+00
        -11   -1    0    0    0    0  0.00000000000E+00  0.00000000000E+00  0.45593999997E+02  0.45594000000E+02  0.51100000000E-03 0.  1.
         11   -1    0    0    0    0 -0.00000000000E+00 -0.00000000000E+00 -0.45593999997E+02  0.45594000000E+02  0.51100000000E-03 0. -1.
    9900012    2    1    2    0    0 -0.59099384824E+01  0.83161217607E+01 -0.42184568483E+02  0.47787273369E+02  0.20000010599E+02 0.  0.
        -12    1    1    2    0    0  0.59099384824E+01 -0.83161217607E+01  0.42184568483E+02  0.43400726631E+02  0.00000000000E+00 0.  1.
         11    1    3    3    0    0 -0.21456190343E+01  0.10412085130E+02 -0.14970108177E+02  0.18360809810E+02  0.51100000000E-03 0. -1.
        -11    1    3    3    0    0 -0.73376670125E+01 -0.20447938627E+01 -0.18241802057E+02  0.19768304977E+02  0.51100000000E-03 0.  1.
         12    1    3    3    0    0  0.35733475644E+01 -0.51169506936E-01 -0.89726582497E+01  0.96581585823E+01  0.00000000000E+00 0. -1.
</event>
<event>
 7    1  0.2442667E-009  0.4778727E+02  0.7816164E-02  0.1312668E+00
        -11   -1    0    0    0    0  0.00000000000E+00  0.00000000000E+00  0.45593999997E+02  0.45594000000E+02  0.51100000000E-03 0. -1.
         11   -1    0    0    0    0 -0.00000000000E+00 -0.00000000000E+00 -0.45593999997E+02  0.45594000000E+02  0.51100000000E-03 0.  1.
    9900012    2    1    2    0    0 -0.28870971887E+02  0.20970833087E+02  0.24704541916E+02  0.47787271327E+02  0.20000001289E+02 0.  0.
        -12    1    1    2    0    0  0.28870971887E+02 -0.20970833087E+02 -0.24704541916E+02  0.43400728673E+02  0.00000000000E+00 0.  1.
         11    1    3    3    0    0 -0.16556685460E+02  0.98685566515E+00  0.11590423599E+02  0.20234515981E+02  0.51100000000E-03 0. -1.
        -11    1    3    3    0    0 -0.40526100069E+01  0.97263602438E+01  0.86918690063E+01  0.13659221008E+02  0.51100000000E-03 0.  1.
        -12    1    3    3    0    0 -0.82616764196E+01  0.10257617178E+02  0.44222493109E+01  0.13893534338E+02  0.00000000000E+00 0.  1.
</event>
<event>
 7    1  0.2442667E-009  0.4778727E+02  0.7816164E-02  0.1312668E+00
        -11   -1    0    0    0    0  0.00000000000E+00  0.00000000000E+00  0.45593999997E+02  0.45594000000E+02  0.51100000000E-03 0.  1.
         11   -1    0    0    0    0 -0.00000000000E+00 -0.00000000000E+00 -0.45593999997E+02  0.45594000000E+02  0.51100000000E-03 0. -1.
    9900012    2    1    2    0    0  0.23138381076E+02 -0.76903129922E+01 -0.35904008368E+02  0.47787269481E+02  0.19999992870E+02 0.  0.
        -12    1    1    2    0    0 -0.23138381076E+02  0.76903129922E+01  0.35904008368E+02  0.43400730519E+02  0.00000000000E+00 0.  1.
         11    1    3    3    0    0  0.16438299927E+02 -0.46310549535E+01 -0.31161158776E+02  0.35534239700E+02  0.51100000000E-03 0. -1.
        -11    1    3    3    0    0 -0.51719847944E+00  0.20746269020E+01 -0.21315924220E+01  0.30191484833E+01  0.51100000000E-03 0.  1.
         12    1    3    3    0    0  0.72172796283E+01 -0.51338849406E+01 -0.26112571694E+01  0.92338812978E+01  0.00000000000E+00 0. -1.
</event>
<event>
 7    1  0.2442667E-009  0.4778727E+02  0.7816164E-02  0.1312668E+00
        -11   -1    0    0    0    0  0.00000000000E+00  0.00000000000E+00  0.45593999997E+02  0.45594000000E+02  0.51100000000E-03 0. -1.
         11   -1    0    0    0    0 -0.00000000000E+00 -0.00000000000E+00 -0.45593999997E+02  0.45594000000E+02  0.51100000000E-03 0.  1.
    9900012    2    1    2    0    0  0.32898275415E+02 -0.12762653358E+02  0.25267395055E+02  0.47787273061E+02  0.20000009192E+02 0.  0.
        -12    1    1    2    0    0 -0.32898275415E+02  0.12762653358E+02 -0.25267395055E+02  0.43400726939E+02  0.00000000000E+00 0.  1.
         11    1    3    3    0    0  0.58257909563E+01 -0.81648060603E+01  0.64190982450E+01  0.11908346687E+02  0.51100000000E-03 0. -1.
        -11    1    3    3    0    0  0.13234203324E+02  0.44867259890E+01  0.88027446941E+01  0.16515543047E+02  0.51100000000E-03 0.  1.
        -12    1    3    3    0    0  0.13838281135E+02 -0.90845732869E+01  0.10045552115E+02  0.19363383327E+02  0.00000000000E+00 0.  1.
</event>
<event>
 7    1  0.2442667E-009  0.4778727E+02  0.7816164E-02  0.1312668E+00
        -11   -1    0    0    0    0  0.00000000000E+00  0.00000000000E+00  0.45593999997E+02  0.45594000000E+02  0.51100000000E-03 0.  1.
         11   -1    0    0    0    0 -0.00000000000E+00 -0.00000000000E+00 -0.45593999997E+02  0.45594000000E+02  0.51100000000E-03 0. -1.
    9900012    2    1    2    0    0  0.20050210012E+02  0.38479897120E+02  0.95370702238E+00  0.47787274649E+02  0.20000016435E+02 0.  0.
        -12    1    1    2    0    0 -0.20050210012E+02 -0.38479897120E+02 -0.95370702238E+00  0.43400725351E+02  0.00000000000E+00 0.  1.
         11    1    3    3    0    0  0.98145500887E+01  0.24494632133E+02 -0.21725747575E+01  0.26477017923E+02  0.51100000000E-03 0. -1.
        -11    1    3    3    0    0 -0.20337605189E+01 -0.52845004339E-01  0.16285219215E+01  0.26059659155E+01  0.51100000000E-03 0.  1.
        -12    1    3    3    0    0  0.12269420442E+02  0.14038109992E+02  0.14977598584E+01  0.18704290810E+02  0.00000000000E+00 0.  1.
</event>
<event>
 7    1  0.2442667E-009  0.4778727E+02  0.7816164E-02  0.1312668E+00
        -11   -1    0    0    0    0  0.00000000000E+00  0.00000000000E+00  0.45593999997E+02  0.45594000000E+02  0.51100000000E-03 0. -1.
         11   -1    0    0    0    0 -0.00000000000E+00 -0.00000000000E+00 -0.45593999997E+02  0.45594000000E+02  0.51100000000E-03 0.  1.
    9900012    2    1    2    0    0 -0.54365214851E+01  0.38947463772E+02  0.18361993845E+02  0.47787268231E+02  0.19999987171E+02 0.  0.
        -12    1    1    2    0    0  0.54365214851E+01 -0.38947463772E+02 -0.18361993845E+02  0.43400731769E+02  0.00000000000E+00 0.  1.
         11    1    3    3    0    0  0.34287551798E+01  0.12449859143E+02  0.68191420050E+01  0.14603289106E+02  0.51100000000E-03 0. -1.
        -11    1    3    3    0    0 -0.91461578812E+01  0.13775868504E+02  0.84071852555E+00  0.16556979342E+02  0.51100000000E-03 0.  1.
        -12    1    3    3    0    0  0.28088121624E+00  0.12721736125E+02  0.10702133315E+02  0.16626999783E+02  0.00000000000E+00 0.  1.
</event>
<event>
 7    1  0.2442667E-009  0.4778722E+02  0.7816164E-02  0.1312668E+00
        -11   -1    0    0    0    0  0.00000000000E+00  0.00000000000E+00  0.45593999997E+02  0.45594000000E+02  0.51100000000E-03 0.  1.
         11   -1    0    0    0    0 -0.00000000000E+00 -0.00000000000E+00 -0.45593999997E+02  0.45594000000E+02  0.51100000000E-03 0. -1.
    9900012    2    1    2    0    0  0.35142321951E+02 -0.21842066625E+02  0.13098437056E+02  0.47787219824E+02  0.19999766465E+02 0.  0.
        -12    1    1    2    0    0 -0.35142321951E+02  0.21842066625E+02 -0.13098437056E+02  0.43400780176E+02  0.00000000000E+00 0.  1.
         11    1    3    3    0    0  0.20179821492E+01 -0.13740874828E+01 -0.10435878218E+01  0.26550789382E+01  0.51100000000E-03 0. -1.
        -11    1    3    3    0    0 -0.64308647946E+00  0.17295602326E+01  0.24451993644E+01  0.30633215651E+01  0.51100000000E-03 0.  1.
        -12    1    3    3    0    0  0.33767426282E+02 -0.22197539374E+02  0.11696825513E+02  0.42068819321E+02  0.00000000000E+00 0.  1.
</event>
<event>
 7    1  0.2442667E-009  0.4778727E+02  0.7816164E-02  0.1312668E+00
        -11   -1    0    0    0    0  0.00000000000E+00  0.00000000000E+00  0.45593999997E+02  0.45594000000E+02  0.51100000000E-03 0. -1.
         11   -1    0    0    0    0 -0.00000000000E+00 -0.00000000000E+00 -0.45593999997E+02  0.45594000000E+02  0.51100000000E-03 0.  1.
    9900012    2    1    2    0    0  0.16234149995E+02 -0.34533969211E+02  0.20675613897E+02  0.47787266532E+02  0.19999979427E+02 0.  0.
        -12    1    1    2    0    0 -0.16234149995E+02  0.34533969211E+02 -0.20675613897E+02  0.43400733468E+02  0.00000000000E+00 0.  1.
         11    1    3    3    0    0  0.87910436669E+01 -0.29008892426E+01  0.41788882835E+01  0.10156806324E+02  0.51100000000E-03 0. -1.
        -11    1    3    3    0    0  0.80515560924E+01 -0.31766901478E+02  0.16915791979E+02  0.36879636706E+02  0.51100000000E-03 0.  1.
         12    1    3    3    0    0 -0.60844976439E+00  0.13382150982E+00 -0.41906636585E+00  0.75082350207E+00  0.00000000000E+00 0. -1.
</event>
<event>
 7    1  0.2442667E-009  0.4778727E+02  0.7816164E-02  0.1312668E+00
        -11   -1    0    0    0    0  0.00000000000E+00  0.00000000000E+00  0.45593999997E+02  0.45594000000E+02  0.51100000000E-03 0.  1.
         11   -1    0    0    0    0 -0.00000000000E+00 -0.00000000000E+00 -0.45593999997E+02  0.45594000000E+02  0.51100000000E-03 0. -1.
    9900012    2    1    2    0    0  0.21742618850E+02  0.21436152134E+02 -0.30844336650E+02  0.47787271940E+02  0.20000004085E+02 0.  0.
        -12    1    1    2    0    0 -0.21742618850E+02 -0.21436152134E+02  0.30844336650E+02  0.43400728060E+02  0.00000000000E+00 0.  1.
         11    1    3    3    0    0  0.73676834262E-01  0.10118471466E+02 -0.15478632985E+02  0.18492619404E+02  0.51100000000E-03 0. -1.
        -11    1    3    3    0    0  0.11195136358E+02  0.38489106349E+01 -0.53485445626E+01  0.12990462669E+02  0.51100000000E-03 0.  1.
         12    1    3    3    0    0  0.10473805657E+02  0.74687700327E+01 -0.10017159102E+02  0.16304189867E+02  0.00000000000E+00 0. -1.
</event>
<event>
 7    1  0.2442667E-009  0.4778727E+02  0.7816164E-02  0.1312668E+00
        -11   -1    0    0    0    0  0.00000000000E+00  0.00000000000E+00  0.45593999997E+02  0.45594000000E+02  0.51100000000E-03 0.  1.
         11   -1    0    0    0    0 -0.00000000000E+00 -0.00000000000E+00 -0.45593999997E+02  0.45594000000E+02  0.51100000000E-03 0. -1.
    9900012    2    1    2    0    0  0.27816807320E+02 -0.25173227163E+01 -0.33219147618E+02  0.47787268997E+02  0.19999990664E+02 0.  0.
        -12    1    1    2    0    0 -0.27816807320E+02  0.25173227163E+01  0.33219147618E+02  0.43400731003E+02  0.00000000000E+00 0.  1.
         11    1    3    3    0    0  0.17798563180E+02  0.35222836572E+01 -0.23672929089E+02  0.29826211716E+02  0.51100000000E-03 0. -1.
        -11    1    3    3    0    0  0.85472041362E+01  0.17423781764E+00 -0.37431594878E+01  0.93325398780E+01  0.51100000000E-03 0.  1.
         12    1    3    3    0    0  0.14710400036E+01 -0.62138441911E+01 -0.58030590415E+01  0.86285174023E+01  0.00000000000E+00 0. -1.
</event>
<event>
 7    1  0.2442667E-009  0.4778728E+02  0.7816164E-02  0.1312668E+00
        -11   -1    0    0    0    0  0.00000000000E+00  0.00000000000E+00  0.45593999997E+02  0.45594000000E+02  0.51100000000E-03 0.  1.
         11   -1    0    0    0    0 -0.00000000000E+00 -0.00000000000E+00 -0.45593999997E+02  0.45594000000E+02  0.51100000000E-03 0. -1.
    9900012    2    1    2    0    0  0.41349745491E+02 -0.12672449259E+01  0.13123085978E+02  0.47787277109E+02  0.20000027650E+02 0.  0.
        -12    1    1    2    0    0 -0.41349745491E+02  0.12672449259E+01 -0.13123085978E+02  0.43400722891E+02  0.00000000000E+00 0.  1.
         11    1    3    3    0    0  0.65205992513E+01  0.21373725639E+01 -0.25121069394E+01  0.73073427187E+01  0.51100000000E-03 0. -1.
        -11    1    3    3    0    0 -0.54267559978E+00 -0.17629055379E+01  0.21111270275E+00  0.18565833072E+01  0.51100000000E-03 0.  1.
         12    1    3    3    0    0  0.35371821840E+02 -0.16417119519E+01  0.15424080214E+02  0.38623351083E+02  0.00000000000E+00 0. -1.
</event>
<event>
 7    1  0.2442667E-009  0.4778726E+02  0.7816164E-02  0.1312668E+00
        -11   -1    0    0    0    0  0.00000000000E+00  0.00000000000E+00  0.45593999997E+02  0.45594000000E+02  0.51100000000E-03 0.  1.
         11   -1    0    0    0    0 -0.00000000000E+00 -0.00000000000E+00 -0.45593999997E+02  0.45594000000E+02  0.51100000000E-03 0. -1.
    9900012    2    1    2    0    0 -0.11066755282E+02 -0.16953780800E+02 -0.38389067896E+02  0.47787259341E+02  0.19999946637E+02 0.  0.
        -12    1    1    2    0    0  0.11066755282E+02  0.16953780800E+02  0.38389067896E+02  0.43400740659E+02  0.00000000000E+00 0.  1.
         11    1    3    3    0    0  0.31318478616E+01 -0.70105790019E+01 -0.11807354010E+02  0.14084399098E+02  0.51100000000E-03 0. -1.
        -11    1    3    3    0    0 -0.15763012355E+02 -0.10499412228E+02 -0.23314007189E+02  0.30037528978E+02  0.51100000000E-03 0.  1.
        -12    1    3    3    0    0  0.15644092114E+01  0.55621042991E+00 -0.32677066965E+01  0.36653312643E+01  0.00000000000E+00 0.  1.
</event>
<event>
 7    1  0.2442667E-009  0.4778727E+02  0.7816164E-02  0.1312668E+00
        -11   -1    0    0    0    0  0.00000000000E+00  0.00000000000E+00  0.45593999997E+02  0.45594000000E+02  0.51100000000E-03 0.  1.
         11   -1    0    0    0    0 -0.00000000000E+00 -0.00000000000E+00 -0.45593999997E+02  0.45594000000E+02  0.51100000000E-03 0. -1.
    9900012    2    1    2    0    0  0.20692120738E+02 -0.36872867226E+02  0.97903555149E+01  0.47787271214E+02  0.20000000772E+02 0.  0.
        -12    1    1    2    0    0 -0.20692120738E+02  0.36872867226E+02 -0.97903555149E+01  0.43400728786E+02  0.00000000000E+00 0.  1.
         11    1    3    3    0    0 -0.21413664812E+01 -0.24759137341E+01 -0.22791319622E+01  0.39887393984E+01  0.51100000000E-03 0. -1.
        -11    1    3    3    0    0  0.17706718853E+02 -0.21065245282E+02  0.10398183280E+02  0.29417591116E+02  0.51100000000E-03 0.  1.
         12    1    3    3    0    0  0.51267683666E+01 -0.13331708210E+02  0.16713041974E+01  0.14380940699E+02  0.00000000000E+00 0. -1.
</event>
<event>
 7    1  0.2442667E-009  0.4778727E+02  0.7816164E-02  0.1312668E+00
        -11   -1    0    0    0    0  0.00000000000E+00  0.00000000000E+00  0.45593999997E+02  0.45594000000E+02  0.51100000000E-03 0.  1.
         11   -1    0    0    0    0 -0.00000000000E+00 -0.00000000000E+00 -0.45593999997E+02  0.45594000000E+02  0.51100000000E-03 0. -1.
    9900012    2    1    2    0    0  0.17545871540E+02 -0.38487761411E+02 -0.97189298775E+01  0.47787274378E+02  0.20000015199E+02 0.  0.
        -12    1    1    2    0    0 -0.17545871540E+02  0.38487761411E+02  0.97189298775E+01  0.43400725622E+02  0.00000000000E+00 0.  1.
         11    1    3    3    0    0  0.40619655653E+01 -0.20453357192E+02  0.30453294119E+01  0.21073998580E+02  0.51100000000E-03 0. -1.
        -11    1    3    3    0    0  0.14084967080E+02 -0.17814340940E+02 -0.11902888955E+02  0.25640121031E+02  0.51100000000E-03 0.  1.
         12    1    3    3    0    0 -0.60106110514E+00 -0.22006327918E+00 -0.86137033490E+00  0.10731547665E+01  0.00000000000E+00 0. -1.
</event>
<event>
 7    1  0.2442667E-009  0.4778727E+02  0.7816164E-02  0.1312668E+00
        -11   -1    0    0    0    0  0.00000000000E+00  0.00000000000E+00  0.45593999997E+02  0.45594000000E+02  0.51100000000E-03 0.  1.
         11   -1    0    0    0    0 -0.00000000000E+00 -0.00000000000E+00 -0.45593999997E+02  0.45594000000E+02  0.51100000000E-03 0. -1.
    9900012    2    1    2    0    0  0.21090303177E+02 -0.14991463734E+02 -0.34843629334E+02  0.47787269843E+02  0.19999994522E+02 0.  0.
        -12    1    1    2    0    0 -0.21090303177E+02  0.14991463734E+02  0.34843629334E+02  0.43400730157E+02  0.00000000000E+00 0.  1.
         11    1    3    3    0    0  0.72656164630E+01 -0.11252668102E+02 -0.18139191415E+02  0.22548658218E+02  0.51100000000E-03 0. -1.
        -11    1    3    3    0    0  0.13496792306E+02  0.11320898235E+01 -0.95309726275E+01  0.16561535841E+02  0.51100000000E-03 0.  1.
        -12    1    3    3    0    0  0.32789440824E+00 -0.48708854557E+01 -0.71734652917E+01  0.86770757838E+01  0.00000000000E+00 0.  1.
</event>
<event>
 7    1  0.2442667E-009  0.4778727E+02  0.7816164E-02  0.1312668E+00
        -11   -1    0    0    0    0  0.00000000000E+00  0.00000000000E+00  0.45593999997E+02  0.45594000000E+02  0.51100000000E-03 0.  1.
         11   -1    0    0    0    0 -0.00000000000E+00 -0.00000000000E+00 -0.45593999997E+02  0.45594000000E+02  0.51100000000E-03 0. -1.
    9900012    2    1    2    0    0 -0.15649012688E+02  0.36107475349E+02 -0.18302507489E+02  0.47787272419E+02  0.20000006269E+02 0.  0.
        -12    1    1    2    0    0  0.15649012688E+02 -0.36107475349E+02  0.18302507489E+02  0.43400727581E+02  0.00000000000E+00 0.  1.
         11    1    3    3    0    0 -0.61359283007E+01  0.25597123935E+00 -0.49362589015E+00  0.61610716736E+01  0.51100000000E-03 0. -1.
        -11    1    3    3    0    0 -0.24164225368E+01  0.21065455937E+02 -0.10709174629E+02  0.23754556473E+02  0.51100000000E-03 0.  1.
         12    1    3    3    0    0 -0.70966618507E+01  0.14786048172E+02 -0.70997069695E+01  0.17871644273E+02  0.00000000000E+00 0. -1.
</event>
<event>
 7    1  0.2442667E-009  0.4778727E+02  0.7816164E-02  0.1312668E+00
        -11   -1    0    0    0    0  0.00000000000E+00  0.00000000000E+00  0.45593999997E+02  0.45594000000E+02  0.51100000000E-03 0.  1.
         11   -1    0    0    0    0 -0.00000000000E+00 -0.00000000000E+00 -0.45593999997E+02  0.45594000000E+02  0.51100000000E-03 0. -1.
    9900012    2    1    2    0    0 -0.19225980335E+02  0.38783283228E+02 -0.31372339507E+01  0.47787267119E+02  0.19999982102E+02 0.  0.
        -12    1    1    2    0    0  0.19225980335E+02 -0.38783283228E+02  0.31372339507E+01  0.43400732881E+02  0.00000000000E+00 0.  1.
         11    1    3    3    0    0 -0.12605859691E+02  0.17471586092E+02  0.19269248338E+01  0.21630465984E+02  0.51100000000E-03 0. -1.
        -11    1    3    3    0    0 -0.25846144250E+01  0.72676766779E+01 -0.81507628008E+01  0.11222044846E+02  0.51100000000E-03 0.  1.
        -12    1    3    3    0    0 -0.40355062189E+01  0.14044020458E+02  0.30866040164E+01  0.14934756289E+02  0.00000000000E+00 0.  1.
</event>
<event>
 7    1  0.2442667E-009  0.4778727E+02  0.7816164E-02  0.1312668E+00
        -11   -1    0    0    0    0  0.00000000000E+00  0.00000000000E+00  0.45593999997E+02  0.45594000000E+02  0.51100000000E-03 0. -1.
         11   -1    0    0    0    0 -0.00000000000E+00 -0.00000000000E+00 -0.45593999997E+02  0.45594000000E+02  0.51100000000E-03 0.  1.
    9900012    2    1    2    0    0  0.36564688359E+02 -0.20008319866E+02 -0.12096030369E+02  0.47787271327E+02  0.20000001290E+02 0.  0.
        -12    1    1    2    0    0 -0.36564688359E+02  0.20008319866E+02  0.12096030369E+02  0.43400728673E+02  0.00000000000E+00 0.  1.
         11    1    3    3    0    0  0.31075013582E+02 -0.18340104631E+02 -0.85599671762E+01  0.37084888369E+02  0.51100000000E-03 0. -1.
        -11    1    3    3    0    0  0.54763868651E-01  0.97872149166E+00  0.21752481230E+01  0.23859169091E+01  0.51100000000E-03 0.  1.
         12    1    3    3    0    0  0.54349109081E+01 -0.26469367267E+01 -0.57113113154E+01  0.83164660497E+01  0.00000000000E+00 0. -1.
</event>
<event>
 7    1  0.2442667E-009  0.4778727E+02  0.7816164E-02  0.1312668E+00
        -11   -1    0    0    0    0  0.00000000000E+00  0.00000000000E+00  0.45593999997E+02  0.45594000000E+02  0.51100000000E-03 0.  1.
         11   -1    0    0    0    0 -0.00000000000E+00 -0.00000000000E+00 -0.45593999997E+02  0.45594000000E+02  0.51100000000E-03 0. -1.
    9900012    2    1    2    0    0 -0.25063824671E+02  0.23539601535E+02 -0.26482351794E+02  0.47787273000E+02  0.20000008918E+02 0.  0.
        -12    1    1    2    0    0  0.25063824671E+02 -0.23539601535E+02  0.26482351794E+02  0.43400727000E+02  0.00000000000E+00 0.  1.
         11    1    3    3    0    0 -0.22244807218E+02  0.12067005049E+02 -0.14847423993E+02  0.29340928044E+02  0.51100000000E-03 0. -1.
        -11    1    3    3    0    0  0.12480323764E+01  0.68250582194E+01 -0.24097346264E+01  0.73447822120E+01  0.51100000000E-03 0.  1.
         12    1    3    3    0    0 -0.40670498300E+01  0.46475382668E+01 -0.92251931746E+01  0.11101562744E+02  0.00000000000E+00 0. -1.
</event>
<event>
 7    1  0.2442667E-009  0.4778727E+02  0.7816164E-02  0.1312668E+00
        -11   -1    0    0    0    0  0.00000000000E+00  0.00000000000E+00  0.45593999997E+02  0.45594000000E+02  0.51100000000E-03 0. -1.
         11   -1    0    0    0    0 -0.00000000000E+00 -0.00000000000E+00 -0.45593999997E+02  0.45594000000E+02  0.51100000000E-03 0.  1.
    9900012    2    1    2    0    0 -0.42786499252E+02 -0.70228728764E+01  0.19021165916E+01  0.47787270638E+02  0.19999998145E+02 0.  0.
        -12    1    1    2    0    0  0.42786499252E+02  0.70228728764E+01 -0.19021165916E+01  0.43400729362E+02  0.00000000000E+00 0.  1.
         11    1    3    3    0    0 -0.22305394769E+02 -0.11223702552E+02  0.15568742969E+01  0.25018512998E+02  0.51100000000E-03 0. -1.
        -11    1    3    3    0    0 -0.13087400245E+02  0.25821042391E+01  0.45698574417E+01  0.14100741284E+02  0.51100000000E-03 0.  1.
         12    1    3    3    0    0 -0.73937042383E+01  0.16187254368E+01 -0.42246151469E+01  0.86680163557E+01  0.00000000000E+00 0. -1.
</event>
<event>
 7    1  0.2442667E-009  0.4778727E+02  0.7816164E-02  0.1312668E+00
        -11   -1    0    0    0    0  0.00000000000E+00  0.00000000000E+00  0.45593999997E+02  0.45594000000E+02  0.51100000000E-03 0.  1.
         11   -1    0    0    0    0 -0.00000000000E+00 -0.00000000000E+00 -0.45593999997E+02  0.45594000000E+02  0.51100000000E-03 0. -1.
    9900012    2    1    2    0    0 -0.27595323383E+02  0.33492352617E+02 -0.61922289881E+00  0.47787274276E+02  0.20000014732E+02 0.  0.
        -12    1    1    2    0    0  0.27595323383E+02 -0.33492352617E+02  0.61922289881E+00  0.43400725724E+02  0.00000000000E+00 0.  1.
         11    1    3    3    0    0 -0.17792389602E+02  0.26531411337E+02 -0.14910412150E+01  0.31979807995E+02  0.51100000000E-03 0. -1.
        -11    1    3    3    0    0  0.10319223070E+01 -0.88893123110E+00  0.19565466614E+01  0.23839331955E+01  0.51100000000E-03 0.  1.
         12    1    3    3    0    0 -0.10834856088E+02  0.78498725110E+01 -0.10847283452E+01  0.13423533085E+02  0.00000000000E+00 0. -1.
</event>
<event>
 7    1  0.2442667E-009  0.4778727E+02  0.7816164E-02  0.1312668E+00
        -11   -1    0    0    0    0  0.00000000000E+00  0.00000000000E+00  0.45593999997E+02  0.45594000000E+02  0.51100000000E-03 0.  1.
         11   -1    0    0    0    0 -0.00000000000E+00 -0.00000000000E+00 -0.45593999997E+02  0.45594000000E+02  0.51100000000E-03 0. -1.
    9900012    2    1    2    0    0  0.22746653475E+02 -0.29971349745E+02 -0.21631714401E+02  0.47787272843E+02  0.20000008203E+02 0.  0.
        -12    1    1    2    0    0 -0.22746653475E+02  0.29971349745E+02  0.21631714401E+02  0.43400727157E+02  0.00000000000E+00 0.  1.
         11    1    3    3    0    0  0.17691380533E+02 -0.26228055287E+02 -0.16194025299E+02  0.35540713062E+02  0.51100000000E-03 0. -1.
        -11    1    3    3    0    0  0.43288215720E+01  0.22688710377E+01 -0.19812183765E+01  0.52736797878E+01  0.51100000000E-03 0.  1.
        -12    1    3    3    0    0  0.72645136954E+00 -0.60121654955E+01 -0.34564707248E+01  0.69728799939E+01  0.00000000000E+00 0.  1.
</event>
<event>
 7    1  0.2442667E-009  0.4778727E+02  0.7816164E-02  0.1312668E+00
        -11   -1    0    0    0    0  0.00000000000E+00  0.00000000000E+00  0.45593999997E+02  0.45594000000E+02  0.51100000000E-03 0.  1.
         11   -1    0    0    0    0 -0.00000000000E+00 -0.00000000000E+00 -0.45593999997E+02  0.45594000000E+02  0.51100000000E-03 0. -1.
    9900012    2    1    2    0    0  0.38148973586E+02  0.19894249203E+01 -0.20599058804E+02  0.47787271656E+02  0.20000002787E+02 0.  0.
        -12    1    1    2    0    0 -0.38148973586E+02 -0.19894249203E+01  0.20599058804E+02  0.43400728344E+02  0.00000000000E+00 0.  1.
         11    1    3    3    0    0  0.14089891912E+02 -0.57317089574E+01 -0.38519615044E+01  0.15691244353E+02  0.51100000000E-03 0. -1.
        -11    1    3    3    0    0  0.80519998542E+01  0.75437851652E+01 -0.43967514475E+01  0.11877492152E+02  0.51100000000E-03 0.  1.
         12    1    3    3    0    0  0.16007081820E+02  0.17734871242E+00 -0.12350345852E+02  0.20218535150E+02  0.00000000000E+00 0. -1.
</event>
<event>
 7    1  0.2442667E-009  0.4778727E+02  0.7816164E-02  0.1312668E+00
        -11   -1    0    0    0    0  0.00000000000E+00  0.00000000000E+00  0.45593999997E+02  0.45594000000E+02  0.51100000000E-03 0.  1.
         11   -1    0    0    0    0 -0.00000000000E+00 -0.00000000000E+00 -0.45593999997E+02  0.45594000000E+02  0.51100000000E-03 0. -1.
    9900012    2    1    2    0    0  0.36136942311E+01  0.32597058611E+02 -0.28425271726E+02  0.47787273176E+02  0.20000009720E+02 0.  0.
        -12    1    1    2    0    0 -0.36136942311E+01 -0.32597058611E+02  0.28425271726E+02  0.43400726824E+02  0.00000000000E+00 0.  1.
         11    1    3    3    0    0  0.14466319532E+01  0.11486486168E+02 -0.12386638102E+02  0.16954672283E+02  0.51100000000E-03 0. -1.
        -11    1    3    3    0    0  0.36610491237E+01  0.14835334823E+01 -0.91702710360E+01  0.99848897547E+01  0.51100000000E-03 0.  1.
        -12    1    3    3    0    0 -0.14939868458E+01  0.19627038961E+02 -0.68683625880E+01  0.20847711138E+02  0.00000000000E+00 0.  1.
</event>
<event>
 7    1  0.2442667E-009  0.4778726E+02  0.7816164E-02  0.1312668E+00
        -11   -1    0    0    0    0  0.00000000000E+00  0.00000000000E+00  0.45593999997E+02  0.45594000000E+02  0.51100000000E-03 0. -1.
         11   -1    0    0    0    0 -0.00000000000E+00 -0.00000000000E+00 -0.45593999997E+02  0.45594000000E+02  0.51100000000E-03 0.  1.
    9900012    2    1    2    0    0 -0.18220194749E+02 -0.35655759976E+02 -0.16742613554E+02  0.47787264698E+02  0.19999971062E+02 0.  0.
        -12    1    1    2    0    0  0.18220194749E+02  0.35655759976E+02  0.16742613554E+02  0.43400735302E+02  0.00000000000E+00 0.  1.
         11    1    3    3    0    0 -0.11589062040E+02 -0.26501658732E+02 -0.11199121635E+02  0.31017166217E+02  0.51100000000E-03 0. -1.
        -11    1    3    3    0    0 -0.72767503104E+01 -0.21689987943E+01 -0.60904643201E+01  0.97339306935E+01  0.51100000000E-03 0.  1.
         12    1    3    3    0    0  0.64561760087E+00 -0.69851024497E+01  0.54697240028E+00  0.70361677869E+01  0.00000000000E+00 0. -1.
</event>
<event>
 7    1  0.2442667E-009  0.4778727E+02  0.7816164E-02  0.1312668E+00
        -11   -1    0    0    0    0  0.00000000000E+00  0.00000000000E+00  0.45593999997E+02  0.45594000000E+02  0.51100000000E-03 0. -1.
         11   -1    0    0    0    0 -0.00000000000E+00 -0.00000000000E+00 -0.45593999997E+02  0.45594000000E+02  0.51100000000E-03 0.  1.
    9900012    2    1    2    0    0 -0.82157244740E+01  0.97212456756E+01  0.41492441619E+02  0.47787268927E+02  0.19999990346E+02 0.  0.
        -12    1    1    2    0    0  0.82157244740E+01 -0.97212456756E+01 -0.41492441619E+02  0.43400731073E+02  0.00000000000E+00 0.  1.
         11    1    3    3    0    0 -0.21761899591E+01  0.61546455242E+01  0.69721889335E+01  0.95512765143E+01  0.51100000000E-03 0. -1.
        -11    1    3    3    0    0 -0.71365897700E+01 -0.40277824440E+01  0.22794023781E+02  0.24222334019E+02  0.51100000000E-03 0.  1.
        -12    1    3    3    0    0  0.10970552550E+01  0.75943825954E+01  0.11726228905E+02  0.14013658394E+02  0.00000000000E+00 0.  1.
</event>
<event>
 7    1  0.2442667E-009  0.4778727E+02  0.7816164E-02  0.1312668E+00
        -11   -1    0    0    0    0  0.00000000000E+00  0.00000000000E+00  0.45593999997E+02  0.45594000000E+02  0.51100000000E-03 0.  1.
         11   -1    0    0    0    0 -0.00000000000E+00 -0.00000000000E+00 -0.45593999997E+02  0.45594000000E+02  0.51100000000E-03 0. -1.
    9900012    2    1    2    0    0 -0.38310173004E+02  0.19345093782E+02  0.64592403266E+01  0.47787265045E+02  0.19999972646E+02 0.  0.
        -12    1    1    2    0    0  0.38310173004E+02 -0.19345093782E+02 -0.64592403266E+01  0.43400734955E+02  0.00000000000E+00 0.  1.
         11    1    3    3    0    0 -0.13381400108E+02  0.16601007247E+02  0.33248614841E+01  0.21580315443E+02  0.51100000000E-03 0. -1.
        -11    1    3    3    0    0 -0.13607927761E+02 -0.21837402792E+00  0.47049230339E+01  0.14399989104E+02  0.51100000000E-03 0.  1.
         12    1    3    3    0    0 -0.11320845135E+02  0.29624605623E+01 -0.15705441914E+01  0.11806960498E+02  0.00000000000E+00 0. -1.
</event>
<event>
 7    1  0.2442667E-009  0.4778727E+02  0.7816164E-02  0.1312668E+00
        -11   -1    0    0    0    0  0.00000000000E+00  0.00000000000E+00  0.45593999997E+02  0.45594000000E+02  0.51100000000E-03 0.  1.
         11   -1    0    0    0    0 -0.00000000000E+00 -0.00000000000E+00 -0.45593999997E+02  0.45594000000E+02  0.51100000000E-03 0. -1.
    9900012    2    1    2    0    0 -0.14939299974E+02 -0.24314494602E+01 -0.40675898853E+02  0.47787269849E+02  0.19999994548E+02 0.  0.
        -12    1    1    2    0    0  0.14939299974E+02  0.24314494602E+01  0.40675898853E+02  0.43400730151E+02  0.00000000000E+00 0.  1.
         11    1    3    3    0    0 -0.11223750605E+02  0.24446069936E+01 -0.86966818911E+01  0.14407670082E+02  0.51100000000E-03 0. -1.
        -11    1    3    3    0    0 -0.82109514596E+00 -0.36192397734E+00 -0.22269224611E+02  0.22287295736E+02  0.51100000000E-03 0.  1.
         12    1    3    3    0    0 -0.28944542227E+01 -0.45141324765E+01 -0.97099923506E+01  0.11092304031E+02  0.00000000000E+00 0. -1.
</event>
<event>
 7    1  0.2442667E-009  0.4778726E+02  0.7816164E-02  0.1312668E+00
        -11   -1    0    0    0    0  0.00000000000E+00  0.00000000000E+00  0.45593999997E+02  0.45594000000E+02  0.51100000000E-03 0.  1.
         11   -1    0    0    0    0 -0.00000000000E+00 -0.00000000000E+00 -0.45593999997E+02  0.45594000000E+02  0.51100000000E-03 0. -1.
    9900012    2    1    2    0    0 -0.76937271291E+01  0.41753592507E+02 -0.90037730466E+01  0.47787264367E+02  0.19999969555E+02 0.  0.
        -12    1    1    2    0    0  0.76937271291E+01 -0.41753592507E+02  0.90037730466E+01  0.43400735633E+02  0.00000000000E+00 0.  1.
         11    1    3    3    0    0 -0.10963258082E+01  0.28592961435E+02 -0.51718684038E+01  0.29077613330E+02  0.51100000000E-03 0. -1.
        -11    1    3    3    0    0 -0.89886083222E+01  0.10677109434E+02 -0.57780560551E+00  0.13968879877E+02  0.51100000000E-03 0.  1.
        -12    1    3    3    0    0  0.23912070014E+01  0.24835216388E+01 -0.32540990373E+01  0.47407711607E+01  0.00000000000E+00 0.  1.
</event>
<event>
 7    1  0.2442667E-009  0.4778727E+02  0.7816164E-02  0.1312668E+00
        -11   -1    0    0    0    0  0.00000000000E+00  0.00000000000E+00  0.45593999997E+02  0.45594000000E+02  0.51100000000E-03 0.  1.
         11   -1    0    0    0    0 -0.00000000000E+00 -0.00000000000E+00 -0.45593999997E+02  0.45594000000E+02  0.51100000000E-03 0. -1.
    9900012    2    1    2    0    0  0.17588178276E+02  0.12062435366E+02 -0.37799163060E+02  0.47787273162E+02  0.20000009654E+02 0.  0.
        -12    1    1    2    0    0 -0.17588178276E+02 -0.12062435366E+02  0.37799163060E+02  0.43400726838E+02  0.00000000000E+00 0.  1.
         11    1    3    3    0    0  0.29255973481E+01 -0.75395485034E+00 -0.17021080966E+02  0.17287127155E+02  0.51100000000E-03 0. -1.
        -11    1    3    3    0    0  0.11138437363E+02  0.11341648748E+02 -0.93317010971E+01  0.18433079744E+02  0.51100000000E-03 0.  1.
        -12    1    3    3    0    0  0.35241435644E+01  0.14747414690E+01 -0.11446380997E+02  0.12067066263E+02  0.00000000000E+00 0.  1.
</event>
<event>
 7    1  0.2442667E-009  0.4778728E+02  0.7816164E-02  0.1312668E+00
        -11   -1    0    0    0    0  0.00000000000E+00  0.00000000000E+00  0.45593999997E+02  0.45594000000E+02  0.51100000000E-03 0. -1.
         11   -1    0    0    0    0 -0.00000000000E+00 -0.00000000000E+00 -0.45593999997E+02  0.45594000000E+02  0.51100000000E-03 0.  1.
    9900012    2    1    2    0    0 -0.28171433647E+02  0.32323756896E+02 -0.67207090353E+01  0.47787275772E+02  0.20000021556E+02 0.  0.
        -12    1    1    2    0    0  0.28171433647E+02 -0.32323756896E+02  0.67207090353E+01  0.43400724228E+02  0.00000000000E+00 0.  1.
         11    1    3    3    0    0 -0.49207047297E+01  0.18663498838E+02 -0.11341562081E+01  0.19334576139E+02  0.51100000000E-03 0. -1.
        -11    1    3    3    0    0 -0.13871262939E+02  0.79679423560E+01 -0.68632773897E+01  0.17407027825E+02  0.51100000000E-03 0.  1.
         12    1    3    3    0    0 -0.93794659780E+01  0.56923157016E+01  0.12767245626E+01  0.11045671808E+02  0.00000000000E+00 0. -1.
</event>
<event>
 7    1  0.2442667E-009  0.4778727E+02  0.7816164E-02  0.1312668E+00
        -11   -1    0    0    0    0  0.00000000000E+00  0.00000000000E+00  0.45593999997E+02  0.45594000000E+02  0.51100000000E-03 0.  1.
         11   -1    0    0    0    0 -0.00000000000E+00 -0.00000000000E+00 -0.45593999997E+02  0.45594000000E+02  0.51100000000E-03 0. -1.
    9900012    2    1    2    0    0  0.20643656960E+02  0.96617855769E+01 -0.36933897939E+02  0.47787268553E+02  0.19999988639E+02 0.  0.
        -12    1    1    2    0    0 -0.20643656960E+02 -0.96617855769E+01  0.36933897939E+02  0.43400731447E+02  0.00000000000E+00 0.  1.
         11    1    3    3    0    0  0.14231770812E+02  0.27850654688E+01 -0.34714903133E+02  0.37622126334E+02  0.51100000000E-03 0. -1.
        -11    1    3    3    0    0  0.13422867651E+01  0.36979682885E+01 -0.98482474209E+00  0.40554387255E+01  0.51100000000E-03 0.  1.
         12    1    3    3    0    0  0.50695993823E+01  0.31787518196E+01 -0.12341700642E+01  0.61097034932E+01  0.00000000000E+00 0. -1.
</event>
<event>
 7    1  0.2442667E-009  0.4778728E+02  0.7816164E-02  0.1312668E+00
        -11   -1    0    0    0    0  0.00000000000E+00  0.00000000000E+00  0.45593999997E+02  0.45594000000E+02  0.51100000000E-03 0.  1.
         11   -1    0    0    0    0 -0.00000000000E+00 -0.00000000000E+00 -0.45593999997E+02  0.45594000000E+02  0.51100000000E-03 0. -1.
    9900012    2    1    2    0    0 -0.66346391944E+01 -0.15402674357E+02 -0.40029515291E+02  0.47787275247E+02  0.20000019163E+02 0.  0.
        -12    1    1    2    0    0  0.66346391944E+01  0.15402674357E+02  0.40029515291E+02  0.43400724753E+02  0.00000000000E+00 0.  1.
         11    1    3    3    0    0 -0.10178415665E+02 -0.67441645822E+01 -0.13666418069E+02  0.18326344001E+02  0.51100000000E-03 0.  1.
        -11    1    3    3    0    0  0.34337443525E+01 -0.98576754141E+01 -0.26252461323E+02  0.28251656423E+02  0.51100000000E-03 0. -1.
         12    1    3    3    0    0  0.11003211827E+00  0.11991656389E+01 -0.11063589949E+00  0.12092748235E+01  0.00000000000E+00 0. -1.
</event>
<event>
 7    1  0.2442667E-009  0.4778729E+02  0.7816164E-02  0.1312668E+00
        -11   -1    0    0    0    0  0.00000000000E+00  0.00000000000E+00  0.45593999997E+02  0.45594000000E+02  0.51100000000E-03 0. -1.
         11   -1    0    0    0    0 -0.00000000000E+00 -0.00000000000E+00 -0.45593999997E+02  0.45594000000E+02  0.51100000000E-03 0.  1.
    9900012    2    1    2    0    0  0.13037860418E+02 -0.13368019759E+02  0.39178210457E+02  0.47787286513E+02  0.20000070528E+02 0.  0.
        -12    1    1    2    0    0 -0.13037860418E+02  0.13368019759E+02 -0.39178210457E+02  0.43400713487E+02  0.00000000000E+00 0.  1.
         11    1    3    3    0    0  0.12897902449E+02 -0.13224129721E+02  0.39058021887E+02  0.43206047822E+02  0.51100000000E-03 0. -1.
        -11    1    3    3    0    0  0.98587983114E+00 -0.21104719870E+01 -0.43491103093E+00  0.23696410942E+01  0.51100000000E-03 0.  1.
         12    1    3    3    0    0 -0.84592186279E+00  0.19665819492E+01  0.55509960141E+00  0.22115975964E+01  0.00000000000E+00 0. -1.
</event>
<event>
 7    1  0.2442667E-009  0.4778727E+02  0.7816164E-02  0.1312668E+00
        -11   -1    0    0    0    0  0.00000000000E+00  0.00000000000E+00  0.45593999997E+02  0.45594000000E+02  0.51100000000E-03 0. -1.
         11   -1    0    0    0    0 -0.00000000000E+00 -0.00000000000E+00 -0.45593999997E+02  0.45594000000E+02  0.51100000000E-03 0.  1.
    9900012    2    1    2    0    0  0.23970583857E+02  0.29883293194E+02  0.20396648231E+02  0.47787270034E+02  0.19999995391E+02 0.  0.
        -12    1    1    2    0    0 -0.23970583857E+02 -0.29883293194E+02 -0.20396648231E+02  0.43400729966E+02  0.00000000000E+00 0.  1.
         11    1    3    3    0    0  0.18153276424E+02  0.24970182380E+02  0.12912400495E+02  0.33463137030E+02  0.51100000000E-03 0. -1.
        -11    1    3    3    0    0 -0.23834427416E+01  0.80214700978E+00  0.48046803077E-01  0.25152629851E+01  0.51100000000E-03 0.  1.
        -12    1    3    3    0    0  0.82007501737E+01  0.41109638040E+01  0.74362009327E+01  0.11808870019E+02  0.00000000000E+00 0.  1.
</event>
<event>
 7    1  0.2442667E-009  0.4778727E+02  0.7816164E-02  0.1312668E+00
        -11   -1    0    0    0    0  0.00000000000E+00  0.00000000000E+00  0.45593999997E+02  0.45594000000E+02  0.51100000000E-03 0. -1.
         11   -1    0    0    0    0 -0.00000000000E+00 -0.00000000000E+00 -0.45593999997E+02  0.45594000000E+02  0.51100000000E-03 0.  1.
    9900012    2    1    2    0    0 -0.57977046132E+01 -0.29578903186E+02  0.31226564999E+02  0.47787271273E+02  0.20000001041E+02 0.  0.
        -12    1    1    2    0    0  0.57977046132E+01  0.29578903186E+02 -0.31226564999E+02  0.43400728727E+02  0.00000000000E+00 0.  1.
         11    1    3    3    0    0  0.87845870533E+00 -0.11533658444E+02  0.53824463588E+01  0.12758044359E+02  0.51100000000E-03 0. -1.
        -11    1    3    3    0    0  0.23541323619E+01 -0.24079100866E-01  0.13220034791E+00  0.23579644131E+01  0.51100000000E-03 0.  1.
         12    1    3    3    0    0 -0.90302956804E+01 -0.18021165640E+02  0.25711918292E+02  0.32671262500E+02  0.00000000000E+00 0. -1.
</event>
<event>
 7    1  0.2442667E-009  0.4778727E+02  0.7816164E-02  0.1312668E+00
        -11   -1    0    0    0    0  0.00000000000E+00  0.00000000000E+00  0.45593999997E+02  0.45594000000E+02  0.51100000000E-03 0.  1.
         11   -1    0    0    0    0 -0.00000000000E+00 -0.00000000000E+00 -0.45593999997E+02  0.45594000000E+02  0.51100000000E-03 0. -1.
    9900012    2    1    2    0    0 -0.20349155561E+02 -0.26953038393E+02 -0.27259298561E+02  0.47787265344E+02  0.19999974007E+02 0.  0.
        -12    1    1    2    0    0  0.20349155561E+02  0.26953038393E+02  0.27259298561E+02  0.43400734656E+02  0.00000000000E+00 0.  1.
         11    1    3    3    0    0 -0.25037008064E+01 -0.10282253649E+02 -0.67922211967E+01  0.12574876813E+02  0.51100000000E-03 0. -1.
        -11    1    3    3    0    0 -0.13290682007E+02 -0.30233077882E+01 -0.62825996383E+01  0.15008453507E+02  0.51100000000E-03 0.  1.
        -12    1    3    3    0    0 -0.45547727478E+01 -0.13647476956E+02 -0.14184477726E+02  0.20203935023E+02  0.00000000000E+00 0.  1.
</event>
<event>
 7    1  0.2442667E-009  0.4778727E+02  0.7816164E-02  0.1312668E+00
        -11   -1    0    0    0    0  0.00000000000E+00  0.00000000000E+00  0.45593999997E+02  0.45594000000E+02  0.51100000000E-03 0.  1.
         11   -1    0    0    0    0 -0.00000000000E+00 -0.00000000000E+00 -0.45593999997E+02  0.45594000000E+02  0.51100000000E-03 0. -1.
    9900012    2    1    2    0    0  0.43359151666E+02 -0.14660781186E+01 -0.12074297914E+01  0.47787270686E+02  0.19999998366E+02 0.  0.
        -12    1    1    2    0    0 -0.43359151666E+02  0.14660781186E+01  0.12074297914E+01  0.43400729314E+02  0.00000000000E+00 0.  1.
         11    1    3    3    0    0  0.11325203954E+02 -0.52677036178E+01 -0.42560378400E+01  0.13195560025E+02  0.51100000000E-03 0. -1.
        -11    1    3    3    0    0  0.59083839116E+01  0.32872950651E+01  0.49686520217E+01  0.83906383825E+01  0.51100000000E-03 0.  1.
        -12    1    3    3    0    0  0.26125563801E+02  0.51433043409E+00 -0.19200439731E+01  0.26201072279E+02  0.00000000000E+00 0.  1.
</event>
<event>
 7    1  0.2442667E-009  0.4778727E+02  0.7816164E-02  0.1312668E+00
        -11   -1    0    0    0    0  0.00000000000E+00  0.00000000000E+00  0.45593999997E+02  0.45594000000E+02  0.51100000000E-03 0.  1.
         11   -1    0    0    0    0 -0.00000000000E+00 -0.00000000000E+00 -0.45593999997E+02  0.45594000000E+02  0.51100000000E-03 0. -1.
    9900012    2    1    2    0    0  0.24920499583E+02 -0.16808178575E+02 -0.31306187308E+02  0.47787268091E+02  0.19999986536E+02 0.  0.
        -12    1    1    2    0    0 -0.24920499583E+02  0.16808178575E+02  0.31306187308E+02  0.43400731909E+02  0.00000000000E+00 0.  1.
         11    1    3    3    0    0  0.11609276919E+02  0.30451086825E+01 -0.90311471707E+01  0.15020306820E+02  0.51100000000E-03 0. -1.
        -11    1    3    3    0    0  0.14083829578E+01 -0.25480813116E+01 -0.17337726638E+01  0.33885437635E+01  0.51100000000E-03 0.  1.
         12    1    3    3    0    0  0.11902839706E+02 -0.17305205946E+02 -0.20541267473E+02  0.29378417508E+02  0.00000000000E+00 0. -1.
</event>
<event>
 7    1  0.2442667E-009  0.4778727E+02  0.7816164E-02  0.1312668E+00
        -11   -1    0    0    0    0  0.00000000000E+00  0.00000000000E+00  0.45593999997E+02  0.45594000000E+02  0.51100000000E-03 0. -1.
         11   -1    0    0    0    0 -0.00000000000E+00 -0.00000000000E+00 -0.45593999997E+02  0.45594000000E+02  0.51100000000E-03 0.  1.
    9900012    2    1    2    0    0 -0.61262490694E+01 -0.33326992614E+02  0.27118339094E+02  0.47787266371E+02  0.19999978690E+02 0.  0.
        -12    1    1    2    0    0  0.61262490694E+01  0.33326992614E+02 -0.27118339094E+02  0.43400733629E+02  0.00000000000E+00 0.  1.
         11    1    3    3    0    0  0.19838680727E+00 -0.11943361075E+01  0.50037894612E+01  0.51481749481E+01  0.51100000000E-03 0.  1.
        -11    1    3    3    0    0 -0.77765294164E+01 -0.24429424623E+02  0.23381852583E+02  0.34698447050E+02  0.51100000000E-03 0. -1.
        -12    1    3    3    0    0  0.14518935397E+01 -0.77032318828E+01 -0.12673029496E+01  0.79406443729E+01  0.00000000000E+00 0.  1.
</event>
<event>
 7    1  0.2442667E-009  0.4778727E+02  0.7816164E-02  0.1312668E+00
        -11   -1    0    0    0    0  0.00000000000E+00  0.00000000000E+00  0.45593999997E+02  0.45594000000E+02  0.51100000000E-03 0. -1.
         11   -1    0    0    0    0 -0.00000000000E+00 -0.00000000000E+00 -0.45593999997E+02  0.45594000000E+02  0.51100000000E-03 0.  1.
    9900012    2    1    2    0    0  0.68097207923E+01 -0.35107464930E+02  0.24590985834E+02  0.47787274483E+02  0.20000015679E+02 0.  0.
        -12    1    1    2    0    0 -0.68097207923E+01  0.35107464930E+02 -0.24590985834E+02  0.43400725517E+02  0.00000000000E+00 0.  1.
         11    1    3    3    0    0  0.11041122070E+02 -0.24950181516E+02  0.15396480941E+02  0.31328414577E+02  0.51100000000E-03 0. -1.
        -11    1    3    3    0    0 -0.12711937129E+01  0.10091069463E+01 -0.10837045452E+00  0.16266452291E+01  0.51100000000E-03 0.  1.
         12    1    3    3    0    0 -0.29602075650E+01 -0.11166390360E+02  0.93028753478E+01  0.14832214677E+02  0.00000000000E+00 0. -1.
</event>
<event>
 7    1  0.2442667E-009  0.4778727E+02  0.7816164E-02  0.1312668E+00
        -11   -1    0    0    0    0  0.00000000000E+00  0.00000000000E+00  0.45593999997E+02  0.45594000000E+02  0.51100000000E-03 0.  1.
         11   -1    0    0    0    0 -0.00000000000E+00 -0.00000000000E+00 -0.45593999997E+02  0.45594000000E+02  0.51100000000E-03 0. -1.
    9900012    2    1    2    0    0 -0.26570691381E+02  0.33347549990E+02 -0.80970610748E+01  0.47787272715E+02  0.20000007616E+02 0.  0.
        -12    1    1    2    0    0  0.26570691381E+02 -0.33347549990E+02  0.80970610748E+01  0.43400727285E+02  0.00000000000E+00 0.  1.
         11    1    3    3    0    0 -0.13833073329E+02  0.18721605469E+02 -0.46738850312E+01  0.23742317296E+02  0.51100000000E-03 0. -1.
        -11    1    3    3    0    0 -0.12296134256E+02  0.37885427082E+01 -0.28802542847E+01  0.13184985343E+02  0.51100000000E-03 0.  1.
        -12    1    3    3    0    0 -0.44148379652E+00  0.10837401813E+02 -0.54292175893E+00  0.10859970075E+02  0.00000000000E+00 0.  1.
</event>
<event>
 7    1  0.2442667E-009  0.4778728E+02  0.7816164E-02  0.1312668E+00
        -11   -1    0    0    0    0  0.00000000000E+00  0.00000000000E+00  0.45593999997E+02  0.45594000000E+02  0.51100000000E-03 0. -1.
         11   -1    0    0    0    0 -0.00000000000E+00 -0.00000000000E+00 -0.45593999997E+02  0.45594000000E+02  0.51100000000E-03 0.  1.
    9900012    2    1    2    0    0  0.18759390854E+02  0.19650758190E+02  0.33846060350E+02  0.47787275999E+02  0.20000022588E+02 0.  0.
        -12    1    1    2    0    0 -0.18759390854E+02 -0.19650758190E+02 -0.33846060350E+02  0.43400724001E+02  0.00000000000E+00 0.  1.
         11    1    3    3    0    0  0.22008299821E+02  0.18178045778E+02  0.29875225224E+02  0.41319918825E+02  0.51100000000E-03 0. -1.
        -11    1    3    3    0    0  0.68590641829E+00 -0.32765652205E+00  0.79444340920E+00  0.10995303555E+01  0.51100000000E-03 0.  1.
         12    1    3    3    0    0 -0.39348153847E+01  0.18003689342E+01  0.31763917165E+01  0.53678268180E+01  0.00000000000E+00 0. -1.
</event>
<event>
 7    1  0.2442667E-009  0.4778727E+02  0.7816164E-02  0.1312668E+00
        -11   -1    0    0    0    0  0.00000000000E+00  0.00000000000E+00  0.45593999997E+02  0.45594000000E+02  0.51100000000E-03 0. -1.
         11   -1    0    0    0    0 -0.00000000000E+00 -0.00000000000E+00 -0.45593999997E+02  0.45594000000E+02  0.51100000000E-03 0.  1.
    9900012    2    1    2    0    0  0.23181392969E+02  0.35374949397E+02  0.97395767973E+01  0.47787269810E+02  0.19999994372E+02 0.  0.
        -12    1    1    2    0    0 -0.23181392969E+02 -0.35374949397E+02 -0.97395767973E+01  0.43400730190E+02  0.00000000000E+00 0.  1.
         11    1    3    3    0    0  0.53959767353E+01  0.55903980017E+01 -0.15837493944E+00  0.77713703828E+01  0.51100000000E-03 0. -1.
        -11    1    3    3    0    0  0.15891388893E+02  0.14948482792E+02  0.12020512702E+02  0.24909558499E+02  0.51100000000E-03 0.  1.
        -12    1    3    3    0    0  0.18940273399E+01  0.14836068604E+02 -0.21225609656E+01  0.15106340928E+02  0.00000000000E+00 0.  1.
</event>
<event>
 7    1  0.2442667E-009  0.4778727E+02  0.7816164E-02  0.1312668E+00
        -11   -1    0    0    0    0  0.00000000000E+00  0.00000000000E+00  0.45593999997E+02  0.45594000000E+02  0.51100000000E-03 0.  1.
         11   -1    0    0    0    0 -0.00000000000E+00 -0.00000000000E+00 -0.45593999997E+02  0.45594000000E+02  0.51100000000E-03 0. -1.
    9900012    2    1    2    0    0 -0.21384473402E+02  0.26010359931E+02 -0.27382266435E+02  0.47787273721E+02  0.20000012203E+02 0.  0.
        -12    1    1    2    0    0  0.21384473402E+02 -0.26010359931E+02  0.27382266435E+02  0.43400726279E+02  0.00000000000E+00 0.  1.
         11    1    3    3    0    0 -0.97976395149E+01  0.10970772045E+02 -0.12075723246E+02  0.19030887302E+02  0.51100000000E-03 0. -1.
        -11    1    3    3    0    0 -0.68939090115E+01  0.68457372801E+01 -0.16591505060E+02  0.19226755857E+02  0.51100000000E-03 0.  1.
        -12    1    3    3    0    0 -0.46929248753E+01  0.81938506063E+01  0.12849618702E+01  0.95296305621E+01  0.00000000000E+00 0.  1.
</event>
<event>
 7    1  0.2442667E-009  0.4778727E+02  0.7816164E-02  0.1312668E+00
        -11   -1    0    0    0    0  0.00000000000E+00  0.00000000000E+00  0.45593999997E+02  0.45594000000E+02  0.51100000000E-03 0.  1.
         11   -1    0    0    0    0 -0.00000000000E+00 -0.00000000000E+00 -0.45593999997E+02  0.45594000000E+02  0.51100000000E-03 0. -1.
    9900012    2    1    2    0    0  0.19344803747E+02  0.17065328170E+02 -0.34902385505E+02  0.47787269920E+02  0.19999994871E+02 0.  0.
        -12    1    1    2    0    0 -0.19344803747E+02 -0.17065328170E+02  0.34902385505E+02  0.43400730080E+02  0.00000000000E+00 0.  1.
         11    1    3    3    0    0  0.14783300813E+02  0.15353161122E+02 -0.28720419459E+02  0.35764899462E+02  0.51100000000E-03 0. -1.
        -11    1    3    3    0    0 -0.19510812041E+01 -0.28401002063E+00  0.92532147549E+00  0.21779806360E+01  0.51100000000E-03 0.  1.
        -12    1    3    3    0    0  0.65125841378E+01  0.19961770685E+01 -0.71072875221E+01  0.98443898217E+01  0.00000000000E+00 0.  1.
</event>
<event>
 7    1  0.2442667E-009  0.4778728E+02  0.7816164E-02  0.1312668E+00
        -11   -1    0    0    0    0  0.00000000000E+00  0.00000000000E+00  0.45593999997E+02  0.45594000000E+02  0.51100000000E-03 0. -1.
         11   -1    0    0    0    0 -0.00000000000E+00 -0.00000000000E+00 -0.45593999997E+02  0.45594000000E+02  0.51100000000E-03 0.  1.
    9900012    2    1    2    0    0  0.43022865910E+01  0.42068205603E+02 -0.97662100338E+01  0.47787280524E+02  0.20000043221E+02 0.  0.
        -12    1    1    2    0    0 -0.43022865910E+01 -0.42068205603E+02  0.97662100338E+01  0.43400719476E+02  0.00000000000E+00 0.  1.
         11    1    3    3    0    0  0.23645162466E+01  0.69630227931E+01 -0.17166884220E+01  0.75512676351E+01  0.51100000000E-03 0. -1.
        -11    1    3    3    0    0  0.35789773723E-01  0.35684091538E+02 -0.10389185102E+02  0.37165721265E+02  0.51100000000E-03 0.  1.
        -12    1    3    3    0    0  0.19019805706E+01 -0.57890872809E+00  0.23396634902E+01  0.30702916236E+01  0.00000000000E+00 0.  1.
</event>
<event>
 7    1  0.2442667E-009  0.4778727E+02  0.7816164E-02  0.1312668E+00
        -11   -1    0    0    0    0  0.00000000000E+00  0.00000000000E+00  0.45593999997E+02  0.45594000000E+02  0.51100000000E-03 0. -1.
         11   -1    0    0    0    0 -0.00000000000E+00 -0.00000000000E+00 -0.45593999997E+02  0.45594000000E+02  0.51100000000E-03 0.  1.
    9900012    2    1    2    0    0 -0.91569320113E+01 -0.74662150948E+01  0.41761578096E+02  0.47787272163E+02  0.20000005102E+02 0.  0.
        -12    1    1    2    0    0  0.91569320113E+01  0.74662150948E+01 -0.41761578096E+02  0.43400727837E+02  0.00000000000E+00 0.  1.
         11    1    3    3    0    0 -0.38246915888E+01  0.43385411135E+01  0.40202798376E+01  0.70437103133E+01  0.51100000000E-03 0. -1.
        -11    1    3    3    0    0  0.17468746573E+01 -0.54380940280E+01  0.16661906263E+02  0.17613732095E+02  0.51100000000E-03 0.  1.
         12    1    3    3    0    0 -0.70791150798E+01 -0.63666621803E+01  0.21079391995E+02  0.23129829755E+02  0.00000000000E+00 0. -1.
</event>
<event>
 7    1  0.2442667E-009  0.4778727E+02  0.7816164E-02  0.1312668E+00
        -11   -1    0    0    0    0  0.00000000000E+00  0.00000000000E+00  0.45593999997E+02  0.45594000000E+02  0.51100000000E-03 0.  1.
         11   -1    0    0    0    0 -0.00000000000E+00 -0.00000000000E+00 -0.45593999997E+02  0.45594000000E+02  0.51100000000E-03 0. -1.
    9900012    2    1    2    0    0  0.20813674217E+02 -0.31479296208E+02 -0.21435203703E+02  0.47787273255E+02  0.20000010079E+02 0.  0.
        -12    1    1    2    0    0 -0.20813674217E+02  0.31479296208E+02  0.21435203703E+02  0.43400726745E+02  0.00000000000E+00 0.  1.
         11    1    3    3    0    0  0.95735908136E+01 -0.22620700576E+02 -0.82450946978E+01  0.25910062185E+02  0.51100000000E-03 0. -1.
        -11    1    3    3    0    0  0.48586630020E+01 -0.20830232259E+01  0.51387818971E+00  0.53112769634E+01  0.51100000000E-03 0.  1.
         12    1    3    3    0    0  0.63814204018E+01 -0.67755724065E+01 -0.13703987195E+02  0.16565934107E+02  0.00000000000E+00 0. -1.
</event>
<event>
 7    1  0.2442667E-009  0.4778727E+02  0.7816164E-02  0.1312668E+00
        -11   -1    0    0    0    0  0.00000000000E+00  0.00000000000E+00  0.45593999997E+02  0.45594000000E+02  0.51100000000E-03 0.  1.
         11   -1    0    0    0    0 -0.00000000000E+00 -0.00000000000E+00 -0.45593999997E+02  0.45594000000E+02  0.51100000000E-03 0. -1.
    9900012    2    1    2    0    0 -0.35752218494E+02  0.51945966335E+01 -0.24050321790E+02  0.47787274895E+02  0.20000017556E+02 0.  0.
        -12    1    1    2    0    0  0.35752218494E+02 -0.51945966335E+01  0.24050321790E+02  0.43400725105E+02  0.00000000000E+00 0.  1.
         11    1    3    3    0    0 -0.10984630771E+02  0.96302243175E+01 -0.11564757822E+02  0.18631880134E+02  0.51100000000E-03 0. -1.
        -11    1    3    3    0    0 -0.75049475555E+01 -0.47189361367E+01 -0.60363959676E+01  0.10725235317E+02  0.51100000000E-03 0.  1.
         12    1    3    3    0    0 -0.17262640167E+02  0.28330845268E+00 -0.64491680009E+01  0.18430159444E+02  0.00000000000E+00 0. -1.
</event>
<event>
 7    1  0.2442667E-009  0.4778727E+02  0.7816164E-02  0.1312668E+00
        -11   -1    0    0    0    0  0.00000000000E+00  0.00000000000E+00  0.45593999997E+02  0.45594000000E+02  0.51100000000E-03 0.  1.
         11   -1    0    0    0    0 -0.00000000000E+00 -0.00000000000E+00 -0.45593999997E+02  0.45594000000E+02  0.51100000000E-03 0. -1.
    9900012    2    1    2    0    0 -0.94298421617E+01 -0.35531130284E+01 -0.42214651616E+02  0.47787270208E+02  0.19999996188E+02 0.  0.
        -12    1    1    2    0    0  0.94298421617E+01  0.35531130284E+01  0.42214651616E+02  0.43400729792E+02  0.00000000000E+00 0.  1.
         11    1    3    3    0    0 -0.56407433347E+01 -0.30061475453E+01 -0.20215462925E+02  0.21201883170E+02  0.51100000000E-03 0. -1.
        -11    1    3    3    0    0  0.19920083434E+01  0.37256511302E+01 -0.93315604230E+00  0.43265868817E+01  0.51100000000E-03 0.  1.
        -12    1    3    3    0    0 -0.57811071704E+01 -0.42726166134E+01 -0.21066032649E+02  0.22258800157E+02  0.00000000000E+00 0.  1.
</event>
<event>
 7    1  0.2442667E-009  0.4778727E+02  0.7816164E-02  0.1312668E+00
        -11   -1    0    0    0    0  0.00000000000E+00  0.00000000000E+00  0.45593999997E+02  0.45594000000E+02  0.51100000000E-03 0.  1.
         11   -1    0    0    0    0 -0.00000000000E+00 -0.00000000000E+00 -0.45593999997E+02  0.45594000000E+02  0.51100000000E-03 0. -1.
    9900012    2    1    2    0    0 -0.27913716887E+02 -0.10218753750E+02 -0.31623164811E+02  0.47787273378E+02  0.20000010641E+02 0.  0.
        -12    1    1    2    0    0  0.27913716887E+02  0.10218753750E+02  0.31623164811E+02  0.43400726622E+02  0.00000000000E+00 0.  1.
         11    1    3    3    0    0 -0.20723401043E+02 -0.56474828169E+01 -0.29014445696E+02  0.36099743382E+02  0.51100000000E-03 0. -1.
        -11    1    3    3    0    0  0.16186429476E+01 -0.77393185703E+00 -0.54955703520E+00  0.18764297767E+01  0.51100000000E-03 0.  1.
         12    1    3    3    0    0 -0.88089587911E+01 -0.37973390757E+01 -0.20591620800E+01  0.98111002192E+01  0.00000000000E+00 0. -1.
</event>
<event>
 7    1  0.2442667E-009  0.4778727E+02  0.7816164E-02  0.1312668E+00
        -11   -1    0    0    0    0  0.00000000000E+00  0.00000000000E+00  0.45593999997E+02  0.45594000000E+02  0.51100000000E-03 0.  1.
         11   -1    0    0    0    0 -0.00000000000E+00 -0.00000000000E+00 -0.45593999997E+02  0.45594000000E+02  0.51100000000E-03 0. -1.
    9900012    2    1    2    0    0  0.11969472554E+02 -0.38059812581E+02 -0.17082310342E+02  0.47787274965E+02  0.20000017875E+02 0.  0.
        -12    1    1    2    0    0 -0.11969472554E+02  0.38059812581E+02  0.17082310342E+02  0.43400725035E+02  0.00000000000E+00 0.  1.
         11    1    3    3    0    0  0.31729982092E+01 -0.73923999172E+01 -0.36632639209E+01  0.88394002617E+01  0.51100000000E-03 0. -1.
        -11    1    3    3    0    0  0.60862644928E+00 -0.21008196404E+02 -0.15501288317E+02  0.26115219357E+02  0.51100000000E-03 0.  1.
        -12    1    3    3    0    0  0.81878478954E+01 -0.96592162606E+01  0.20822418961E+01  0.12832655346E+02  0.00000000000E+00 0.  1.
</event>
<event>
 7    1  0.2442667E-009  0.4778729E+02  0.7816164E-02  0.1312668E+00
        -11   -1    0    0    0    0  0.00000000000E+00  0.00000000000E+00  0.45593999997E+02  0.45594000000E+02  0.51100000000E-03 0.  1.
         11   -1    0    0    0    0 -0.00000000000E+00 -0.00000000000E+00 -0.45593999997E+02  0.45594000000E+02  0.51100000000E-03 0. -1.
    9900012    2    1    2    0    0  0.13574818087E+02  0.31477136889E+02 -0.26618339912E+02  0.47787287419E+02  0.20000074659E+02 0.  0.
        -12    1    1    2    0    0 -0.13574818087E+02 -0.31477136889E+02  0.26618339912E+02  0.43400712581E+02  0.00000000000E+00 0.  1.
         11    1    3    3    0    0  0.12592760616E+02  0.15921319526E+02 -0.22891352995E+02  0.30595425763E+02  0.51100000000E-03 0. -1.
        -11    1    3    3    0    0 -0.20144681183E+01  0.65219761839E+01  0.35585312516E+00  0.68352678697E+01  0.51100000000E-03 0.  1.
        -12    1    3    3    0    0  0.29965255892E+01  0.90338411790E+01 -0.40828400421E+01  0.10356593787E+02  0.00000000000E+00 0.  1.
</event>
<event>
 7    1  0.2442667E-009  0.4778727E+02  0.7816164E-02  0.1312668E+00
        -11   -1    0    0    0    0  0.00000000000E+00  0.00000000000E+00  0.45593999997E+02  0.45594000000E+02  0.51100000000E-03 0.  1.
         11   -1    0    0    0    0 -0.00000000000E+00 -0.00000000000E+00 -0.45593999997E+02  0.45594000000E+02  0.51100000000E-03 0. -1.
    9900012    2    1    2    0    0  0.75637527043E+01  0.26359208623E+02 -0.33639340809E+02  0.47787268620E+02  0.19999988947E+02 0.  0.
        -12    1    1    2    0    0 -0.75637527043E+01 -0.26359208623E+02  0.33639340809E+02  0.43400731380E+02  0.00000000000E+00 0.  1.
         11    1    3    3    0    0  0.36863206303E+01  0.11076687532E+02 -0.40465842612E+01  0.12355436493E+02  0.51100000000E-03 0. -1.
        -11    1    3    3    0    0  0.93047170004E+00  0.14224299518E+02 -0.28900880602E+02  0.32225104720E+02  0.51100000000E-03 0.  1.
        -12    1    3    3    0    0  0.29469603740E+01  0.10582215729E+01 -0.69187594618E+00  0.32067274078E+01  0.00000000000E+00 0.  1.
</event>
<event>
 7    1  0.2442667E-009  0.4778727E+02  0.7816164E-02  0.1312668E+00
        -11   -1    0    0    0    0  0.00000000000E+00  0.00000000000E+00  0.45593999997E+02  0.45594000000E+02  0.51100000000E-03 0.  1.
         11   -1    0    0    0    0 -0.00000000000E+00 -0.00000000000E+00 -0.45593999997E+02  0.45594000000E+02  0.51100000000E-03 0. -1.
    9900012    2    1    2    0    0  0.25112220242E+02 -0.25759714509E+02 -0.24278316624E+02  0.47787272412E+02  0.20000006236E+02 0.  0.
        -12    1    1    2    0    0 -0.25112220242E+02  0.25759714509E+02  0.24278316624E+02  0.43400727588E+02  0.00000000000E+00 0.  1.
         11    1    3    3    0    0 -0.24035849980E+01 -0.82885467623E+00 -0.11015385537E+01  0.27708497547E+01  0.51100000000E-03 0.  1.
        -11    1    3    3    0    0  0.23140766718E+02 -0.24964921603E+02 -0.19081594477E+02  0.39023706167E+02  0.51100000000E-03 0. -1.
         12    1    3    3    0    0  0.43750385220E+01  0.34061770627E-01 -0.40951835928E+01  0.59927164902E+01  0.00000000000E+00 0. -1.
</event>
<event>
 7    1  0.2442667E-009  0.4778727E+02  0.7816164E-02  0.1312668E+00
        -11   -1    0    0    0    0  0.00000000000E+00  0.00000000000E+00  0.45593999997E+02  0.45594000000E+02  0.51100000000E-03 0.  1.
         11   -1    0    0    0    0 -0.00000000000E+00 -0.00000000000E+00 -0.45593999997E+02  0.45594000000E+02  0.51100000000E-03 0. -1.
    9900012    2    1    2    0    0  0.31828198118E+02  0.11260847066E+02 -0.27272373414E+02  0.47787271623E+02  0.20000002636E+02 0.  0.
        -12    1    1    2    0    0 -0.31828198118E+02 -0.11260847066E+02  0.27272373414E+02  0.43400728377E+02  0.00000000000E+00 0.  1.
         11    1    3    3    0    0  0.22991245683E+02  0.17186438394E+01 -0.20350190645E+02  0.30751932854E+02  0.51100000000E-03 0. -1.
        -11    1    3    3    0    0  0.12849180145E+01 -0.91886927884E+00 -0.32614158153E+01  0.36238333898E+01  0.51100000000E-03 0.  1.
         12    1    3    3    0    0  0.75520344202E+01  0.10461072505E+02 -0.36607669539E+01  0.13411505379E+02  0.00000000000E+00 0. -1.
</event>
<event>
 7    1  0.2442667E-009  0.4778730E+02  0.7816164E-02  0.1312668E+00
        -11   -1    0    0    0    0  0.00000000000E+00  0.00000000000E+00  0.45593999997E+02  0.45594000000E+02  0.51100000000E-03 0.  1.
         11   -1    0    0    0    0 -0.00000000000E+00 -0.00000000000E+00 -0.45593999997E+02  0.45594000000E+02  0.51100000000E-03 0. -1.
    9900012    2    1    2    0    0  0.24705163731E+02 -0.35533523977E+02 -0.32625639885E+01  0.47787299948E+02  0.20000131781E+02 0.  0.
        -12    1    1    2    0    0 -0.24705163731E+02  0.35533523977E+02  0.32625639885E+01  0.43400700052E+02  0.00000000000E+00 0.  1.
         11    1    3    3    0    0  0.15842919749E+02 -0.18195640303E+02 -0.94216560379E+01  0.25900714951E+02  0.51100000000E-03 0. -1.
        -11    1    3    3    0    0 -0.66034151046E+00 -0.28819265677E+01  0.31433218911E+01  0.43153243707E+01  0.51100000000E-03 0.  1.
         12    1    3    3    0    0  0.95225854926E+01 -0.14455957106E+02  0.30157701583E+01  0.17571260626E+02  0.00000000000E+00 0. -1.
</event>
<event>
 7    1  0.2442667E-009  0.4778726E+02  0.7816164E-02  0.1312668E+00
        -11   -1    0    0    0    0  0.00000000000E+00  0.00000000000E+00  0.45593999997E+02  0.45594000000E+02  0.51100000000E-03 0.  1.
         11   -1    0    0    0    0 -0.00000000000E+00 -0.00000000000E+00 -0.45593999997E+02  0.45594000000E+02  0.51100000000E-03 0. -1.
    9900012    2    1    2    0    0  0.11675091764E+02  0.31877350771E+02 -0.27039803120E+02  0.47787260229E+02  0.19999950688E+02 0.  0.
        -12    1    1    2    0    0 -0.11675091764E+02 -0.31877350771E+02  0.27039803120E+02  0.43400739771E+02  0.00000000000E+00 0.  1.
         11    1    3    3    0    0  0.10267961552E+01  0.28047179489E+01 -0.85597259290E+01  0.90658513862E+01  0.51100000000E-03 0. -1.
        -11    1    3    3    0    0  0.25921400365E+01 -0.10601527041E+01 -0.20244174967E+01  0.34556302156E+01  0.51100000000E-03 0.  1.
         12    1    3    3    0    0  0.80561555725E+01  0.30132785526E+02 -0.16455659695E+02  0.35265778627E+02  0.00000000000E+00 0. -1.
</event>
<event>
 7    1  0.2442667E-009  0.4778727E+02  0.7816164E-02  0.1312668E+00
        -11   -1    0    0    0    0  0.00000000000E+00  0.00000000000E+00  0.45593999997E+02  0.45594000000E+02  0.51100000000E-03 0.  1.
         11   -1    0    0    0    0 -0.00000000000E+00 -0.00000000000E+00 -0.45593999997E+02  0.45594000000E+02  0.51100000000E-03 0. -1.
    9900012    2    1    2    0    0 -0.42141617756E+02  0.95708302514E+01 -0.40132848305E+01  0.47787271966E+02  0.20000004201E+02 0.  0.
        -12    1    1    2    0    0  0.42141617756E+02 -0.95708302514E+01  0.40132848305E+01  0.43400728034E+02  0.00000000000E+00 0.  1.
         11    1    3    3    0    0 -0.15985202973E+02  0.74995932174E+01 -0.10510593840E+02  0.20548557021E+02  0.51100000000E-03 0. -1.
        -11    1    3    3    0    0 -0.56066229546E+01  0.20191282713E-01  0.27683315815E+01  0.62528624364E+01  0.51100000000E-03 0.  1.
         12    1    3    3    0    0 -0.20549791828E+02  0.20510457513E+01  0.37289774277E+01  0.20985852508E+02  0.00000000000E+00 0. -1.
</event>
<event>
 7    1  0.2442667E-009  0.4778727E+02  0.7816164E-02  0.1312668E+00
        -11   -1    0    0    0    0  0.00000000000E+00  0.00000000000E+00  0.45593999997E+02  0.45594000000E+02  0.51100000000E-03 0.  1.
         11   -1    0    0    0    0 -0.00000000000E+00 -0.00000000000E+00 -0.45593999997E+02  0.45594000000E+02  0.51100000000E-03 0. -1.
    9900012    2    1    2    0    0  0.41139738869E+02 -0.13740138815E+02 -0.15342230854E+01  0.47787269944E+02  0.19999994984E+02 0.  0.
        -12    1    1    2    0    0 -0.41139738869E+02  0.13740138815E+02  0.15342230854E+01  0.43400730056E+02  0.00000000000E+00 0.  1.
         11    1    3    3    0    0  0.79102208192E+01 -0.17239021554E+01 -0.31517350343E+01  0.86877422865E+01  0.51100000000E-03 0. -1.
        -11    1    3    3    0    0 -0.41851238538E+00 -0.25615041280E+01 -0.28607210012E+01  0.38626650026E+01  0.51100000000E-03 0.  1.
        -12    1    3    3    0    0  0.33648030436E+02 -0.94547325314E+01  0.44782329502E+01  0.35236862655E+02  0.00000000000E+00 0.  1.
</event>
<event>
 7    1  0.2442667E-009  0.4778730E+02  0.7816164E-02  0.1312668E+00
        -11   -1    0    0    0    0  0.00000000000E+00  0.00000000000E+00  0.45593999997E+02  0.45594000000E+02  0.51100000000E-03 0.  1.
         11   -1    0    0    0    0 -0.00000000000E+00 -0.00000000000E+00 -0.45593999997E+02  0.45594000000E+02  0.51100000000E-03 0. -1.
    9900012    2    1    2    0    0 -0.22921784919E+02 -0.13450795411E+02 -0.34311644733E+02  0.47787296258E+02  0.20000114959E+02 0.  0.
        -12    1    1    2    0    0  0.22921784919E+02  0.13450795411E+02  0.34311644733E+02  0.43400703742E+02  0.00000000000E+00 0.  1.
         11    1    3    3    0    0 -0.93874819777E+01 -0.18808890409E+01 -0.12787954072E+02  0.15974803006E+02  0.51100000000E-03 0. -1.
        -11    1    3    3    0    0  0.31834013338E+01 -0.17824489207E+00 -0.32094588632E+01  0.45239851624E+01  0.51100000000E-03 0.  1.
        -12    1    3    3    0    0 -0.16717704275E+02 -0.11391661478E+02 -0.18314231797E+02  0.27288508090E+02  0.00000000000E+00 0.  1.
</event>
<event>
 7    1  0.2442667E-009  0.4778728E+02  0.7816164E-02  0.1312668E+00
        -11   -1    0    0    0    0  0.00000000000E+00  0.00000000000E+00  0.45593999997E+02  0.45594000000E+02  0.51100000000E-03 0.  1.
         11   -1    0    0    0    0 -0.00000000000E+00 -0.00000000000E+00 -0.45593999997E+02  0.45594000000E+02  0.51100000000E-03 0. -1.
    9900012    2    1    2    0    0  0.26350219536E+02 -0.22030769453E+02 -0.26531755563E+02  0.47787275058E+02  0.20000018300E+02 0.  0.
        -12    1    1    2    0    0 -0.26350219536E+02  0.22030769453E+02  0.26531755563E+02  0.43400724942E+02  0.00000000000E+00 0.  1.
         11    1    3    3    0    0  0.15815153218E+02 -0.80937998356E+01 -0.90868380320E+01  0.19954931540E+02  0.51100000000E-03 0. -1.
        -11    1    3    3    0    0  0.29092376311E+01 -0.12841794675E+02 -0.14495423691E+02  0.19582968680E+02  0.51100000000E-03 0.  1.
        -12    1    3    3    0    0  0.76258286867E+01 -0.10951749421E+01 -0.29494938391E+01  0.82493748382E+01  0.00000000000E+00 0.  1.
</event>
<event>
 7    1  0.2442667E-009  0.4778724E+02  0.7816164E-02  0.1312668E+00
        -11   -1    0    0    0    0  0.00000000000E+00  0.00000000000E+00  0.45593999997E+02  0.45594000000E+02  0.51100000000E-03 0.  1.
         11   -1    0    0    0    0 -0.00000000000E+00 -0.00000000000E+00 -0.45593999997E+02  0.45594000000E+02  0.51100000000E-03 0. -1.
    9900012    2    1    2    0    0 -0.10685442891E+02 -0.35518447358E+02 -0.22536353917E+02  0.47787239173E+02  0.19999854685E+02 0.  0.
        -12    1    1    2    0    0  0.10685442891E+02  0.35518447358E+02  0.22536353917E+02  0.43400760827E+02  0.00000000000E+00 0.  1.
         11    1    3    3    0    0 -0.11411431113E+02 -0.18973645989E+02 -0.18240842649E+02  0.28687076236E+02  0.51100000000E-03 0. -1.
        -11    1    3    3    0    0 -0.12134796544E+01 -0.11958135211E+02  0.70858515653E+00  0.12040416263E+02  0.51100000000E-03 0.  1.
         12    1    3    3    0    0  0.19394678755E+01 -0.45866661574E+01 -0.50040964249E+01  0.70597466746E+01  0.00000000000E+00 0. -1.
</event>
<event>
 7    1  0.2442667E-009  0.4778726E+02  0.7816164E-02  0.1312668E+00
        -11   -1    0    0    0    0  0.00000000000E+00  0.00000000000E+00  0.45593999997E+02  0.45594000000E+02  0.51100000000E-03 0.  1.
         11   -1    0    0    0    0 -0.00000000000E+00 -0.00000000000E+00 -0.45593999997E+02  0.45594000000E+02  0.51100000000E-03 0. -1.
    9900012    2    1    2    0    0  0.73455652986E+01 -0.41971787945E+02  0.82483771620E+01  0.47787262233E+02  0.19999959827E+02 0.  0.
        -12    1    1    2    0    0 -0.73455652986E+01  0.41971787945E+02 -0.82483771620E+01  0.43400737767E+02  0.00000000000E+00 0.  1.
         11    1    3    3    0    0 -0.27117043651E+01 -0.22517576843E+02  0.10451641668E+02  0.24972613425E+02  0.51100000000E-03 0. -1.
        -11    1    3    3    0    0  0.16931409490E+01 -0.55096790295E+01 -0.30706896096E+01  0.65308823463E+01  0.51100000000E-03 0.  1.
         12    1    3    3    0    0  0.83641287147E+01 -0.13944532073E+02  0.86742510326E+00  0.16283766462E+02  0.00000000000E+00 0. -1.
</event>
<event>
 7    1  0.2442667E-009  0.4778727E+02  0.7816164E-02  0.1312668E+00
        -11   -1    0    0    0    0  0.00000000000E+00  0.00000000000E+00  0.45593999997E+02  0.45594000000E+02  0.51100000000E-03 0. -1.
         11   -1    0    0    0    0 -0.00000000000E+00 -0.00000000000E+00 -0.45593999997E+02  0.45594000000E+02  0.51100000000E-03 0.  1.
    9900012    2    1    2    0    0 -0.25327396503E+02  0.33428884077E+02  0.11164943819E+02  0.47787271034E+02  0.19999999954E+02 0.  0.
        -12    1    1    2    0    0  0.25327396503E+02 -0.33428884077E+02 -0.11164943819E+02  0.43400728966E+02  0.00000000000E+00 0.  1.
         11    1    3    3    0    0 -0.16793269726E+02  0.11031347971E+02  0.52005967640E+01  0.20754535724E+02  0.51100000000E-03 0. -1.
        -11    1    3    3    0    0 -0.94810458981E+01  0.23021826229E+02  0.65658880831E+01  0.25748895138E+02  0.51100000000E-03 0.  1.
        -12    1    3    3    0    0  0.94691912159E+00 -0.62429012272E+00 -0.60154102823E+00  0.12838401726E+01  0.00000000000E+00 0.  1.
</event>
<event>
 7    1  0.2442667E-009  0.4778727E+02  0.7816164E-02  0.1312668E+00
        -11   -1    0    0    0    0  0.00000000000E+00  0.00000000000E+00  0.45593999997E+02  0.45594000000E+02  0.51100000000E-03 0.  1.
         11   -1    0    0    0    0 -0.00000000000E+00 -0.00000000000E+00 -0.45593999997E+02  0.45594000000E+02  0.51100000000E-03 0. -1.
    9900012    2    1    2    0    0 -0.25803095171E+02 -0.28903768070E+02 -0.19554940581E+02  0.47787271548E+02  0.20000002294E+02 0.  0.
        -12    1    1    2    0    0  0.25803095171E+02  0.28903768070E+02  0.19554940581E+02  0.43400728452E+02  0.00000000000E+00 0.  1.
         11    1    3    3    0    0 -0.14978128910E+02 -0.75152683685E+01 -0.62304996468E+01  0.17878555043E+02  0.51100000000E-03 0. -1.
        -11    1    3    3    0    0 -0.50086412203E+01 -0.19760764744E+02 -0.12223250583E+02  0.23769353488E+02  0.51100000000E-03 0.  1.
        -12    1    3    3    0    0 -0.58163250400E+01 -0.16277349577E+01 -0.11011903508E+01  0.61393630168E+01  0.00000000000E+00 0.  1.
</event>
<event>
 7    1  0.2442667E-009  0.4778727E+02  0.7816164E-02  0.1312668E+00
        -11   -1    0    0    0    0  0.00000000000E+00  0.00000000000E+00  0.45593999997E+02  0.45594000000E+02  0.51100000000E-03 0.  1.
         11   -1    0    0    0    0 -0.00000000000E+00 -0.00000000000E+00 -0.45593999997E+02  0.45594000000E+02  0.51100000000E-03 0. -1.
    9900012    2    1    2    0    0  0.12529738403E+02 -0.38165040107E+02 -0.16433467475E+02  0.47787268623E+02  0.19999988961E+02 0.  0.
        -12    1    1    2    0    0 -0.12529738403E+02  0.38165040107E+02  0.16433467475E+02  0.43400731377E+02  0.00000000000E+00 0.  1.
         11    1    3    3    0    0  0.57661231424E+01 -0.14626598582E+02 -0.14155435068E+02  0.21155658922E+02  0.51100000000E-03 0. -1.
        -11    1    3    3    0    0  0.85634596317E+01 -0.19608453763E+02  0.65680466094E+00  0.21406907587E+02  0.51100000000E-03 0.  1.
        -12    1    3    3    0    0 -0.17998443712E+01 -0.39299877615E+01 -0.29348370683E+01  0.52247021143E+01  0.00000000000E+00 0.  1.
</event>
<event>
 7    1  0.2442667E-009  0.4778727E+02  0.7816164E-02  0.1312668E+00
        -11   -1    0    0    0    0  0.00000000000E+00  0.00000000000E+00  0.45593999997E+02  0.45594000000E+02  0.51100000000E-03 0.  1.
         11   -1    0    0    0    0 -0.00000000000E+00 -0.00000000000E+00 -0.45593999997E+02  0.45594000000E+02  0.51100000000E-03 0. -1.
    9900012    2    1    2    0    0  0.20163556087E+01  0.42750821634E+02 -0.72058888941E+01  0.47787271030E+02  0.19999999935E+02 0.  0.
        -12    1    1    2    0    0 -0.20163556087E+01 -0.42750821634E+02  0.72058888941E+01  0.43400728970E+02  0.00000000000E+00 0.  1.
         11    1    3    3    0    0  0.31730393662E+01  0.35423991170E+01 -0.36615837295E+01  0.60019968338E+01  0.51100000000E-03 0. -1.
        -11    1    3    3    0    0  0.25298247377E+01  0.19734920148E+02  0.44943737382E+01  0.20397707764E+02  0.51100000000E-03 0.  1.
        -12    1    3    3    0    0 -0.36865084952E+01  0.19473502369E+02 -0.80386789028E+01  0.21387566433E+02  0.00000000000E+00 0.  1.
</event>
<event>
 7    1  0.2442667E-009  0.4778726E+02  0.7816164E-02  0.1312668E+00
        -11   -1    0    0    0    0  0.00000000000E+00  0.00000000000E+00  0.45593999997E+02  0.45594000000E+02  0.51100000000E-03 0.  1.
         11   -1    0    0    0    0 -0.00000000000E+00 -0.00000000000E+00 -0.45593999997E+02  0.45594000000E+02  0.51100000000E-03 0. -1.
    9900012    2    1    2    0    0 -0.80473222296E+01  0.76537232550E+01 -0.41955758306E+02  0.47787256575E+02  0.19999934030E+02 0.  0.
        -12    1    1    2    0    0  0.80473222296E+01 -0.76537232550E+01  0.41955758306E+02  0.43400743425E+02  0.00000000000E+00 0.  1.
         11    1    3    3    0    0 -0.61465736042E+01  0.63154839490E+01 -0.93644492602E+01  0.12859184064E+02  0.51100000000E-03 0. -1.
        -11    1    3    3    0    0  0.18959990277E+01 -0.47395485082E+01 -0.10002636296E+02  0.11229909417E+02  0.51100000000E-03 0.  1.
        -12    1    3    3    0    0 -0.37967476531E+01  0.60777878142E+01 -0.22588672750E+02  0.23698163095E+02  0.00000000000E+00 0.  1.
</event>
<event>
 7    1  0.2442667E-009  0.4778727E+02  0.7816164E-02  0.1312668E+00
        -11   -1    0    0    0    0  0.00000000000E+00  0.00000000000E+00  0.45593999997E+02  0.45594000000E+02  0.51100000000E-03 0. -1.
         11   -1    0    0    0    0 -0.00000000000E+00 -0.00000000000E+00 -0.45593999997E+02  0.45594000000E+02  0.51100000000E-03 0.  1.
    9900012    2    1    2    0    0 -0.13702649062E+02  0.27655277531E+02  0.30513050482E+02  0.47787271707E+02  0.20000003021E+02 0.  0.
        -12    1    1    2    0    0  0.13702649062E+02 -0.27655277531E+02 -0.30513050482E+02  0.43400728293E+02  0.00000000000E+00 0.  1.
         11    1    3    3    0    0 -0.43371935793E+00  0.90835431442E+01  0.58753290478E+01  0.10826742826E+02  0.51100000000E-03 0. -1.
        -11    1    3    3    0    0 -0.67765821235E+01  0.14548978978E+02  0.24539798407E+02  0.29322287781E+02  0.51100000000E-03 0.  1.
        -12    1    3    3    0    0 -0.64923475809E+01  0.40227554085E+01  0.97923027065E-01  0.76382411004E+01  0.00000000000E+00 0.  1.
</event>
<event>
 7    1  0.2442667E-009  0.4778727E+02  0.7816164E-02  0.1312668E+00
        -11   -1    0    0    0    0  0.00000000000E+00  0.00000000000E+00  0.45593999997E+02  0.45594000000E+02  0.51100000000E-03 0. -1.
         11   -1    0    0    0    0 -0.00000000000E+00 -0.00000000000E+00 -0.45593999997E+02  0.45594000000E+02  0.51100000000E-03 0.  1.
    9900012    2    1    2    0    0  0.40690297009E+01 -0.42657342322E+02 -0.68860331654E+01  0.47787270635E+02  0.19999998133E+02 0.  0.
        -12    1    1    2    0    0 -0.40690297009E+01  0.42657342322E+02  0.68860331654E+01  0.43400729365E+02  0.00000000000E+00 0.  1.
         11    1    3    3    0    0 -0.56114907495E+01 -0.60300283309E+01  0.13281271103E+01  0.83434999842E+01  0.51100000000E-03 0. -1.
        -11    1    3    3    0    0  0.29791571841E+01 -0.14018758266E+02 -0.66827136018E+01  0.15813273608E+02  0.51100000000E-03 0.  1.
         12    1    3    3    0    0  0.67013632663E+01 -0.22608555724E+02 -0.15314466739E+01  0.23630497043E+02  0.00000000000E+00 0. -1.
</event>
<event>
 7    1  0.2442667E-009  0.4778725E+02  0.7816164E-02  0.1312668E+00
        -11   -1    0    0    0    0  0.00000000000E+00  0.00000000000E+00  0.45593999997E+02  0.45594000000E+02  0.51100000000E-03 0.  1.
         11   -1    0    0    0    0 -0.00000000000E+00 -0.00000000000E+00 -0.45593999997E+02  0.45594000000E+02  0.51100000000E-03 0. -1.
    9900012    2    1    2    0    0  0.41525022661E+02 -0.17777690994E+01 -0.12495476550E+02  0.47787252263E+02  0.19999914368E+02 0.  0.
        -12    1    1    2    0    0 -0.41525022661E+02  0.17777690994E+01  0.12495476550E+02  0.43400747737E+02  0.00000000000E+00 0.  1.
         11    1    3    3    0    0  0.33652400271E+02 -0.55131014252E+01 -0.41835943562E+01  0.34356670288E+02  0.51100000000E-03 0. -1.
        -11    1    3    3    0    0  0.34112562608E+00  0.31486951865E+00 -0.41405820360E+01  0.41665248547E+01  0.51100000000E-03 0.  1.
         12    1    3    3    0    0  0.75314967638E+01  0.34204628071E+01 -0.41713001575E+01  0.92640571200E+01  0.00000000000E+00 0. -1.
</event>
<event>
 7    1  0.2442667E-009  0.4778727E+02  0.7816164E-02  0.1312668E+00
        -11   -1    0    0    0    0  0.00000000000E+00  0.00000000000E+00  0.45593999997E+02  0.45594000000E+02  0.51100000000E-03 0.  1.
         11   -1    0    0    0    0 -0.00000000000E+00 -0.00000000000E+00 -0.45593999997E+02  0.45594000000E+02  0.51100000000E-03 0. -1.
    9900012    2    1    2    0    0  0.39006938829E+02 -0.10821749809E+02 -0.15651569777E+02  0.47787272101E+02  0.20000004815E+02 0.  0.
        -12    1    1    2    0    0 -0.39006938829E+02  0.10821749809E+02  0.15651569777E+02  0.43400727899E+02  0.00000000000E+00 0.  1.
         11    1    3    3    0    0  0.30915068532E+02 -0.11362317026E+02 -0.15021642037E+02  0.36200738118E+02  0.51100000000E-03 0. -1.
        -11    1    3    3    0    0  0.19556768864E+01 -0.15410309093E+01 -0.36654162058E+01  0.44311087292E+01  0.51100000000E-03 0.  1.
         12    1    3    3    0    0  0.61361934107E+01  0.20815981261E+01  0.30354884660E+01  0.71554252536E+01  0.00000000000E+00 0. -1.
</event>
<event>
 7    1  0.2442667E-009  0.4778727E+02  0.7816164E-02  0.1312668E+00
        -11   -1    0    0    0    0  0.00000000000E+00  0.00000000000E+00  0.45593999997E+02  0.45594000000E+02  0.51100000000E-03 0. -1.
         11   -1    0    0    0    0 -0.00000000000E+00 -0.00000000000E+00 -0.45593999997E+02  0.45594000000E+02  0.51100000000E-03 0.  1.
    9900012    2    1    2    0    0 -0.19304084502E+02 -0.37250715093E+02  0.11106759809E+02  0.47787267669E+02  0.19999984610E+02 0.  0.
        -12    1    1    2    0    0  0.19304084502E+02  0.37250715093E+02 -0.11106759809E+02  0.43400732331E+02  0.00000000000E+00 0.  1.
         11    1    3    3    0    0 -0.70050350244E+01 -0.16993543551E+02  0.32665710277E+01  0.18668731201E+02  0.51100000000E-03 0. -1.
        -11    1    3    3    0    0 -0.12248980542E+02 -0.81616968219E+01  0.85142091804E+01  0.17004192940E+02  0.51100000000E-03 0.  1.
        -12    1    3    3    0    0 -0.50068936223E-01 -0.12095474721E+02 -0.67402039925E+00  0.12114343528E+02  0.00000000000E+00 0.  1.
</event>
<event>
 7    1  0.2442667E-009  0.4778727E+02  0.7816164E-02  0.1312668E+00
        -11   -1    0    0    0    0  0.00000000000E+00  0.00000000000E+00  0.45593999997E+02  0.45594000000E+02  0.51100000000E-03 0.  1.
         11   -1    0    0    0    0 -0.00000000000E+00 -0.00000000000E+00 -0.45593999997E+02  0.45594000000E+02  0.51100000000E-03 0. -1.
    9900012    2    1    2    0    0  0.18889892066E+02  0.82952409066E+01 -0.38183560045E+02  0.47787270724E+02  0.19999998539E+02 0.  0.
        -12    1    1    2    0    0 -0.18889892066E+02 -0.82952409066E+01  0.38183560045E+02  0.43400729276E+02  0.00000000000E+00 0.  1.
         11    1    3    3    0    0  0.11900779672E+01  0.40861162993E+01 -0.19664738150E+02  0.20120003945E+02  0.51100000000E-03 0. -1.
        -11    1    3    3    0    0  0.84784911956E+01  0.59982728914E+01 -0.59276567785E+01  0.11958311159E+02  0.51100000000E-03 0.  1.
         12    1    3    3    0    0  0.92213229031E+01 -0.17891482841E+01 -0.12591165117E+02  0.15708955620E+02  0.00000000000E+00 0. -1.
</event>
<event>
 7    1  0.2442667E-009  0.4778727E+02  0.7816164E-02  0.1312668E+00
        -11   -1    0    0    0    0  0.00000000000E+00  0.00000000000E+00  0.45593999997E+02  0.45594000000E+02  0.51100000000E-03 0.  1.
         11   -1    0    0    0    0 -0.00000000000E+00 -0.00000000000E+00 -0.45593999997E+02  0.45594000000E+02  0.51100000000E-03 0. -1.
    9900012    2    1    2    0    0  0.31905817813E+02  0.19952731601E+02 -0.21622455296E+02  0.47787270955E+02  0.19999999590E+02 0.  0.
        -12    1    1    2    0    0 -0.31905817813E+02 -0.19952731601E+02  0.21622455296E+02  0.43400729045E+02  0.00000000000E+00 0.  1.
         11    1    3    3    0    0  0.24612601306E+02  0.12730320224E+02 -0.23934677505E+02  0.36615706788E+02  0.51100000000E-03 0. -1.
        -11    1    3    3    0    0  0.74533965363E+01  0.70307263110E+01  0.28014446043E+01  0.10622256094E+02  0.51100000000E-03 0.  1.
         12    1    3    3    0    0 -0.16018002962E+00  0.19168506601E+00 -0.48922239571E+00  0.54930807284E+00  0.00000000000E+00 0. -1.
</event>
<event>
 7    1  0.2442667E-009  0.4778727E+02  0.7816164E-02  0.1312668E+00
        -11   -1    0    0    0    0  0.00000000000E+00  0.00000000000E+00  0.45593999997E+02  0.45594000000E+02  0.51100000000E-03 0. -1.
         11   -1    0    0    0    0 -0.00000000000E+00 -0.00000000000E+00 -0.45593999997E+02  0.45594000000E+02  0.51100000000E-03 0.  1.
    9900012    2    1    2    0    0 -0.33540268258E+02 -0.69129118029E+01  0.26662430457E+02  0.47787272560E+02  0.20000006912E+02 0.  0.
        -12    1    1    2    0    0  0.33540268258E+02  0.69129118029E+01 -0.26662430457E+02  0.43400727440E+02  0.00000000000E+00 0.  1.
         11    1    3    3    0    0 -0.15056109193E+02  0.19096022198E+01  0.96983846300E+01  0.18010876418E+02  0.51100000000E-03 0. -1.
        -11    1    3    3    0    0 -0.32792793397E+01 -0.79733165243E+01  0.30395889364E+01  0.91414741999E+01  0.51100000000E-03 0.  1.
        -12    1    3    3    0    0 -0.15204879725E+02 -0.84919749835E+00  0.13924456891E+02  0.20634921942E+02  0.00000000000E+00 0.  1.
</event>
<event>
 7    1  0.2442667E-009  0.4778727E+02  0.7816164E-02  0.1312668E+00
        -11   -1    0    0    0    0  0.00000000000E+00  0.00000000000E+00  0.45593999997E+02  0.45594000000E+02  0.51100000000E-03 0.  1.
         11   -1    0    0    0    0 -0.00000000000E+00 -0.00000000000E+00 -0.45593999997E+02  0.45594000000E+02  0.51100000000E-03 0. -1.
    9900012    2    1    2    0    0  0.13266190426E+02 -0.31388245511E+02 -0.26877675826E+02  0.47787271637E+02  0.20000002700E+02 0.  0.
        -12    1    1    2    0    0 -0.13266190426E+02  0.31388245511E+02  0.26877675826E+02  0.43400728363E+02  0.00000000000E+00 0.  1.
         11    1    3    3    0    0  0.45671855647E+01 -0.22470976011E+02 -0.23345609716E+02  0.32723408137E+02  0.51100000000E-03 0. -1.
        -11    1    3    3    0    0  0.19842323725E+00  0.60547591230E+00  0.12737895910E+01  0.14242587703E+01  0.51100000000E-03 0.  1.
         12    1    3    3    0    0  0.85005816238E+01 -0.95227454130E+01 -0.48058557006E+01  0.13639604729E+02  0.00000000000E+00 0. -1.
</event>
<event>
 7    1  0.2442667E-009  0.4778727E+02  0.7816164E-02  0.1312668E+00
        -11   -1    0    0    0    0  0.00000000000E+00  0.00000000000E+00  0.45593999997E+02  0.45594000000E+02  0.51100000000E-03 0.  1.
         11   -1    0    0    0    0 -0.00000000000E+00 -0.00000000000E+00 -0.45593999997E+02  0.45594000000E+02  0.51100000000E-03 0. -1.
    9900012    2    1    2    0    0  0.20657964632E+02  0.37683713046E+02 -0.60670811753E+01  0.47787271831E+02  0.20000003584E+02 0.  0.
        -12    1    1    2    0    0 -0.20657964632E+02 -0.37683713046E+02  0.60670811753E+01  0.43400728169E+02  0.00000000000E+00 0.  1.
         11    1    3    3    0    0  0.48152902076E+01  0.15420668513E+02 -0.82273650148E+01  0.18129356649E+02  0.51100000000E-03 0. -1.
        -11    1    3    3    0    0  0.14426746593E+02  0.17291313076E+02  0.58978521975E+01  0.23278857058E+02  0.51100000000E-03 0.  1.
        -12    1    3    3    0    0  0.14159278316E+01  0.49717314568E+01 -0.37375683581E+01  0.63790581229E+01  0.00000000000E+00 0.  1.
</event>
<event>
 7    1  0.2442667E-009  0.4778727E+02  0.7816164E-02  0.1312668E+00
        -11   -1    0    0    0    0  0.00000000000E+00  0.00000000000E+00  0.45593999997E+02  0.45594000000E+02  0.51100000000E-03 0. -1.
         11   -1    0    0    0    0 -0.00000000000E+00 -0.00000000000E+00 -0.45593999997E+02  0.45594000000E+02  0.51100000000E-03 0.  1.
    9900012    2    1    2    0    0  0.25192250792E+02 -0.32063205139E+02  0.14863534553E+02  0.47787270938E+02  0.19999999513E+02 0.  0.
        -12    1    1    2    0    0 -0.25192250792E+02  0.32063205139E+02 -0.14863534553E+02  0.43400729062E+02  0.00000000000E+00 0.  1.
         11    1    3    3    0    0  0.11064187933E+02 -0.95192502766E+01  0.12928675609E+02  0.19498282840E+02  0.51100000000E-03 0. -1.
        -11    1    3    3    0    0  0.12273115595E+02 -0.17827247972E+02 -0.21903699280E+01  0.21754030830E+02  0.51100000000E-03 0.  1.
        -12    1    3    3    0    0  0.18549472635E+01 -0.47167068900E+01  0.41252288724E+01  0.65349572674E+01  0.00000000000E+00 0.  1.
</event>
<event>
 7    1  0.2442667E-009  0.4778727E+02  0.7816164E-02  0.1312668E+00
        -11   -1    0    0    0    0  0.00000000000E+00  0.00000000000E+00  0.45593999997E+02  0.45594000000E+02  0.51100000000E-03 0. -1.
         11   -1    0    0    0    0 -0.00000000000E+00 -0.00000000000E+00 -0.45593999997E+02  0.45594000000E+02  0.51100000000E-03 0.  1.
    9900012    2    1    2    0    0 -0.59966027296E+00 -0.42989541669E+02  0.59298404386E+01  0.47787270824E+02  0.19999998997E+02 0.  0.
        -12    1    1    2    0    0  0.59966027296E+00  0.42989541669E+02 -0.59298404386E+01  0.43400729176E+02  0.00000000000E+00 0.  1.
         11    1    3    3    0    0  0.19213007026E+01 -0.10237151502E+02  0.92212624456E+01  0.13911231025E+02  0.51100000000E-03 0.  1.
        -11    1    3    3    0    0  0.14800944314E+01 -0.24145868020E+02 -0.16832878735E+01  0.24249682065E+02  0.51100000000E-03 0. -1.
        -12    1    3    3    0    0 -0.40010554069E+01 -0.86065221470E+01 -0.16081341335E+01  0.96263577342E+01  0.00000000000E+00 0.  1.
</event>
<event>
 7    1  0.2442667E-009  0.4778727E+02  0.7816164E-02  0.1312668E+00
        -11   -1    0    0    0    0  0.00000000000E+00  0.00000000000E+00  0.45593999997E+02  0.45594000000E+02  0.51100000000E-03 0.  1.
         11   -1    0    0    0    0 -0.00000000000E+00 -0.00000000000E+00 -0.45593999997E+02  0.45594000000E+02  0.51100000000E-03 0. -1.
    9900012    2    1    2    0    0 -0.21501548646E+02  0.24628247338E+02 -0.28543932044E+02  0.47787271692E+02  0.20000002953E+02 0.  0.
        -12    1    1    2    0    0  0.21501548646E+02 -0.24628247338E+02  0.28543932044E+02  0.43400728308E+02  0.00000000000E+00 0.  1.
         11    1    3    3    0    0 -0.99397842180E+01  0.13478386028E+02 -0.15880365113E+02  0.23079259013E+02  0.51100000000E-03 0. -1.
        -11    1    3    3    0    0  0.19987386143E+01  0.10806808902E+01  0.14516469843E+01  0.26963134949E+01  0.51100000000E-03 0.  1.
        -12    1    3    3    0    0 -0.13560503042E+02  0.10069180420E+02 -0.14115213915E+02  0.22011699184E+02  0.00000000000E+00 0.  1.
</event>
<event>
 7    1  0.2442667E-009  0.4778729E+02  0.7816164E-02  0.1312668E+00
        -11   -1    0    0    0    0  0.00000000000E+00  0.00000000000E+00  0.45593999997E+02  0.45594000000E+02  0.51100000000E-03 0. -1.
         11   -1    0    0    0    0 -0.00000000000E+00 -0.00000000000E+00 -0.45593999997E+02  0.45594000000E+02  0.51100000000E-03 0.  1.
    9900012    2    1    2    0    0  0.31238761676E+01  0.40383970914E+02  0.15588398355E+02  0.47787287191E+02  0.20000073619E+02 0.  0.
        -12    1    1    2    0    0 -0.31238761676E+01 -0.40383970914E+02 -0.15588398355E+02  0.43400712809E+02  0.00000000000E+00 0.  1.
         11    1    3    3    0    0  0.28616035365E+01  0.23155852443E+02  0.17108618220E+02  0.28932457463E+02  0.51100000000E-03 0. -1.
        -11    1    3    3    0    0 -0.90914779755E+00  0.17403553924E+02 -0.20684822467E+01  0.17549611334E+02  0.51100000000E-03 0.  1.
        -12    1    3    3    0    0  0.11714204286E+01 -0.17543545334E+00  0.54826238163E+00  0.13052183948E+01  0.00000000000E+00 0.  1.
</event>
<event>
 7    1  0.2442667E-009  0.4778727E+02  0.7816164E-02  0.1312668E+00
        -11   -1    0    0    0    0  0.00000000000E+00  0.00000000000E+00  0.45593999997E+02  0.45594000000E+02  0.51100000000E-03 0.  1.
         11   -1    0    0    0    0 -0.00000000000E+00 -0.00000000000E+00 -0.45593999997E+02  0.45594000000E+02  0.51100000000E-03 0. -1.
    9900012    2    1    2    0    0  0.27016548014E+01 -0.17315292281E+02 -0.39705224633E+02  0.47787272487E+02  0.20000006579E+02 0.  0.
        -12    1    1    2    0    0 -0.27016548014E+01  0.17315292281E+02  0.39705224633E+02  0.43400727513E+02  0.00000000000E+00 0.  1.
         11    1    3    3    0    0  0.72207478052E+01 -0.56114981277E+01 -0.23559226245E+02  0.25271827232E+02  0.51100000000E-03 0. -1.
        -11    1    3    3    0    0 -0.10719017593E+01  0.11108423411E+01 -0.48460078613E+01  0.50859351688E+01  0.51100000000E-03 0.  1.
         12    1    3    3    0    0 -0.34471912445E+01 -0.12814636495E+02 -0.11299990526E+02  0.17429510087E+02  0.00000000000E+00 0. -1.
</event>
<event>
 7    1  0.2442667E-009  0.4778728E+02  0.7816164E-02  0.1312668E+00
        -11   -1    0    0    0    0  0.00000000000E+00  0.00000000000E+00  0.45593999997E+02  0.45594000000E+02  0.51100000000E-03 0. -1.
         11   -1    0    0    0    0 -0.00000000000E+00 -0.00000000000E+00 -0.45593999997E+02  0.45594000000E+02  0.51100000000E-03 0.  1.
    9900012    2    1    2    0    0  0.72386029473E+01 -0.90718505643E+01  0.41820174418E+02  0.47787276117E+02  0.20000023126E+02 0.  0.
        -12    1    1    2    0    0 -0.72386029473E+01  0.90718505643E+01 -0.41820174418E+02  0.43400723883E+02  0.00000000000E+00 0.  1.
         11    1    3    3    0    0  0.10423366073E+02 -0.80934062001E+01  0.25988608605E+02  0.29147170732E+02  0.51100000000E-03 0. -1.
        -11    1    3    3    0    0 -0.32849345425E+01  0.38203921865E+01  0.82477132359E+01  0.96649348312E+01  0.51100000000E-03 0.  1.
        -12    1    3    3    0    0  0.10017141677E+00 -0.47988365507E+01  0.75838525770E+01  0.89751705534E+01  0.00000000000E+00 0.  1.
</event>
<event>
 7    1  0.2442667E-009  0.4778727E+02  0.7816164E-02  0.1312668E+00
        -11   -1    0    0    0    0  0.00000000000E+00  0.00000000000E+00  0.45593999997E+02  0.45594000000E+02  0.51100000000E-03 0.  1.
         11   -1    0    0    0    0 -0.00000000000E+00 -0.00000000000E+00 -0.45593999997E+02  0.45594000000E+02  0.51100000000E-03 0. -1.
    9900012    2    1    2    0    0 -0.13006334975E+02 -0.38599783773E+02  0.14983827339E+02  0.47787272604E+02  0.20000007111E+02 0.  0.
        -12    1    1    2    0    0  0.13006334975E+02  0.38599783773E+02 -0.14983827339E+02  0.43400727396E+02  0.00000000000E+00 0.  1.
         11    1    3    3    0    0 -0.59529309541E+01 -0.13546850386E+02 -0.22469408636E+01  0.14966739319E+02  0.51100000000E-03 0. -1.
        -11    1    3    3    0    0  0.17782131204E+01 -0.39728510644E+01  0.58409229842E+01  0.72843646977E+01  0.51100000000E-03 0.  1.
         12    1    3    3    0    0 -0.88316171409E+01 -0.21080082322E+02  0.11389845218E+02  0.25536168588E+02  0.00000000000E+00 0. -1.
</event>
<event>
 7    1  0.2442667E-009  0.4778727E+02  0.7816164E-02  0.1312668E+00
        -11   -1    0    0    0    0  0.00000000000E+00  0.00000000000E+00  0.45593999997E+02  0.45594000000E+02  0.51100000000E-03 0.  1.
         11   -1    0    0    0    0 -0.00000000000E+00 -0.00000000000E+00 -0.45593999997E+02  0.45594000000E+02  0.51100000000E-03 0. -1.
    9900012    2    1    2    0    0 -0.32772083777E+01  0.43161770444E+02  0.31535405983E+01  0.47787270272E+02  0.19999996478E+02 0.  0.
        -12    1    1    2    0    0  0.32772083777E+01 -0.43161770444E+02 -0.31535405983E+01  0.43400729728E+02  0.00000000000E+00 0.  1.
         11    1    3    3    0    0 -0.12955582477E+00  0.36754982334E+01  0.70882028665E+00  0.37454637144E+01  0.51100000000E-03 0. -1.
        -11    1    3    3    0    0  0.53701807289E+01  0.30551793131E+02  0.50422730571E+01  0.31427303773E+02  0.51100000000E-03 0.  1.
        -12    1    3    3    0    0 -0.85178332819E+01  0.89344790798E+01 -0.25975527454E+01  0.12614502785E+02  0.00000000000E+00 0.  1.
</event>
<event>
 7    1  0.2442667E-009  0.4778727E+02  0.7816164E-02  0.1312668E+00
        -11   -1    0    0    0    0  0.00000000000E+00  0.00000000000E+00  0.45593999997E+02  0.45594000000E+02  0.51100000000E-03 0.  1.
         11   -1    0    0    0    0 -0.00000000000E+00 -0.00000000000E+00 -0.45593999997E+02  0.45594000000E+02  0.51100000000E-03 0. -1.
    9900012    2    1    2    0    0  0.16746520270E+02 -0.39987401859E+02 -0.20457298637E+01  0.47787271213E+02  0.20000000769E+02 0.  0.
        -12    1    1    2    0    0 -0.16746520270E+02  0.39987401859E+02  0.20457298637E+01  0.43400728787E+02  0.00000000000E+00 0.  1.
         11    1    3    3    0    0  0.16401907345E+02 -0.29426420836E+02 -0.10612557339E+01  0.33705534735E+02  0.51100000000E-03 0. -1.
        -11    1    3    3    0    0 -0.27126619798E+01 -0.10532343577E+02 -0.15070751819E+01  0.10979985069E+02  0.51100000000E-03 0.  1.
        -12    1    3    3    0    0  0.30572749046E+01 -0.28637445283E-01  0.52260105214E+00  0.31017514093E+01  0.00000000000E+00 0.  1.
</event>
<event>
 7    1  0.2442667E-009  0.4778726E+02  0.7816164E-02  0.1312668E+00
        -11   -1    0    0    0    0  0.00000000000E+00  0.00000000000E+00  0.45593999997E+02  0.45594000000E+02  0.51100000000E-03 0.  1.
         11   -1    0    0    0    0 -0.00000000000E+00 -0.00000000000E+00 -0.45593999997E+02  0.45594000000E+02  0.51100000000E-03 0. -1.
    9900012    2    1    2    0    0 -0.89297266953E+01 -0.97985993975E+01 -0.41326404294E+02  0.47787259674E+02  0.19999948158E+02 0.  0.
        -12    1    1    2    0    0  0.89297266953E+01  0.97985993975E+01  0.41326404294E+02  0.43400740326E+02  0.00000000000E+00 0.  1.
         11    1    3    3    0    0  0.22291679160E+01 -0.92278466448E+01 -0.20961810830E+02  0.23011298460E+02  0.51100000000E-03 0. -1.
        -11    1    3    3    0    0 -0.79279216056E+01 -0.11444235832E+01 -0.59121567299E+01  0.99556639046E+01  0.51100000000E-03 0.  1.
        -12    1    3    3    0    0 -0.32309730056E+01  0.57367083049E+00 -0.14452436734E+02  0.14820297309E+02  0.00000000000E+00 0.  1.
</event>
<event>
 7    1  0.2442667E-009  0.4778727E+02  0.7816164E-02  0.1312668E+00
        -11   -1    0    0    0    0  0.00000000000E+00  0.00000000000E+00  0.45593999997E+02  0.45594000000E+02  0.51100000000E-03 0. -1.
         11   -1    0    0    0    0 -0.00000000000E+00 -0.00000000000E+00 -0.45593999997E+02  0.45594000000E+02  0.51100000000E-03 0.  1.
    9900012    2    1    2    0    0  0.42693086503E+02  0.77383144528E+01 -0.10208048706E+01  0.47787272030E+02  0.20000004494E+02 0.  0.
        -12    1    1    2    0    0 -0.42693086503E+02 -0.77383144528E+01  0.10208048706E+01  0.43400727970E+02  0.00000000000E+00 0.  1.
         11    1    3    3    0    0  0.12037748988E+02 -0.38415393972E+01 -0.33269952659E+01  0.13066511524E+02  0.51100000000E-03 0. -1.
        -11    1    3    3    0    0  0.65882708507E+00 -0.10918907733E+01 -0.14622313626E+01  0.19402060220E+01  0.51100000000E-03 0.  1.
         12    1    3    3    0    0  0.29996510430E+02  0.12671744623E+02  0.37684217579E+01  0.32780554484E+02  0.00000000000E+00 0. -1.
</event>
<event>
 7    1  0.2442667E-009  0.4778727E+02  0.7816164E-02  0.1312668E+00
        -11   -1    0    0    0    0  0.00000000000E+00  0.00000000000E+00  0.45593999997E+02  0.45594000000E+02  0.51100000000E-03 0. -1.
         11   -1    0    0    0    0 -0.00000000000E+00 -0.00000000000E+00 -0.45593999997E+02  0.45594000000E+02  0.51100000000E-03 0.  1.
    9900012    2    1    2    0    0 -0.21166509512E+02  0.15265587382E+02  0.34678006902E+02  0.47787269064E+02  0.19999990972E+02 0.  0.
        -12    1    1    2    0    0  0.21166509512E+02 -0.15265587382E+02 -0.34678006902E+02  0.43400730936E+02  0.00000000000E+00 0.  1.
         11    1    3    3    0    0 -0.13345173846E+02  0.13022272618E+02  0.27797362548E+02  0.33471877958E+02  0.51100000000E-03 0. -1.
        -11    1    3    3    0    0 -0.94451715038E+01 -0.27754752848E+00  0.43987928632E+01  0.10422939906E+02  0.51100000000E-03 0.  1.
         12    1    3    3    0    0  0.16238358380E+01  0.25208622926E+01  0.24818514911E+01  0.38924512008E+01  0.00000000000E+00 0. -1.
</event>
<event>
 7    1  0.2442667E-009  0.4778727E+02  0.7816164E-02  0.1312668E+00
        -11   -1    0    0    0    0  0.00000000000E+00  0.00000000000E+00  0.45593999997E+02  0.45594000000E+02  0.51100000000E-03 0.  1.
         11   -1    0    0    0    0 -0.00000000000E+00 -0.00000000000E+00 -0.45593999997E+02  0.45594000000E+02  0.51100000000E-03 0. -1.
    9900012    2    1    2    0    0 -0.31412265508E+02 -0.25318316463E+02  0.15996128573E+02  0.47787266110E+02  0.19999977500E+02 0.  0.
        -12    1    1    2    0    0  0.31412265508E+02  0.25318316463E+02 -0.15996128573E+02  0.43400733890E+02  0.00000000000E+00 0.  1.
         11    1    3    3    0    0 -0.22102655455E+02 -0.14702513827E+02  0.16131240636E+02  0.31062971778E+02  0.51100000000E-03 0. -1.
        -11    1    3    3    0    0 -0.36657815207E+01 -0.46731124576E+01  0.43683803079E+01  0.73728339852E+01  0.51100000000E-03 0.  1.
         12    1    3    3    0    0 -0.56438285331E+01 -0.59426901784E+01 -0.45034923708E+01  0.93514603459E+01  0.00000000000E+00 0. -1.
</event>
<event>
 7    1  0.2442667E-009  0.4778727E+02  0.7816164E-02  0.1312668E+00
        -11   -1    0    0    0    0  0.00000000000E+00  0.00000000000E+00  0.45593999997E+02  0.45594000000E+02  0.51100000000E-03 0. -1.
         11   -1    0    0    0    0 -0.00000000000E+00 -0.00000000000E+00 -0.45593999997E+02  0.45594000000E+02  0.51100000000E-03 0.  1.
    9900012    2    1    2    0    0 -0.25271826011E+02  0.34617153153E+02  0.68272154988E+01  0.47787270124E+02  0.19999995803E+02 0.  0.
        -12    1    1    2    0    0  0.25271826011E+02 -0.34617153153E+02 -0.68272154988E+01  0.43400729876E+02  0.00000000000E+00 0.  1.
         11    1    3    3    0    0 -0.52114415696E+01  0.13929363138E+02  0.22456799920E+01  0.15040922829E+02  0.51100000000E-03 0. -1.
        -11    1    3    3    0    0 -0.61950082287E+01 -0.82177140448E+00  0.34312539655E+01  0.71293014547E+01  0.51100000000E-03 0.  1.
        -12    1    3    3    0    0 -0.13865376212E+02  0.21509561420E+02  0.11502815414E+01  0.25617045841E+02  0.00000000000E+00 0.  1.
</event>
<event>
 7    1  0.2442667E-009  0.4778727E+02  0.7816164E-02  0.1312668E+00
        -11   -1    0    0    0    0  0.00000000000E+00  0.00000000000E+00  0.45593999997E+02  0.45594000000E+02  0.51100000000E-03 0.  1.
         11   -1    0    0    0    0 -0.00000000000E+00 -0.00000000000E+00 -0.45593999997E+02  0.45594000000E+02  0.51100000000E-03 0. -1.
    9900012    2    1    2    0    0  0.34905471130E+02 -0.63996985739E+01 -0.24985507277E+02  0.47787266935E+02  0.19999981264E+02 0.  0.
        -12    1    1    2    0    0 -0.34905471130E+02  0.63996985739E+01  0.24985507277E+02  0.43400733065E+02  0.00000000000E+00 0.  1.
         11    1    3    3    0    0  0.22968442797E+02 -0.36740875482E+01 -0.19724583451E+02  0.30497663458E+02  0.51100000000E-03 0. -1.
        -11    1    3    3    0    0  0.81722219819E+01  0.60870737441E+00  0.20205066163E+01  0.84402715618E+01  0.51100000000E-03 0.  1.
        -12    1    3    3    0    0  0.37648063516E+01 -0.33343184001E+01 -0.72814304429E+01  0.88493319157E+01  0.00000000000E+00 0.  1.
</event>
<event>
 7    1  0.2442667E-009  0.4778727E+02  0.7816164E-02  0.1312668E+00
        -11   -1    0    0    0    0  0.00000000000E+00  0.00000000000E+00  0.45593999997E+02  0.45594000000E+02  0.51100000000E-03 0.  1.
         11   -1    0    0    0    0 -0.00000000000E+00 -0.00000000000E+00 -0.45593999997E+02  0.45594000000E+02  0.51100000000E-03 0. -1.
    9900012    2    1    2    0    0  0.24880984544E+02  0.29482544667E+02 -0.19883153503E+02  0.47787266997E+02  0.19999981547E+02 0.  0.
        -12    1    1    2    0    0 -0.24880984544E+02 -0.29482544667E+02  0.19883153503E+02  0.43400733003E+02  0.00000000000E+00 0.  1.
         11    1    3    3    0    0  0.17084621759E+02  0.12168836339E+02 -0.37548396195E+01  0.21308770479E+02  0.51100000000E-03 0. -1.
        -11    1    3    3    0    0 -0.17028145610E+01  0.54753050362E+01 -0.55301759462E+01  0.79662656826E+01  0.51100000000E-03 0.  1.
         12    1    3    3    0    0  0.94991773458E+01  0.11838403292E+02 -0.10598137938E+02  0.18512230835E+02  0.00000000000E+00 0. -1.
</event>
<event>
 7    1  0.2442667E-009  0.4778727E+02  0.7816164E-02  0.1312668E+00
        -11   -1    0    0    0    0  0.00000000000E+00  0.00000000000E+00  0.45593999997E+02  0.45594000000E+02  0.51100000000E-03 0.  1.
         11   -1    0    0    0    0 -0.00000000000E+00 -0.00000000000E+00 -0.45593999997E+02  0.45594000000E+02  0.51100000000E-03 0. -1.
    9900012    2    1    2    0    0  0.24450520270E+01  0.32631903850E+01 -0.43208755203E+02  0.47787271698E+02  0.20000002982E+02 0.  0.
        -12    1    1    2    0    0 -0.24450520270E+01 -0.32631903850E+01  0.43208755203E+02  0.43400728302E+02  0.00000000000E+00 0.  1.
         11    1    3    3    0    0  0.22297914776E+01 -0.32547114813E+01 -0.42878357361E+01  0.58267188383E+01  0.51100000000E-03 0. -1.
        -11    1    3    3    0    0 -0.39576539163E+01  0.96560851038E+01 -0.26987147373E+02  0.28934566312E+02  0.51100000000E-03 0.  1.
        -12    1    3    3    0    0  0.41729144656E+01 -0.31381832374E+01 -0.11933772094E+02  0.13025986548E+02  0.00000000000E+00 0.  1.
</event>
<event>
 7    1  0.2442667E-009  0.4778728E+02  0.7816164E-02  0.1312668E+00
        -11   -1    0    0    0    0  0.00000000000E+00  0.00000000000E+00  0.45593999997E+02  0.45594000000E+02  0.51100000000E-03 0.  1.
         11   -1    0    0    0    0 -0.00000000000E+00 -0.00000000000E+00 -0.45593999997E+02  0.45594000000E+02  0.51100000000E-03 0. -1.
    9900012    2    1    2    0    0  0.37679141246E+02  0.21474555446E+02 -0.16577528767E+01  0.47787281558E+02  0.20000047937E+02 0.  0.
        -12    1    1    2    0    0 -0.37679141246E+02 -0.21474555446E+02  0.16577528767E+01  0.43400718442E+02  0.00000000000E+00 0.  1.
         11    1    3    3    0    0  0.32149708585E+01  0.45180942856E+01  0.24048777781E+00  0.55504097350E+01  0.51100000000E-03 0. -1.
        -11    1    3    3    0    0  0.32545418743E+02  0.17487258409E+02  0.28823855875E+01  0.37058286992E+02  0.51100000000E-03 0.  1.
        -12    1    3    3    0    0  0.19187516447E+01 -0.53079724860E+00 -0.47806262420E+01  0.51785848317E+01  0.00000000000E+00 0.  1.
</event>
<event>
 7    1  0.2442667E-009  0.4778727E+02  0.7816164E-02  0.1312668E+00
        -11   -1    0    0    0    0  0.00000000000E+00  0.00000000000E+00  0.45593999997E+02  0.45594000000E+02  0.51100000000E-03 0. -1.
         11   -1    0    0    0    0 -0.00000000000E+00 -0.00000000000E+00 -0.45593999997E+02  0.45594000000E+02  0.51100000000E-03 0.  1.
    9900012    2    1    2    0    0 -0.34520431589E+02 -0.19269780034E+02  0.17906386543E+02  0.47787270758E+02  0.19999998696E+02 0.  0.
        -12    1    1    2    0    0  0.34520431589E+02  0.19269780034E+02 -0.17906386543E+02  0.43400729242E+02  0.00000000000E+00 0.  1.
         11    1    3    3    0    0 -0.59559351024E+01 -0.85489922666E+01  0.12156161297E+02  0.16010330710E+02  0.51100000000E-03 0. -1.
        -11    1    3    3    0    0 -0.24990434766E+02 -0.11432949514E+02  0.41356264907E+01  0.27790962041E+02  0.51100000000E-03 0.  1.
        -12    1    3    3    0    0 -0.35740617204E+01  0.71216174650E+00  0.16145987554E+01  0.39859780074E+01  0.00000000000E+00 0.  1.
</event>
<event>
 7    1  0.2442667E-009  0.4778727E+02  0.7816164E-02  0.1312668E+00
        -11   -1    0    0    0    0  0.00000000000E+00  0.00000000000E+00  0.45593999997E+02  0.45594000000E+02  0.51100000000E-03 0. -1.
         11   -1    0    0    0    0 -0.00000000000E+00 -0.00000000000E+00 -0.45593999997E+02  0.45594000000E+02  0.51100000000E-03 0.  1.
    9900012    2    1    2    0    0  0.24152128856E+02  0.35701620215E+02 -0.50687374816E+01  0.47787272887E+02  0.20000008400E+02 0.  0.
        -12    1    1    2    0    0 -0.24152128856E+02 -0.35701620215E+02  0.50687374816E+01  0.43400727113E+02  0.00000000000E+00 0.  1.
         11    1    3    3    0    0  0.53116835782E+01  0.82767496176E+01  0.78160306775E+00  0.98655699422E+01  0.51100000000E-03 0. -1.
        -11    1    3    3    0    0  0.11590277750E+02  0.53480881814E+01  0.29034592393E+01  0.13090708969E+02  0.51100000000E-03 0.  1.
        -12    1    3    3    0    0  0.72501675284E+01  0.22076782416E+02 -0.87537997887E+01  0.24830993975E+02  0.00000000000E+00 0.  1.
</event>
<event>
 7    1  0.2442667E-009  0.4778727E+02  0.7816164E-02  0.1312668E+00
        -11   -1    0    0    0    0  0.00000000000E+00  0.00000000000E+00  0.45593999997E+02  0.45594000000E+02  0.51100000000E-03 0.  1.
         11   -1    0    0    0    0 -0.00000000000E+00 -0.00000000000E+00 -0.45593999997E+02  0.45594000000E+02  0.51100000000E-03 0. -1.
    9900012    2    1    2    0    0  0.70459479606E+01 -0.39594550053E+02 -0.16317153269E+02  0.47787271119E+02  0.20000000341E+02 0.  0.
        -12    1    1    2    0    0 -0.70459479606E+01  0.39594550053E+02  0.16317153269E+02  0.43400728881E+02  0.00000000000E+00 0.  1.
         11    1    3    3    0    0  0.10132326860E+01 -0.21663852513E+02 -0.84284955040E+01  0.23267760591E+02  0.51100000000E-03 0. -1.
        -11    1    3    3    0    0  0.88176092139E+01 -0.76659894725E+01 -0.74593746860E+00  0.11707862735E+02  0.51100000000E-03 0.  1.
        -12    1    3    3    0    0 -0.27848939394E+01 -0.10264708067E+02 -0.71427202968E+01  0.12811647794E+02  0.00000000000E+00 0.  1.
</event>
<event>
 7    1  0.2442667E-009  0.4778727E+02  0.7816164E-02  0.1312668E+00
        -11   -1    0    0    0    0  0.00000000000E+00  0.00000000000E+00  0.45593999997E+02  0.45594000000E+02  0.51100000000E-03 0.  1.
         11   -1    0    0    0    0 -0.00000000000E+00 -0.00000000000E+00 -0.45593999997E+02  0.45594000000E+02  0.51100000000E-03 0. -1.
    9900012    2    1    2    0    0 -0.67483605799E+01  0.54384204393E+01 -0.42526539706E+02  0.47787269975E+02  0.19999995123E+02 0.  0.
        -12    1    1    2    0    0  0.67483605799E+01 -0.54384204393E+01  0.42526539706E+02  0.43400730025E+02  0.00000000000E+00 0.  1.
         11    1    3    3    0    0 -0.44156831975E+01  0.18271733170E+01 -0.16648819929E+02  0.17321086159E+02  0.51100000000E-03 0. -1.
        -11    1    3    3    0    0 -0.89086550588E+00  0.74431178818E+01 -0.45933277217E+01  0.87916042320E+01  0.51100000000E-03 0.  1.
        -12    1    3    3    0    0 -0.14418118766E+01 -0.38318707594E+01 -0.21284392055E+02  0.21674579584E+02  0.00000000000E+00 0.  1.
</event>
<event>
 7    1  0.2442667E-009  0.4778727E+02  0.7816164E-02  0.1312668E+00
        -11   -1    0    0    0    0  0.00000000000E+00  0.00000000000E+00  0.45593999997E+02  0.45594000000E+02  0.51100000000E-03 0. -1.
         11   -1    0    0    0    0 -0.00000000000E+00 -0.00000000000E+00 -0.45593999997E+02  0.45594000000E+02  0.51100000000E-03 0.  1.
    9900012    2    1    2    0    0  0.32167731757E+02  0.18870333924E+02  0.22198447889E+02  0.47787267778E+02  0.19999985105E+02 0.  0.
        -12    1    1    2    0    0 -0.32167731757E+02 -0.18870333924E+02 -0.22198447889E+02  0.43400732222E+02  0.00000000000E+00 0.  1.
         11    1    3    3    0    0  0.25450499023E+02  0.16120974122E+02  0.23424431071E+02  0.38161730547E+02  0.51100000000E-03 0. -1.
        -11    1    3    3    0    0  0.31821841362E+01  0.38390006602E+01 -0.26679194015E+01  0.56552644624E+01  0.51100000000E-03 0.  1.
         12    1    3    3    0    0  0.35350485982E+01 -0.10896408579E+01  0.14419362195E+01  0.39702727679E+01  0.00000000000E+00 0. -1.
</event>
<event>
 7    1  0.2442667E-009  0.4778727E+02  0.7816164E-02  0.1312668E+00
        -11   -1    0    0    0    0  0.00000000000E+00  0.00000000000E+00  0.45593999997E+02  0.45594000000E+02  0.51100000000E-03 0.  1.
         11   -1    0    0    0    0 -0.00000000000E+00 -0.00000000000E+00 -0.45593999997E+02  0.45594000000E+02  0.51100000000E-03 0. -1.
    9900012    2    1    2    0    0 -0.34031235041E+02 -0.11482571848E+02 -0.24364907319E+02  0.47787272779E+02  0.20000007908E+02 0.  0.
        -12    1    1    2    0    0  0.34031235041E+02  0.11482571848E+02  0.24364907319E+02  0.43400727221E+02  0.00000000000E+00 0.  1.
         11    1    3    3    0    0 -0.15462403052E+02 -0.14763820177E+02 -0.16567474484E+02  0.27046950020E+02  0.51100000000E-03 0. -1.
        -11    1    3    3    0    0 -0.60545564437E+01  0.14222019337E+01 -0.76677319184E+00  0.62664386584E+01  0.51100000000E-03 0.  1.
         12    1    3    3    0    0 -0.12514275545E+02  0.18590463957E+01 -0.70306596434E+01  0.14473884100E+02  0.00000000000E+00 0. -1.
</event>
<event>
 7    1  0.3091542E-009  0.4778727E+02  0.7816164E-02  0.1312668E+00
        -11   -1    0    0    0    0  0.00000000000E+00  0.00000000000E+00  0.45593999997E+02  0.45594000000E+02  0.51100000000E-03 0. -1.
         11   -1    0    0    0    0 -0.00000000000E+00 -0.00000000000E+00 -0.45593999997E+02  0.45594000000E+02  0.51100000000E-03 0.  1.
    9900012    2    1    2    0    0  0.18842920862E+01  0.28968561289E+02  0.32262909462E+02  0.47787269283E+02  0.19999991969E+02 0.  0.
        -12    1    1    2    0    0 -0.18842920862E+01 -0.28968561289E+02 -0.32262909462E+02  0.43400730717E+02  0.00000000000E+00 0.  1.
         11    1    3    3    0    0 -0.46471498934E+00  0.12512902062E+02  0.11001690651E+02  0.16668109535E+02  0.51100000000E-03 0. -1.
        -11    1    3    3    0    0  0.12318481177E+01  0.10498664751E+02  0.22566282292E+02  0.24919400235E+02  0.51100000000E-03 0.  1.
        -12    1    3    3    0    0  0.11171589578E+01  0.59569944764E+01 -0.13050634809E+01  0.61997595129E+01  0.00000000000E+00 0.  1.
</event>
<event>
 7    1  0.2442667E-009  0.4778729E+02  0.7816164E-02  0.1312668E+00
        -11   -1    0    0    0    0  0.00000000000E+00  0.00000000000E+00  0.45593999997E+02  0.45594000000E+02  0.51100000000E-03 0.  1.
         11   -1    0    0    0    0 -0.00000000000E+00 -0.00000000000E+00 -0.45593999997E+02  0.45594000000E+02  0.51100000000E-03 0. -1.
    9900012    2    1    2    0    0 -0.19881571594E+02 -0.18129046168E+02 -0.34054115242E+02  0.47787286079E+02  0.20000068547E+02 0.  0.
        -12    1    1    2    0    0  0.19881571594E+02  0.18129046168E+02  0.34054115242E+02  0.43400713921E+02  0.00000000000E+00 0.  1.
         11    1    3    3    0    0 -0.12207688260E+02 -0.15071266573E+02 -0.33626668108E+02  0.38819113038E+02  0.51100000000E-03 0. -1.
        -11    1    3    3    0    0 -0.73765777135E+01 -0.35555516769E+01 -0.87549028646E+00  0.82354313787E+01  0.51100000000E-03 0.  1.
         12    1    3    3    0    0 -0.29730562038E+00  0.49777208203E+00  0.44804315214E+00  0.73274166235E+00  0.00000000000E+00 0. -1.
</event>
<event>
 7    1  0.2442667E-009  0.4778732E+02  0.7816164E-02  0.1312668E+00
        -11   -1    0    0    0    0  0.00000000000E+00  0.00000000000E+00  0.45593999997E+02  0.45594000000E+02  0.51100000000E-03 0.  1.
         11   -1    0    0    0    0 -0.00000000000E+00 -0.00000000000E+00 -0.45593999997E+02  0.45594000000E+02  0.51100000000E-03 0. -1.
    9900012    2    1    2    0    0  0.12695552281E+02 -0.18761014708E+02 -0.37019815074E+02  0.47787315343E+02  0.20000201973E+02 0.  0.
        -12    1    1    2    0    0 -0.12695552281E+02  0.18761014708E+02  0.37019815074E+02  0.43400684657E+02  0.00000000000E+00 0.  1.
         11    1    3    3    0    0  0.43899462362E+01 -0.53269056194E+01 -0.20095163363E+02  0.21247662042E+02  0.51100000000E-03 0. -1.
        -11    1    3    3    0    0  0.11094141182E+02 -0.86304844165E+01 -0.84289562803E+01  0.16389403103E+02  0.51100000000E-03 0.  1.
        -12    1    3    3    0    0 -0.27885351379E+01 -0.48036246719E+01 -0.84956954315E+01  0.10150250197E+02  0.00000000000E+00 0.  1.
</event>
<event>
 7    1  0.2442667E-009  0.4778727E+02  0.7816164E-02  0.1312668E+00
        -11   -1    0    0    0    0  0.00000000000E+00  0.00000000000E+00  0.45593999997E+02  0.45594000000E+02  0.51100000000E-03 0.  1.
         11   -1    0    0    0    0 -0.00000000000E+00 -0.00000000000E+00 -0.45593999997E+02  0.45594000000E+02  0.51100000000E-03 0. -1.
    9900012    2    1    2    0    0  0.25831088448E+01  0.86080007594E+01 -0.42460019919E+02  0.47787269362E+02  0.19999992328E+02 0.  0.
        -12    1    1    2    0    0 -0.25831088448E+01 -0.86080007594E+01  0.42460019919E+02  0.43400730638E+02  0.00000000000E+00 0.  1.
         11    1    3    3    0    0  0.31812613965E-01  0.87276004877E+01 -0.40598959289E+02  0.41526467680E+02  0.51100000000E-03 0. -1.
        -11    1    3    3    0    0  0.38085275437E+01 -0.31254269416E+00  0.21357250578E+00  0.38272938825E+01  0.51100000000E-03 0.  1.
         12    1    3    3    0    0 -0.12572313129E+01  0.19294296583E+00 -0.20746331359E+01  0.24335077996E+01  0.00000000000E+00 0. -1.
</event>
<event>
 7    1  0.2442667E-009  0.4778727E+02  0.7816164E-02  0.1312668E+00
        -11   -1    0    0    0    0  0.00000000000E+00  0.00000000000E+00  0.45593999997E+02  0.45594000000E+02  0.51100000000E-03 0.  1.
         11   -1    0    0    0    0 -0.00000000000E+00 -0.00000000000E+00 -0.45593999997E+02  0.45594000000E+02  0.51100000000E-03 0. -1.
    9900012    2    1    2    0    0 -0.20260086806E+02 -0.37408220290E+02 -0.85893628757E+01  0.47787271697E+02  0.20000002975E+02 0.  0.
        -12    1    1    2    0    0  0.20260086806E+02  0.37408220290E+02  0.85893628757E+01  0.43400728303E+02  0.00000000000E+00 0.  1.
         11    1    3    3    0    0 -0.14867055204E+02 -0.15481928230E+02 -0.76433695952E+01  0.22784655608E+02  0.51100000000E-03 0. -1.
        -11    1    3    3    0    0  0.18876075304E+01 -0.45880794543E+00  0.11163668542E+01  0.22405004204E+01  0.51100000000E-03 0.  1.
         12    1    3    3    0    0 -0.72806391326E+01 -0.21467484114E+02 -0.20623601347E+01  0.22762115668E+02  0.00000000000E+00 0. -1.
</event>
<event>
 7    1  0.2442667E-009  0.4778728E+02  0.7816164E-02  0.1312668E+00
        -11   -1    0    0    0    0  0.00000000000E+00  0.00000000000E+00  0.45593999997E+02  0.45594000000E+02  0.51100000000E-03 0.  1.
         11   -1    0    0    0    0 -0.00000000000E+00 -0.00000000000E+00 -0.45593999997E+02  0.45594000000E+02  0.51100000000E-03 0. -1.
    9900012    2    1    2    0    0 -0.35579293731E+02  0.23661959452E+02 -0.76058055421E+01  0.47787277132E+02  0.20000027757E+02 0.  0.
        -12    1    1    2    0    0  0.35579293731E+02 -0.23661959452E+02  0.76058055421E+01  0.43400722868E+02  0.00000000000E+00 0.  1.
         11    1    3    3    0    0 -0.84972112533E+00  0.14804854566E+00 -0.29843398969E+01  0.31064818114E+01  0.51100000000E-03 0. -1.
        -11    1    3    3    0    0 -0.16684789474E+02  0.84340946142E+01 -0.90186051558E+01  0.20756960061E+02  0.51100000000E-03 0.  1.
        -12    1    3    3    0    0 -0.18044783131E+02  0.15079816292E+02  0.43971395106E+01  0.23923835260E+02  0.00000000000E+00 0.  1.
</event>
<event>
 7    1  0.2442667E-009  0.4778727E+02  0.7816164E-02  0.1312668E+00
        -11   -1    0    0    0    0  0.00000000000E+00  0.00000000000E+00  0.45593999997E+02  0.45594000000E+02  0.51100000000E-03 0. -1.
         11   -1    0    0    0    0 -0.00000000000E+00 -0.00000000000E+00 -0.45593999997E+02  0.45594000000E+02  0.51100000000E-03 0.  1.
    9900012    2    1    2    0    0 -0.99205421773E+01 -0.16181749530E+02  0.39030207324E+02  0.47787271220E+02  0.20000000799E+02 0.  0.
        -12    1    1    2    0    0  0.99205421773E+01  0.16181749530E+02 -0.39030207324E+02  0.43400728780E+02  0.00000000000E+00 0.  1.
         11    1    3    3    0    0  0.13956453792E+01 -0.11996627827E+02  0.10458886402E+02  0.15976708368E+02  0.51100000000E-03 0. -1.
        -11    1    3    3    0    0  0.99614889829E+00 -0.43534113427E+00  0.28107866410E+01  0.30136947976E+01  0.51100000000E-03 0.  1.
         12    1    3    3    0    0 -0.12312336455E+02 -0.37497805686E+01  0.25760534281E+02  0.28796868054E+02  0.00000000000E+00 0. -1.
</event>
<event>
 7    1  0.2442667E-009  0.4778727E+02  0.7816164E-02  0.1312668E+00
        -11   -1    0    0    0    0  0.00000000000E+00  0.00000000000E+00  0.45593999997E+02  0.45594000000E+02  0.51100000000E-03 0. -1.
         11   -1    0    0    0    0 -0.00000000000E+00 -0.00000000000E+00 -0.45593999997E+02  0.45594000000E+02  0.51100000000E-03 0.  1.
    9900012    2    1    2    0    0  0.22152873131E+02 -0.35585602052E+02 -0.11248925812E+02  0.47787271973E+02  0.20000004235E+02 0.  0.
        -12    1    1    2    0    0 -0.22152873131E+02  0.35585602052E+02  0.11248925812E+02  0.43400728027E+02  0.00000000000E+00 0.  1.
         11    1    3    3    0    0  0.38177682798E+01 -0.54562208434E+01 -0.83987520475E+00  0.67120109617E+01  0.51100000000E-03 0. -1.
        -11    1    3    3    0    0  0.18385673246E+02 -0.23438089567E+02 -0.13587218075E+01  0.29819844877E+02  0.51100000000E-03 0.  1.
        -12    1    3    3    0    0 -0.50568395156E-01 -0.66912916416E+01 -0.90503287994E+01  0.11255416135E+02  0.00000000000E+00 0.  1.
</event>
<event>
 7    1  0.2442667E-009  0.4778727E+02  0.7816164E-02  0.1312668E+00
        -11   -1    0    0    0    0  0.00000000000E+00  0.00000000000E+00  0.45593999997E+02  0.45594000000E+02  0.51100000000E-03 0.  1.
         11   -1    0    0    0    0 -0.00000000000E+00 -0.00000000000E+00 -0.45593999997E+02  0.45594000000E+02  0.51100000000E-03 0. -1.
    9900012    2    1    2    0    0  0.32994262663E+02 -0.10207720800E+00 -0.28195590119E+02  0.47787273156E+02  0.20000009629E+02 0.  0.
        -12    1    1    2    0    0 -0.32994262663E+02  0.10207720800E+00  0.28195590119E+02  0.43400726844E+02  0.00000000000E+00 0.  1.
         11    1    3    3    0    0  0.46809975458E+01 -0.29603014544E+01 -0.12786941268E+02  0.13934883924E+02  0.51100000000E-03 0. -1.
        -11    1    3    3    0    0  0.41604432900E+01 -0.29623805609E+01 -0.12548668101E+01  0.52592468975E+01  0.51100000000E-03 0.  1.
         12    1    3    3    0    0  0.24152821827E+02  0.58206048073E+01 -0.14153782040E+02  0.28593142335E+02  0.00000000000E+00 0. -1.
</event>
<event>
 7    1  0.2442667E-009  0.4778726E+02  0.7816164E-02  0.1312668E+00
        -11   -1    0    0    0    0  0.00000000000E+00  0.00000000000E+00  0.45593999997E+02  0.45594000000E+02  0.51100000000E-03 0.  1.
         11   -1    0    0    0    0 -0.00000000000E+00 -0.00000000000E+00 -0.45593999997E+02  0.45594000000E+02  0.51100000000E-03 0. -1.
    9900012    2    1    2    0    0  0.21068063081E+02 -0.11311089382E+02 -0.36219057072E+02  0.47787261294E+02  0.19999955545E+02 0.  0.
        -12    1    1    2    0    0 -0.21068063081E+02  0.11311089382E+02  0.36219057072E+02  0.43400738706E+02  0.00000000000E+00 0.  1.
         11    1    3    3    0    0  0.22412705925E+02 -0.88993575310E+01 -0.34073971648E+02  0.41744023470E+02  0.51100000000E-03 0. -1.
        -11    1    3    3    0    0 -0.16430309600E+01 -0.42661232011E+00  0.12437999109E+01  0.21044208911E+01  0.51100000000E-03 0.  1.
        -12    1    3    3    0    0  0.29838811686E+00 -0.19851195313E+01 -0.33888853344E+01  0.39388169330E+01  0.00000000000E+00 0.  1.
</event>
<event>
 7    1  0.2442667E-009  0.4778728E+02  0.7816164E-02  0.1312668E+00
        -11   -1    0    0    0    0  0.00000000000E+00  0.00000000000E+00  0.45593999997E+02  0.45594000000E+02  0.51100000000E-03 0. -1.
         11   -1    0    0    0    0 -0.00000000000E+00 -0.00000000000E+00 -0.45593999997E+02  0.45594000000E+02  0.51100000000E-03 0.  1.
    9900012    2    1    2    0    0  0.19770839181E+02  0.38615108479E+02  0.12688561170E+01  0.47787277879E+02  0.20000031161E+02 0.  0.
        -12    1    1    2    0    0 -0.19770839181E+02 -0.38615108479E+02 -0.12688561170E+01  0.43400722121E+02  0.00000000000E+00 0.  1.
         11    1    3    3    0    0  0.86980207815E+01  0.95266408648E+01  0.73090984459E+01  0.14826846328E+02  0.51100000000E-03 0. -1.
        -11    1    3    3    0    0 -0.67222365746E+00  0.19831469714E+01 -0.24179330974E+01  0.31986180267E+01  0.51100000000E-03 0.  1.
         12    1    3    3    0    0  0.11745042057E+02  0.27105320643E+02 -0.36223092315E+01  0.29761813524E+02  0.00000000000E+00 0. -1.
</event>
<event>
 7    1  0.2442667E-009  0.4778727E+02  0.7816164E-02  0.1312668E+00
        -11   -1    0    0    0    0  0.00000000000E+00  0.00000000000E+00  0.45593999997E+02  0.45594000000E+02  0.51100000000E-03 0. -1.
         11   -1    0    0    0    0 -0.00000000000E+00 -0.00000000000E+00 -0.45593999997E+02  0.45594000000E+02  0.51100000000E-03 0.  1.
    9900012    2    1    2    0    0  0.16130898288E+02 -0.40039576393E+02  0.44999685119E+01  0.47787271044E+02  0.19999999996E+02 0.  0.
        -12    1    1    2    0    0 -0.16130898288E+02  0.40039576393E+02 -0.44999685119E+01  0.43400728956E+02  0.00000000000E+00 0.  1.
         11    1    3    3    0    0  0.16504432841E+02 -0.27058849296E+02 -0.67784855100E+00  0.31702320223E+02  0.51100000000E-03 0. -1.
        -11    1    3    3    0    0 -0.39805335821E+01 -0.49689652061E+01  0.13885365071E+01  0.65163867833E+01  0.51100000000E-03 0.  1.
        -12    1    3    3    0    0  0.36069990292E+01 -0.80117618911E+01  0.37892805557E+01  0.95685640368E+01  0.00000000000E+00 0.  1.
</event>
<event>
 7    1  0.2442667E-009  0.4778727E+02  0.7816164E-02  0.1312668E+00
        -11   -1    0    0    0    0  0.00000000000E+00  0.00000000000E+00  0.45593999997E+02  0.45594000000E+02  0.51100000000E-03 0. -1.
         11   -1    0    0    0    0 -0.00000000000E+00 -0.00000000000E+00 -0.45593999997E+02  0.45594000000E+02  0.51100000000E-03 0.  1.
    9900012    2    1    2    0    0 -0.20618626445E+02 -0.18875706782E+02  0.33199445805E+02  0.47787271150E+02  0.20000000480E+02 0.  0.
        -12    1    1    2    0    0  0.20618626445E+02  0.18875706782E+02 -0.33199445805E+02  0.43400728850E+02  0.00000000000E+00 0.  1.
         11    1    3    3    0    0 -0.12031385647E+02 -0.73178876380E+01  0.82123372226E+01  0.16301785270E+02  0.51100000000E-03 0. -1.
        -11    1    3    3    0    0 -0.42077943057E+01 -0.10225692153E+02  0.24502900053E+02  0.26882381297E+02  0.51100000000E-03 0.  1.
        -12    1    3    3    0    0 -0.43794464926E+01 -0.13321269914E+01  0.48420852910E+00  0.46031045831E+01  0.00000000000E+00 0.  1.
</event>
<event>
 7    1  0.2442667E-009  0.4778726E+02  0.7816164E-02  0.1312668E+00
        -11   -1    0    0    0    0  0.00000000000E+00  0.00000000000E+00  0.45593999997E+02  0.45594000000E+02  0.51100000000E-03 0.  1.
         11   -1    0    0    0    0 -0.00000000000E+00 -0.00000000000E+00 -0.45593999997E+02  0.45594000000E+02  0.51100000000E-03 0. -1.
    9900012    2    1    2    0    0  0.15302275967E+02 -0.39379772593E+02 -0.99346831383E+01  0.47787261892E+02  0.19999958270E+02 0.  0.
        -12    1    1    2    0    0 -0.15302275967E+02  0.39379772593E+02  0.99346831383E+01  0.43400738108E+02  0.00000000000E+00 0.  1.
         11    1    3    3    0    0  0.13788180220E+02 -0.24657022302E+02 -0.56089690432E+00  0.28255924480E+02  0.51100000000E-03 0. -1.
        -11    1    3    3    0    0 -0.13483364085E+01 -0.76277831027E+00 -0.40204389034E+01  0.43085694909E+01  0.51100000000E-03 0.  1.
         12    1    3    3    0    0  0.28624321553E+01 -0.13959971981E+02 -0.53533473306E+01  0.15222767921E+02  0.00000000000E+00 0. -1.
</event>
<event>
 7    1  0.2442667E-009  0.4778727E+02  0.7816164E-02  0.1312668E+00
        -11   -1    0    0    0    0  0.00000000000E+00  0.00000000000E+00  0.45593999997E+02  0.45594000000E+02  0.51100000000E-03 0.  1.
         11   -1    0    0    0    0 -0.00000000000E+00 -0.00000000000E+00 -0.45593999997E+02  0.45594000000E+02  0.51100000000E-03 0. -1.
    9900012    2    1    2    0    0  0.16469176028E+02  0.38971294392E+02 -0.96761590121E+01  0.47787267301E+02  0.19999982930E+02 0.  0.
        -12    1    1    2    0    0 -0.16469176028E+02 -0.38971294392E+02  0.96761590121E+01  0.43400732699E+02  0.00000000000E+00 0.  1.
         11    1    3    3    0    0  0.10827595770E+02  0.25653553934E+02 -0.33127613152E+01  0.28041327490E+02  0.51100000000E-03 0. -1.
        -11    1    3    3    0    0 -0.24824737979E+01  0.72054669823E+01 -0.57755439248E+01  0.95623395923E+01  0.51100000000E-03 0.  1.
        -12    1    3    3    0    0  0.81240540563E+01  0.61122734755E+01 -0.58785377199E+00  0.10183600218E+02  0.00000000000E+00 0.  1.
</event>
<event>
 7    1  0.2442667E-009  0.4778727E+02  0.7816164E-02  0.1312668E+00
        -11   -1    0    0    0    0  0.00000000000E+00  0.00000000000E+00  0.45593999997E+02  0.45594000000E+02  0.51100000000E-03 0.  1.
         11   -1    0    0    0    0 -0.00000000000E+00 -0.00000000000E+00 -0.45593999997E+02  0.45594000000E+02  0.51100000000E-03 0. -1.
    9900012    2    1    2    0    0 -0.40654978113E+01  0.21827588439E+02 -0.37291436866E+02  0.47787272437E+02  0.20000006347E+02 0.  0.
        -12    1    1    2    0    0  0.40654978113E+01 -0.21827588439E+02  0.37291436866E+02  0.43400727563E+02  0.00000000000E+00 0.  1.
         11    1    3    3    0    0  0.26891069711E+01  0.17118365978E+02 -0.29750821971E+02  0.34429364768E+02  0.51100000000E-03 0. -1.
        -11    1    3    3    0    0 -0.65111680945E+01  0.23822457133E+00 -0.39586914155E+01  0.76238637767E+01  0.51100000000E-03 0.  1.
        -12    1    3    3    0    0 -0.24343668782E+00  0.44709978894E+01 -0.35819234789E+01  0.57340438921E+01  0.00000000000E+00 0.  1.
</event>
<event>
 7    1  0.2442667E-009  0.4778726E+02  0.7816164E-02  0.1312668E+00
        -11   -1    0    0    0    0  0.00000000000E+00  0.00000000000E+00  0.45593999997E+02  0.45594000000E+02  0.51100000000E-03 0. -1.
         11   -1    0    0    0    0 -0.00000000000E+00 -0.00000000000E+00 -0.45593999997E+02  0.45594000000E+02  0.51100000000E-03 0.  1.
    9900012    2    1    2    0    0 -0.25161613973E+00 -0.88888229599E+01  0.42479991702E+02  0.47787260613E+02  0.19999952440E+02 0.  0.
        -12    1    1    2    0    0  0.25161613973E+00  0.88888229599E+01 -0.42479991702E+02  0.43400739387E+02  0.00000000000E+00 0.  1.
         11    1    3    3    0    0 -0.27307726719E+01 -0.37268699174E+01  0.38430875918E+02  0.38707607816E+02  0.51100000000E-03 0. -1.
        -11    1    3    3    0    0  0.34530697857E+01 -0.59380711827E+01  0.32426985737E+01  0.75960170232E+01  0.51100000000E-03 0.  1.
        -12    1    3    3    0    0 -0.97391325346E+00  0.77611814019E+00  0.80641721079E+00  0.14836357743E+01  0.00000000000E+00 0.  1.
</event>
<event>
 7    1  0.2442667E-009  0.4778728E+02  0.7816164E-02  0.1312668E+00
        -11   -1    0    0    0    0  0.00000000000E+00  0.00000000000E+00  0.45593999997E+02  0.45594000000E+02  0.51100000000E-03 0.  1.
         11   -1    0    0    0    0 -0.00000000000E+00 -0.00000000000E+00 -0.45593999997E+02  0.45594000000E+02  0.51100000000E-03 0. -1.
    9900012    2    1    2    0    0 -0.10760312479E+02 -0.36166539475E+02 -0.21443413573E+02  0.47787275492E+02  0.20000020276E+02 0.  0.
        -12    1    1    2    0    0  0.10760312479E+02  0.36166539475E+02  0.21443413573E+02  0.43400724508E+02  0.00000000000E+00 0.  1.
         11    1    3    3    0    0 -0.51915871173E+01 -0.86515622097E+01 -0.76763384227E+01  0.12677865645E+02  0.51100000000E-03 0. -1.
        -11    1    3    3    0    0  0.18363222511E+01 -0.13612673719E+02 -0.13639386849E+02  0.19357423358E+02  0.51100000000E-03 0.  1.
        -12    1    3    3    0    0 -0.74050476127E+01 -0.13902303546E+02 -0.12768830048E+00  0.15751986488E+02  0.00000000000E+00 0.  1.
</event>
<event>
 7    1  0.2442667E-009  0.4778727E+02  0.7816164E-02  0.1312668E+00
        -11   -1    0    0    0    0  0.00000000000E+00  0.00000000000E+00  0.45593999997E+02  0.45594000000E+02  0.51100000000E-03 0.  1.
         11   -1    0    0    0    0 -0.00000000000E+00 -0.00000000000E+00 -0.45593999997E+02  0.45594000000E+02  0.51100000000E-03 0. -1.
    9900012    2    1    2    0    0 -0.38775573804E+02 -0.74118478056E+01 -0.18031713374E+02  0.47787270756E+02  0.19999998685E+02 0.  0.
        -12    1    1    2    0    0  0.38775573804E+02  0.74118478056E+01  0.18031713374E+02  0.43400729244E+02  0.00000000000E+00 0.  1.
         11    1    3    3    0    0 -0.13308324692E+02  0.56795404680E+01 -0.82764743915E+01  0.16669394549E+02  0.51100000000E-03 0. -1.
        -11    1    3    3    0    0 -0.21265066082E+02 -0.91884132245E+01 -0.10310008933E+02  0.25355990565E+02  0.51100000000E-03 0.  1.
         12    1    3    3    0    0 -0.42021830300E+01 -0.39029750490E+01  0.55476995042E+00  0.57618856418E+01  0.00000000000E+00 0. -1.
</event>
<event>
 7    1  0.2442667E-009  0.4778727E+02  0.7816164E-02  0.1312668E+00
        -11   -1    0    0    0    0  0.00000000000E+00  0.00000000000E+00  0.45593999997E+02  0.45594000000E+02  0.51100000000E-03 0.  1.
         11   -1    0    0    0    0 -0.00000000000E+00 -0.00000000000E+00 -0.45593999997E+02  0.45594000000E+02  0.51100000000E-03 0. -1.
    9900012    2    1    2    0    0  0.36111149287E+02  0.21782068660E+01 -0.23976308989E+02  0.47787273270E+02  0.20000010148E+02 0.  0.
        -12    1    1    2    0    0 -0.36111149287E+02 -0.21782068660E+01  0.23976308989E+02  0.43400726730E+02  0.00000000000E+00 0.  1.
         11    1    3    3    0    0  0.15654773314E+02 -0.58506864731E+01 -0.10421954663E+02  0.19695674626E+02  0.51100000000E-03 0.  1.
        -11    1    3    3    0    0  0.21697018749E+02  0.83537772135E+01 -0.12322367883E+02  0.26313246984E+02  0.51100000000E-03 0. -1.
         12    1    3    3    0    0 -0.12406427768E+01 -0.32488387436E+00 -0.12319864427E+01  0.17783516599E+01  0.00000000000E+00 0. -1.
</event>
<event>
 7    1  0.2442667E-009  0.4778727E+02  0.7816164E-02  0.1312668E+00
        -11   -1    0    0    0    0  0.00000000000E+00  0.00000000000E+00  0.45593999997E+02  0.45594000000E+02  0.51100000000E-03 0.  1.
         11   -1    0    0    0    0 -0.00000000000E+00 -0.00000000000E+00 -0.45593999997E+02  0.45594000000E+02  0.51100000000E-03 0. -1.
    9900012    2    1    2    0    0  0.82399657342E+01 -0.34845113115E+02 -0.24526397084E+02  0.47787273079E+02  0.20000009278E+02 0.  0.
        -12    1    1    2    0    0 -0.82399657342E+01  0.34845113115E+02  0.24526397084E+02  0.43400726921E+02  0.00000000000E+00 0.  1.
         11    1    3    3    0    0  0.53580270572E+01 -0.11319165585E+02 -0.64243212861E+01  0.14074937575E+02  0.51100000000E-03 0. -1.
        -11    1    3    3    0    0 -0.60476168367E+01 -0.14642865971E+02 -0.98860144919E+01  0.18674058907E+02  0.51100000000E-03 0.  1.
        -12    1    3    3    0    0  0.89295555136E+01 -0.88830815591E+01 -0.82160613059E+01  0.15038276598E+02  0.00000000000E+00 0.  1.
</event>
<event>
 7    1  0.2442667E-009  0.4778727E+02  0.7816164E-02  0.1312668E+00
        -11   -1    0    0    0    0  0.00000000000E+00  0.00000000000E+00  0.45593999997E+02  0.45594000000E+02  0.51100000000E-03 0.  1.
         11   -1    0    0    0    0 -0.00000000000E+00 -0.00000000000E+00 -0.45593999997E+02  0.45594000000E+02  0.51100000000E-03 0. -1.
    9900012    2    1    2    0    0  0.98452069200E+01 -0.72266678643E+01 -0.41646973918E+02  0.47787271155E+02  0.20000000506E+02 0.  0.
        -12    1    1    2    0    0 -0.98452069200E+01  0.72266678643E+01  0.41646973918E+02  0.43400728845E+02  0.00000000000E+00 0.  1.
         11    1    3    3    0    0  0.12961396744E+02 -0.70353556959E+01 -0.31648582582E+02  0.34915996549E+02  0.51100000000E-03 0. -1.
        -11    1    3    3    0    0 -0.65080804030E+00 -0.12787801923E+01  0.86719346098E+00  0.16765603614E+01  0.51100000000E-03 0.  1.
         12    1    3    3    0    0 -0.24653817833E+01  0.10874680239E+01 -0.10865584797E+02  0.11194714245E+02  0.00000000000E+00 0. -1.
</event>
<event>
 7    1  0.2442667E-009  0.4778727E+02  0.7816164E-02  0.1312668E+00
        -11   -1    0    0    0    0  0.00000000000E+00  0.00000000000E+00  0.45593999997E+02  0.45594000000E+02  0.51100000000E-03 0.  1.
         11   -1    0    0    0    0 -0.00000000000E+00 -0.00000000000E+00 -0.45593999997E+02  0.45594000000E+02  0.51100000000E-03 0. -1.
    9900012    2    1    2    0    0 -0.33995146972E+02 -0.65284562017E+01 -0.26178856232E+02  0.47787271070E+02  0.20000000118E+02 0.  0.
        -12    1    1    2    0    0  0.33995146972E+02  0.65284562017E+01  0.26178856232E+02  0.43400728930E+02  0.00000000000E+00 0.  1.
         11    1    3    3    0    0 -0.11175177501E+02 -0.95905771079E+01 -0.14105950252E+02  0.20392194444E+02  0.51100000000E-03 0. -1.
        -11    1    3    3    0    0 -0.13739463414E+01  0.27278960205E+01 -0.23074558013E+01  0.38279887387E+01  0.51100000000E-03 0.  1.
         12    1    3    3    0    0 -0.21446023129E+02  0.33422488569E+00 -0.97654501785E+01  0.23567087888E+02  0.00000000000E+00 0. -1.
</event>
<event>
 7    1  0.2442667E-009  0.4778727E+02  0.7816164E-02  0.1312668E+00
        -11   -1    0    0    0    0  0.00000000000E+00  0.00000000000E+00  0.45593999997E+02  0.45594000000E+02  0.51100000000E-03 0.  1.
         11   -1    0    0    0    0 -0.00000000000E+00 -0.00000000000E+00 -0.45593999997E+02  0.45594000000E+02  0.51100000000E-03 0. -1.
    9900012    2    1    2    0    0 -0.27353663878E+02 -0.78047469246E+01 -0.32779356264E+02  0.47787271904E+02  0.20000003921E+02 0.  0.
        -12    1    1    2    0    0  0.27353663878E+02  0.78047469246E+01  0.32779356264E+02  0.43400728096E+02  0.00000000000E+00 0.  1.
         11    1    3    3    0    0 -0.21486141584E+02 -0.60584668598E+01 -0.25466717785E+02  0.33866104232E+02  0.51100000000E-03 0. -1.
        -11    1    3    3    0    0  0.20002945225E+01 -0.11491525415E+01 -0.52967075514E+01  0.57772693278E+01  0.51100000000E-03 0.  1.
        -12    1    3    3    0    0 -0.78678168163E+01 -0.59712752325E+00 -0.20159309278E+01  0.81438983442E+01  0.00000000000E+00 0.  1.
</event>
<event>
 7    1  0.2442667E-009  0.4778727E+02  0.7816164E-02  0.1312668E+00
        -11   -1    0    0    0    0  0.00000000000E+00  0.00000000000E+00  0.45593999997E+02  0.45594000000E+02  0.51100000000E-03 0.  1.
         11   -1    0    0    0    0 -0.00000000000E+00 -0.00000000000E+00 -0.45593999997E+02  0.45594000000E+02  0.51100000000E-03 0. -1.
    9900012    2    1    2    0    0  0.22022050562E+01 -0.16188189262E+02 -0.40208409343E+02  0.47787270045E+02  0.19999995444E+02 0.  0.
        -12    1    1    2    0    0 -0.22022050562E+01  0.16188189262E+02  0.40208409343E+02  0.43400729955E+02  0.00000000000E+00 0.  1.
         11    1    3    3    0    0 -0.20056605415E+01 -0.14704415351E+02 -0.39562304990E+02  0.42254212587E+02  0.51100000000E-03 0. -1.
        -11    1    3    3    0    0  0.13994883741E+01 -0.14421720658E+01  0.10342303408E+01  0.22601019082E+01  0.51100000000E-03 0.  1.
         12    1    3    3    0    0  0.28083772237E+01 -0.41601844957E-01 -0.16803346945E+01  0.32729555496E+01  0.00000000000E+00 0. -1.
</event>
<event>
 7    1  0.2442667E-009  0.4778726E+02  0.7816164E-02  0.1312668E+00
        -11   -1    0    0    0    0  0.00000000000E+00  0.00000000000E+00  0.45593999997E+02  0.45594000000E+02  0.51100000000E-03 0. -1.
         11   -1    0    0    0    0 -0.00000000000E+00 -0.00000000000E+00 -0.45593999997E+02  0.45594000000E+02  0.51100000000E-03 0.  1.
    9900012    2    1    2    0    0 -0.18814583564E+02 -0.18564875927E+02  0.34423549040E+02  0.47787263815E+02  0.19999967039E+02 0.  0.
        -12    1    1    2    0    0  0.18814583564E+02  0.18564875927E+02 -0.34423549040E+02  0.43400736185E+02  0.00000000000E+00 0.  1.
         11    1    3    3    0    0 -0.61880654192E+01 -0.12519677950E+02  0.21197300093E+02  0.25384247499E+02  0.51100000000E-03 0. -1.
        -11    1    3    3    0    0 -0.14123280219E+02 -0.45851539405E+01  0.13760875251E+02  0.20244810909E+02  0.51100000000E-03 0.  1.
        -12    1    3    3    0    0  0.14967620743E+01 -0.14600440369E+01 -0.53462630341E+00  0.21582054076E+01  0.00000000000E+00 0.  1.
</event>
<event>
 7    1  0.2442667E-009  0.4778727E+02  0.7816164E-02  0.1312668E+00
        -11   -1    0    0    0    0  0.00000000000E+00  0.00000000000E+00  0.45593999997E+02  0.45594000000E+02  0.51100000000E-03 0.  1.
         11   -1    0    0    0    0 -0.00000000000E+00 -0.00000000000E+00 -0.45593999997E+02  0.45594000000E+02  0.51100000000E-03 0. -1.
    9900012    2    1    2    0    0  0.39513540296E+02 -0.16107996891E+02 -0.79268985772E+01  0.47787272453E+02  0.20000006422E+02 0.  0.
        -12    1    1    2    0    0 -0.39513540296E+02  0.16107996891E+02  0.79268985772E+01  0.43400727547E+02  0.00000000000E+00 0.  1.
         11    1    3    3    0    0  0.60463897631E+01 -0.15041774054E+01 -0.10959088562E+01  0.63263255778E+01  0.51100000000E-03 0. -1.
        -11    1    3    3    0    0  0.48067710960E+01 -0.46398208185E+01  0.55537734816E+01  0.86877721968E+01  0.51100000000E-03 0.  1.
        -12    1    3    3    0    0  0.28660379437E+02 -0.99639986667E+01 -0.12384763203E+02  0.32773174678E+02  0.00000000000E+00 0.  1.
</event>
<event>
 7    1  0.2442667E-009  0.4778728E+02  0.7816164E-02  0.1312668E+00
        -11   -1    0    0    0    0  0.00000000000E+00  0.00000000000E+00  0.45593999997E+02  0.45594000000E+02  0.51100000000E-03 0.  1.
         11   -1    0    0    0    0 -0.00000000000E+00 -0.00000000000E+00 -0.45593999997E+02  0.45594000000E+02  0.51100000000E-03 0. -1.
    9900012    2    1    2    0    0  0.17793608608E+02 -0.17664576842E+02 -0.35425592875E+02  0.47787280964E+02  0.20000045228E+02 0.  0.
        -12    1    1    2    0    0 -0.17793608608E+02  0.17664576842E+02  0.35425592875E+02  0.43400719036E+02  0.00000000000E+00 0.  1.
         11    1    3    3    0    0  0.12718386599E+02 -0.15242702178E+02 -0.19227966134E+02  0.27637149080E+02  0.51100000000E-03 0. -1.
        -11    1    3    3    0    0  0.13526126021E+01  0.39370245698E+01 -0.86636954509E+01  0.96119374967E+01  0.51100000000E-03 0.  1.
        -12    1    3    3    0    0  0.37226094067E+01 -0.63588992339E+01 -0.75339312899E+01  0.10538194387E+02  0.00000000000E+00 0.  1.
</event>
<event>
 7    1  0.2442667E-009  0.4778727E+02  0.7816164E-02  0.1312668E+00
        -11   -1    0    0    0    0  0.00000000000E+00  0.00000000000E+00  0.45593999997E+02  0.45594000000E+02  0.51100000000E-03 0.  1.
         11   -1    0    0    0    0 -0.00000000000E+00 -0.00000000000E+00 -0.45593999997E+02  0.45594000000E+02  0.51100000000E-03 0. -1.
    9900012    2    1    2    0    0  0.28375551186E+02  0.17880356364E+02 -0.27545315586E+02  0.47787268906E+02  0.19999990250E+02 0.  0.
        -12    1    1    2    0    0 -0.28375551186E+02 -0.17880356364E+02  0.27545315586E+02  0.43400731094E+02  0.00000000000E+00 0.  1.
         11    1    3    3    0    0  0.66341793505E+01  0.71325915319E+01 -0.14349318029E+02  0.17343273214E+02  0.51100000000E-03 0. -1.
        -11    1    3    3    0    0  0.62872827933E+01  0.26175031255E+01  0.22071331554E+01  0.71590980271E+01  0.51100000000E-03 0.  1.
        -12    1    3    3    0    0  0.15454089042E+02  0.81302617061E+01 -0.15403130713E+02  0.23284897665E+02  0.00000000000E+00 0.  1.
</event>
<event>
 7    1  0.2442667E-009  0.4778730E+02  0.7816164E-02  0.1312668E+00
        -11   -1    0    0    0    0  0.00000000000E+00  0.00000000000E+00  0.45593999997E+02  0.45594000000E+02  0.51100000000E-03 0.  1.
         11   -1    0    0    0    0 -0.00000000000E+00 -0.00000000000E+00 -0.45593999997E+02  0.45594000000E+02  0.51100000000E-03 0. -1.
    9900012    2    1    2    0    0  0.76599809860E+01 -0.26196395639E+02 -0.33744546499E+02  0.47787298720E+02  0.20000126183E+02 0.  0.
        -12    1    1    2    0    0 -0.76599809860E+01  0.26196395639E+02  0.33744546499E+02  0.43400701280E+02  0.00000000000E+00 0.  1.
         11    1    3    3    0    0  0.10994623988E+01 -0.14570191636E+01 -0.68265038668E+01  0.70663199556E+01  0.51100000000E-03 0. -1.
        -11    1    3    3    0    0 -0.66371544400E+00  0.23299706324E+01 -0.12609352664E+01  0.27311608055E+01  0.51100000000E-03 0.  1.
        -12    1    3    3    0    0  0.72242340311E+01 -0.27069347107E+02 -0.25657107366E+02  0.37989817959E+02  0.00000000000E+00 0.  1.
</event>
<event>
 7    1  0.2442667E-009  0.4778727E+02  0.7816164E-02  0.1312668E+00
        -11   -1    0    0    0    0  0.00000000000E+00  0.00000000000E+00  0.45593999997E+02  0.45594000000E+02  0.51100000000E-03 0.  1.
         11   -1    0    0    0    0 -0.00000000000E+00 -0.00000000000E+00 -0.45593999997E+02  0.45594000000E+02  0.51100000000E-03 0. -1.
    9900012    2    1    2    0    0  0.20113073958E+01 -0.11076732503E+02 -0.41915200963E+02  0.47787269221E+02  0.19999991685E+02 0.  0.
        -12    1    1    2    0    0 -0.20113073958E+01  0.11076732503E+02  0.41915200963E+02  0.43400730779E+02  0.00000000000E+00 0.  1.
         11    1    3    3    0    0  0.34494057797E+01 -0.16422336026E+02 -0.27300470117E+02  0.32045392643E+02  0.51100000000E-03 0. -1.
        -11    1    3    3    0    0 -0.15877312549E+01  0.31939786715E+01 -0.74551959397E+01  0.82645227964E+01  0.51100000000E-03 0.  1.
         12    1    3    3    0    0  0.14963287097E+00  0.21516248512E+01 -0.71595349060E+01  0.74773537810E+01  0.00000000000E+00 0. -1.
</event>
<event>
 7    1  0.2442667E-009  0.4778727E+02  0.7816164E-02  0.1312668E+00
        -11   -1    0    0    0    0  0.00000000000E+00  0.00000000000E+00  0.45593999997E+02  0.45594000000E+02  0.51100000000E-03 0.  1.
         11   -1    0    0    0    0 -0.00000000000E+00 -0.00000000000E+00 -0.45593999997E+02  0.45594000000E+02  0.51100000000E-03 0. -1.
    9900012    2    1    2    0    0  0.22809849831E+02  0.24170284626E+02 -0.27912926707E+02  0.47787269758E+02  0.19999994134E+02 0.  0.
        -12    1    1    2    0    0 -0.22809849831E+02 -0.24170284626E+02  0.27912926707E+02  0.43400730242E+02  0.00000000000E+00 0.  1.
         11    1    3    3    0    0  0.54834878005E+01  0.12571754559E+02 -0.34304191720E+01  0.14138084280E+02  0.51100000000E-03 0. -1.
        -11    1    3    3    0    0  0.10907346208E+02  0.17319682762E+01 -0.92994856689E+01  0.14437809715E+02  0.51100000000E-03 0.  1.
         12    1    3    3    0    0  0.64190158220E+01  0.98665617914E+01 -0.15183021866E+02  0.19211375762E+02  0.00000000000E+00 0. -1.
</event>
<event>
 7    1  0.2442667E-009  0.4778727E+02  0.7816164E-02  0.1312668E+00
        -11   -1    0    0    0    0  0.00000000000E+00  0.00000000000E+00  0.45593999997E+02  0.45594000000E+02  0.51100000000E-03 0. -1.
         11   -1    0    0    0    0 -0.00000000000E+00 -0.00000000000E+00 -0.45593999997E+02  0.45594000000E+02  0.51100000000E-03 0.  1.
    9900012    2    1    2    0    0  0.35314493657E+02 -0.33231393215E+01  0.25009328447E+02  0.47787271589E+02  0.20000002483E+02 0.  0.
        -12    1    1    2    0    0 -0.35314493657E+02  0.33231393215E+01 -0.25009328447E+02  0.43400728411E+02  0.00000000000E+00 0.  1.
         11    1    3    3    0    0  0.22708990218E+02 -0.78929810123E-01  0.58096809997E+01  0.23440496159E+02  0.51100000000E-03 0. -1.
        -11    1    3    3    0    0  0.27822062914E+01  0.10487803884E+01  0.92667640071E+01  0.97320875241E+01  0.51100000000E-03 0.  1.
         12    1    3    3    0    0  0.98232971484E+01 -0.42929898998E+01  0.99328834401E+01  0.14614687906E+02  0.00000000000E+00 0. -1.
</event>
<event>
 7    1  0.2442667E-009  0.4778728E+02  0.7816164E-02  0.1312668E+00
        -11   -1    0    0    0    0  0.00000000000E+00  0.00000000000E+00  0.45593999997E+02  0.45594000000E+02  0.51100000000E-03 0.  1.
         11   -1    0    0    0    0 -0.00000000000E+00 -0.00000000000E+00 -0.45593999997E+02  0.45594000000E+02  0.51100000000E-03 0. -1.
    9900012    2    1    2    0    0  0.58884966804E+01  0.95506775073E+01 -0.41925325900E+02  0.47787276667E+02  0.20000025637E+02 0.  0.
        -12    1    1    2    0    0 -0.58884966804E+01 -0.95506775073E+01  0.41925325900E+02  0.43400723333E+02  0.00000000000E+00 0.  1.
         11    1    3    3    0    0  0.57018268145E+01  0.14211407520E+00 -0.13806722894E+02  0.14938427721E+02  0.51100000000E-03 0.  1.
        -11    1    3    3    0    0  0.96768326697E+00  0.13106792698E+02 -0.20634192360E+02  0.24464143564E+02  0.51100000000E-03 0. -1.
        -12    1    3    3    0    0 -0.78101340102E+00 -0.36982292655E+01 -0.74844106460E+01  0.83847053825E+01  0.00000000000E+00 0.  1.
</event>
<event>
 7    1  0.2442667E-009  0.4778727E+02  0.7816164E-02  0.1312668E+00
        -11   -1    0    0    0    0  0.00000000000E+00  0.00000000000E+00  0.45593999997E+02  0.45594000000E+02  0.51100000000E-03 0. -1.
         11   -1    0    0    0    0 -0.00000000000E+00 -0.00000000000E+00 -0.45593999997E+02  0.45594000000E+02  0.51100000000E-03 0.  1.
    9900012    2    1    2    0    0  0.34595862243E+02 -0.22976483166E+02  0.12602811703E+02  0.47787270446E+02  0.19999997270E+02 0.  0.
        -12    1    1    2    0    0 -0.34595862243E+02  0.22976483166E+02 -0.12602811703E+02  0.43400729554E+02  0.00000000000E+00 0.  1.
         11    1    3    3    0    0  0.17751865613E+02 -0.13721574148E+02  0.73087339171E+01  0.23597201562E+02  0.51100000000E-03 0. -1.
        -11    1    3    3    0    0  0.27029315521E+01 -0.19797872432E+00  0.68095360311E+01  0.73290392120E+01  0.51100000000E-03 0.  1.
        -12    1    3    3    0    0  0.14141065078E+02 -0.90569302937E+01 -0.15154582448E+01  0.16861029672E+02  0.00000000000E+00 0.  1.
</event>
<event>
 7    1  0.2442667E-009  0.4778727E+02  0.7816164E-02  0.1312668E+00
        -11   -1    0    0    0    0  0.00000000000E+00  0.00000000000E+00  0.45593999997E+02  0.45594000000E+02  0.51100000000E-03 0.  1.
         11   -1    0    0    0    0 -0.00000000000E+00 -0.00000000000E+00 -0.45593999997E+02  0.45594000000E+02  0.51100000000E-03 0. -1.
    9900012    2    1    2    0    0 -0.25878732677E+02 -0.70547580597E+01 -0.34119570566E+02  0.47787268303E+02  0.19999987500E+02 0.  0.
        -12    1    1    2    0    0  0.25878732677E+02  0.70547580597E+01  0.34119570566E+02  0.43400731697E+02  0.00000000000E+00 0.  1.
         11    1    3    3    0    0 -0.64541085633E+01 -0.58474187962E+01 -0.17662506696E+02  0.19692942060E+02  0.51100000000E-03 0. -1.
        -11    1    3    3    0    0  0.12724161838E+00  0.21931168488E+01  0.17117152478E+00  0.22034636131E+01  0.51100000000E-03 0.  1.
        -12    1    3    3    0    0 -0.19551865733E+02 -0.34004561123E+01 -0.16628235394E+02  0.25890862630E+02  0.00000000000E+00 0.  1.
</event>
<event>
 7    1  0.2442667E-009  0.4778727E+02  0.7816164E-02  0.1312668E+00
        -11   -1    0    0    0    0  0.00000000000E+00  0.00000000000E+00  0.45593999997E+02  0.45594000000E+02  0.51100000000E-03 0. -1.
         11   -1    0    0    0    0 -0.00000000000E+00 -0.00000000000E+00 -0.45593999997E+02  0.45594000000E+02  0.51100000000E-03 0.  1.
    9900012    2    1    2    0    0 -0.66493156940E+01  0.12330418722E+02  0.41077617985E+02  0.47787270463E+02  0.19999997348E+02 0.  0.
        -12    1    1    2    0    0  0.66493156940E+01 -0.12330418722E+02 -0.41077617985E+02  0.43400729537E+02  0.00000000000E+00 0.  1.
         11    1    3    3    0    0 -0.15825136509E+01  0.11525251578E+02  0.20190483413E+02  0.23302175737E+02  0.51100000000E-03 0. -1.
        -11    1    3    3    0    0 -0.29711315558E+01  0.55815960971E+01  0.60239541387E+01  0.87332617870E+01  0.51100000000E-03 0.  1.
         12    1    3    3    0    0 -0.20956704873E+01 -0.47764289529E+01  0.14863180433E+02  0.15751832939E+02  0.00000000000E+00 0. -1.
</event>
<event>
 7    1  0.2442667E-009  0.4778727E+02  0.7816164E-02  0.1312668E+00
        -11   -1    0    0    0    0  0.00000000000E+00  0.00000000000E+00  0.45593999997E+02  0.45594000000E+02  0.51100000000E-03 0.  1.
         11   -1    0    0    0    0 -0.00000000000E+00 -0.00000000000E+00 -0.45593999997E+02  0.45594000000E+02  0.51100000000E-03 0. -1.
    9900012    2    1    2    0    0 -0.97175548190E+01  0.51758577617E+01 -0.41980983633E+02  0.47787270029E+02  0.19999995372E+02 0.  0.
        -12    1    1    2    0    0  0.97175548190E+01 -0.51758577617E+01  0.41980983633E+02  0.43400729971E+02  0.00000000000E+00 0.  1.
         11    1    3    3    0    0 -0.64334505516E+01 -0.30514682502E+01 -0.66673960184E+01  0.97547380492E+01  0.51100000000E-03 0. -1.
        -11    1    3    3    0    0 -0.34686755147E+01  0.98738765162E+01 -0.19486621619E+02  0.22119077053E+02  0.51100000000E-03 0.  1.
         12    1    3    3    0    0  0.18457124735E+00 -0.16465505043E+01 -0.15826965995E+02  0.15913454927E+02  0.00000000000E+00 0. -1.
</event>
<event>
 7    1  0.2442667E-009  0.4778727E+02  0.7816164E-02  0.1312668E+00
        -11   -1    0    0    0    0  0.00000000000E+00  0.00000000000E+00  0.45593999997E+02  0.45594000000E+02  0.51100000000E-03 0. -1.
         11   -1    0    0    0    0 -0.00000000000E+00 -0.00000000000E+00 -0.45593999997E+02  0.45594000000E+02  0.51100000000E-03 0.  1.
    9900012    2    1    2    0    0  0.70739429368E+01  0.40507331600E+02  0.13883027553E+02  0.47787273784E+02  0.20000012492E+02 0.  0.
        -12    1    1    2    0    0 -0.70739429368E+01 -0.40507331600E+02 -0.13883027553E+02  0.43400726216E+02  0.00000000000E+00 0.  1.
         11    1    3    3    0    0 -0.42439626705E+00  0.27780663167E+02  0.15041491252E+02  0.31594173791E+02  0.51100000000E-03 0. -1.
        -11    1    3    3    0    0  0.65796098742E+01  0.12753634275E+02  0.43068276683E+00  0.14357295749E+02  0.51100000000E-03 0.  1.
         12    1    3    3    0    0  0.91872932959E+00 -0.26965841624E-01 -0.15891464651E+01  0.18358042448E+01  0.00000000000E+00 0. -1.
</event>
<event>
 7    1  0.2442667E-009  0.4778727E+02  0.7816164E-02  0.1312668E+00
        -11   -1    0    0    0    0  0.00000000000E+00  0.00000000000E+00  0.45593999997E+02  0.45594000000E+02  0.51100000000E-03 0. -1.
         11   -1    0    0    0    0 -0.00000000000E+00 -0.00000000000E+00 -0.45593999997E+02  0.45594000000E+02  0.51100000000E-03 0.  1.
    9900012    2    1    2    0    0  0.21288062598E+01 -0.43064765071E+02  0.49515108666E+01  0.47787271129E+02  0.20000000386E+02 0.  0.
        -12    1    1    2    0    0 -0.21288062598E+01  0.43064765071E+02 -0.49515108666E+01  0.43400728871E+02  0.00000000000E+00 0.  1.
         11    1    3    3    0    0 -0.68447791166E+01 -0.27834007124E+02  0.59764638895E+01  0.29279704141E+02  0.51100000000E-03 0. -1.
        -11    1    3    3    0    0  0.44530317193E+01 -0.12306849175E+02 -0.48293664868E+00  0.13096612394E+02  0.51100000000E-03 0.  1.
         12    1    3    3    0    0  0.45205536571E+01 -0.29239087714E+01 -0.54201637420E+00  0.54109545942E+01  0.00000000000E+00 0. -1.
</event>
<event>
 7    1  0.2442667E-009  0.4778727E+02  0.7816164E-02  0.1312668E+00
        -11   -1    0    0    0    0  0.00000000000E+00  0.00000000000E+00  0.45593999997E+02  0.45594000000E+02  0.51100000000E-03 0.  1.
         11   -1    0    0    0    0 -0.00000000000E+00 -0.00000000000E+00 -0.45593999997E+02  0.45594000000E+02  0.51100000000E-03 0. -1.
    9900012    2    1    2    0    0 -0.36510605587E+02 -0.19166715766E+02 -0.13536472061E+02  0.47787269713E+02  0.19999993931E+02 0.  0.
        -12    1    1    2    0    0  0.36510605587E+02  0.19166715766E+02  0.13536472061E+02  0.43400730287E+02  0.00000000000E+00 0.  1.
         11    1    3    3    0    0 -0.69964747021E+01 -0.71225323146E+01 -0.12162104113E+02  0.15735243930E+02  0.51100000000E-03 0. -1.
        -11    1    3    3    0    0 -0.25633321762E+02 -0.10475208401E+02 -0.15305811572E+00  0.27691525828E+02  0.51100000000E-03 0.  1.
         12    1    3    3    0    0 -0.38808091225E+01 -0.15689750497E+01 -0.12213098322E+01  0.43604999551E+01  0.00000000000E+00 0. -1.
</event>
<event>
 7    1  0.2442667E-009  0.4778728E+02  0.7816164E-02  0.1312668E+00
        -11   -1    0    0    0    0  0.00000000000E+00  0.00000000000E+00  0.45593999997E+02  0.45594000000E+02  0.51100000000E-03 0. -1.
         11   -1    0    0    0    0 -0.00000000000E+00 -0.00000000000E+00 -0.45593999997E+02  0.45594000000E+02  0.51100000000E-03 0.  1.
    9900012    2    1    2    0    0 -0.42106249525E+01 -0.31823664569E+01  0.43078597189E+02  0.47787281636E+02  0.20000048291E+02 0.  0.
        -12    1    1    2    0    0  0.42106249525E+01  0.31823664569E+01 -0.43078597189E+02  0.43400718364E+02  0.00000000000E+00 0.  1.
         11    1    3    3    0    0 -0.10455798600E+02 -0.98105040505E+00  0.28740829368E+02  0.30599370210E+02  0.51100000000E-03 0. -1.
        -11    1    3    3    0    0  0.73034648803E+00 -0.21093339703E+01  0.49450951912E+00  0.22863148769E+01  0.51100000000E-03 0.  1.
         12    1    3    3    0    0  0.55148271590E+01 -0.91982081550E-01  0.13843258302E+02  0.14901596549E+02  0.00000000000E+00 0. -1.
</event>
<event>
 7    1  0.2442667E-009  0.4778726E+02  0.7816164E-02  0.1312668E+00
        -11   -1    0    0    0    0  0.00000000000E+00  0.00000000000E+00  0.45593999997E+02  0.45594000000E+02  0.51100000000E-03 0.  1.
         11   -1    0    0    0    0 -0.00000000000E+00 -0.00000000000E+00 -0.45593999997E+02  0.45594000000E+02  0.51100000000E-03 0. -1.
    9900012    2    1    2    0    0 -0.32654731567E+02 -0.26834197096E+02  0.98599471378E+01  0.47787260547E+02  0.19999952137E+02 0.  0.
        -12    1    1    2    0    0  0.32654731567E+02  0.26834197096E+02 -0.98599471378E+01  0.43400739453E+02  0.00000000000E+00 0.  1.
         11    1    3    3    0    0 -0.33370721357E+02 -0.19316375035E+02  0.90440980899E+01  0.39604584317E+02  0.51100000000E-03 0. -1.
        -11    1    3    3    0    0  0.14198408678E+01 -0.16733066491E+01 -0.21990416002E+00  0.22055070466E+01  0.51100000000E-03 0.  1.
         12    1    3    3    0    0 -0.70385107821E+00 -0.58445154120E+01  0.10357532080E+01  0.59771691836E+01  0.00000000000E+00 0. -1.
</event>
<event>
 7    1  0.2442667E-009  0.4778727E+02  0.7816164E-02  0.1312668E+00
        -11   -1    0    0    0    0  0.00000000000E+00  0.00000000000E+00  0.45593999997E+02  0.45594000000E+02  0.51100000000E-03 0.  1.
         11   -1    0    0    0    0 -0.00000000000E+00 -0.00000000000E+00 -0.45593999997E+02  0.45594000000E+02  0.51100000000E-03 0. -1.
    9900012    2    1    2    0    0  0.33926161423E+02  0.15587216330E+02 -0.22128656767E+02  0.47787271986E+02  0.20000004293E+02 0.  0.
        -12    1    1    2    0    0 -0.33926161423E+02 -0.15587216330E+02  0.22128656767E+02  0.43400728014E+02  0.00000000000E+00 0.  1.
         11    1    3    3    0    0  0.59715573955E+01 -0.37896116332E+00 -0.28788667511E+01  0.66401041650E+01  0.51100000000E-03 0. -1.
        -11    1    3    3    0    0 -0.21685082683E+01  0.13442201202E+01 -0.56406768749E-01  0.25519674422E+01  0.51100000000E-03 0.  1.
        -12    1    3    3    0    0  0.30123112296E+02  0.14621957373E+02 -0.19193383247E+02  0.38595200379E+02  0.00000000000E+00 0.  1.
</event>
<event>
 7    1  0.2442667E-009  0.4778727E+02  0.7816164E-02  0.1312668E+00
        -11   -1    0    0    0    0  0.00000000000E+00  0.00000000000E+00  0.45593999997E+02  0.45594000000E+02  0.51100000000E-03 0.  1.
         11   -1    0    0    0    0 -0.00000000000E+00 -0.00000000000E+00 -0.45593999997E+02  0.45594000000E+02  0.51100000000E-03 0. -1.
    9900012    2    1    2    0    0  0.31805861546E+02  0.45796091223E+01 -0.29172546607E+02  0.47787272772E+02  0.20000007874E+02 0.  0.
        -12    1    1    2    0    0 -0.31805861546E+02 -0.45796091223E+01  0.29172546607E+02  0.43400727228E+02  0.00000000000E+00 0.  1.
         11    1    3    3    0    0  0.12221802887E+02  0.56587790921E+01 -0.15976048095E+01  0.13562691031E+02  0.51100000000E-03 0.  1.
        -11    1    3    3    0    0  0.92484582977E+01 -0.29551891028E+01 -0.11953718797E+02  0.15399951846E+02  0.51100000000E-03 0. -1.
         12    1    3    3    0    0  0.10335600362E+02  0.18760191329E+01 -0.15621223001E+02  0.18824629894E+02  0.00000000000E+00 0. -1.
</event>
<event>
 7    1  0.2442667E-009  0.4778727E+02  0.7816164E-02  0.1312668E+00
        -11   -1    0    0    0    0  0.00000000000E+00  0.00000000000E+00  0.45593999997E+02  0.45594000000E+02  0.51100000000E-03 0.  1.
         11   -1    0    0    0    0 -0.00000000000E+00 -0.00000000000E+00 -0.45593999997E+02  0.45594000000E+02  0.51100000000E-03 0. -1.
    9900012    2    1    2    0    0 -0.21702653019E+02 -0.11718801902E+02 -0.35711178266E+02  0.47787265914E+02  0.19999976610E+02 0.  0.
        -12    1    1    2    0    0  0.21702653019E+02  0.11718801902E+02  0.35711178266E+02  0.43400734086E+02  0.00000000000E+00 0.  1.
         11    1    3    3    0    0 -0.14387005454E+02 -0.51071081980E+01 -0.31171422192E+02  0.34709163658E+02  0.51100000000E-03 0. -1.
        -11    1    3    3    0    0 -0.55354861223E+01 -0.40631626095E+01  0.78595388648E+00  0.69114847011E+01  0.51100000000E-03 0.  1.
        -12    1    3    3    0    0 -0.17801614422E+01 -0.25485310943E+01 -0.53257099600E+01  0.61666175556E+01  0.00000000000E+00 0.  1.
</event>
<event>
 7    1  0.2442667E-009  0.4778727E+02  0.7816164E-02  0.1312668E+00
        -11   -1    0    0    0    0  0.00000000000E+00  0.00000000000E+00  0.45593999997E+02  0.45594000000E+02  0.51100000000E-03 0.  1.
         11   -1    0    0    0    0 -0.00000000000E+00 -0.00000000000E+00 -0.45593999997E+02  0.45594000000E+02  0.51100000000E-03 0. -1.
    9900012    2    1    2    0    0 -0.39695552893E+02  0.12068645424E+02 -0.12737120901E+02  0.47787269929E+02  0.19999994914E+02 0.  0.
        -12    1    1    2    0    0  0.39695552893E+02 -0.12068645424E+02  0.12737120901E+02  0.43400730071E+02  0.00000000000E+00 0.  1.
         11    1    3    3    0    0 -0.36222117601E+02  0.67969648134E+01 -0.60019730182E+01  0.37339847544E+02  0.51100000000E-03 0. -1.
        -11    1    3    3    0    0 -0.81764872210E+00  0.94283571443E+00 -0.48856745044E+01  0.50425493792E+01  0.51100000000E-03 0.  1.
         12    1    3    3    0    0 -0.26557865697E+01  0.43288448960E+01 -0.18494733780E+01  0.54048730062E+01  0.00000000000E+00 0. -1.
</event>
<event>
 7    1  0.2442667E-009  0.4778727E+02  0.7816164E-02  0.1312668E+00
        -11   -1    0    0    0    0  0.00000000000E+00  0.00000000000E+00  0.45593999997E+02  0.45594000000E+02  0.51100000000E-03 0. -1.
         11   -1    0    0    0    0 -0.00000000000E+00 -0.00000000000E+00 -0.45593999997E+02  0.45594000000E+02  0.51100000000E-03 0.  1.
    9900012    2    1    2    0    0  0.39598778343E+02 -0.14075025615E+02  0.10837595692E+02  0.47787273362E+02  0.20000010565E+02 0.  0.
        -12    1    1    2    0    0 -0.39598778343E+02  0.14075025615E+02 -0.10837595692E+02  0.43400726638E+02  0.00000000000E+00 0.  1.
         11    1    3    3    0    0  0.60917411267E+01 -0.24735973822E+01  0.35762811133E+01  0.74845027107E+01  0.51100000000E-03 0.  1.
        -11    1    3    3    0    0  0.29928332702E+02 -0.13252123609E+02  0.11331652628E+02  0.34637122138E+02  0.51100000000E-03 0. -1.
        -12    1    3    3    0    0  0.35787045150E+01  0.16506953755E+01 -0.40703380503E+01  0.56656485129E+01  0.00000000000E+00 0.  1.
</event>
<event>
 7    1  0.2442667E-009  0.4778728E+02  0.7816164E-02  0.1312668E+00
        -11   -1    0    0    0    0  0.00000000000E+00  0.00000000000E+00  0.45593999997E+02  0.45594000000E+02  0.51100000000E-03 0.  1.
         11   -1    0    0    0    0 -0.00000000000E+00 -0.00000000000E+00 -0.45593999997E+02  0.45594000000E+02  0.51100000000E-03 0. -1.
    9900012    2    1    2    0    0 -0.21468692389E+02 -0.36902204572E+02 -0.78067498044E+01  0.47787276530E+02  0.20000025010E+02 0.  0.
        -12    1    1    2    0    0  0.21468692389E+02  0.36902204572E+02  0.78067498044E+01  0.43400723470E+02  0.00000000000E+00 0.  1.
         11    1    3    3    0    0 -0.10845732353E+02 -0.13194856870E+02 -0.42698717728E+01  0.17605850258E+02  0.51100000000E-03 0. -1.
        -11    1    3    3    0    0  0.12316893245E+01 -0.93358721284E+01  0.38058168378E+01  0.10156761740E+02  0.51100000000E-03 0.  1.
        -12    1    3    3    0    0 -0.11854649361E+02 -0.14371475574E+02 -0.73426948694E+01  0.20024664532E+02  0.00000000000E+00 0.  1.
</event>
<event>
 7    1  0.2442667E-009  0.4778726E+02  0.7816164E-02  0.1312668E+00
        -11   -1    0    0    0    0  0.00000000000E+00  0.00000000000E+00  0.45593999997E+02  0.45594000000E+02  0.51100000000E-03 0.  1.
         11   -1    0    0    0    0 -0.00000000000E+00 -0.00000000000E+00 -0.45593999997E+02  0.45594000000E+02  0.51100000000E-03 0. -1.
    9900012    2    1    2    0    0 -0.32625845760E+02 -0.92762514543E+01 -0.27076369207E+02  0.47787257817E+02  0.19999939692E+02 0.  0.
        -12    1    1    2    0    0  0.32625845760E+02  0.92762514543E+01  0.27076369207E+02  0.43400742183E+02  0.00000000000E+00 0.  1.
         11    1    3    3    0    0 -0.11529289189E+02  0.13891279283E+00 -0.16069614983E+02  0.19778178175E+02  0.51100000000E-03 0. -1.
        -11    1    3    3    0    0 -0.94495303349E+01 -0.31182530555E+01  0.11719306385E+01  0.10019508339E+02  0.51100000000E-03 0.  1.
        -12    1    3    3    0    0 -0.11647026236E+02 -0.62969111916E+01 -0.12178684863E+02  0.17989571304E+02  0.00000000000E+00 0.  1.
</event>
<event>
 7    1  0.2442667E-009  0.4778728E+02  0.7816164E-02  0.1312668E+00
        -11   -1    0    0    0    0  0.00000000000E+00  0.00000000000E+00  0.45593999997E+02  0.45594000000E+02  0.51100000000E-03 0.  1.
         11   -1    0    0    0    0 -0.00000000000E+00 -0.00000000000E+00 -0.45593999997E+02  0.45594000000E+02  0.51100000000E-03 0. -1.
    9900012    2    1    2    0    0 -0.30875257804E+02  0.17406763505E+02 -0.25046874156E+02  0.47787275753E+02  0.20000021468E+02 0.  0.
        -12    1    1    2    0    0  0.30875257804E+02 -0.17406763505E+02  0.25046874156E+02  0.43400724247E+02  0.00000000000E+00 0.  1.
         11    1    3    3    0    0 -0.61449929946E+01  0.64197844379E+01 -0.15243047734E+02  0.17644406355E+02  0.51100000000E-03 0. -1.
        -11    1    3    3    0    0 -0.12275268419E+02  0.19338280226E+01 -0.11492707943E+01  0.12479692673E+02  0.51100000000E-03 0.  1.
         12    1    3    3    0    0 -0.12454996390E+02  0.90531510448E+01 -0.86545556275E+01  0.17663176725E+02  0.00000000000E+00 0. -1.
</event>
<event>
 7    1  0.2442667E-009  0.4778727E+02  0.7816164E-02  0.1312668E+00
        -11   -1    0    0    0    0  0.00000000000E+00  0.00000000000E+00  0.45593999997E+02  0.45594000000E+02  0.51100000000E-03 0. -1.
         11   -1    0    0    0    0 -0.00000000000E+00 -0.00000000000E+00 -0.45593999997E+02  0.45594000000E+02  0.51100000000E-03 0.  1.
    9900012    2    1    2    0    0 -0.42724454735E+02 -0.39898516282E+01 -0.65057802362E+01  0.47787272761E+02  0.20000007827E+02 0.  0.
        -12    1    1    2    0    0  0.42724454735E+02  0.39898516282E+01  0.65057802362E+01  0.43400727239E+02  0.00000000000E+00 0.  1.
         11    1    3    3    0    0 -0.19018118781E+02 -0.23302030330E+01 -0.12478446521E+02  0.22865483069E+02  0.51100000000E-03 0. -1.
        -11    1    3    3    0    0 -0.11071732109E+02 -0.72097472208E+00  0.51317730142E+01  0.12224489804E+02  0.51100000000E-03 0.  1.
         12    1    3    3    0    0 -0.12634603845E+02 -0.93867387316E+00  0.84089327033E+00  0.12697299888E+02  0.00000000000E+00 0. -1.
</event>
<event>
 7    1  0.2442667E-009  0.4778727E+02  0.7816164E-02  0.1312668E+00
        -11   -1    0    0    0    0  0.00000000000E+00  0.00000000000E+00  0.45593999997E+02  0.45594000000E+02  0.51100000000E-03 0.  1.
         11   -1    0    0    0    0 -0.00000000000E+00 -0.00000000000E+00 -0.45593999997E+02  0.45594000000E+02  0.51100000000E-03 0. -1.
    9900012    2    1    2    0    0  0.49439002432E+01 -0.17292835060E+02 -0.39498593983E+02  0.47787271658E+02  0.20000002795E+02 0.  0.
        -12    1    1    2    0    0 -0.49439002432E+01  0.17292835060E+02  0.39498593983E+02  0.43400728342E+02  0.00000000000E+00 0.  1.
         11    1    3    3    0    0 -0.11354786775E+01 -0.35852961632E+01 -0.49224171847E+01  0.61946631552E+01  0.51100000000E-03 0. -1.
        -11    1    3    3    0    0 -0.40267477905E+01 -0.11367989434E+02 -0.13502997097E+02  0.18104607491E+02  0.51100000000E-03 0.  1.
        -12    1    3    3    0    0  0.10106126711E+02 -0.23395494629E+01 -0.21073179701E+02  0.23488001011E+02  0.00000000000E+00 0.  1.
</event>
<event>
 7    1  0.2442667E-009  0.4778728E+02  0.7816164E-02  0.1312668E+00
        -11   -1    0    0    0    0  0.00000000000E+00  0.00000000000E+00  0.45593999997E+02  0.45594000000E+02  0.51100000000E-03 0.  1.
         11   -1    0    0    0    0 -0.00000000000E+00 -0.00000000000E+00 -0.45593999997E+02  0.45594000000E+02  0.51100000000E-03 0. -1.
    9900012    2    1    2    0    0  0.16756841778E+02  0.11767368299E+02 -0.38266957432E+02  0.47787277262E+02  0.20000028350E+02 0.  0.
        -12    1    1    2    0    0 -0.16756841778E+02 -0.11767368299E+02  0.38266957432E+02  0.43400722738E+02  0.00000000000E+00 0.  1.
         11    1    3    3    0    0  0.25422423357E+01  0.36693910957E+01 -0.14086990027E+01  0.46810106011E+01  0.51100000000E-03 0. -1.
        -11    1    3    3    0    0  0.14989496154E+02  0.20532398726E+01 -0.19317763766E+02  0.24537253027E+02  0.51100000000E-03 0.  1.
        -12    1    3    3    0    0 -0.77489671222E+00  0.60447373308E+01 -0.17540494664E+02  0.18569013634E+02  0.00000000000E+00 0.  1.
</event>
<event>
 7    1  0.2442667E-009  0.4778727E+02  0.7816164E-02  0.1312668E+00
        -11   -1    0    0    0    0  0.00000000000E+00  0.00000000000E+00  0.45593999997E+02  0.45594000000E+02  0.51100000000E-03 0. -1.
         11   -1    0    0    0    0 -0.00000000000E+00 -0.00000000000E+00 -0.45593999997E+02  0.45594000000E+02  0.51100000000E-03 0.  1.
    9900012    2    1    2    0    0  0.31652049562E+01  0.34250437547E+02  0.26467194314E+02  0.47787269944E+02  0.19999994983E+02 0.  0.
        -12    1    1    2    0    0 -0.31652049562E+01 -0.34250437547E+02 -0.26467194314E+02  0.43400730056E+02  0.00000000000E+00 0.  1.
         11    1    3    3    0    0 -0.11156421254E+01  0.44391962957E+01  0.12523679062E+02  0.13333928851E+02  0.51100000000E-03 0. -1.
        -11    1    3    3    0    0 -0.17984087090E+01  0.12518638988E+02  0.26447687341E+01  0.12920735192E+02  0.51100000000E-03 0.  1.
         12    1    3    3    0    0  0.60792557906E+01  0.17292602263E+02  0.11298746518E+02  0.21532605901E+02  0.00000000000E+00 0. -1.
</event>
<event>
 7    1  0.2442667E-009  0.4778727E+02  0.7816164E-02  0.1312668E+00
        -11   -1    0    0    0    0  0.00000000000E+00  0.00000000000E+00  0.45593999997E+02  0.45594000000E+02  0.51100000000E-03 0.  1.
         11   -1    0    0    0    0 -0.00000000000E+00 -0.00000000000E+00 -0.45593999997E+02  0.45594000000E+02  0.51100000000E-03 0. -1.
    9900012    2    1    2    0    0  0.17850148287E+02 -0.88115707749E+01 -0.38566203302E+02  0.47787267166E+02  0.19999982318E+02 0.  0.
        -12    1    1    2    0    0 -0.17850148287E+02  0.88115707749E+01  0.38566203302E+02  0.43400732834E+02  0.00000000000E+00 0.  1.
         11    1    3    3    0    0  0.80368313100E+01 -0.59641393346E+01 -0.53887197021E+01  0.11366614087E+02  0.51100000000E-03 0. -1.
        -11    1    3    3    0    0 -0.97104807061E+00 -0.15643007068E+01 -0.39101834392E+00  0.18822504252E+01  0.51100000000E-03 0.  1.
         12    1    3    3    0    0  0.10784365047E+02 -0.12831307335E+01 -0.32786465256E+02  0.34538402654E+02  0.00000000000E+00 0. -1.
</event>
<event>
 7    1  0.2442667E-009  0.4778727E+02  0.7816164E-02  0.1312668E+00
        -11   -1    0    0    0    0  0.00000000000E+00  0.00000000000E+00  0.45593999997E+02  0.45594000000E+02  0.51100000000E-03 0.  1.
         11   -1    0    0    0    0 -0.00000000000E+00 -0.00000000000E+00 -0.45593999997E+02  0.45594000000E+02  0.51100000000E-03 0. -1.
    9900012    2    1    2    0    0  0.39198466019E+02  0.18011005515E+02 -0.47651994631E+01  0.47787272082E+02  0.20000004732E+02 0.  0.
        -12    1    1    2    0    0 -0.39198466019E+02 -0.18011005515E+02  0.47651994631E+01  0.43400727918E+02  0.00000000000E+00 0.  1.
         11    1    3    3    0    0  0.17060058217E+02  0.38908357584E+01 -0.91805812294E+01  0.19760244463E+02  0.51100000000E-03 0. -1.
        -11    1    3    3    0    0  0.64592528557E+01  0.88570715643E+01  0.33108400285E+01  0.11451258713E+02  0.51100000000E-03 0.  1.
         12    1    3    3    0    0  0.15679154946E+02  0.52630981922E+01  0.11045417378E+01  0.16575768907E+02  0.00000000000E+00 0. -1.
</event>
<event>
 7    1  0.2442667E-009  0.4778727E+02  0.7816164E-02  0.1312668E+00
        -11   -1    0    0    0    0  0.00000000000E+00  0.00000000000E+00  0.45593999997E+02  0.45594000000E+02  0.51100000000E-03 0. -1.
         11   -1    0    0    0    0 -0.00000000000E+00 -0.00000000000E+00 -0.45593999997E+02  0.45594000000E+02  0.51100000000E-03 0.  1.
    9900012    2    1    2    0    0 -0.31050287335E+02  0.28022446166E+02  0.11586452670E+02  0.47787265926E+02  0.19999976662E+02 0.  0.
        -12    1    1    2    0    0  0.31050287335E+02 -0.28022446166E+02 -0.11586452670E+02  0.43400734074E+02  0.00000000000E+00 0.  1.
         11    1    3    3    0    0 -0.75510468855E+01  0.90276306417E+01 -0.43322641639E+01  0.12541329161E+02  0.51100000000E-03 0. -1.
        -11    1    3    3    0    0 -0.42310292787E+01  0.11323391028E+01 -0.26420165025E+00  0.43878928171E+01  0.51100000000E-03 0.  1.
         12    1    3    3    0    0 -0.19268211171E+02  0.17862476422E+02  0.16182918484E+02  0.30858043948E+02  0.00000000000E+00 0. -1.
</event>
<event>
 7    1  0.2442667E-009  0.4778728E+02  0.7816164E-02  0.1312668E+00
        -11   -1    0    0    0    0  0.00000000000E+00  0.00000000000E+00  0.45593999997E+02  0.45594000000E+02  0.51100000000E-03 0.  1.
         11   -1    0    0    0    0 -0.00000000000E+00 -0.00000000000E+00 -0.45593999997E+02  0.45594000000E+02  0.51100000000E-03 0. -1.
    9900012    2    1    2    0    0  0.16057979988E+02  0.21011137663E+02 -0.34413604647E+02  0.47787276366E+02  0.20000024262E+02 0.  0.
        -12    1    1    2    0    0 -0.16057979988E+02 -0.21011137663E+02  0.34413604647E+02  0.43400723634E+02  0.00000000000E+00 0.  1.
         11    1    3    3    0    0  0.18895539027E+02  0.14798828571E+02 -0.22555194450E+02  0.32936051966E+02  0.51100000000E-03 0. -1.
        -11    1    3    3    0    0 -0.30902866161E+01  0.39901175172E+00 -0.43976674289E+01  0.53896716805E+01  0.51100000000E-03 0.  1.
        -12    1    3    3    0    0  0.25272757683E+00  0.58132973412E+01 -0.74607427679E+01  0.94615527190E+01  0.00000000000E+00 0.  1.
</event>
<event>
 7    1  0.2442667E-009  0.4778727E+02  0.7816164E-02  0.1312668E+00
        -11   -1    0    0    0    0  0.00000000000E+00  0.00000000000E+00  0.45593999997E+02  0.45594000000E+02  0.51100000000E-03 0.  1.
         11   -1    0    0    0    0 -0.00000000000E+00 -0.00000000000E+00 -0.45593999997E+02  0.45594000000E+02  0.51100000000E-03 0. -1.
    9900012    2    1    2    0    0  0.40413111731E+02 -0.23080685148E+01 -0.15654915342E+02  0.47787272420E+02  0.20000006273E+02 0.  0.
        -12    1    1    2    0    0 -0.40413111731E+02  0.23080685148E+01  0.15654915342E+02  0.43400727580E+02  0.00000000000E+00 0.  1.
         11    1    3    3    0    0  0.37301645438E+02  0.29948062049E+01 -0.16679264078E+02  0.40970470672E+02  0.51100000000E-03 0. -1.
        -11    1    3    3    0    0  0.36136106045E+01 -0.42937810605E+01  0.83096013822E+00  0.56732030114E+01  0.51100000000E-03 0.  1.
         12    1    3    3    0    0 -0.50214431140E+00 -0.10090936592E+01  0.19338859754E+00  0.11435987374E+01  0.00000000000E+00 0. -1.
</event>
<event>
 7    1  0.2442667E-009  0.4778727E+02  0.7816164E-02  0.1312668E+00
        -11   -1    0    0    0    0  0.00000000000E+00  0.00000000000E+00  0.45593999997E+02  0.45594000000E+02  0.51100000000E-03 0. -1.
         11   -1    0    0    0    0 -0.00000000000E+00 -0.00000000000E+00 -0.45593999997E+02  0.45594000000E+02  0.51100000000E-03 0.  1.
    9900012    2    1    2    0    0  0.20055192849E+02 -0.22438322763E+02  0.31271942647E+02  0.47787268606E+02  0.19999988883E+02 0.  0.
        -12    1    1    2    0    0 -0.20055192849E+02  0.22438322763E+02 -0.31271942647E+02  0.43400731394E+02  0.00000000000E+00 0.  1.
         11    1    3    3    0    0  0.11118669882E+02 -0.10369253800E+02  0.28444305906E+02  0.32252515918E+02  0.51100000000E-03 0. -1.
        -11    1    3    3    0    0  0.58584159671E+01 -0.83059876634E+01  0.58557894676E+00  0.10181029991E+02  0.51100000000E-03 0.  1.
         12    1    3    3    0    0  0.30781069995E+01 -0.37630812993E+01  0.22420577940E+01  0.53537226971E+01  0.00000000000E+00 0. -1.
</event>
<event>
 7    1  0.2442667E-009  0.4778728E+02  0.7816164E-02  0.1312668E+00
        -11   -1    0    0    0    0  0.00000000000E+00  0.00000000000E+00  0.45593999997E+02  0.45594000000E+02  0.51100000000E-03 0.  1.
         11   -1    0    0    0    0 -0.00000000000E+00 -0.00000000000E+00 -0.45593999997E+02  0.45594000000E+02  0.51100000000E-03 0. -1.
    9900012    2    1    2    0    0  0.14423540590E+02  0.38369993468E+02 -0.14259301061E+02  0.47787278939E+02  0.20000035993E+02 0.  0.
        -12    1    1    2    0    0 -0.14423540590E+02 -0.38369993468E+02  0.14259301061E+02  0.43400721061E+02  0.00000000000E+00 0.  1.
         11    1    3    3    0    0  0.10545477087E+02  0.15632077520E+02 -0.44940588101E+01  0.19384671765E+02  0.51100000000E-03 0. -1.
        -11    1    3    3    0    0 -0.42824768207E+01  0.13787766863E+02 -0.39568885870E+01  0.14969939557E+02  0.51100000000E-03 0.  1.
        -12    1    3    3    0    0  0.81605403230E+01  0.89501490848E+01 -0.58083536638E+01  0.13432667616E+02  0.00000000000E+00 0.  1.
</event>
<event>
 7    1  0.2442667E-009  0.4778727E+02  0.7816164E-02  0.1312668E+00
        -11   -1    0    0    0    0  0.00000000000E+00  0.00000000000E+00  0.45593999997E+02  0.45594000000E+02  0.51100000000E-03 0. -1.
         11   -1    0    0    0    0 -0.00000000000E+00 -0.00000000000E+00 -0.45593999997E+02  0.45594000000E+02  0.51100000000E-03 0.  1.
    9900012    2    1    2    0    0  0.10837849734E+02 -0.17100544057E+02  0.38389261557E+02  0.47787274237E+02  0.20000014555E+02 0.  0.
        -12    1    1    2    0    0 -0.10837849734E+02  0.17100544057E+02 -0.38389261557E+02  0.43400725763E+02  0.00000000000E+00 0.  1.
         11    1    3    3    0    0 -0.36241935208E+01 -0.14971918978E+01  0.12269123150E+02  0.12880518056E+02  0.51100000000E-03 0. -1.
        -11    1    3    3    0    0  0.94678507786E+01 -0.65498621974E+01  0.79171863423E+01  0.13972212889E+02  0.51100000000E-03 0.  1.
         12    1    3    3    0    0  0.49941924764E+01 -0.90534899622E+01  0.18202952065E+02  0.20934543292E+02  0.00000000000E+00 0. -1.
</event>
<event>
 7    1  0.2442667E-009  0.4778727E+02  0.7816164E-02  0.1312668E+00
        -11   -1    0    0    0    0  0.00000000000E+00  0.00000000000E+00  0.45593999997E+02  0.45594000000E+02  0.51100000000E-03 0.  1.
         11   -1    0    0    0    0 -0.00000000000E+00 -0.00000000000E+00 -0.45593999997E+02  0.45594000000E+02  0.51100000000E-03 0. -1.
    9900012    2    1    2    0    0  0.42191063897E+02 -0.29867474041E+01 -0.97271078856E+01  0.47787272349E+02  0.20000005947E+02 0.  0.
        -12    1    1    2    0    0 -0.42191063897E+02  0.29867474041E+01  0.97271078856E+01  0.43400727651E+02  0.00000000000E+00 0.  1.
         11    1    3    3    0    0  0.42940455293E+01 -0.82904845063E+00 -0.37987717236E+01  0.57928244588E+01  0.51100000000E-03 0. -1.
        -11    1    3    3    0    0  0.22323112707E+02  0.61505825958E+01 -0.73299445321E+01  0.24287427083E+02  0.51100000000E-03 0.  1.
        -12    1    3    3    0    0  0.15573905661E+02 -0.83082815493E+01  0.14016083701E+01  0.17707020807E+02  0.00000000000E+00 0.  1.
</event>
<event>
 7    1  0.2442667E-009  0.4778726E+02  0.7816164E-02  0.1312668E+00
        -11   -1    0    0    0    0  0.00000000000E+00  0.00000000000E+00  0.45593999997E+02  0.45594000000E+02  0.51100000000E-03 0.  1.
         11   -1    0    0    0    0 -0.00000000000E+00 -0.00000000000E+00 -0.45593999997E+02  0.45594000000E+02  0.51100000000E-03 0. -1.
    9900012    2    1    2    0    0  0.51006889082E+01 -0.41952406910E+02 -0.98794071670E+01  0.47787260849E+02  0.19999953515E+02 0.  0.
        -12    1    1    2    0    0 -0.51006889082E+01  0.41952406910E+02  0.98794071670E+01  0.43400739151E+02  0.00000000000E+00 0.  1.
         11    1    3    3    0    0 -0.73515219354E+00  0.12007308542E+01  0.10736992987E+01  0.17706026593E+01  0.51100000000E-03 0.  1.
        -11    1    3    3    0    0  0.86990336677E+01 -0.30827917861E+02 -0.82648100465E+01  0.33080822114E+02  0.51100000000E-03 0. -1.
         12    1    3    3    0    0 -0.28631925659E+01 -0.12325219903E+02 -0.26882964193E+01  0.12935836076E+02  0.00000000000E+00 0. -1.
</event>
<event>
 7    1  0.2442667E-009  0.4778727E+02  0.7816164E-02  0.1312668E+00
        -11   -1    0    0    0    0  0.00000000000E+00  0.00000000000E+00  0.45593999997E+02  0.45594000000E+02  0.51100000000E-03 0.  1.
         11   -1    0    0    0    0 -0.00000000000E+00 -0.00000000000E+00 -0.45593999997E+02  0.45594000000E+02  0.51100000000E-03 0. -1.
    9900012    2    1    2    0    0  0.36958250773E+02  0.14671466840E+02 -0.17391350314E+02  0.47787270684E+02  0.19999998357E+02 0.  0.
        -12    1    1    2    0    0 -0.36958250773E+02 -0.14671466840E+02  0.17391350314E+02  0.43400729316E+02  0.00000000000E+00 0.  1.
         11    1    3    3    0    0  0.14393525437E+02  0.10090581588E+02 -0.12808715911E+02  0.21749864709E+02  0.51100000000E-03 0. -1.
        -11    1    3    3    0    0  0.88388828543E+01  0.33799723928E+01  0.34691650222E+01  0.10078946855E+02  0.51100000000E-03 0.  1.
         12    1    3    3    0    0  0.13725842482E+02  0.12009128587E+01 -0.80517994252E+01  0.15958459121E+02  0.00000000000E+00 0. -1.
</event>
<event>
 7    1  0.2442667E-009  0.4778729E+02  0.7816164E-02  0.1312668E+00
        -11   -1    0    0    0    0  0.00000000000E+00  0.00000000000E+00  0.45593999997E+02  0.45594000000E+02  0.51100000000E-03 0.  1.
         11   -1    0    0    0    0 -0.00000000000E+00 -0.00000000000E+00 -0.45593999997E+02  0.45594000000E+02  0.51100000000E-03 0. -1.
    9900012    2    1    2    0    0 -0.27121787077E+02  0.33657549592E+02  0.38987067680E+01  0.47787286950E+02  0.20000072519E+02 0.  0.
        -12    1    1    2    0    0  0.27121787077E+02 -0.33657549592E+02 -0.38987067680E+01  0.43400713050E+02  0.00000000000E+00 0.  1.
         11    1    3    3    0    0 -0.12469293000E+02  0.17451670096E+02  0.53414011262E+01  0.22103724196E+02  0.51100000000E-03 0. -1.
        -11    1    3    3    0    0 -0.77241569586E+01  0.14340007399E+02 -0.57989689646E+01  0.17289489705E+02  0.51100000000E-03 0.  1.
        -12    1    3    3    0    0 -0.69283371192E+01  0.18658720963E+01  0.43562746063E+01  0.83940730496E+01  0.00000000000E+00 0.  1.
</event>
<event>
 7    1  0.2442667E-009  0.4778727E+02  0.7816164E-02  0.1312668E+00
        -11   -1    0    0    0    0  0.00000000000E+00  0.00000000000E+00  0.45593999997E+02  0.45594000000E+02  0.51100000000E-03 0.  1.
         11   -1    0    0    0    0 -0.00000000000E+00 -0.00000000000E+00 -0.45593999997E+02  0.45594000000E+02  0.51100000000E-03 0. -1.
    9900012    2    1    2    0    0  0.12604860991E+02  0.16183962516E+02 -0.38246827831E+02  0.47787274172E+02  0.20000014259E+02 0.  0.
        -12    1    1    2    0    0 -0.12604860991E+02 -0.16183962516E+02  0.38246827831E+02  0.43400725828E+02  0.00000000000E+00 0.  1.
         11    1    3    3    0    0  0.36533516126E+01  0.30874829158E+01 -0.18322345481E+02  0.18936416582E+02  0.51100000000E-03 0. -1.
        -11    1    3    3    0    0 -0.54719675598E+00  0.55787065271E+01 -0.85762326077E-01  0.56061346972E+01  0.51100000000E-03 0.  1.
        -12    1    3    3    0    0  0.94987061340E+01  0.75177730727E+01 -0.19838720023E+02  0.23244722893E+02  0.00000000000E+00 0.  1.
</event>
<event>
 7    1  0.2442667E-009  0.4778727E+02  0.7816164E-02  0.1312668E+00
        -11   -1    0    0    0    0  0.00000000000E+00  0.00000000000E+00  0.45593999997E+02  0.45594000000E+02  0.51100000000E-03 0.  1.
         11   -1    0    0    0    0 -0.00000000000E+00 -0.00000000000E+00 -0.45593999997E+02  0.45594000000E+02  0.51100000000E-03 0. -1.
    9900012    2    1    2    0    0 -0.31468396210E+02 -0.29723958459E+02 -0.31384051585E+01  0.47787271280E+02  0.20000001073E+02 0.  0.
        -12    1    1    2    0    0  0.31468396210E+02  0.29723958459E+02  0.31384051585E+01  0.43400728720E+02  0.00000000000E+00 0.  1.
         11    1    3    3    0    0 -0.10547762303E+02 -0.64289173008E+01 -0.41777894454E+01  0.13039946018E+02  0.51100000000E-03 0. -1.
        -11    1    3    3    0    0 -0.55232097824E+01 -0.17379156453E+02  0.69434365799E+00  0.18248918836E+02  0.51100000000E-03 0.  1.
        -12    1    3    3    0    0 -0.15397424125E+02 -0.59158847058E+01  0.34504062891E+00  0.16498406425E+02  0.00000000000E+00 0.  1.
</event>
<event>
 7    1  0.2442667E-009  0.4778727E+02  0.7816164E-02  0.1312668E+00
        -11   -1    0    0    0    0  0.00000000000E+00  0.00000000000E+00  0.45593999997E+02  0.45594000000E+02  0.51100000000E-03 0.  1.
         11   -1    0    0    0    0 -0.00000000000E+00 -0.00000000000E+00 -0.45593999997E+02  0.45594000000E+02  0.51100000000E-03 0. -1.
    9900012    2    1    2    0    0  0.36095211299E+02  0.21177984548E+02  0.11500105919E+02  0.47787265623E+02  0.19999975283E+02 0.  0.
        -12    1    1    2    0    0 -0.36095211299E+02 -0.21177984548E+02 -0.11500105919E+02  0.43400734377E+02  0.00000000000E+00 0.  1.
         11    1    3    3    0    0  0.13019335068E+01 -0.63381706984E+00  0.50507702377E+01  0.52542397347E+01  0.51100000000E-03 0. -1.
        -11    1    3    3    0    0 -0.82117150358E-01 -0.23434773332E-01  0.10267708261E+01  0.10303159735E+01  0.51100000000E-03 0.  1.
         12    1    3    3    0    0  0.34875394943E+02  0.21835236392E+02  0.54225648556E+01  0.41502709915E+02  0.00000000000E+00 0. -1.
</event>
<event>
 7    1  0.2442667E-009  0.4778727E+02  0.7816164E-02  0.1312668E+00
        -11   -1    0    0    0    0  0.00000000000E+00  0.00000000000E+00  0.45593999997E+02  0.45594000000E+02  0.51100000000E-03 0.  1.
         11   -1    0    0    0    0 -0.00000000000E+00 -0.00000000000E+00 -0.45593999997E+02  0.45594000000E+02  0.51100000000E-03 0. -1.
    9900012    2    1    2    0    0  0.22702000812E+01 -0.41374837281E+02 -0.12907052113E+02  0.47787274630E+02  0.20000016346E+02 0.  0.
        -12    1    1    2    0    0 -0.22702000812E+01  0.41374837281E+02  0.12907052113E+02  0.43400725370E+02  0.00000000000E+00 0.  1.
         11    1    3    3    0    0  0.19580943686E+01 -0.38665583205E+02 -0.76842851037E+01  0.39470364781E+02  0.51100000000E-03 0. -1.
        -11    1    3    3    0    0 -0.26861844562E+01 -0.14323854599E+01 -0.34718425145E+01  0.46174674601E+01  0.51100000000E-03 0.  1.
         12    1    3    3    0    0  0.29982901688E+01 -0.12768686161E+01 -0.17509244950E+01  0.36994423885E+01  0.00000000000E+00 0. -1.
</event>
<event>
 7    1  0.2442667E-009  0.4778727E+02  0.7816164E-02  0.1312668E+00
        -11   -1    0    0    0    0  0.00000000000E+00  0.00000000000E+00  0.45593999997E+02  0.45594000000E+02  0.51100000000E-03 0.  1.
         11   -1    0    0    0    0 -0.00000000000E+00 -0.00000000000E+00 -0.45593999997E+02  0.45594000000E+02  0.51100000000E-03 0. -1.
    9900012    2    1    2    0    0  0.28177314662E+02 -0.93823193036E+01 -0.31648607340E+02  0.47787270471E+02  0.19999997387E+02 0.  0.
        -12    1    1    2    0    0 -0.28177314662E+02  0.93823193036E+01  0.31648607340E+02  0.43400729529E+02  0.00000000000E+00 0.  1.
         11    1    3    3    0    0  0.12443975475E+02 -0.20948004925E+01 -0.66903552347E+01  0.14282911753E+02  0.51100000000E-03 0. -1.
        -11    1    3    3    0    0  0.53696874863E+01 -0.22346846777E+01  0.21097187104E+00  0.58199543556E+01  0.51100000000E-03 0.  1.
        -12    1    3    3    0    0  0.10363651701E+02 -0.50528341334E+01 -0.25169223976E+02  0.27684404362E+02  0.00000000000E+00 0.  1.
</event>
<event>
 7    1  0.2442667E-009  0.4778727E+02  0.7816164E-02  0.1312668E+00
        -11   -1    0    0    0    0  0.00000000000E+00  0.00000000000E+00  0.45593999997E+02  0.45594000000E+02  0.51100000000E-03 0. -1.
         11   -1    0    0    0    0 -0.00000000000E+00 -0.00000000000E+00 -0.45593999997E+02  0.45594000000E+02  0.51100000000E-03 0.  1.
    9900012    2    1    2    0    0  0.55695693493E+01  0.21367947310E+02  0.37363268957E+02  0.47787272562E+02  0.20000006919E+02 0.  0.
        -12    1    1    2    0    0 -0.55695693493E+01 -0.21367947310E+02 -0.37363268957E+02  0.43400727438E+02  0.00000000000E+00 0.  1.
         11    1    3    3    0    0  0.10903000075E+02  0.13341731084E+02  0.20218635185E+02  0.26564457607E+02  0.51100000000E-03 0. -1.
        -11    1    3    3    0    0  0.17736127391E+01  0.10523998640E+01  0.10940104727E+01  0.23345463794E+01  0.51100000000E-03 0.  1.
         12    1    3    3    0    0 -0.71070434650E+01  0.69738163614E+01  0.16050623300E+02  0.18888268575E+02  0.00000000000E+00 0. -1.
</event>
<event>
 7    1  0.2442667E-009  0.4778728E+02  0.7816164E-02  0.1312668E+00
        -11   -1    0    0    0    0  0.00000000000E+00  0.00000000000E+00  0.45593999997E+02  0.45594000000E+02  0.51100000000E-03 0. -1.
         11   -1    0    0    0    0 -0.00000000000E+00 -0.00000000000E+00 -0.45593999997E+02  0.45594000000E+02  0.51100000000E-03 0.  1.
    9900012    2    1    2    0    0  0.26270869809E+02 -0.17493419953E+02  0.29789995207E+02  0.47787283916E+02  0.20000058686E+02 0.  0.
        -12    1    1    2    0    0 -0.26270869809E+02  0.17493419953E+02 -0.29789995207E+02  0.43400716084E+02  0.00000000000E+00 0.  1.
         11    1    3    3    0    0  0.96341730937E+01 -0.12614528733E+01  0.18965300982E+02  0.21309415669E+02  0.51100000000E-03 0. -1.
        -11    1    3    3    0    0  0.10067354507E+02 -0.13411688874E+02  0.92709854203E+01  0.19161842190E+02  0.51100000000E-03 0.  1.
         12    1    3    3    0    0  0.65693422084E+01 -0.28202782062E+01  0.15537088052E+01  0.73160260567E+01  0.00000000000E+00 0. -1.
</event>
<event>
 7    1  0.2442667E-009  0.4778727E+02  0.7816164E-02  0.1312668E+00
        -11   -1    0    0    0    0  0.00000000000E+00  0.00000000000E+00  0.45593999997E+02  0.45594000000E+02  0.51100000000E-03 0. -1.
         11   -1    0    0    0    0 -0.00000000000E+00 -0.00000000000E+00 -0.45593999997E+02  0.45594000000E+02  0.51100000000E-03 0.  1.
    9900012    2    1    2    0    0 -0.34465397358E+02 -0.15628341470E+02 -0.21248881375E+02  0.47787266921E+02  0.19999981198E+02 0.  0.
        -12    1    1    2    0    0  0.34465397358E+02  0.15628341470E+02  0.21248881375E+02  0.43400733079E+02  0.00000000000E+00 0.  1.
         11    1    3    3    0    0 -0.67830900029E+01  0.21947169164E+00 -0.84665769634E+01  0.10850871096E+02  0.51100000000E-03 0. -1.
        -11    1    3    3    0    0 -0.39054638148E+01 -0.84239852851E+01 -0.87091030616E+00  0.93260206259E+01  0.51100000000E-03 0.  1.
        -12    1    3    3    0    0 -0.23776843540E+02 -0.74238278766E+01 -0.11911394105E+02  0.27610375198E+02  0.00000000000E+00 0.  1.
</event>
<event>
 7    1  0.2442667E-009  0.4778727E+02  0.7816164E-02  0.1312668E+00
        -11   -1    0    0    0    0  0.00000000000E+00  0.00000000000E+00  0.45593999997E+02  0.45594000000E+02  0.51100000000E-03 0. -1.
         11   -1    0    0    0    0 -0.00000000000E+00 -0.00000000000E+00 -0.45593999997E+02  0.45594000000E+02  0.51100000000E-03 0.  1.
    9900012    2    1    2    0    0 -0.27152559624E+02  0.24557133010E+02  0.23308994131E+02  0.47787268633E+02  0.19999989004E+02 0.  0.
        -12    1    1    2    0    0  0.27152559624E+02 -0.24557133010E+02 -0.23308994131E+02  0.43400731367E+02  0.00000000000E+00 0.  1.
         11    1    3    3    0    0 -0.10208065550E+02  0.46067418738E+01  0.13988568189E+02  0.17919450695E+02  0.51100000000E-03 0. -1.
        -11    1    3    3    0    0 -0.21411772016E+01  0.92335813776E+01  0.28982251460E+00  0.94830196782E+01  0.51100000000E-03 0.  1.
        -12    1    3    3    0    0 -0.14803316872E+02  0.10716809759E+02  0.90306034282E+01  0.20384798260E+02  0.00000000000E+00 0.  1.
</event>
<event>
 7    1  0.2442667E-009  0.4778727E+02  0.7816164E-02  0.1312668E+00
        -11   -1    0    0    0    0  0.00000000000E+00  0.00000000000E+00  0.45593999997E+02  0.45594000000E+02  0.51100000000E-03 0.  1.
         11   -1    0    0    0    0 -0.00000000000E+00 -0.00000000000E+00 -0.45593999997E+02  0.45594000000E+02  0.51100000000E-03 0. -1.
    9900012    2    1    2    0    0  0.26178809189E+02 -0.63657597154E+01 -0.34026027254E+02  0.47787268693E+02  0.19999989277E+02 0.  0.
        -12    1    1    2    0    0 -0.26178809189E+02  0.63657597154E+01  0.34026027254E+02  0.43400731307E+02  0.00000000000E+00 0.  1.
         11    1    3    3    0    0  0.14695611304E+02 -0.45279918884E+01 -0.80599634579E+01  0.17361644891E+02  0.51100000000E-03 0. -1.
        -11    1    3    3    0    0 -0.76701445680E-01  0.97890346129E+00  0.71314479901E+00  0.12135529917E+01  0.51100000000E-03 0.  1.
         12    1    3    3    0    0  0.11559899331E+02 -0.28166712883E+01 -0.26679208596E+02  0.29212070809E+02  0.00000000000E+00 0. -1.
</event>
<event>
 7    1  0.2442667E-009  0.4778727E+02  0.7816164E-02  0.1312668E+00
        -11   -1    0    0    0    0  0.00000000000E+00  0.00000000000E+00  0.45593999997E+02  0.45594000000E+02  0.51100000000E-03 0. -1.
         11   -1    0    0    0    0 -0.00000000000E+00 -0.00000000000E+00 -0.45593999997E+02  0.45594000000E+02  0.51100000000E-03 0.  1.
    9900012    2    1    2    0    0 -0.78050900688E+01  0.15489327776E+02  0.39784229719E+02  0.47787266823E+02  0.19999980753E+02 0.  0.
        -12    1    1    2    0    0  0.78050900688E+01 -0.15489327776E+02 -0.39784229719E+02  0.43400733177E+02  0.00000000000E+00 0.  1.
         11    1    3    3    0    0 -0.87507105445E+01  0.15242452399E+02  0.18449908185E+02  0.25481491370E+02  0.51100000000E-03 0. -1.
        -11    1    3    3    0    0  0.13413704759E+01 -0.19352347447E+01  0.18763132023E+02  0.18910302267E+02  0.51100000000E-03 0.  1.
        -12    1    3    3    0    0 -0.39575000020E+00  0.21821101222E+01  0.25711895112E+01  0.33954731851E+01  0.00000000000E+00 0.  1.
</event>
<event>
 7    1  0.2442667E-009  0.4778726E+02  0.7816164E-02  0.1312668E+00
        -11   -1    0    0    0    0  0.00000000000E+00  0.00000000000E+00  0.45593999997E+02  0.45594000000E+02  0.51100000000E-03 0.  1.
         11   -1    0    0    0    0 -0.00000000000E+00 -0.00000000000E+00 -0.45593999997E+02  0.45594000000E+02  0.51100000000E-03 0. -1.
    9900012    2    1    2    0    0  0.34398654679E+02  0.24023809031E+02 -0.11100144379E+02  0.47787262111E+02  0.19999959269E+02 0.  0.
        -12    1    1    2    0    0 -0.34398654679E+02 -0.24023809031E+02  0.11100144379E+02  0.43400737889E+02  0.00000000000E+00 0.  1.
         11    1    3    3    0    0  0.27176550338E+02  0.17140517761E+02 -0.36308595581E+01  0.32334894136E+02  0.51100000000E-03 0. -1.
        -11    1    3    3    0    0 -0.10265426062E+01 -0.11189809356E+01  0.34203827926E+00  0.15565662537E+01  0.51100000000E-03 0.  1.
         12    1    3    3    0    0  0.82486469472E+01  0.80022722053E+01 -0.78113230998E+01  0.13895801721E+02  0.00000000000E+00 0. -1.
</event>
<event>
 7    1  0.2442667E-009  0.4778727E+02  0.7816164E-02  0.1312668E+00
        -11   -1    0    0    0    0  0.00000000000E+00  0.00000000000E+00  0.45593999997E+02  0.45594000000E+02  0.51100000000E-03 0.  1.
         11   -1    0    0    0    0 -0.00000000000E+00 -0.00000000000E+00 -0.45593999997E+02  0.45594000000E+02  0.51100000000E-03 0. -1.
    9900012    2    1    2    0    0 -0.17027909564E+02  0.14365419940E+02 -0.37246587861E+02  0.47787270726E+02  0.19999998549E+02 0.  0.
        -12    1    1    2    0    0  0.17027909564E+02 -0.14365419940E+02  0.37246587861E+02  0.43400729274E+02  0.00000000000E+00 0.  1.
         11    1    3    3    0    0 -0.34259654746E+01  0.92233208155E+01 -0.24961447665E+02  0.26830593659E+02  0.51100000000E-03 0. -1.
        -11    1    3    3    0    0 -0.83908690984E+01  0.68739021920E+01 -0.53031575919E+01  0.12073967711E+02  0.51100000000E-03 0.  1.
         12    1    3    3    0    0 -0.52110749912E+01 -0.17318030670E+01 -0.69819826042E+01  0.88827093565E+01  0.00000000000E+00 0. -1.
</event>
<event>
 7    1  0.2442667E-009  0.4778727E+02  0.7816164E-02  0.1312668E+00
        -11   -1    0    0    0    0  0.00000000000E+00  0.00000000000E+00  0.45593999997E+02  0.45594000000E+02  0.51100000000E-03 0. -1.
         11   -1    0    0    0    0 -0.00000000000E+00 -0.00000000000E+00 -0.45593999997E+02  0.45594000000E+02  0.51100000000E-03 0.  1.
    9900012    2    1    2    0    0 -0.39754947132E+02 -0.15592935911E+02  0.77477877996E+01  0.47787266279E+02  0.19999978271E+02 0.  0.
        -12    1    1    2    0    0  0.39754947132E+02  0.15592935911E+02 -0.77477877996E+01  0.43400733721E+02  0.00000000000E+00 0.  1.
         11    1    3    3    0    0 -0.32162129303E+02 -0.15634208526E+02  0.13398776413E+02  0.38188456988E+02  0.51100000000E-03 0. -1.
        -11    1    3    3    0    0 -0.58335215888E+01  0.65325931600E+00 -0.39410282929E+01  0.70702493681E+01  0.51100000000E-03 0.  1.
         12    1    3    3    0    0 -0.17592962398E+01 -0.61198670123E+00 -0.17099603204E+01  0.25285599220E+01  0.00000000000E+00 0. -1.
</event>
<event>
 7    1  0.2442667E-009  0.4778728E+02  0.7816164E-02  0.1312668E+00
        -11   -1    0    0    0    0  0.00000000000E+00  0.00000000000E+00  0.45593999997E+02  0.45594000000E+02  0.51100000000E-03 0.  1.
         11   -1    0    0    0    0 -0.00000000000E+00 -0.00000000000E+00 -0.45593999997E+02  0.45594000000E+02  0.51100000000E-03 0. -1.
    9900012    2    1    2    0    0  0.14993517329E+02 -0.74646797248E+01 -0.40038678951E+02  0.47787276303E+02  0.20000023976E+02 0.  0.
        -12    1    1    2    0    0 -0.14993517329E+02  0.74646797248E+01  0.40038678951E+02  0.43400723697E+02  0.00000000000E+00 0.  1.
         11    1    3    3    0    0  0.12918478410E+02 -0.40908635949E+01 -0.39384552380E+02  0.41650512792E+02  0.51100000000E-03 0. -1.
        -11    1    3    3    0    0  0.90861410497E+00 -0.29466443445E+01  0.16661473617E+01  0.35049022492E+01  0.51100000000E-03 0.  1.
        -12    1    3    3    0    0  0.11664248146E+01 -0.42717178548E+00 -0.23202739320E+01  0.26318612619E+01  0.00000000000E+00 0.  1.
</event>
<event>
 7    1  0.2442667E-009  0.4778727E+02  0.7816164E-02  0.1312668E+00
        -11   -1    0    0    0    0  0.00000000000E+00  0.00000000000E+00  0.45593999997E+02  0.45594000000E+02  0.51100000000E-03 0.  1.
         11   -1    0    0    0    0 -0.00000000000E+00 -0.00000000000E+00 -0.45593999997E+02  0.45594000000E+02  0.51100000000E-03 0. -1.
    9900012    2    1    2    0    0 -0.19394295996E+02  0.23380551988E+02 -0.30997330535E+02  0.47787269260E+02  0.19999991865E+02 0.  0.
        -12    1    1    2    0    0  0.19394295996E+02 -0.23380551988E+02  0.30997330535E+02  0.43400730740E+02  0.00000000000E+00 0.  1.
         11    1    3    3    0    0 -0.64121421876E+01  0.60341606571E+01 -0.11583561724E+02  0.14550105317E+02  0.51100000000E-03 0. -1.
        -11    1    3    3    0    0 -0.15881455787E+01  0.12613086704E+02 -0.15999971121E+02  0.20435538621E+02  0.51100000000E-03 0.  1.
        -12    1    3    3    0    0 -0.11394008229E+02  0.47333046265E+01 -0.34137976904E+01  0.12801625322E+02  0.00000000000E+00 0.  1.
</event>
<event>
 7    1  0.2442667E-009  0.4778727E+02  0.7816164E-02  0.1312668E+00
        -11   -1    0    0    0    0  0.00000000000E+00  0.00000000000E+00  0.45593999997E+02  0.45594000000E+02  0.51100000000E-03 0. -1.
         11   -1    0    0    0    0 -0.00000000000E+00 -0.00000000000E+00 -0.45593999997E+02  0.45594000000E+02  0.51100000000E-03 0.  1.
    9900012    2    1    2    0    0  0.25279167456E+02 -0.23629625585E+02  0.26195949411E+02  0.47787270997E+02  0.19999999782E+02 0.  0.
        -12    1    1    2    0    0 -0.25279167456E+02  0.23629625585E+02 -0.26195949411E+02  0.43400729003E+02  0.00000000000E+00 0.  1.
         11    1    3    3    0    0  0.63044835621E+01 -0.57419561631E+00  0.55857779043E-01  0.63308241125E+01  0.51100000000E-03 0. -1.
        -11    1    3    3    0    0  0.46309549937E+01  0.43507915114E+00  0.39285457092E+01  0.60883913862E+01  0.51100000000E-03 0.  1.
         12    1    3    3    0    0  0.14343728900E+02 -0.23490509119E+02  0.22211545922E+02  0.35368055498E+02  0.00000000000E+00 0. -1.
</event>
<event>
 7    1  0.2442667E-009  0.4778727E+02  0.7816164E-02  0.1312668E+00
        -11   -1    0    0    0    0  0.00000000000E+00  0.00000000000E+00  0.45593999997E+02  0.45594000000E+02  0.51100000000E-03 0.  1.
         11   -1    0    0    0    0 -0.00000000000E+00 -0.00000000000E+00 -0.45593999997E+02  0.45594000000E+02  0.51100000000E-03 0. -1.
    9900012    2    1    2    0    0  0.39067835052E+01 -0.34547193935E+02 -0.25977903200E+02  0.47787273960E+02  0.20000013292E+02 0.  0.
        -12    1    1    2    0    0 -0.39067835052E+01  0.34547193935E+02  0.25977903200E+02  0.43400726040E+02  0.00000000000E+00 0.  1.
         11    1    3    3    0    0  0.61583542753E+01 -0.15741757245E+02 -0.21027141694E+02  0.26979046251E+02  0.51100000000E-03 0. -1.
        -11    1    3    3    0    0 -0.35305563640E+01 -0.10553999155E+02 -0.55325260868E-01  0.11129006584E+02  0.51100000000E-03 0.  1.
        -12    1    3    3    0    0  0.12789855940E+01 -0.82514375358E+01 -0.48954362447E+01  0.96792211247E+01  0.00000000000E+00 0.  1.
</event>
<event>
 7    1  0.2442667E-009  0.4778727E+02  0.7816164E-02  0.1312668E+00
        -11   -1    0    0    0    0  0.00000000000E+00  0.00000000000E+00  0.45593999997E+02  0.45594000000E+02  0.51100000000E-03 0. -1.
         11   -1    0    0    0    0 -0.00000000000E+00 -0.00000000000E+00 -0.45593999997E+02  0.45594000000E+02  0.51100000000E-03 0.  1.
    9900012    2    1    2    0    0 -0.24367764638E+02  0.33215722974E+02 -0.13658370040E+02  0.47787270994E+02  0.19999999770E+02 0.  0.
        -12    1    1    2    0    0  0.24367764638E+02 -0.33215722974E+02  0.13658370040E+02  0.43400729006E+02  0.00000000000E+00 0.  1.
         11    1    3    3    0    0 -0.14008261929E+02  0.21907173583E+02 -0.17613499418E+02  0.31406862605E+02  0.51100000000E-03 0.  1.
        -11    1    3    3    0    0 -0.44938718693E+01  0.52333512438E+01  0.39231363089E+01  0.79356063649E+01  0.51100000000E-03 0. -1.
        -12    1    3    3    0    0 -0.58656308392E+01  0.60751981471E+01  0.31993069360E-01  0.84448020240E+01  0.00000000000E+00 0.  1.
</event>
<event>
 7    1  0.2442667E-009  0.4778721E+02  0.7816164E-02  0.1312668E+00
        -11   -1    0    0    0    0  0.00000000000E+00  0.00000000000E+00  0.45593999997E+02  0.45594000000E+02  0.51100000000E-03 0.  1.
         11   -1    0    0    0    0 -0.00000000000E+00 -0.00000000000E+00 -0.45593999997E+02  0.45594000000E+02  0.51100000000E-03 0. -1.
    9900012    2    1    2    0    0 -0.38642594852E+02 -0.79056699944E+01 -0.18107428315E+02  0.47787208358E+02  0.19999714186E+02 0.  0.
        -12    1    1    2    0    0  0.38642594852E+02  0.79056699944E+01  0.18107428315E+02  0.43400791642E+02  0.00000000000E+00 0.  1.
         11    1    3    3    0    0 -0.39167800511E+02 -0.46402079224E+01 -0.13093134347E+02  0.41558131499E+02  0.51100000000E-03 0. -1.
        -11    1    3    3    0    0  0.60778629296E-01 -0.13080809337E+01 -0.34202664086E+01  0.36623752317E+01  0.51100000000E-03 0.  1.
         12    1    3    3    0    0  0.46442702924E+00 -0.19573811383E+01 -0.15940275587E+01  0.25667016274E+01  0.00000000000E+00 0. -1.
</event>
<event>
 7    1  0.2442667E-009  0.4778727E+02  0.7816164E-02  0.1312668E+00
        -11   -1    0    0    0    0  0.00000000000E+00  0.00000000000E+00  0.45593999997E+02  0.45594000000E+02  0.51100000000E-03 0.  1.
         11   -1    0    0    0    0 -0.00000000000E+00 -0.00000000000E+00 -0.45593999997E+02  0.45594000000E+02  0.51100000000E-03 0. -1.
    9900012    2    1    2    0    0 -0.22122709451E+02 -0.35853453119E+02 -0.10427787223E+02  0.47787272813E+02  0.20000008064E+02 0.  0.
        -12    1    1    2    0    0  0.22122709451E+02  0.35853453119E+02  0.10427787223E+02  0.43400727187E+02  0.00000000000E+00 0.  1.
         11    1    3    3    0    0  0.10022274234E+01 -0.36778194571E+01 -0.56784157715E+01  0.68392413105E+01  0.51100000000E-03 0. -1.
        -11    1    3    3    0    0 -0.18648873057E+02 -0.26084857468E+02 -0.74532038989E+01  0.32920366098E+02  0.51100000000E-03 0.  1.
         12    1    3    3    0    0 -0.44760638178E+01 -0.60907761940E+01  0.27038324477E+01  0.80276654048E+01  0.00000000000E+00 0. -1.
</event>
<event>
 7    1  0.2442667E-009  0.4778727E+02  0.7816164E-02  0.1312668E+00
        -11   -1    0    0    0    0  0.00000000000E+00  0.00000000000E+00  0.45593999997E+02  0.45594000000E+02  0.51100000000E-03 0.  1.
         11   -1    0    0    0    0 -0.00000000000E+00 -0.00000000000E+00 -0.45593999997E+02  0.45594000000E+02  0.51100000000E-03 0. -1.
    9900012    2    1    2    0    0  0.13443243422E+02 -0.23175027059E+01 -0.41201112980E+02  0.47787270475E+02  0.19999997404E+02 0.  0.
        -12    1    1    2    0    0 -0.13443243422E+02  0.23175027059E+01  0.41201112980E+02  0.43400729525E+02  0.00000000000E+00 0.  1.
         11    1    3    3    0    0  0.14183169600E+02 -0.88224150231E+01 -0.24964733064E+02  0.30037230297E+02  0.51100000000E-03 0. -1.
        -11    1    3    3    0    0 -0.12200104174E+01  0.58800593261E+01 -0.15665155593E+02  0.16776788224E+02  0.51100000000E-03 0.  1.
         12    1    3    3    0    0  0.48008423942E+00  0.62485299114E+00 -0.57122432331E+00  0.97325195352E+00  0.00000000000E+00 0. -1.
</event>
<event>
 7    1  0.2442667E-009  0.4778727E+02  0.7816164E-02  0.1312668E+00
        -11   -1    0    0    0    0  0.00000000000E+00  0.00000000000E+00  0.45593999997E+02  0.45594000000E+02  0.51100000000E-03 0. -1.
         11   -1    0    0    0    0 -0.00000000000E+00 -0.00000000000E+00 -0.45593999997E+02  0.45594000000E+02  0.51100000000E-03 0.  1.
    9900012    2    1    2    0    0  0.34417266883E+02 -0.17039083596E+02  0.20217433365E+02  0.47787271420E+02  0.20000001710E+02 0.  0.
        -12    1    1    2    0    0 -0.34417266883E+02  0.17039083596E+02 -0.20217433365E+02  0.43400728580E+02  0.00000000000E+00 0.  1.
         11    1    3    3    0    0  0.46996551051E+01 -0.43045742972E+01  0.12485418722E+02  0.14017909933E+02  0.51100000000E-03 0. -1.
        -11    1    3    3    0    0  0.14911329011E+02 -0.91607205427E+01  0.25770452802E+01  0.17689197166E+02  0.51100000000E-03 0.  1.
         12    1    3    3    0    0  0.14806282766E+02 -0.35737887560E+01  0.51549693629E+01  0.16080164320E+02  0.00000000000E+00 0. -1.
</event>
<event>
 7    1  0.2442667E-009  0.4778728E+02  0.7816164E-02  0.1312668E+00
        -11   -1    0    0    0    0  0.00000000000E+00  0.00000000000E+00  0.45593999997E+02  0.45594000000E+02  0.51100000000E-03 0.  1.
         11   -1    0    0    0    0 -0.00000000000E+00 -0.00000000000E+00 -0.45593999997E+02  0.45594000000E+02  0.51100000000E-03 0. -1.
    9900012    2    1    2    0    0 -0.32964412093E+02 -0.11876301450E+02  0.25611007107E+02  0.47787277819E+02  0.20000030889E+02 0.  0.
        -12    1    1    2    0    0  0.32964412093E+02  0.11876301450E+02 -0.25611007107E+02  0.43400722181E+02  0.00000000000E+00 0.  1.
         11    1    3    3    0    0 -0.20639756306E+02 -0.74613548133E+01  0.86210443443E+01  0.23579519967E+02  0.51100000000E-03 0. -1.
        -11    1    3    3    0    0 -0.10984929038E+02 -0.55780141816E+01  0.18258856164E+02  0.22026546185E+02  0.51100000000E-03 0.  1.
         12    1    3    3    0    0 -0.13397267487E+01  0.11630675446E+01 -0.12688934008E+01  0.21812116672E+01  0.00000000000E+00 0. -1.
</event>
<event>
 7    1  0.2442667E-009  0.4778727E+02  0.7816164E-02  0.1312668E+00
        -11   -1    0    0    0    0  0.00000000000E+00  0.00000000000E+00  0.45593999997E+02  0.45594000000E+02  0.51100000000E-03 0. -1.
         11   -1    0    0    0    0 -0.00000000000E+00 -0.00000000000E+00 -0.45593999997E+02  0.45594000000E+02  0.51100000000E-03 0.  1.
    9900012    2    1    2    0    0 -0.33875222002E+02 -0.13378633194E+01  0.27098021987E+02  0.47787270287E+02  0.19999996548E+02 0.  0.
        -12    1    1    2    0    0  0.33875222002E+02  0.13378633194E+01 -0.27098021987E+02  0.43400729713E+02  0.00000000000E+00 0.  1.
         11    1    3    3    0    0 -0.56982971903E+01 -0.52249543067E+01  0.10032256261E+02  0.12665579510E+02  0.51100000000E-03 0. -1.
        -11    1    3    3    0    0 -0.28343236560E+02  0.49119516572E+01  0.17820234865E+02  0.33838249049E+02  0.51100000000E-03 0.  1.
        -12    1    3    3    0    0  0.16631174791E+00 -0.10248606700E+01 -0.75446913851E+00  0.12834417288E+01  0.00000000000E+00 0.  1.
</event>
<event>
 7    1  0.2442667E-009  0.4778727E+02  0.7816164E-02  0.1312668E+00
        -11   -1    0    0    0    0  0.00000000000E+00  0.00000000000E+00  0.45593999997E+02  0.45594000000E+02  0.51100000000E-03 0.  1.
         11   -1    0    0    0    0 -0.00000000000E+00 -0.00000000000E+00 -0.45593999997E+02  0.45594000000E+02  0.51100000000E-03 0. -1.
    9900012    2    1    2    0    0 -0.36240409209E+02  0.23728084544E+02 -0.26896214753E+01  0.47787270519E+02  0.19999997604E+02 0.  0.
        -12    1    1    2    0    0  0.36240409209E+02 -0.23728084544E+02  0.26896214753E+01  0.43400729481E+02  0.00000000000E+00 0.  1.
         11    1    3    3    0    0 -0.13831369179E+02  0.35172427721E+01  0.41887235998E+01  0.14873573066E+02  0.51100000000E-03 0.  1.
        -11    1    3    3    0    0 -0.30533306095E+01  0.95706765651E+01 -0.30346444694E+01  0.10494272011E+02  0.51100000000E-03 0. -1.
         12    1    3    3    0    0 -0.19355709421E+02  0.10640165207E+02 -0.38437006058E+01  0.22419425442E+02  0.00000000000E+00 0. -1.
</event>
<event>
 7    1  0.2442667E-009  0.4778727E+02  0.7816164E-02  0.1312668E+00
        -11   -1    0    0    0    0  0.00000000000E+00  0.00000000000E+00  0.45593999997E+02  0.45594000000E+02  0.51100000000E-03 0.  1.
         11   -1    0    0    0    0 -0.00000000000E+00 -0.00000000000E+00 -0.45593999997E+02  0.45594000000E+02  0.51100000000E-03 0. -1.
    9900012    2    1    2    0    0  0.22323298733E+02  0.36351815442E+02  0.79899302825E+01  0.47787272607E+02  0.20000007126E+02 0.  0.
        -12    1    1    2    0    0 -0.22323298733E+02 -0.36351815442E+02 -0.79899302825E+01  0.43400727393E+02  0.00000000000E+00 0.  1.
         11    1    3    3    0    0 -0.16129354980E+01  0.98388883104E+01  0.35638743915E+01  0.10588034995E+02  0.51100000000E-03 0. -1.
        -11    1    3    3    0    0  0.98709976569E+01  0.56935159066E+01  0.39789630189E+01  0.12069998554E+02  0.51100000000E-03 0.  1.
         12    1    3    3    0    0  0.14065236574E+02  0.20819411225E+02  0.44709287208E+00  0.25129239059E+02  0.00000000000E+00 0. -1.
</event>
<event>
 7    1  0.2442667E-009  0.4778727E+02  0.7816164E-02  0.1312668E+00
        -11   -1    0    0    0    0  0.00000000000E+00  0.00000000000E+00  0.45593999997E+02  0.45594000000E+02  0.51100000000E-03 0.  1.
         11   -1    0    0    0    0 -0.00000000000E+00 -0.00000000000E+00 -0.45593999997E+02  0.45594000000E+02  0.51100000000E-03 0. -1.
    9900012    2    1    2    0    0 -0.33776307815E+02 -0.25290006321E+02 -0.10158751851E+02  0.47787266959E+02  0.19999981373E+02 0.  0.
        -12    1    1    2    0    0  0.33776307815E+02  0.25290006321E+02  0.10158751851E+02  0.43400733041E+02  0.00000000000E+00 0.  1.
         11    1    3    3    0    0 -0.11261691840E+02 -0.82472962869E+01 -0.59896146037E+01  0.15189439835E+02  0.51100000000E-03 0. -1.
        -11    1    3    3    0    0 -0.36293286427E+01 -0.10568116525E+02 -0.57581921974E+01  0.12570357629E+02  0.51100000000E-03 0.  1.
        -12    1    3    3    0    0 -0.18885287332E+02 -0.64745935087E+01  0.15890549498E+01  0.20027469494E+02  0.00000000000E+00 0.  1.
</event>
<event>
 7    1  0.2442667E-009  0.4778727E+02  0.7816164E-02  0.1312668E+00
        -11   -1    0    0    0    0  0.00000000000E+00  0.00000000000E+00  0.45593999997E+02  0.45594000000E+02  0.51100000000E-03 0.  1.
         11   -1    0    0    0    0 -0.00000000000E+00 -0.00000000000E+00 -0.45593999997E+02  0.45594000000E+02  0.51100000000E-03 0. -1.
    9900012    2    1    2    0    0 -0.38794440833E+02 -0.19088338782E+02 -0.37749353320E+01  0.47787268972E+02  0.19999990551E+02 0.  0.
        -12    1    1    2    0    0  0.38794440833E+02  0.19088338782E+02  0.37749353320E+01  0.43400731028E+02  0.00000000000E+00 0.  1.
         11    1    3    3    0    0 -0.21230179160E+02 -0.63044955972E+01  0.25430941545E+00  0.22147953527E+02  0.51100000000E-03 0. -1.
        -11    1    3    3    0    0 -0.11525103722E+02 -0.14947778905E+02 -0.24559698013E+01  0.19034072027E+02  0.51100000000E-03 0.  1.
        -12    1    3    3    0    0 -0.60391579509E+01  0.21639357200E+01 -0.15732749461E+01  0.66052434181E+01  0.00000000000E+00 0.  1.
</event>
<event>
 7    1  0.2442667E-009  0.4778727E+02  0.7816164E-02  0.1312668E+00
        -11   -1    0    0    0    0  0.00000000000E+00  0.00000000000E+00  0.45593999997E+02  0.45594000000E+02  0.51100000000E-03 0. -1.
         11   -1    0    0    0    0 -0.00000000000E+00 -0.00000000000E+00 -0.45593999997E+02  0.45594000000E+02  0.51100000000E-03 0.  1.
    9900012    2    1    2    0    0 -0.12018801854E+02  0.35753420637E+02  0.21467758805E+02  0.47787270128E+02  0.19999995823E+02 0.  0.
        -12    1    1    2    0    0  0.12018801854E+02 -0.35753420637E+02 -0.21467758805E+02  0.43400729872E+02  0.00000000000E+00 0.  1.
         11    1    3    3    0    0 -0.10905117354E+02  0.16115819681E+02  0.59092844892E+01  0.20336196103E+02  0.51100000000E-03 0. -1.
        -11    1    3    3    0    0  0.29906689211E+01  0.11612363366E+02  0.13773783981E+02  0.18262207122E+02  0.51100000000E-03 0.  1.
        -12    1    3    3    0    0 -0.41043534209E+01  0.80252375898E+01  0.17846903351E+01  0.91888669034E+01  0.00000000000E+00 0.  1.
</event>
<event>
 7    1  0.2442667E-009  0.4778727E+02  0.7816164E-02  0.1312668E+00
        -11   -1    0    0    0    0  0.00000000000E+00  0.00000000000E+00  0.45593999997E+02  0.45594000000E+02  0.51100000000E-03 0.  1.
         11   -1    0    0    0    0 -0.00000000000E+00 -0.00000000000E+00 -0.45593999997E+02  0.45594000000E+02  0.51100000000E-03 0. -1.
    9900012    2    1    2    0    0 -0.21716386619E+02 -0.15757008902E+02 -0.34113615542E+02  0.47787267947E+02  0.19999985878E+02 0.  0.
        -12    1    1    2    0    0  0.21716386619E+02  0.15757008902E+02  0.34113615542E+02  0.43400732053E+02  0.00000000000E+00 0.  1.
         11    1    3    3    0    0  0.10536009812E+01  0.81937424438E+00 -0.76986521067E+01  0.78134943336E+01  0.51100000000E-03 0. -1.
        -11    1    3    3    0    0 -0.17952448235E+02 -0.17441988433E+02 -0.23113488757E+02  0.34069733208E+02  0.51100000000E-03 0.  1.
        -12    1    3    3    0    0 -0.48175393654E+01  0.86560528613E+00 -0.33014746792E+01  0.59040404052E+01  0.00000000000E+00 0.  1.
</event>
<event>
 7    1  0.2442667E-009  0.4778727E+02  0.7816164E-02  0.1312668E+00
        -11   -1    0    0    0    0  0.00000000000E+00  0.00000000000E+00  0.45593999997E+02  0.45594000000E+02  0.51100000000E-03 0.  1.
         11   -1    0    0    0    0 -0.00000000000E+00 -0.00000000000E+00 -0.45593999997E+02  0.45594000000E+02  0.51100000000E-03 0. -1.
    9900012    2    1    2    0    0  0.17311079874E+02  0.33201691006E+02 -0.21945331394E+02  0.47787270259E+02  0.19999996421E+02 0.  0.
        -12    1    1    2    0    0 -0.17311079874E+02 -0.33201691006E+02  0.21945331394E+02  0.43400729741E+02  0.00000000000E+00 0.  1.
         11    1    3    3    0    0  0.67680075240E+01  0.22616958981E+02 -0.20956701189E+02  0.31567642997E+02  0.51100000000E-03 0. -1.
        -11    1    3    3    0    0  0.40021338208E+01  0.41153997267E+00  0.41193399108E+00  0.40442712746E+01  0.51100000000E-03 0.  1.
         12    1    3    3    0    0  0.65409385288E+01  0.10173192052E+02 -0.14005641960E+01  0.12175355988E+02  0.00000000000E+00 0. -1.
</event>
<event>
 7    1  0.2442667E-009  0.4778726E+02  0.7816164E-02  0.1312668E+00
        -11   -1    0    0    0    0  0.00000000000E+00  0.00000000000E+00  0.45593999997E+02  0.45594000000E+02  0.51100000000E-03 0.  1.
         11   -1    0    0    0    0 -0.00000000000E+00 -0.00000000000E+00 -0.45593999997E+02  0.45594000000E+02  0.51100000000E-03 0. -1.
    9900012    2    1    2    0    0  0.14876260799E+02  0.37638914947E+02 -0.15672697921E+02  0.47787256759E+02  0.19999934867E+02 0.  0.
        -12    1    1    2    0    0 -0.14876260799E+02 -0.37638914947E+02  0.15672697921E+02  0.43400743241E+02  0.00000000000E+00 0.  1.
         11    1    3    3    0    0 -0.25377675516E+01  0.12340693029E+02 -0.31309243021E+01  0.12982128324E+02  0.51100000000E-03 0. -1.
        -11    1    3    3    0    0  0.11378676929E+02  0.77553077567E+01 -0.37285350085E+01  0.14266080773E+02  0.51100000000E-03 0.  1.
         12    1    3    3    0    0  0.60353514215E+01  0.17542914162E+02 -0.88132386100E+01  0.20539047662E+02  0.00000000000E+00 0. -1.
</event>
<event>
 7    1  0.2442667E-009  0.4778727E+02  0.7816164E-02  0.1312668E+00
        -11   -1    0    0    0    0  0.00000000000E+00  0.00000000000E+00  0.45593999997E+02  0.45594000000E+02  0.51100000000E-03 0.  1.
         11   -1    0    0    0    0 -0.00000000000E+00 -0.00000000000E+00 -0.45593999997E+02  0.45594000000E+02  0.51100000000E-03 0. -1.
    9900012    2    1    2    0    0 -0.84723748597E+01 -0.10695796239E+02 -0.41200029371E+02  0.47787267136E+02  0.19999982179E+02 0.  0.
        -12    1    1    2    0    0  0.84723748597E+01  0.10695796239E+02  0.41200029371E+02  0.43400732864E+02  0.00000000000E+00 0.  1.
         11    1    3    3    0    0  0.26485794544E+01 -0.38755123633E+01 -0.16682767093E+02  0.17330588200E+02  0.51100000000E-03 0. -1.
        -11    1    3    3    0    0 -0.72287193077E+01  0.19057755825E+01 -0.58732661318E+01  0.95069247770E+01  0.51100000000E-03 0.  1.
        -12    1    3    3    0    0 -0.38922350064E+01 -0.87260594579E+01 -0.18643996146E+02  0.20949754159E+02  0.00000000000E+00 0.  1.
</event>
<event>
 7    1  0.2442667E-009  0.4778727E+02  0.7816164E-02  0.1312668E+00
        -11   -1    0    0    0    0  0.00000000000E+00  0.00000000000E+00  0.45593999997E+02  0.45594000000E+02  0.51100000000E-03 0.  1.
         11   -1    0    0    0    0 -0.00000000000E+00 -0.00000000000E+00 -0.45593999997E+02  0.45594000000E+02  0.51100000000E-03 0. -1.
    9900012    2    1    2    0    0 -0.18592122567E+02  0.19880240825E+02 -0.33804323374E+02  0.47787271025E+02  0.19999999911E+02 0.  0.
        -12    1    1    2    0    0  0.18592122567E+02 -0.19880240825E+02  0.33804323374E+02  0.43400728975E+02  0.00000000000E+00 0.  1.
         11    1    3    3    0    0 -0.11570626349E+02  0.15801538930E+01 -0.12321815021E+02  0.16976554601E+02  0.51100000000E-03 0. -1.
        -11    1    3    3    0    0 -0.14871874243E+01  0.46915178409E+01 -0.16877432623E+00  0.49244848585E+01  0.51100000000E-03 0.  1.
         12    1    3    3    0    0 -0.55343087941E+01  0.13608569091E+02 -0.21313734026E+02  0.25886231566E+02  0.00000000000E+00 0. -1.
</event>
<event>
 7    1  0.2442667E-009  0.4778727E+02  0.7816164E-02  0.1312668E+00
        -11   -1    0    0    0    0  0.00000000000E+00  0.00000000000E+00  0.45593999997E+02  0.45594000000E+02  0.51100000000E-03 0.  1.
         11   -1    0    0    0    0 -0.00000000000E+00 -0.00000000000E+00 -0.45593999997E+02  0.45594000000E+02  0.51100000000E-03 0. -1.
    9900012    2    1    2    0    0 -0.23700658548E+02  0.17945284123E+02 -0.31620697732E+02  0.47787274626E+02  0.20000016331E+02 0.  0.
        -12    1    1    2    0    0  0.23700658548E+02 -0.17945284123E+02  0.31620697732E+02  0.43400725374E+02  0.00000000000E+00 0.  1.
         11    1    3    3    0    0 -0.35189833220E+01  0.48870358519E+01 -0.61837005002E+01  0.86315998040E+01  0.51100000000E-03 0. -1.
        -11    1    3    3    0    0  0.16940808554E+01  0.29517504663E+01  0.83664248880E+00  0.35046699809E+01  0.51100000000E-03 0.  1.
        -12    1    3    3    0    0 -0.21875756082E+02  0.10106497805E+02 -0.26273639721E+02  0.35651004841E+02  0.00000000000E+00 0.  1.
</event>
<event>
 7    1  0.2442667E-009  0.4778727E+02  0.7816164E-02  0.1312668E+00
        -11   -1    0    0    0    0  0.00000000000E+00  0.00000000000E+00  0.45593999997E+02  0.45594000000E+02  0.51100000000E-03 0.  1.
         11   -1    0    0    0    0 -0.00000000000E+00 -0.00000000000E+00 -0.45593999997E+02  0.45594000000E+02  0.51100000000E-03 0. -1.
    9900012    2    1    2    0    0 -0.28347278707E+02  0.21652710375E+02 -0.24722767079E+02  0.47787270874E+02  0.19999999222E+02 0.  0.
        -12    1    1    2    0    0  0.28347278707E+02 -0.21652710375E+02  0.24722767079E+02  0.43400729126E+02  0.00000000000E+00 0.  1.
         11    1    3    3    0    0 -0.12456263872E+01  0.72271767627E+01  0.76689191676E+00  0.73737231117E+01  0.51100000000E-03 0. -1.
        -11    1    3    3    0    0 -0.13760949175E+02  0.61115771294E+01 -0.16364431210E+02  0.22237574200E+02  0.51100000000E-03 0.  1.
         12    1    3    3    0    0 -0.13340703145E+02  0.83139564826E+01 -0.91252277854E+01  0.18175973562E+02  0.00000000000E+00 0. -1.
</event>
<event>
 7    1  0.2442667E-009  0.4778727E+02  0.7816164E-02  0.1312668E+00
        -11   -1    0    0    0    0  0.00000000000E+00  0.00000000000E+00  0.45593999997E+02  0.45594000000E+02  0.51100000000E-03 0.  1.
         11   -1    0    0    0    0 -0.00000000000E+00 -0.00000000000E+00 -0.45593999997E+02  0.45594000000E+02  0.51100000000E-03 0. -1.
    9900012    2    1    2    0    0  0.21152276796E+02 -0.15746206439E+02 -0.34471170027E+02  0.47787269662E+02  0.19999993698E+02 0.  0.
        -12    1    1    2    0    0 -0.21152276796E+02  0.15746206439E+02  0.34471170027E+02  0.43400730338E+02  0.00000000000E+00 0.  1.
         11    1    3    3    0    0 -0.67666267346E+00 -0.58543396488E+01 -0.16359079696E+02  0.17388233201E+02  0.51100000000E-03 0. -1.
        -11    1    3    3    0    0  0.15360080779E+02 -0.74894835795E+01 -0.10203499712E+02  0.19903161871E+02  0.51100000000E-03 0.  1.
         12    1    3    3    0    0  0.64688586900E+01 -0.24023832105E+01 -0.79085906186E+01  0.10495874590E+02  0.00000000000E+00 0. -1.
</event>
<event>
 7    1  0.2442667E-009  0.4778728E+02  0.7816164E-02  0.1312668E+00
        -11   -1    0    0    0    0  0.00000000000E+00  0.00000000000E+00  0.45593999997E+02  0.45594000000E+02  0.51100000000E-03 0.  1.
         11   -1    0    0    0    0 -0.00000000000E+00 -0.00000000000E+00 -0.45593999997E+02  0.45594000000E+02  0.51100000000E-03 0. -1.
    9900012    2    1    2    0    0 -0.26869390574E+02 -0.12067968524E+02 -0.31875113470E+02  0.47787275665E+02  0.20000021065E+02 0.  0.
        -12    1    1    2    0    0  0.26869390574E+02  0.12067968524E+02  0.31875113470E+02  0.43400724335E+02  0.00000000000E+00 0.  1.
         11    1    3    3    0    0 -0.13642987066E+02 -0.54042641812E+01 -0.16797588795E+02  0.22304621875E+02  0.51100000000E-03 0. -1.
        -11    1    3    3    0    0 -0.42926027557E+01 -0.14393251048E+01  0.24349549851E+01  0.51407296384E+01  0.51100000000E-03 0.  1.
        -12    1    3    3    0    0 -0.89338007519E+01 -0.52243792382E+01 -0.17512479661E+02  0.20341924151E+02  0.00000000000E+00 0.  1.
</event>
<event>
 7    1  0.2442667E-009  0.4778727E+02  0.7816164E-02  0.1312668E+00
        -11   -1    0    0    0    0  0.00000000000E+00  0.00000000000E+00  0.45593999997E+02  0.45594000000E+02  0.51100000000E-03 0.  1.
         11   -1    0    0    0    0 -0.00000000000E+00 -0.00000000000E+00 -0.45593999997E+02  0.45594000000E+02  0.51100000000E-03 0. -1.
    9900012    2    1    2    0    0  0.19933701058E+02 -0.37473000525E+02  0.90578613584E+01  0.47787273524E+02  0.20000011307E+02 0.  0.
        -12    1    1    2    0    0 -0.19933701058E+02  0.37473000525E+02 -0.90578613584E+01  0.43400726476E+02  0.00000000000E+00 0.  1.
         11    1    3    3    0    0  0.14679307346E+02 -0.37919970509E+02  0.67860726669E+01  0.41224471010E+02  0.51100000000E-03 0. -1.
        -11    1    3    3    0    0  0.51444548258E+01 -0.37531553925E+00  0.24560123761E+01  0.57129917085E+01  0.51100000000E-03 0.  1.
         12    1    3    3    0    0  0.10993888544E+00  0.82228552284E+00 -0.18422368465E+00  0.84981080576E+00  0.00000000000E+00 0. -1.
</event>
<event>
 7    1  0.2442667E-009  0.4778727E+02  0.7816164E-02  0.1312668E+00
        -11   -1    0    0    0    0  0.00000000000E+00  0.00000000000E+00  0.45593999997E+02  0.45594000000E+02  0.51100000000E-03 0.  1.
         11   -1    0    0    0    0 -0.00000000000E+00 -0.00000000000E+00 -0.45593999997E+02  0.45594000000E+02  0.51100000000E-03 0. -1.
    9900012    2    1    2    0    0 -0.33377685256E+02 -0.19812744479E+02  0.19416702519E+02  0.47787273583E+02  0.20000011573E+02 0.  0.
        -12    1    1    2    0    0  0.33377685256E+02  0.19812744479E+02 -0.19416702519E+02  0.43400726417E+02  0.00000000000E+00 0.  1.
         11    1    3    3    0    0 -0.13629028518E+02 -0.17812908690E+01  0.16797779919E+01  0.13847204406E+02  0.51100000000E-03 0. -1.
        -11    1    3    3    0    0 -0.16965775407E+02 -0.17474848269E+02  0.11187879568E+02  0.26802546645E+02  0.51100000000E-03 0.  1.
         12    1    3    3    0    0 -0.27828813310E+01 -0.55660534114E+00  0.65490449587E+01  0.71375225310E+01  0.00000000000E+00 0. -1.
</event>
<event>
 7    1  0.2442667E-009  0.4778727E+02  0.7816164E-02  0.1312668E+00
        -11   -1    0    0    0    0  0.00000000000E+00  0.00000000000E+00  0.45593999997E+02  0.45594000000E+02  0.51100000000E-03 0.  1.
         11   -1    0    0    0    0 -0.00000000000E+00 -0.00000000000E+00 -0.45593999997E+02  0.45594000000E+02  0.51100000000E-03 0. -1.
    9900012    2    1    2    0    0 -0.10791273178E+01 -0.43369342973E+02  0.12484831111E+01  0.47787272636E+02  0.20000007255E+02 0.  0.
        -12    1    1    2    0    0  0.10791273178E+01  0.43369342973E+02 -0.12484831111E+01  0.43400727364E+02  0.00000000000E+00 0.  1.
         11    1    3    3    0    0  0.75648269280E+00 -0.13570169840E+02 -0.35587988266E+01  0.14049442156E+02  0.51100000000E-03 0. -1.
        -11    1    3    3    0    0  0.50028802284E+01 -0.36509977655E+01  0.22501371808E+01  0.65895153735E+01  0.51100000000E-03 0.  1.
        -12    1    3    3    0    0 -0.68384902390E+01 -0.26148175368E+02  0.25571447569E+01  0.27148315106E+02  0.00000000000E+00 0.  1.
</event>
<event>
 7    1  0.2442667E-009  0.4778727E+02  0.7816164E-02  0.1312668E+00
        -11   -1    0    0    0    0  0.00000000000E+00  0.00000000000E+00  0.45593999997E+02  0.45594000000E+02  0.51100000000E-03 0.  1.
         11   -1    0    0    0    0 -0.00000000000E+00 -0.00000000000E+00 -0.45593999997E+02  0.45594000000E+02  0.51100000000E-03 0. -1.
    9900012    2    1    2    0    0  0.69476998924E+01 -0.42534068523E+02 -0.51191329642E+01  0.47787273724E+02  0.20000012219E+02 0.  0.
        -12    1    1    2    0    0 -0.69476998924E+01  0.42534068523E+02  0.51191329642E+01  0.43400726276E+02  0.00000000000E+00 0.  1.
         11    1    3    3    0    0  0.25206138995E+01 -0.32411283066E+02  0.22642031334E+01  0.32587902364E+02  0.51100000000E-03 0. -1.
        -11    1    3    3    0    0  0.96927496548E+00 -0.28861194023E+01  0.13601416469E+01  0.33345411564E+01  0.51100000000E-03 0.  1.
         12    1    3    3    0    0  0.34578110274E+01 -0.72366660549E+01 -0.87434777445E+01  0.11864830204E+02  0.00000000000E+00 0. -1.
</event>
<event>
 7    1  0.2442667E-009  0.4778727E+02  0.7816164E-02  0.1312668E+00
        -11   -1    0    0    0    0  0.00000000000E+00  0.00000000000E+00  0.45593999997E+02  0.45594000000E+02  0.51100000000E-03 0.  1.
         11   -1    0    0    0    0 -0.00000000000E+00 -0.00000000000E+00 -0.45593999997E+02  0.45594000000E+02  0.51100000000E-03 0. -1.
    9900012    2    1    2    0    0  0.64366906496E+00 -0.43177690934E+02 -0.43469613645E+01  0.47787269852E+02  0.19999994565E+02 0.  0.
        -12    1    1    2    0    0 -0.64366906496E+00  0.43177690934E+02  0.43469613645E+01  0.43400730148E+02  0.00000000000E+00 0.  1.
         11    1    3    3    0    0  0.28865411217E+00 -0.68926453535E+00 -0.17553296251E+01  0.19077707278E+01  0.51100000000E-03 0.  1.
        -11    1    3    3    0    0  0.65403896375E+01 -0.70870552497E+01  0.13029043936E+01  0.97314237829E+01  0.51100000000E-03 0. -1.
        -12    1    3    3    0    0 -0.61853746847E+01 -0.35401371149E+02 -0.38945361330E+01  0.36148075342E+02  0.00000000000E+00 0.  1.
</event>
<event>
 7    1  0.2442667E-009  0.4778727E+02  0.7816164E-02  0.1312668E+00
        -11   -1    0    0    0    0  0.00000000000E+00  0.00000000000E+00  0.45593999997E+02  0.45594000000E+02  0.51100000000E-03 0.  1.
         11   -1    0    0    0    0 -0.00000000000E+00 -0.00000000000E+00 -0.45593999997E+02  0.45594000000E+02  0.51100000000E-03 0. -1.
    9900012    2    1    2    0    0  0.25558450151E+02  0.86206420744E+01 -0.34001077143E+02  0.47787273154E+02  0.20000009617E+02 0.  0.
        -12    1    1    2    0    0 -0.25558450151E+02 -0.86206420744E+01  0.34001077143E+02  0.43400726846E+02  0.00000000000E+00 0.  1.
         11    1    3    3    0    0  0.58868599239E+01 -0.67114596426E+00 -0.73646490191E+01  0.94521749933E+01  0.51100000000E-03 0. -1.
        -11    1    3    3    0    0  0.58554536336E+01  0.11178640542E+02 -0.75772964355E+01  0.14719502816E+02  0.51100000000E-03 0.  1.
        -12    1    3    3    0    0  0.13816136594E+02 -0.18868525034E+01 -0.19059131688E+02  0.23615595344E+02  0.00000000000E+00 0.  1.
</event>
<event>
 7    1  0.2442667E-009  0.4778727E+02  0.7816164E-02  0.1312668E+00
        -11   -1    0    0    0    0  0.00000000000E+00  0.00000000000E+00  0.45593999997E+02  0.45594000000E+02  0.51100000000E-03 0. -1.
         11   -1    0    0    0    0 -0.00000000000E+00 -0.00000000000E+00 -0.45593999997E+02  0.45594000000E+02  0.51100000000E-03 0.  1.
    9900012    2    1    2    0    0 -0.38361042741E+02 -0.40533410066E+01  0.19890301016E+02  0.47787271342E+02  0.20000001358E+02 0.  0.
        -12    1    1    2    0    0  0.38361042741E+02  0.40533410066E+01 -0.19890301016E+02  0.43400728658E+02  0.00000000000E+00 0.  1.
         11    1    3    3    0    0 -0.33883177390E+02 -0.17190130211E+01  0.21582168037E+02  0.40209634333E+02  0.51100000000E-03 0. -1.
        -11    1    3    3    0    0 -0.33035272885E+01 -0.36657556867E+01  0.25701628948E+00  0.49413677190E+01  0.51100000000E-03 0.  1.
         12    1    3    3    0    0 -0.11743380632E+01  0.13314277012E+01 -0.19488833108E+01  0.26362692900E+01  0.00000000000E+00 0. -1.
</event>
<event>
 7    1  0.2442667E-009  0.4778727E+02  0.7816164E-02  0.1312668E+00
        -11   -1    0    0    0    0  0.00000000000E+00  0.00000000000E+00  0.45593999997E+02  0.45594000000E+02  0.51100000000E-03 0.  1.
         11   -1    0    0    0    0 -0.00000000000E+00 -0.00000000000E+00 -0.45593999997E+02  0.45594000000E+02  0.51100000000E-03 0. -1.
    9900012    2    1    2    0    0 -0.15548850655E+02 -0.31482162070E+02 -0.25509408008E+02  0.47787272101E+02  0.20000004816E+02 0.  0.
        -12    1    1    2    0    0  0.15548850655E+02  0.31482162070E+02  0.25509408008E+02  0.43400727899E+02  0.00000000000E+00 0.  1.
         11    1    3    3    0    0 -0.13093334890E+02 -0.19059733035E+02 -0.11021666468E+02  0.25616127223E+02  0.51100000000E-03 0. -1.
        -11    1    3    3    0    0 -0.44957094770E+01 -0.23040681639E+01 -0.93867943642E+00  0.51382149771E+01  0.51100000000E-03 0.  1.
         12    1    3    3    0    0  0.20401937129E+01 -0.10118360871E+02 -0.13549062104E+02  0.17032929901E+02  0.00000000000E+00 0. -1.
</event>
<event>
 7    1  0.2442667E-009  0.4778727E+02  0.7816164E-02  0.1312668E+00
        -11   -1    0    0    0    0  0.00000000000E+00  0.00000000000E+00  0.45593999997E+02  0.45594000000E+02  0.51100000000E-03 0.  1.
         11   -1    0    0    0    0 -0.00000000000E+00 -0.00000000000E+00 -0.45593999997E+02  0.45594000000E+02  0.51100000000E-03 0. -1.
    9900012    2    1    2    0    0  0.20795502131E+02  0.35201819726E+02 -0.14560288507E+02  0.47787273943E+02  0.20000013214E+02 0.  0.
        -12    1    1    2    0    0 -0.20795502131E+02 -0.35201819726E+02  0.14560288507E+02  0.43400726057E+02  0.00000000000E+00 0.  1.
         11    1    3    3    0    0  0.18035158096E+02  0.25412734008E+02 -0.95446913341E+01  0.32591028063E+02  0.51100000000E-03 0. -1.
        -11    1    3    3    0    0 -0.18051194144E+00 -0.26655187593E+00  0.23611132330E+01  0.23829583344E+01  0.51100000000E-03 0.  1.
         12    1    3    3    0    0  0.29408559769E+01  0.10055637594E+02 -0.73767104055E+01  0.12813287545E+02  0.00000000000E+00 0. -1.
</event>
<event>
 7    1  0.2442667E-009  0.4778726E+02  0.7816164E-02  0.1312668E+00
        -11   -1    0    0    0    0  0.00000000000E+00  0.00000000000E+00  0.45593999997E+02  0.45594000000E+02  0.51100000000E-03 0.  1.
         11   -1    0    0    0    0 -0.00000000000E+00 -0.00000000000E+00 -0.45593999997E+02  0.45594000000E+02  0.51100000000E-03 0. -1.
    9900012    2    1    2    0    0  0.22739042519E+02 -0.26911449665E+02 -0.25344302151E+02  0.47787264645E+02  0.19999970825E+02 0.  0.
        -12    1    1    2    0    0 -0.22739042519E+02  0.26911449665E+02  0.25344302151E+02  0.43400735355E+02  0.00000000000E+00 0.  1.
         11    1    3    3    0    0  0.22348784440E+01 -0.85978232342E+01 -0.56528192623E+01  0.10529558960E+02  0.51100000000E-03 0. -1.
        -11    1    3    3    0    0  0.14647115606E+02 -0.47483152402E+01 -0.44453012572E+01  0.16026390633E+02  0.51100000000E-03 0.  1.
        -12    1    3    3    0    0  0.58570484685E+01 -0.13565311191E+02 -0.15246181632E+02  0.21231315052E+02  0.00000000000E+00 0.  1.
</event>
<event>
 7    1  0.2442667E-009  0.4778727E+02  0.7816164E-02  0.1312668E+00
        -11   -1    0    0    0    0  0.00000000000E+00  0.00000000000E+00  0.45593999997E+02  0.45594000000E+02  0.51100000000E-03 0.  1.
         11   -1    0    0    0    0 -0.00000000000E+00 -0.00000000000E+00 -0.45593999997E+02  0.45594000000E+02  0.51100000000E-03 0. -1.
    9900012    2    1    2    0    0 -0.28133179274E+02  0.30979934878E+02  0.11506132465E+02  0.47787271603E+02  0.20000002548E+02 0.  0.
        -12    1    1    2    0    0  0.28133179274E+02 -0.30979934878E+02 -0.11506132465E+02  0.43400728397E+02  0.00000000000E+00 0.  1.
         11    1    3    3    0    0 -0.34017046123E+00  0.13769455982E+00  0.31913001276E+01  0.32123313185E+01  0.51100000000E-03 0.  1.
        -11    1    3    3    0    0 -0.15607448690E+02  0.26604655641E+02  0.49230610988E+01  0.31235183483E+02  0.51100000000E-03 0. -1.
        -12    1    3    3    0    0 -0.12185560123E+02  0.42375846772E+01  0.33917712388E+01  0.13339756802E+02  0.00000000000E+00 0.  1.
</event>
<event>
 7    1  0.2442667E-009  0.4778725E+02  0.7816164E-02  0.1312668E+00
        -11   -1    0    0    0    0  0.00000000000E+00  0.00000000000E+00  0.45593999997E+02  0.45594000000E+02  0.51100000000E-03 0.  1.
         11   -1    0    0    0    0 -0.00000000000E+00 -0.00000000000E+00 -0.45593999997E+02  0.45594000000E+02  0.51100000000E-03 0. -1.
    9900012    2    1    2    0    0  0.69188043431E+01 -0.20823139624E+02 -0.37445321892E+02  0.47787249673E+02  0.19999902561E+02 0.  0.
        -12    1    1    2    0    0 -0.69188043431E+01  0.20823139624E+02  0.37445321892E+02  0.43400750327E+02  0.00000000000E+00 0.  1.
         11    1    3    3    0    0 -0.65969905603E+01 -0.36002761122E+01 -0.11004659721E+02  0.13326095016E+02  0.51100000000E-03 0. -1.
        -11    1    3    3    0    0  0.63644958670E+01 -0.97255679885E+01 -0.12201908910E+02  0.16851707974E+02  0.51100000000E-03 0.  1.
         12    1    3    3    0    0  0.71512990364E+01 -0.74972955234E+01 -0.14238753261E+02  0.17609446683E+02  0.00000000000E+00 0. -1.
</event>
<event>
 7    1  0.2442667E-009  0.4778728E+02  0.7816164E-02  0.1312668E+00
        -11   -1    0    0    0    0  0.00000000000E+00  0.00000000000E+00  0.45593999997E+02  0.45594000000E+02  0.51100000000E-03 0.  1.
         11   -1    0    0    0    0 -0.00000000000E+00 -0.00000000000E+00 -0.45593999997E+02  0.45594000000E+02  0.51100000000E-03 0. -1.
    9900012    2    1    2    0    0 -0.30555302136E+02 -0.24010602805E+02 -0.19325803766E+02  0.47787283106E+02  0.20000054992E+02 0.  0.
        -12    1    1    2    0    0  0.30555302136E+02  0.24010602805E+02  0.19325803766E+02  0.43400716894E+02  0.00000000000E+00 0.  1.
         11    1    3    3    0    0 -0.12711400161E+02 -0.16620405797E+02 -0.95172494272E+01  0.22986857546E+02  0.51100000000E-03 0. -1.
        -11    1    3    3    0    0 -0.11870225464E+02 -0.33248681297E+01  0.35249210979E+00  0.12332122753E+02  0.51100000000E-03 0.  1.
        -12    1    3    3    0    0 -0.59736765113E+01 -0.40653288788E+01 -0.10161046449E+02  0.12468302807E+02  0.00000000000E+00 0.  1.
</event>
<event>
 7    1  0.2442667E-009  0.4778727E+02  0.7816164E-02  0.1312668E+00
        -11   -1    0    0    0    0  0.00000000000E+00  0.00000000000E+00  0.45593999997E+02  0.45594000000E+02  0.51100000000E-03 0.  1.
         11   -1    0    0    0    0 -0.00000000000E+00 -0.00000000000E+00 -0.45593999997E+02  0.45594000000E+02  0.51100000000E-03 0. -1.
    9900012    2    1    2    0    0  0.14932139169E+02  0.66414693608E+01 -0.40206286187E+02  0.47787270232E+02  0.19999996296E+02 0.  0.
        -12    1    1    2    0    0 -0.14932139169E+02 -0.66414693608E+01  0.40206286187E+02  0.43400729768E+02  0.00000000000E+00 0.  1.
         11    1    3    3    0    0  0.15156876851E+02 -0.31281895349E+01 -0.28431011404E+02  0.32370339747E+02  0.51100000000E-03 0. -1.
        -11    1    3    3    0    0  0.20062135369E+00  0.72671424067E+01 -0.75022043262E+01  0.10446754410E+02  0.51100000000E-03 0.  1.
         12    1    3    3    0    0 -0.42535903533E+00  0.25025164890E+01 -0.42730704572E+01  0.49701760752E+01  0.00000000000E+00 0. -1.
</event>
<event>
 7    1  0.2442667E-009  0.4778727E+02  0.7816164E-02  0.1312668E+00
        -11   -1    0    0    0    0  0.00000000000E+00  0.00000000000E+00  0.45593999997E+02  0.45594000000E+02  0.51100000000E-03 0.  1.
         11   -1    0    0    0    0 -0.00000000000E+00 -0.00000000000E+00 -0.45593999997E+02  0.45594000000E+02  0.51100000000E-03 0. -1.
    9900012    2    1    2    0    0 -0.11113850825E+02 -0.74821408453E+01 -0.41281031423E+02  0.47787266514E+02  0.19999979342E+02 0.  0.
        -12    1    1    2    0    0  0.11113850825E+02  0.74821408453E+01  0.41281031423E+02  0.43400733486E+02  0.00000000000E+00 0.  1.
         11    1    3    3    0    0 -0.49871935884E+01  0.52405770060E+01 -0.16651856342E+02  0.18155441805E+02  0.51100000000E-03 0. -1.
        -11    1    3    3    0    0 -0.36319340379E+00 -0.15806345260E+01  0.36848083541E+00  0.16631576416E+01  0.51100000000E-03 0.  1.
         12    1    3    3    0    0 -0.57634638329E+01 -0.11142083325E+02 -0.24997655916E+02  0.27968667067E+02  0.00000000000E+00 0. -1.
</event>
<event>
 7    1  0.2442667E-009  0.4778727E+02  0.7816164E-02  0.1312668E+00
        -11   -1    0    0    0    0  0.00000000000E+00  0.00000000000E+00  0.45593999997E+02  0.45594000000E+02  0.51100000000E-03 0.  1.
         11   -1    0    0    0    0 -0.00000000000E+00 -0.00000000000E+00 -0.45593999997E+02  0.45594000000E+02  0.51100000000E-03 0. -1.
    9900012    2    1    2    0    0  0.42796597115E+01  0.42043140421E+02  0.98834309608E+01  0.47787270153E+02  0.19999995935E+02 0.  0.
        -12    1    1    2    0    0 -0.42796597115E+01 -0.42043140421E+02 -0.98834309608E+01  0.43400729847E+02  0.00000000000E+00 0.  1.
         11    1    3    3    0    0 -0.65794571978E+01  0.20412797451E+02  0.73032302279E+01  0.22656317635E+02  0.51100000000E-03 0. -1.
        -11    1    3    3    0    0  0.87317297123E+01  0.15283213644E+02 -0.82391725733E+00  0.17620969411E+02  0.51100000000E-03 0.  1.
         12    1    3    3    0    0  0.21273871970E+01  0.63471293262E+01  0.34041179902E+01  0.75099831065E+01  0.00000000000E+00 0. -1.
</event>
<event>
 7    1  0.2442667E-009  0.4778727E+02  0.7816164E-02  0.1312668E+00
        -11   -1    0    0    0    0  0.00000000000E+00  0.00000000000E+00  0.45593999997E+02  0.45594000000E+02  0.51100000000E-03 0.  1.
         11   -1    0    0    0    0 -0.00000000000E+00 -0.00000000000E+00 -0.45593999997E+02  0.45594000000E+02  0.51100000000E-03 0. -1.
    9900012    2    1    2    0    0 -0.29251078450E+02  0.16484266393E+02 -0.27500300443E+02  0.47787272432E+02  0.20000006324E+02 0.  0.
        -12    1    1    2    0    0  0.29251078450E+02 -0.16484266393E+02  0.27500300443E+02  0.43400727568E+02  0.00000000000E+00 0.  1.
         11    1    3    3    0    0 -0.13643625305E+02  0.24272719787E+01 -0.14995907919E+02  0.20418555661E+02  0.51100000000E-03 0. -1.
        -11    1    3    3    0    0 -0.39197962645E+01  0.73959987279E+01  0.84959844568E+00  0.84135258791E+01  0.51100000000E-03 0.  1.
         12    1    3    3    0    0 -0.11687656881E+02  0.66609956859E+01 -0.13353990970E+02  0.18955190891E+02  0.00000000000E+00 0. -1.
</event>
<event>
 7    1  0.2442667E-009  0.4778727E+02  0.7816164E-02  0.1312668E+00
        -11   -1    0    0    0    0  0.00000000000E+00  0.00000000000E+00  0.45593999997E+02  0.45594000000E+02  0.51100000000E-03 0. -1.
         11   -1    0    0    0    0 -0.00000000000E+00 -0.00000000000E+00 -0.45593999997E+02  0.45594000000E+02  0.51100000000E-03 0.  1.
    9900012    2    1    2    0    0 -0.15399081545E+02 -0.37598078177E+02  0.15260273035E+02  0.47787272723E+02  0.20000007655E+02 0.  0.
        -12    1    1    2    0    0  0.15399081545E+02  0.37598078177E+02 -0.15260273035E+02  0.43400727277E+02  0.00000000000E+00 0.  1.
         11    1    3    3    0    0 -0.75512987391E+01 -0.16447605947E+02  0.14529677592E+02  0.23208993628E+02  0.51100000000E-03 0. -1.
        -11    1    3    3    0    0 -0.78515266770E+01 -0.21085695185E+02 -0.13085648453E+01  0.22538086760E+02  0.51100000000E-03 0.  1.
        -12    1    3    3    0    0  0.37438714982E-02 -0.64777045134E-01  0.20391602891E+01  0.20401923358E+01  0.00000000000E+00 0.  1.
</event>
<event>
 7    1  0.2442667E-009  0.4778727E+02  0.7816164E-02  0.1312668E+00
        -11   -1    0    0    0    0  0.00000000000E+00  0.00000000000E+00  0.45593999997E+02  0.45594000000E+02  0.51100000000E-03 0.  1.
         11   -1    0    0    0    0 -0.00000000000E+00 -0.00000000000E+00 -0.45593999997E+02  0.45594000000E+02  0.51100000000E-03 0. -1.
    9900012    2    1    2    0    0 -0.11526136546E+02 -0.32124491862E+02 -0.26810230399E+02  0.47787271261E+02  0.20000000986E+02 0.  0.
        -12    1    1    2    0    0  0.11526136546E+02  0.32124491862E+02  0.26810230399E+02  0.43400728739E+02  0.00000000000E+00 0.  1.
         11    1    3    3    0    0 -0.23674716007E+01 -0.13322571447E+01 -0.53565241446E+01  0.60060121589E+01  0.51100000000E-03 0. -1.
        -11    1    3    3    0    0 -0.10042033245E+02 -0.78757837461E+01 -0.95702632463E+01  0.15951813068E+02  0.51100000000E-03 0.  1.
        -12    1    3    3    0    0  0.88336829940E+00 -0.22916450971E+02 -0.11883443008E+02  0.25829446033E+02  0.00000000000E+00 0.  1.
</event>
<event>
 7    1  0.2442667E-009  0.4778727E+02  0.7816164E-02  0.1312668E+00
        -11   -1    0    0    0    0  0.00000000000E+00  0.00000000000E+00  0.45593999997E+02  0.45594000000E+02  0.51100000000E-03 0. -1.
         11   -1    0    0    0    0 -0.00000000000E+00 -0.00000000000E+00 -0.45593999997E+02  0.45594000000E+02  0.51100000000E-03 0.  1.
    9900012    2    1    2    0    0 -0.35763379244E+02  0.20987804042E+02 -0.12810775279E+02  0.47787272164E+02  0.20000005104E+02 0.  0.
        -12    1    1    2    0    0  0.35763379244E+02 -0.20987804042E+02  0.12810775279E+02  0.43400727836E+02  0.00000000000E+00 0.  1.
         11    1    3    3    0    0  0.12543344455E+01  0.21550188685E+01 -0.27943480848E+01  0.37451091713E+01  0.51100000000E-03 0. -1.
        -11    1    3    3    0    0 -0.92020029781E+01  0.10252944800E+02 -0.30021428652E+01  0.14100092125E+02  0.51100000000E-03 0.  1.
         12    1    3    3    0    0 -0.27815710711E+02  0.85798403735E+01 -0.70142843288E+01  0.29942070868E+02  0.00000000000E+00 0. -1.
</event>
<event>
 7    1  0.2442667E-009  0.4778727E+02  0.7816164E-02  0.1312668E+00
        -11   -1    0    0    0    0  0.00000000000E+00  0.00000000000E+00  0.45593999997E+02  0.45594000000E+02  0.51100000000E-03 0.  1.
         11   -1    0    0    0    0 -0.00000000000E+00 -0.00000000000E+00 -0.45593999997E+02  0.45594000000E+02  0.51100000000E-03 0. -1.
    9900012    2    1    2    0    0 -0.29242877246E+02 -0.24136431690E+02 -0.21116583731E+02  0.47787270596E+02  0.19999997955E+02 0.  0.
        -12    1    1    2    0    0  0.29242877246E+02  0.24136431690E+02  0.21116583731E+02  0.43400729404E+02  0.00000000000E+00 0.  1.
         11    1    3    3    0    0 -0.94429245266E+01 -0.88004187352E+01 -0.18182471560E+02  0.22298396037E+02  0.51100000000E-03 0.  1.
        -11    1    3    3    0    0 -0.10650883861E+02 -0.90637490244E+01  0.11086093416E+00  0.13985891599E+02  0.51100000000E-03 0. -1.
         12    1    3    3    0    0 -0.91490688576E+01 -0.62722639305E+01 -0.30449731054E+01  0.11502982960E+02  0.00000000000E+00 0. -1.
</event>
<event>
 7    1  0.2442667E-009  0.4778727E+02  0.7816164E-02  0.1312668E+00
        -11   -1    0    0    0    0  0.00000000000E+00  0.00000000000E+00  0.45593999997E+02  0.45594000000E+02  0.51100000000E-03 0.  1.
         11   -1    0    0    0    0 -0.00000000000E+00 -0.00000000000E+00 -0.45593999997E+02  0.45594000000E+02  0.51100000000E-03 0. -1.
    9900012    2    1    2    0    0  0.15679825440E+02  0.29827717368E+02 -0.27350939147E+02  0.47787268193E+02  0.19999986998E+02 0.  0.
        -12    1    1    2    0    0 -0.15679825440E+02 -0.29827717368E+02  0.27350939147E+02  0.43400731807E+02  0.00000000000E+00 0.  1.
         11    1    3    3    0    0  0.12961338476E+02  0.14170295576E+02 -0.72285606885E+01  0.20519397206E+02  0.51100000000E-03 0. -1.
        -11    1    3    3    0    0  0.11108690173E+01  0.13889743546E+02 -0.20561813505E+02  0.24838421460E+02  0.51100000000E-03 0.  1.
        -12    1    3    3    0    0  0.16076179468E+01  0.17676782454E+01  0.43943504681E+00  0.24294495267E+01  0.00000000000E+00 0.  1.
</event>
<event>
 7    1  0.2442667E-009  0.4778727E+02  0.7816164E-02  0.1312668E+00
        -11   -1    0    0    0    0  0.00000000000E+00  0.00000000000E+00  0.45593999997E+02  0.45594000000E+02  0.51100000000E-03 0.  1.
         11   -1    0    0    0    0 -0.00000000000E+00 -0.00000000000E+00 -0.45593999997E+02  0.45594000000E+02  0.51100000000E-03 0. -1.
    9900012    2    1    2    0    0 -0.15133871380E+02  0.28778662506E+01 -0.40574710679E+02  0.47787270469E+02  0.19999997377E+02 0.  0.
        -12    1    1    2    0    0  0.15133871380E+02 -0.28778662506E+01  0.40574710679E+02  0.43400729531E+02  0.00000000000E+00 0.  1.
         11    1    3    3    0    0 -0.15478818554E+02  0.19166001303E+01 -0.40055673918E+02  0.42985162477E+02  0.51100000000E-03 0. -1.
        -11    1    3    3    0    0  0.21462028984E+00  0.27993259595E+01  0.22134801212E+00  0.28162533444E+01  0.51100000000E-03 0.  1.
        -12    1    3    3    0    0  0.13032688503E+00 -0.18380598392E+01 -0.74038477379E+00  0.19858546479E+01  0.00000000000E+00 0.  1.
</event>
<event>
 7    1  0.2442667E-009  0.4778727E+02  0.7816164E-02  0.1312668E+00
        -11   -1    0    0    0    0  0.00000000000E+00  0.00000000000E+00  0.45593999997E+02  0.45594000000E+02  0.51100000000E-03 0.  1.
         11   -1    0    0    0    0 -0.00000000000E+00 -0.00000000000E+00 -0.45593999997E+02  0.45594000000E+02  0.51100000000E-03 0. -1.
    9900012    2    1    2    0    0  0.43048055473E+02 -0.48518570708E+01 -0.26358749775E+01  0.47787269200E+02  0.19999991592E+02 0.  0.
        -12    1    1    2    0    0 -0.43048055473E+02  0.48518570708E+01  0.26358749775E+01  0.43400730800E+02  0.00000000000E+00 0.  1.
         11    1    3    3    0    0  0.10465466674E+02 -0.51475169429E+01 -0.34310584544E+01  0.12157100220E+02  0.51100000000E-03 0. -1.
        -11    1    3    3    0    0  0.28855229069E+02  0.46894388235E+01 -0.18456217668E+01  0.29292002339E+02  0.51100000000E-03 0.  1.
        -12    1    3    3    0    0  0.37273597310E+01 -0.43937789514E+01  0.26408052437E+01  0.63381666413E+01  0.00000000000E+00 0.  1.
</event>
<event>
 7    1  0.2442667E-009  0.4778728E+02  0.7816164E-02  0.1312668E+00
        -11   -1    0    0    0    0  0.00000000000E+00  0.00000000000E+00  0.45593999997E+02  0.45594000000E+02  0.51100000000E-03 0.  1.
         11   -1    0    0    0    0 -0.00000000000E+00 -0.00000000000E+00 -0.45593999997E+02  0.45594000000E+02  0.51100000000E-03 0. -1.
    9900012    2    1    2    0    0  0.15088909954E+02 -0.21216643192E+01 -0.40637988720E+02  0.47787276616E+02  0.20000025401E+02 0.  0.
        -12    1    1    2    0    0 -0.15088909954E+02  0.21216643192E+01  0.40637988720E+02  0.43400723384E+02  0.00000000000E+00 0.  1.
         11    1    3    3    0    0  0.27071325245E+01  0.29681562787E+00 -0.12443730828E+02  0.12738253539E+02  0.51100000000E-03 0. -1.
        -11    1    3    3    0    0  0.14051904475E+02 -0.36614830928E+01 -0.29293202547E+02  0.32694864942E+02  0.51100000000E-03 0.  1.
        -12    1    3    3    0    0 -0.16701270460E+01  0.12430031458E+01  0.10989446555E+01  0.23541581353E+01  0.00000000000E+00 0.  1.
</event>
<event>
 7    1  0.2442667E-009  0.4778727E+02  0.7816164E-02  0.1312668E+00
        -11   -1    0    0    0    0  0.00000000000E+00  0.00000000000E+00  0.45593999997E+02  0.45594000000E+02  0.51100000000E-03 0. -1.
         11   -1    0    0    0    0 -0.00000000000E+00 -0.00000000000E+00 -0.45593999997E+02  0.45594000000E+02  0.51100000000E-03 0.  1.
    9900012    2    1    2    0    0 -0.66907765211E+01 -0.20770370930E+02  0.37515979272E+02  0.47787268442E+02  0.19999988136E+02 0.  0.
        -12    1    1    2    0    0  0.66907765211E+01  0.20770370930E+02 -0.37515979272E+02  0.43400731558E+02  0.00000000000E+00 0.  1.
         11    1    3    3    0    0  0.36007719509E+01 -0.40419420489E+01  0.27608532975E+01  0.60766080473E+01  0.51100000000E-03 0. -1.
        -11    1    3    3    0    0 -0.11936436867E+02 -0.17548793335E+02  0.32054723569E+02  0.38444036936E+02  0.51100000000E-03 0.  1.
        -12    1    3    3    0    0  0.16448883952E+01  0.82036445452E+00  0.27004024057E+01  0.32666234591E+01  0.00000000000E+00 0.  1.
</event>
<event>
 7    1  0.2442667E-009  0.4778727E+02  0.7816164E-02  0.1312668E+00
        -11   -1    0    0    0    0  0.00000000000E+00  0.00000000000E+00  0.45593999997E+02  0.45594000000E+02  0.51100000000E-03 0.  1.
         11   -1    0    0    0    0 -0.00000000000E+00 -0.00000000000E+00 -0.45593999997E+02  0.45594000000E+02  0.51100000000E-03 0. -1.
    9900012    2    1    2    0    0 -0.12984702149E+02 -0.19627375944E+02 -0.36466244989E+02  0.47787269592E+02  0.19999993378E+02 0.  0.
        -12    1    1    2    0    0  0.12984702149E+02  0.19627375944E+02  0.36466244989E+02  0.43400730408E+02  0.00000000000E+00 0.  1.
         11    1    3    3    0    0 -0.10687486123E+02 -0.17197085043E+02 -0.19411153158E+02  0.28049152586E+02  0.51100000000E-03 0.  1.
        -11    1    3    3    0    0 -0.23488411391E+01 -0.16797120055E+01 -0.23062718746E+00  0.28968390150E+01  0.51100000000E-03 0. -1.
         12    1    3    3    0    0  0.51625112915E-01 -0.75057889569E+00 -0.16824464644E+02  0.16841277991E+02  0.00000000000E+00 0. -1.
</event>
<event>
 7    1  0.2442667E-009  0.4778727E+02  0.7816164E-02  0.1312668E+00
        -11   -1    0    0    0    0  0.00000000000E+00  0.00000000000E+00  0.45593999997E+02  0.45594000000E+02  0.51100000000E-03 0.  1.
         11   -1    0    0    0    0 -0.00000000000E+00 -0.00000000000E+00 -0.45593999997E+02  0.45594000000E+02  0.51100000000E-03 0. -1.
    9900012    2    1    2    0    0  0.16248994284E+02 -0.39839079601E+02 -0.56957051142E+01  0.47787272639E+02  0.20000007270E+02 0.  0.
        -12    1    1    2    0    0 -0.16248994284E+02  0.39839079601E+02  0.56957051142E+01  0.43400727361E+02  0.00000000000E+00 0.  1.
         11    1    3    3    0    0  0.43165397361E+01 -0.11563807550E+02 -0.43200545779E+01  0.13077348055E+02  0.51100000000E-03 0. -1.
        -11    1    3    3    0    0  0.15353128111E+02 -0.17119198305E+02 -0.14494591531E+01  0.23040972755E+02  0.51100000000E-03 0.  1.
        -12    1    3    3    0    0 -0.34206735635E+01 -0.11156073747E+02  0.73808616818E-01  0.11668951829E+02  0.00000000000E+00 0.  1.
</event>
<event>
 7    1  0.2442667E-009  0.4778724E+02  0.7816164E-02  0.1312668E+00
        -11   -1    0    0    0    0  0.00000000000E+00  0.00000000000E+00  0.45593999997E+02  0.45594000000E+02  0.51100000000E-03 0.  1.
         11   -1    0    0    0    0 -0.00000000000E+00 -0.00000000000E+00 -0.45593999997E+02  0.45594000000E+02  0.51100000000E-03 0. -1.
    9900012    2    1    2    0    0 -0.18563628550E+02  0.23613859204E+02 -0.31327350876E+02  0.47787244656E+02  0.19999879686E+02 0.  0.
        -12    1    1    2    0    0  0.18563628550E+02 -0.23613859204E+02  0.31327350876E+02  0.43400755344E+02  0.00000000000E+00 0.  1.
         11    1    3    3    0    0 -0.26644860408E+01 -0.29010915739E+01 -0.59448041698E+01  0.71313753975E+01  0.51100000000E-03 0. -1.
        -11    1    3    3    0    0 -0.43370583790E+01  0.14004122517E+02 -0.13022291386E+02  0.19608814244E+02  0.51100000000E-03 0.  1.
         12    1    3    3    0    0 -0.11562084130E+02  0.12510828261E+02 -0.12360255320E+02  0.21047055015E+02  0.00000000000E+00 0. -1.
</event>
<event>
 7    1  0.2442667E-009  0.4778727E+02  0.7816164E-02  0.1312668E+00
        -11   -1    0    0    0    0  0.00000000000E+00  0.00000000000E+00  0.45593999997E+02  0.45594000000E+02  0.51100000000E-03 0.  1.
         11   -1    0    0    0    0 -0.00000000000E+00 -0.00000000000E+00 -0.45593999997E+02  0.45594000000E+02  0.51100000000E-03 0. -1.
    9900012    2    1    2    0    0 -0.10814784670E+02  0.35904686490E+02 -0.21852171033E+02  0.47787268920E+02  0.19999990314E+02 0.  0.
        -12    1    1    2    0    0  0.10814784670E+02 -0.35904686490E+02  0.21852171033E+02  0.43400731080E+02  0.00000000000E+00 0.  1.
         11    1    3    3    0    0 -0.27938957015E+01  0.51585564302E+01 -0.66275338563E+01  0.88510317427E+01  0.51100000000E-03 0.  1.
        -11    1    3    3    0    0 -0.55008952981E+01  0.31050276616E+02 -0.17013728021E+02  0.35830803347E+02  0.51100000000E-03 0. -1.
        -12    1    3    3    0    0 -0.25199936704E+01 -0.30414655622E+00  0.17890908444E+01  0.31054338305E+01  0.00000000000E+00 0.  1.
</event>
<event>
 7    1  0.2442667E-009  0.4778727E+02  0.7816164E-02  0.1312668E+00
        -11   -1    0    0    0    0  0.00000000000E+00  0.00000000000E+00  0.45593999997E+02  0.45594000000E+02  0.51100000000E-03 0.  1.
         11   -1    0    0    0    0 -0.00000000000E+00 -0.00000000000E+00 -0.45593999997E+02  0.45594000000E+02  0.51100000000E-03 0. -1.
    9900012    2    1    2    0    0  0.60648158975E+01  0.39348371747E+02 -0.17278513433E+02  0.47787269851E+02  0.19999994559E+02 0.  0.
        -12    1    1    2    0    0 -0.60648158975E+01 -0.39348371747E+02  0.17278513433E+02  0.43400730149E+02  0.00000000000E+00 0.  1.
         11    1    3    3    0    0 -0.47912490620E+01  0.20488718825E+02 -0.90327481499E+01  0.22898345050E+02  0.51100000000E-03 0. -1.
        -11    1    3    3    0    0  0.10886310312E+02  0.19611105632E+02 -0.86439063928E+01  0.24037976918E+02  0.51100000000E-03 0.  1.
        -12    1    3    3    0    0 -0.30245352787E-01 -0.75145270947E+00  0.39814110995E+00  0.85094788287E+00  0.00000000000E+00 0.  1.
</event>
<event>
 7    1  0.2442667E-009  0.4778727E+02  0.7816164E-02  0.1312668E+00
        -11   -1    0    0    0    0  0.00000000000E+00  0.00000000000E+00  0.45593999997E+02  0.45594000000E+02  0.51100000000E-03 0. -1.
         11   -1    0    0    0    0 -0.00000000000E+00 -0.00000000000E+00 -0.45593999997E+02  0.45594000000E+02  0.51100000000E-03 0.  1.
    9900012    2    1    2    0    0 -0.14934086439E+02  0.19681686101E+02  0.35682316285E+02  0.47787269579E+02  0.19999993320E+02 0.  0.
        -12    1    1    2    0    0  0.14934086439E+02 -0.19681686101E+02 -0.35682316285E+02  0.43400730421E+02  0.00000000000E+00 0.  1.
         11    1    3    3    0    0 -0.10392663899E+02  0.14810003382E+02  0.15009636646E+02  0.23508144453E+02  0.51100000000E-03 0. -1.
        -11    1    3    3    0    0  0.15837418329E+01  0.69295529431E+00  0.14580326468E+02  0.14682450252E+02  0.51100000000E-03 0.  1.
        -12    1    3    3    0    0 -0.61251643726E+01  0.41787274247E+01  0.60923531716E+01  0.95966748746E+01  0.00000000000E+00 0.  1.
</event>
<event>
 7    1  0.2442667E-009  0.4778727E+02  0.7816164E-02  0.1312668E+00
        -11   -1    0    0    0    0  0.00000000000E+00  0.00000000000E+00  0.45593999997E+02  0.45594000000E+02  0.51100000000E-03 0.  1.
         11   -1    0    0    0    0 -0.00000000000E+00 -0.00000000000E+00 -0.45593999997E+02  0.45594000000E+02  0.51100000000E-03 0. -1.
    9900012    2    1    2    0    0 -0.22242360972E+01  0.29350758543E+02 -0.31893713080E+02  0.47787272042E+02  0.20000004547E+02 0.  0.
        -12    1    1    2    0    0  0.22242360972E+01 -0.29350758543E+02  0.31893713080E+02  0.43400727958E+02  0.00000000000E+00 0.  1.
         11    1    3    3    0    0 -0.44207791900E+01  0.23085796314E+02 -0.30008967440E+02  0.38118701541E+02  0.51100000000E-03 0. -1.
        -11    1    3    3    0    0 -0.78933382814E+00  0.30537042240E+01  0.20626188905E+01  0.37686276452E+01  0.51100000000E-03 0.  1.
         12    1    3    3    0    0  0.29858769210E+01  0.32112580050E+01 -0.39473645308E+01  0.58999428557E+01  0.00000000000E+00 0. -1.
</event>
<event>
 7    1  0.2442667E-009  0.4778727E+02  0.7816164E-02  0.1312668E+00
        -11   -1    0    0    0    0  0.00000000000E+00  0.00000000000E+00  0.45593999997E+02  0.45594000000E+02  0.51100000000E-03 0.  1.
         11   -1    0    0    0    0 -0.00000000000E+00 -0.00000000000E+00 -0.45593999997E+02  0.45594000000E+02  0.51100000000E-03 0. -1.
    9900012    2    1    2    0    0 -0.19234286749E+02 -0.12687427719E+02 -0.36778994634E+02  0.47787273565E+02  0.20000011490E+02 0.  0.
        -12    1    1    2    0    0  0.19234286749E+02  0.12687427719E+02  0.36778994634E+02  0.43400726435E+02  0.00000000000E+00 0.  1.
         11    1    3    3    0    0 -0.39762036175E+01 -0.25696050819E+01 -0.56292306098E+00  0.47675935354E+01  0.51100000000E-03 0. -1.
        -11    1    3    3    0    0 -0.75773498307E+01 -0.52730335494E+01 -0.31423713848E+02  0.32751655005E+02  0.51100000000E-03 0.  1.
        -12    1    3    3    0    0 -0.76807333012E+01 -0.48447890874E+01 -0.47923577242E+01  0.10268025024E+02  0.00000000000E+00 0.  1.
</event>
<event>
 7    1  0.2442667E-009  0.4778727E+02  0.7816164E-02  0.1312668E+00
        -11   -1    0    0    0    0  0.00000000000E+00  0.00000000000E+00  0.45593999997E+02  0.45594000000E+02  0.51100000000E-03 0. -1.
         11   -1    0    0    0    0 -0.00000000000E+00 -0.00000000000E+00 -0.45593999997E+02  0.45594000000E+02  0.51100000000E-03 0.  1.
    9900012    2    1    2    0    0  0.18333801882E+02  0.30512099240E+02  0.24829554652E+02  0.47787271024E+02  0.19999999905E+02 0.  0.
        -12    1    1    2    0    0 -0.18333801882E+02 -0.30512099240E+02 -0.24829554652E+02  0.43400728976E+02  0.00000000000E+00 0.  1.
         11    1    3    3    0    0  0.12516986554E+02  0.10268641671E+02  0.16958965826E+02  0.23446246529E+02  0.51100000000E-03 0. -1.
        -11    1    3    3    0    0  0.52203770169E+01  0.10678940760E+02 -0.83577192569E-01  0.11886929686E+02  0.51100000000E-03 0.  1.
         12    1    3    3    0    0  0.59643831097E+00  0.95645168085E+01  0.79541660190E+01  0.12454094808E+02  0.00000000000E+00 0. -1.
</event>
<event>
 7    1  0.2442667E-009  0.4778727E+02  0.7816164E-02  0.1312668E+00
        -11   -1    0    0    0    0  0.00000000000E+00  0.00000000000E+00  0.45593999997E+02  0.45594000000E+02  0.51100000000E-03 0.  1.
         11   -1    0    0    0    0 -0.00000000000E+00 -0.00000000000E+00 -0.45593999997E+02  0.45594000000E+02  0.51100000000E-03 0. -1.
    9900012    2    1    2    0    0  0.12149931709E+02 -0.32911992542E+02 -0.25550012032E+02  0.47787271798E+02  0.20000003437E+02 0.  0.
        -12    1    1    2    0    0 -0.12149931709E+02  0.32911992542E+02  0.25550012032E+02  0.43400728202E+02  0.00000000000E+00 0.  1.
         11    1    3    3    0    0  0.16249583189E+02 -0.21176050643E+02 -0.19301579122E+02  0.32939718145E+02  0.51100000000E-03 0. -1.
        -11    1    3    3    0    0 -0.35871008765E+01 -0.12002623890E+02 -0.50304369004E+01  0.13499465494E+02  0.51100000000E-03 0.  1.
         12    1    3    3    0    0 -0.51255060370E+00  0.26668199088E+00 -0.12179960096E+01  0.13480881592E+01  0.00000000000E+00 0. -1.
</event>
<event>
 7    1  0.2442667E-009  0.4778726E+02  0.7816164E-02  0.1312668E+00
        -11   -1    0    0    0    0  0.00000000000E+00  0.00000000000E+00  0.45593999997E+02  0.45594000000E+02  0.51100000000E-03 0.  1.
         11   -1    0    0    0    0 -0.00000000000E+00 -0.00000000000E+00 -0.45593999997E+02  0.45594000000E+02  0.51100000000E-03 0. -1.
    9900012    2    1    2    0    0  0.11065675772E+02 -0.27328408716E+01 -0.41877276881E+02  0.47787263618E+02  0.19999966139E+02 0.  0.
        -12    1    1    2    0    0 -0.11065675772E+02  0.27328408716E+01  0.41877276881E+02  0.43400736382E+02  0.00000000000E+00 0.  1.
         11    1    3    3    0    0  0.45803561158E+01 -0.58220071360E+01 -0.33694964713E+02  0.34499653281E+02  0.51100000000E-03 0. -1.
        -11    1    3    3    0    0  0.56056564829E+01  0.54263177082E+01 -0.51008624612E+01  0.93213253663E+01  0.51100000000E-03 0.  1.
        -12    1    3    3    0    0  0.87966317347E+00 -0.23371514437E+01 -0.30814497068E+01  0.39662849703E+01  0.00000000000E+00 0.  1.
</event>
<event>
 7    1  0.2442667E-009  0.4778727E+02  0.7816164E-02  0.1312668E+00
        -11   -1    0    0    0    0  0.00000000000E+00  0.00000000000E+00  0.45593999997E+02  0.45594000000E+02  0.51100000000E-03 0.  1.
         11   -1    0    0    0    0 -0.00000000000E+00 -0.00000000000E+00 -0.45593999997E+02  0.45594000000E+02  0.51100000000E-03 0. -1.
    9900012    2    1    2    0    0 -0.27054333779E+02 -0.26256485801E+02 -0.21500776705E+02  0.47787269341E+02  0.19999992234E+02 0.  0.
        -12    1    1    2    0    0  0.27054333779E+02  0.26256485801E+02  0.21500776705E+02  0.43400730659E+02  0.00000000000E+00 0.  1.
         11    1    3    3    0    0 -0.56544777547E+01 -0.18648712478E+02 -0.70287455350E+01  0.20715956647E+02  0.51100000000E-03 0. -1.
        -11    1    3    3    0    0 -0.19493401668E+02 -0.75327553885E+01 -0.13822416523E+02  0.25055823896E+02  0.51100000000E-03 0.  1.
         12    1    3    3    0    0 -0.19064543568E+01 -0.75017934546E-01 -0.64961464694E+00  0.20154887979E+01  0.00000000000E+00 0. -1.
</event>
<event>
 7    1  0.2442667E-009  0.4778728E+02  0.7816164E-02  0.1312668E+00
        -11   -1    0    0    0    0  0.00000000000E+00  0.00000000000E+00  0.45593999997E+02  0.45594000000E+02  0.51100000000E-03 0. -1.
         11   -1    0    0    0    0 -0.00000000000E+00 -0.00000000000E+00 -0.45593999997E+02  0.45594000000E+02  0.51100000000E-03 0.  1.
    9900012    2    1    2    0    0  0.40624934102E+02  0.14754479287E+02 -0.39424578185E+01  0.47787275312E+02  0.20000019457E+02 0.  0.
        -12    1    1    2    0    0 -0.40624934102E+02 -0.14754479287E+02  0.39424578185E+01  0.43400724688E+02  0.00000000000E+00 0.  1.
         11    1    3    3    0    0  0.45612512727E+01  0.89221992971E+01 -0.24495684081E+01  0.10315572651E+02  0.51100000000E-03 0. -1.
        -11    1    3    3    0    0  0.10609854818E+00  0.82412991358E+00 -0.81029048710E+00  0.11606110248E+01  0.51100000000E-03 0.  1.
         12    1    3    3    0    0  0.35957584281E+02  0.50081500762E+01 -0.68259892327E+00  0.36311091636E+02  0.00000000000E+00 0. -1.
</event>
<event>
 7    1  0.2442667E-009  0.4778727E+02  0.7816164E-02  0.1312668E+00
        -11   -1    0    0    0    0  0.00000000000E+00  0.00000000000E+00  0.45593999997E+02  0.45594000000E+02  0.51100000000E-03 0.  1.
         11   -1    0    0    0    0 -0.00000000000E+00 -0.00000000000E+00 -0.45593999997E+02  0.45594000000E+02  0.51100000000E-03 0. -1.
    9900012    2    1    2    0    0 -0.36451910932E+02  0.23532914045E+02 -0.10408227323E+01  0.47787272287E+02  0.20000005666E+02 0.  0.
        -12    1    1    2    0    0  0.36451910932E+02 -0.23532914045E+02  0.10408227323E+01  0.43400727713E+02  0.00000000000E+00 0.  1.
         11    1    3    3    0    0 -0.26333282319E+02  0.16298326615E+02  0.15688440449E+01  0.31008683945E+02  0.51100000000E-03 0. -1.
        -11    1    3    3    0    0 -0.18224368787E+01  0.29936422769E+01 -0.59292246555E+01  0.68875885138E+01  0.51100000000E-03 0.  1.
        -12    1    3    3    0    0 -0.82961917349E+01  0.42409451529E+01  0.33195578783E+01  0.98909998281E+01  0.00000000000E+00 0.  1.
</event>
<event>
 7    1  0.2442667E-009  0.4778727E+02  0.7816164E-02  0.1312668E+00
        -11   -1    0    0    0    0  0.00000000000E+00  0.00000000000E+00  0.45593999997E+02  0.45594000000E+02  0.51100000000E-03 0.  1.
         11   -1    0    0    0    0 -0.00000000000E+00 -0.00000000000E+00 -0.45593999997E+02  0.45594000000E+02  0.51100000000E-03 0. -1.
    9900012    2    1    2    0    0 -0.26278326529E+00 -0.25734416535E+02 -0.34947015380E+02  0.47787272663E+02  0.20000007380E+02 0.  0.
        -12    1    1    2    0    0  0.26278326529E+00  0.25734416535E+02  0.34947015380E+02  0.43400727337E+02  0.00000000000E+00 0.  1.
         11    1    3    3    0    0 -0.42085684525E+01 -0.15080460886E+02 -0.28368145454E+02  0.32401913920E+02  0.51100000000E-03 0. -1.
        -11    1    3    3    0    0 -0.36671772167E+00 -0.37898358855E+01  0.13560233278E+01  0.40417987893E+01  0.51100000000E-03 0.  1.
        -12    1    3    3    0    0  0.43125029088E+01 -0.68641197635E+01 -0.79348932536E+01  0.11343559953E+02  0.00000000000E+00 0.  1.
</event>
<event>
 7    1  0.2442667E-009  0.4778727E+02  0.7816164E-02  0.1312668E+00
        -11   -1    0    0    0    0  0.00000000000E+00  0.00000000000E+00  0.45593999997E+02  0.45594000000E+02  0.51100000000E-03 0.  1.
         11   -1    0    0    0    0 -0.00000000000E+00 -0.00000000000E+00 -0.45593999997E+02  0.45594000000E+02  0.51100000000E-03 0. -1.
    9900012    2    1    2    0    0 -0.32949728959E+02  0.15732991593E+02 -0.23460846995E+02  0.47787274146E+02  0.20000014140E+02 0.  0.
        -12    1    1    2    0    0  0.32949728959E+02 -0.15732991593E+02  0.23460846995E+02  0.43400725854E+02  0.00000000000E+00 0.  1.
         11    1    3    3    0    0 -0.53052390769E+01  0.21899983814E+01  0.26159872468E+01  0.63075386729E+01  0.51100000000E-03 0. -1.
        -11    1    3    3    0    0 -0.63334550176E+01  0.55543930288E+01 -0.12193080287E+02  0.14820092494E+02  0.51100000000E-03 0.  1.
         12    1    3    3    0    0 -0.21311034865E+02  0.79886001833E+01 -0.13883753955E+02  0.26659642979E+02  0.00000000000E+00 0. -1.
</event>
<event>
 7    1  0.2442667E-009  0.4778727E+02  0.7816164E-02  0.1312668E+00
        -11   -1    0    0    0    0  0.00000000000E+00  0.00000000000E+00  0.45593999997E+02  0.45594000000E+02  0.51100000000E-03 0. -1.
         11   -1    0    0    0    0 -0.00000000000E+00 -0.00000000000E+00 -0.45593999997E+02  0.45594000000E+02  0.51100000000E-03 0.  1.
    9900012    2    1    2    0    0  0.15176366293E+02  0.40599598706E+02  0.22302177034E+01  0.47787269822E+02  0.19999994428E+02 0.  0.
        -12    1    1    2    0    0 -0.15176366293E+02 -0.40599598706E+02 -0.22302177034E+01  0.43400730178E+02  0.00000000000E+00 0.  1.
         11    1    3    3    0    0  0.56861378590E+01  0.63587294877E+01  0.52670234058E+01  0.10025324946E+02  0.51100000000E-03 0. -1.
        -11    1    3    3    0    0 -0.23876208996E+01  0.10887459098E+02 -0.30707489264E+01  0.11561444477E+02  0.51100000000E-03 0.  1.
        -12    1    3    3    0    0  0.11877849333E+02  0.23353410120E+02  0.33943223907E-01  0.26200500399E+02  0.00000000000E+00 0.  1.
</event>
<event>
 7    1  0.2442667E-009  0.4778727E+02  0.7816164E-02  0.1312668E+00
        -11   -1    0    0    0    0  0.00000000000E+00  0.00000000000E+00  0.45593999997E+02  0.45594000000E+02  0.51100000000E-03 0. -1.
         11   -1    0    0    0    0 -0.00000000000E+00 -0.00000000000E+00 -0.45593999997E+02  0.45594000000E+02  0.51100000000E-03 0.  1.
    9900012    2    1    2    0    0 -0.38586316043E+00 -0.18438255195E+00  0.43398622472E+02  0.47787270516E+02  0.19999997588E+02 0.  0.
        -12    1    1    2    0    0  0.38586316043E+00  0.18438255195E+00 -0.43398622472E+02  0.43400729484E+02  0.00000000000E+00 0.  1.
         11    1    3    3    0    0  0.62116694478E+00  0.25896101114E+01  0.47424829970E+01  0.54390324637E+01  0.51100000000E-03 0. -1.
        -11    1    3    3    0    0 -0.13028973880E+01  0.28622090473E+01  0.35953116694E+02  0.36090391830E+02  0.51100000000E-03 0.  1.
        -12    1    3    3    0    0  0.29586728282E+00 -0.56362017107E+01  0.27030227816E+01  0.62578462214E+01  0.00000000000E+00 0.  1.
</event>
<event>
 7    1  0.2442667E-009  0.4778727E+02  0.7816164E-02  0.1312668E+00
        -11   -1    0    0    0    0  0.00000000000E+00  0.00000000000E+00  0.45593999997E+02  0.45594000000E+02  0.51100000000E-03 0.  1.
         11   -1    0    0    0    0 -0.00000000000E+00 -0.00000000000E+00 -0.45593999997E+02  0.45594000000E+02  0.51100000000E-03 0. -1.
    9900012    2    1    2    0    0 -0.43036963558E+02 -0.24090048858E+01  0.50635907756E+01  0.47787268573E+02  0.19999988731E+02 0.  0.
        -12    1    1    2    0    0  0.43036963558E+02  0.24090048858E+01 -0.50635907756E+01  0.43400731427E+02  0.00000000000E+00 0.  1.
         11    1    3    3    0    0 -0.23862898097E+02 -0.41756282435E+00 -0.43577285301E+01  0.24261122449E+02  0.51100000000E-03 0. -1.
        -11    1    3    3    0    0 -0.15781684476E+02 -0.47015216003E+01  0.98084565216E+01  0.19166942632E+02  0.51100000000E-03 0.  1.
         12    1    3    3    0    0 -0.33923809854E+01  0.27100795388E+01 -0.38713721589E+00  0.43592034915E+01  0.00000000000E+00 0. -1.
</event>
<event>
 7    1  0.2442667E-009  0.4778731E+02  0.7816164E-02  0.1312668E+00
        -11   -1    0    0    0    0  0.00000000000E+00  0.00000000000E+00  0.45593999997E+02  0.45594000000E+02  0.51100000000E-03 0.  1.
         11   -1    0    0    0    0 -0.00000000000E+00 -0.00000000000E+00 -0.45593999997E+02  0.45594000000E+02  0.51100000000E-03 0. -1.
    9900012    2    1    2    0    0  0.28820645747E+02  0.32391944340E+02 -0.19371366251E+01  0.47787306714E+02  0.20000162633E+02 0.  0.
        -12    1    1    2    0    0 -0.28820645747E+02 -0.32391944340E+02  0.19371366251E+01  0.43400693286E+02  0.00000000000E+00 0.  1.
         11    1    3    3    0    0  0.48611011186E+01  0.50417162511E+01 -0.61353319396E+01  0.93108273054E+01  0.51100000000E-03 0. -1.
        -11    1    3    3    0    0  0.75407377371E+01  0.17027308712E+02  0.41635836791E+01  0.19082122442E+02  0.51100000000E-03 0.  1.
        -12    1    3    3    0    0  0.16418806891E+02  0.10322919377E+02  0.34611635357E-01  0.19394356967E+02  0.00000000000E+00 0.  1.
</event>
<event>
 7    1  0.2442667E-009  0.4778725E+02  0.7816164E-02  0.1312668E+00
        -11   -1    0    0    0    0  0.00000000000E+00  0.00000000000E+00  0.45593999997E+02  0.45594000000E+02  0.51100000000E-03 0. -1.
         11   -1    0    0    0    0 -0.00000000000E+00 -0.00000000000E+00 -0.45593999997E+02  0.45594000000E+02  0.51100000000E-03 0.  1.
    9900012    2    1    2    0    0 -0.40204824735E+01 -0.23175959955E+02  0.36473766683E+02  0.47787250523E+02  0.19999906434E+02 0.  0.
        -12    1    1    2    0    0  0.40204824735E+01  0.23175959955E+02 -0.36473766683E+02  0.43400749477E+02  0.00000000000E+00 0.  1.
         11    1    3    3    0    0  0.48059831858E+01 -0.34372808068E+01  0.51814834768E+01  0.78587623077E+01  0.51100000000E-03 0. -1.
        -11    1    3    3    0    0 -0.11844179497E+02 -0.15206410047E+02  0.23005065814E+02  0.30012539844E+02  0.51100000000E-03 0.  1.
         12    1    3    3    0    0  0.30177138378E+01 -0.45322691006E+01  0.82872173918E+01  0.99159483715E+01  0.00000000000E+00 0. -1.
</event>
<event>
 7    1  0.2442667E-009  0.4778728E+02  0.7816164E-02  0.1312668E+00
        -11   -1    0    0    0    0  0.00000000000E+00  0.00000000000E+00  0.45593999997E+02  0.45594000000E+02  0.51100000000E-03 0.  1.
         11   -1    0    0    0    0 -0.00000000000E+00 -0.00000000000E+00 -0.45593999997E+02  0.45594000000E+02  0.51100000000E-03 0. -1.
    9900012    2    1    2    0    0  0.10833674583E+02 -0.29622227478E+02 -0.29812368316E+02  0.47787283758E+02  0.20000057965E+02 0.  0.
        -12    1    1    2    0    0 -0.10833674583E+02  0.29622227478E+02  0.29812368316E+02  0.43400716242E+02  0.00000000000E+00 0.  1.
         11    1    3    3    0    0 -0.11890332660E+01 -0.26202803809E+01 -0.51807311994E+01  0.59261830384E+01  0.51100000000E-03 0. -1.
        -11    1    3    3    0    0 -0.36336105103E+01 -0.10383798416E+02 -0.74411502023E+01  0.13281457431E+02  0.51100000000E-03 0.  1.
        -12    1    3    3    0    0  0.15656318360E+02 -0.16618148681E+02 -0.17190486914E+02  0.28579643289E+02  0.00000000000E+00 0.  1.
</event>
<event>
 7    1  0.2442667E-009  0.4778727E+02  0.7816164E-02  0.1312668E+00
        -11   -1    0    0    0    0  0.00000000000E+00  0.00000000000E+00  0.45593999997E+02  0.45594000000E+02  0.51100000000E-03 0.  1.
         11   -1    0    0    0    0 -0.00000000000E+00 -0.00000000000E+00 -0.45593999997E+02  0.45594000000E+02  0.51100000000E-03 0. -1.
    9900012    2    1    2    0    0  0.11243029342E+02 -0.40543990505E+02 -0.10649062169E+02  0.47787269592E+02  0.19999993378E+02 0.  0.
        -12    1    1    2    0    0 -0.11243029342E+02  0.40543990505E+02  0.10649062169E+02  0.43400730408E+02  0.00000000000E+00 0.  1.
         11    1    3    3    0    0 -0.26520014428E+01 -0.99140059932E+01 -0.68945840230E+01  0.12363491238E+02  0.51100000000E-03 0. -1.
        -11    1    3    3    0    0  0.12617578876E+02 -0.18959941627E+02 -0.58133742853E+01  0.23504850649E+02  0.51100000000E-03 0.  1.
        -12    1    3    3    0    0  0.12774519084E+01 -0.11670042885E+02  0.20588961393E+01  0.11918927705E+02  0.00000000000E+00 0.  1.
</event>
<event>
 7    1  0.2442667E-009  0.4778726E+02  0.7816164E-02  0.1312668E+00
        -11   -1    0    0    0    0  0.00000000000E+00  0.00000000000E+00  0.45593999997E+02  0.45594000000E+02  0.51100000000E-03 0.  1.
         11   -1    0    0    0    0 -0.00000000000E+00 -0.00000000000E+00 -0.45593999997E+02  0.45594000000E+02  0.51100000000E-03 0. -1.
    9900012    2    1    2    0    0  0.21824293746E+02  0.34153275125E+02 -0.15520256964E+02  0.47787258353E+02  0.19999942135E+02 0.  0.
        -12    1    1    2    0    0 -0.21824293746E+02 -0.34153275125E+02  0.15520256964E+02  0.43400741647E+02  0.00000000000E+00 0.  1.
         11    1    3    3    0    0  0.16477689704E+02  0.27173043690E+02 -0.11932544253E+02  0.33945164221E+02  0.51100000000E-03 0. -1.
        -11    1    3    3    0    0 -0.25251393566E+01 -0.31061778799E+00 -0.50648672273E-01  0.25446763507E+01  0.51100000000E-03 0.  1.
        -12    1    3    3    0    0  0.78717433981E+01  0.72908492230E+01 -0.35370640389E+01  0.11297417782E+02  0.00000000000E+00 0.  1.
</event>
<event>
 7    1  0.2442667E-009  0.4778727E+02  0.7816164E-02  0.1312668E+00
        -11   -1    0    0    0    0  0.00000000000E+00  0.00000000000E+00  0.45593999997E+02  0.45594000000E+02  0.51100000000E-03 0.  1.
         11   -1    0    0    0    0 -0.00000000000E+00 -0.00000000000E+00 -0.45593999997E+02  0.45594000000E+02  0.51100000000E-03 0. -1.
    9900012    2    1    2    0    0  0.20673794351E+02 -0.20077233587E+02 -0.32451845005E+02  0.47787270449E+02  0.19999997284E+02 0.  0.
        -12    1    1    2    0    0 -0.20673794351E+02  0.20077233587E+02  0.32451845005E+02  0.43400729551E+02  0.00000000000E+00 0.  1.
         11    1    3    3    0    0 -0.16688644671E+01 -0.20033585817E+01 -0.46484788378E+00  0.26485161945E+01  0.51100000000E-03 0. -1.
        -11    1    3    3    0    0  0.20282816261E+02 -0.87982762250E+01 -0.24807561504E+02  0.33229766897E+02  0.51100000000E-03 0.  1.
        -12    1    3    3    0    0  0.20598425575E+01 -0.92755987805E+01 -0.71794356172E+01  0.11908987357E+02  0.00000000000E+00 0.  1.
</event>
<event>
 7    1  0.2442667E-009  0.4778727E+02  0.7816164E-02  0.1312668E+00
        -11   -1    0    0    0    0  0.00000000000E+00  0.00000000000E+00  0.45593999997E+02  0.45594000000E+02  0.51100000000E-03 0. -1.
         11   -1    0    0    0    0 -0.00000000000E+00 -0.00000000000E+00 -0.45593999997E+02  0.45594000000E+02  0.51100000000E-03 0.  1.
    9900012    2    1    2    0    0 -0.38858972558E+02 -0.50819640579E+01  0.18648783082E+02  0.47787271695E+02  0.20000002967E+02 0.  0.
        -12    1    1    2    0    0  0.38858972558E+02  0.50819640579E+01 -0.18648783082E+02  0.43400728305E+02  0.00000000000E+00 0.  1.
         11    1    3    3    0    0 -0.24677600778E+02 -0.37017422295E+01  0.10700359277E+02  0.27151142971E+02  0.51100000000E-03 0. -1.
        -11    1    3    3    0    0 -0.21904635236E+00 -0.26049152397E+01  0.59235021945E+01  0.64746770746E+01  0.51100000000E-03 0.  1.
        -12    1    3    3    0    0 -0.13962325428E+02  0.12246934114E+01  0.20249216103E+01  0.14161451650E+02  0.00000000000E+00 0.  1.
</event>
<event>
 7    1  0.2442667E-009  0.4778727E+02  0.7816164E-02  0.1312668E+00
        -11   -1    0    0    0    0  0.00000000000E+00  0.00000000000E+00  0.45593999997E+02  0.45594000000E+02  0.51100000000E-03 0.  1.
         11   -1    0    0    0    0 -0.00000000000E+00 -0.00000000000E+00 -0.45593999997E+02  0.45594000000E+02  0.51100000000E-03 0. -1.
    9900012    2    1    2    0    0 -0.22689887343E+02  0.24342427285E+02 -0.27861052864E+02  0.47787273964E+02  0.20000013311E+02 0.  0.
        -12    1    1    2    0    0  0.22689887343E+02 -0.24342427285E+02  0.27861052864E+02  0.43400726036E+02  0.00000000000E+00 0.  1.
         11    1    3    3    0    0 -0.14836100711E+02  0.62967129505E+01 -0.15414393735E+02  0.22301614578E+02  0.51100000000E-03 0. -1.
        -11    1    3    3    0    0  0.99342492902E+00  0.96000925568E+01 -0.32541083438E+01  0.10185179997E+02  0.51100000000E-03 0.  1.
        -12    1    3    3    0    0 -0.88472115609E+01  0.84456217775E+01 -0.91925507854E+01  0.15300479390E+02  0.00000000000E+00 0.  1.
</event>
<event>
 7    1  0.2442667E-009  0.4778727E+02  0.7816164E-02  0.1312668E+00
        -11   -1    0    0    0    0  0.00000000000E+00  0.00000000000E+00  0.45593999997E+02  0.45594000000E+02  0.51100000000E-03 0. -1.
         11   -1    0    0    0    0 -0.00000000000E+00 -0.00000000000E+00 -0.45593999997E+02  0.45594000000E+02  0.51100000000E-03 0.  1.
    9900012    2    1    2    0    0 -0.38054399754E+02  0.19382774302E+02  0.77326837242E+01  0.47787266390E+02  0.19999978779E+02 0.  0.
        -12    1    1    2    0    0  0.38054399754E+02 -0.19382774302E+02 -0.77326837242E+01  0.43400733610E+02  0.00000000000E+00 0.  1.
         11    1    3    3    0    0 -0.84851254449E+00  0.10540582416E+01  0.22454868318E+01  0.26216833691E+01  0.51100000000E-03 0. -1.
        -11    1    3    3    0    0 -0.10664833121E+02  0.69410600390E+01 -0.60197620771E+01  0.14076736684E+02  0.51100000000E-03 0.  1.
        -12    1    3    3    0    0 -0.26541054089E+02  0.11387656021E+02  0.11506958970E+02  0.31088846337E+02  0.00000000000E+00 0.  1.
</event>
<event>
 7    1  0.2442667E-009  0.4778726E+02  0.7816164E-02  0.1312668E+00
        -11   -1    0    0    0    0  0.00000000000E+00  0.00000000000E+00  0.45593999997E+02  0.45594000000E+02  0.51100000000E-03 0.  1.
         11   -1    0    0    0    0 -0.00000000000E+00 -0.00000000000E+00 -0.45593999997E+02  0.45594000000E+02  0.51100000000E-03 0. -1.
    9900012    2    1    2    0    0  0.11580539841E+02  0.17227578854E+02 -0.38114635364E+02  0.47787264925E+02  0.19999972098E+02 0.  0.
        -12    1    1    2    0    0 -0.11580539841E+02 -0.17227578854E+02  0.38114635364E+02  0.43400735075E+02  0.00000000000E+00 0.  1.
         11    1    3    3    0    0  0.86702878179E+01  0.13321030923E+02 -0.22391375470E+02  0.27459014029E+02  0.51100000000E-03 0. -1.
        -11    1    3    3    0    0 -0.99785103231E+00 -0.34031243064E+01 -0.14677560681E+01  0.38381336433E+01  0.51100000000E-03 0.  1.
        -12    1    3    3    0    0  0.39081030551E+01  0.73096722369E+01 -0.14255503825E+02  0.16490117253E+02  0.00000000000E+00 0.  1.
</event>
<event>
 7    1  0.2442667E-009  0.4778727E+02  0.7816164E-02  0.1312668E+00
        -11   -1    0    0    0    0  0.00000000000E+00  0.00000000000E+00  0.45593999997E+02  0.45594000000E+02  0.51100000000E-03 0.  1.
         11   -1    0    0    0    0 -0.00000000000E+00 -0.00000000000E+00 -0.45593999997E+02  0.45594000000E+02  0.51100000000E-03 0. -1.
    9900012    2    1    2    0    0 -0.28098531107E+02  0.29334395479E+02 -0.15283614188E+02  0.47787273380E+02  0.20000010647E+02 0.  0.
        -12    1    1    2    0    0  0.28098531107E+02 -0.29334395479E+02  0.15283614188E+02  0.43400726620E+02  0.00000000000E+00 0.  1.
         11    1    3    3    0    0 -0.21664907517E+02  0.13433890166E+02 -0.11976339302E+02  0.28165055052E+02  0.51100000000E-03 0. -1.
        -11    1    3    3    0    0  0.20638959532E+01  0.46054456943E+01  0.22913776372E+00  0.50519601072E+01  0.51100000000E-03 0.  1.
         12    1    3    3    0    0 -0.84975195432E+01  0.11295059619E+02 -0.35364126491E+01  0.14570258220E+02  0.00000000000E+00 0. -1.
</event>
<event>
 7    1  0.2442667E-009  0.4778727E+02  0.7816164E-02  0.1312668E+00
        -11   -1    0    0    0    0  0.00000000000E+00  0.00000000000E+00  0.45593999997E+02  0.45594000000E+02  0.51100000000E-03 0.  1.
         11   -1    0    0    0    0 -0.00000000000E+00 -0.00000000000E+00 -0.45593999997E+02  0.45594000000E+02  0.51100000000E-03 0. -1.
    9900012    2    1    2    0    0  0.77481134171E+01 -0.82475049809E+01 -0.41899506486E+02  0.47787271392E+02  0.20000001587E+02 0.  0.
        -12    1    1    2    0    0 -0.77481134171E+01  0.82475049809E+01  0.41899506486E+02  0.43400728608E+02  0.00000000000E+00 0.  1.
         11    1    3    3    0    0 -0.62024523132E+01 -0.14615150181E+01 -0.18538705917E+02  0.19603317530E+02  0.51100000000E-03 0. -1.
        -11    1    3    3    0    0  0.92021550404E+01 -0.54590570509E+01 -0.14189358013E+02  0.17771292647E+02  0.51100000000E-03 0.  1.
         12    1    3    3    0    0  0.47484106899E+01 -0.13269329120E+01 -0.91714425551E+01  0.10412661215E+02  0.00000000000E+00 0. -1.
</event>
<event>
 7    1  0.2442667E-009  0.4778727E+02  0.7816164E-02  0.1312668E+00
        -11   -1    0    0    0    0  0.00000000000E+00  0.00000000000E+00  0.45593999997E+02  0.45594000000E+02  0.51100000000E-03 0.  1.
         11   -1    0    0    0    0 -0.00000000000E+00 -0.00000000000E+00 -0.45593999997E+02  0.45594000000E+02  0.51100000000E-03 0. -1.
    9900012    2    1    2    0    0 -0.60926090561E+01 -0.42475433358E+02 -0.65069986638E+01  0.47787270102E+02  0.19999995704E+02 0.  0.
        -12    1    1    2    0    0  0.60926090561E+01  0.42475433358E+02  0.65069986638E+01  0.43400729898E+02  0.00000000000E+00 0.  1.
         11    1    3    3    0    0 -0.61789671814E+01 -0.12686882140E+02 -0.89671393726E+01  0.16719635243E+02  0.51100000000E-03 0.  1.
        -11    1    3    3    0    0  0.13838293902E+01 -0.29545040986E+02  0.19149315291E+01  0.29639355487E+02  0.51100000000E-03 0. -1.
        -12    1    3    3    0    0 -0.12974712649E+01 -0.24351023141E+00  0.54520917960E+00  0.14282793724E+01  0.00000000000E+00 0.  1.
</event>
<event>
 7    1  0.2442667E-009  0.4778726E+02  0.7816164E-02  0.1312668E+00
        -11   -1    0    0    0    0  0.00000000000E+00  0.00000000000E+00  0.45593999997E+02  0.45594000000E+02  0.51100000000E-03 0. -1.
         11   -1    0    0    0    0 -0.00000000000E+00 -0.00000000000E+00 -0.45593999997E+02  0.45594000000E+02  0.51100000000E-03 0.  1.
    9900012    2    1    2    0    0 -0.39527576366E+02  0.14336386896E+02  0.10754683172E+02  0.47787257002E+02  0.19999935977E+02 0.  0.
        -12    1    1    2    0    0  0.39527576366E+02 -0.14336386896E+02 -0.10754683172E+02  0.43400742998E+02  0.00000000000E+00 0.  1.
         11    1    3    3    0    0 -0.36028026436E+02  0.13151033512E+02  0.97129563343E+01  0.39563997426E+02  0.51100000000E-03 0. -1.
        -11    1    3    3    0    0  0.14997481968E-01 -0.93389220351E+00 -0.25836266819E+01  0.27472725865E+01  0.51100000000E-03 0.  1.
        -12    1    3    3    0    0 -0.35145474124E+01  0.21192455876E+01  0.36253535200E+01  0.54759869904E+01  0.00000000000E+00 0.  1.
</event>
<event>
 7    1  0.2442667E-009  0.4778727E+02  0.7816164E-02  0.1312668E+00
        -11   -1    0    0    0    0  0.00000000000E+00  0.00000000000E+00  0.45593999997E+02  0.45594000000E+02  0.51100000000E-03 0.  1.
         11   -1    0    0    0    0 -0.00000000000E+00 -0.00000000000E+00 -0.45593999997E+02  0.45594000000E+02  0.51100000000E-03 0. -1.
    9900012    2    1    2    0    0  0.20628510193E+01  0.19862239677E+02 -0.38533876246E+02  0.47787268003E+02  0.19999986135E+02 0.  0.
        -12    1    1    2    0    0 -0.20628510193E+01 -0.19862239677E+02  0.38533876246E+02  0.43400731997E+02  0.00000000000E+00 0.  1.
         11    1    3    3    0    0 -0.37532844914E+01  0.16781642214E+02 -0.19715120580E+02  0.26160975510E+02  0.51100000000E-03 0. -1.
        -11    1    3    3    0    0  0.32291083167E+01 -0.18710156521E+01 -0.13141795296E+02  0.13661428327E+02  0.51100000000E-03 0.  1.
        -12    1    3    3    0    0  0.25870271941E+01  0.49516131149E+01 -0.56769603702E+01  0.79648641663E+01  0.00000000000E+00 0.  1.
</event>
<event>
 7    1  0.2442667E-009  0.4778727E+02  0.7816164E-02  0.1312668E+00
        -11   -1    0    0    0    0  0.00000000000E+00  0.00000000000E+00  0.45593999997E+02  0.45594000000E+02  0.51100000000E-03 0.  1.
         11   -1    0    0    0    0 -0.00000000000E+00 -0.00000000000E+00 -0.45593999997E+02  0.45594000000E+02  0.51100000000E-03 0. -1.
    9900012    2    1    2    0    0 -0.69290982518E+01  0.40598618345E+02 -0.13688066962E+02  0.47787269692E+02  0.19999993834E+02 0.  0.
        -12    1    1    2    0    0  0.69290982518E+01 -0.40598618345E+02  0.13688066962E+02  0.43400730308E+02  0.00000000000E+00 0.  1.
         11    1    3    3    0    0 -0.12085737518E+02  0.19934159814E+02 -0.77681984087E+01  0.24571949162E+02  0.51100000000E-03 0. -1.
        -11    1    3    3    0    0  0.59366151178E+01  0.11059622494E+02 -0.15961146242E+01  0.12653309090E+02  0.51100000000E-03 0.  1.
        -12    1    3    3    0    0 -0.77997585167E+00  0.96048360369E+01 -0.43237539295E+01  0.10562011440E+02  0.00000000000E+00 0.  1.
</event>
<event>
 7    1  0.2442667E-009  0.4778727E+02  0.7816164E-02  0.1312668E+00
        -11   -1    0    0    0    0  0.00000000000E+00  0.00000000000E+00  0.45593999997E+02  0.45594000000E+02  0.51100000000E-03 0.  1.
         11   -1    0    0    0    0 -0.00000000000E+00 -0.00000000000E+00 -0.45593999997E+02  0.45594000000E+02  0.51100000000E-03 0. -1.
    9900012    2    1    2    0    0 -0.10857179209E+02 -0.35651578975E+02 -0.22242071896E+02  0.47787272057E+02  0.20000004617E+02 0.  0.
        -12    1    1    2    0    0  0.10857179209E+02  0.35651578975E+02  0.22242071896E+02  0.43400727943E+02  0.00000000000E+00 0.  1.
         11    1    3    3    0    0 -0.59603287482E+01 -0.21729570281E+02 -0.83948503092E+01  0.24045233527E+02  0.51100000000E-03 0. -1.
        -11    1    3    3    0    0  0.27881184445E+01  0.46009174453E+00 -0.31908720243E+01  0.42622709218E+01  0.51100000000E-03 0.  1.
        -12    1    3    3    0    0 -0.76849689050E+01 -0.14382100438E+02 -0.10656349562E+02  0.19479767608E+02  0.00000000000E+00 0.  1.
</event>
<event>
 7    1  0.2442667E-009  0.4778727E+02  0.7816164E-02  0.1312668E+00
        -11   -1    0    0    0    0  0.00000000000E+00  0.00000000000E+00  0.45593999997E+02  0.45594000000E+02  0.51100000000E-03 0. -1.
         11   -1    0    0    0    0 -0.00000000000E+00 -0.00000000000E+00 -0.45593999997E+02  0.45594000000E+02  0.51100000000E-03 0.  1.
    9900012    2    1    2    0    0  0.14816362024E+02 -0.67656766097E+01  0.40228404269E+02  0.47787268743E+02  0.19999989505E+02 0.  0.
        -12    1    1    2    0    0 -0.14816362024E+02  0.67656766097E+01 -0.40228404269E+02  0.43400731257E+02  0.00000000000E+00 0.  1.
         11    1    3    3    0    0  0.42534304611E+01  0.33935563234E+00  0.20838151899E+02  0.21270529090E+02  0.51100000000E-03 0. -1.
        -11    1    3    3    0    0  0.26275376462E+01 -0.47540175243E+01 -0.24315454009E-02  0.54318176403E+01  0.51100000000E-03 0.  1.
        -12    1    3    3    0    0  0.79353939171E+01 -0.23510147177E+01  0.19392683915E+02  0.21084922012E+02  0.00000000000E+00 0.  1.
</event>
<event>
 7    1  0.2442667E-009  0.4778727E+02  0.7816164E-02  0.1312668E+00
        -11   -1    0    0    0    0  0.00000000000E+00  0.00000000000E+00  0.45593999997E+02  0.45594000000E+02  0.51100000000E-03 0.  1.
         11   -1    0    0    0    0 -0.00000000000E+00 -0.00000000000E+00 -0.45593999997E+02  0.45594000000E+02  0.51100000000E-03 0. -1.
    9900012    2    1    2    0    0 -0.39768281286E+00  0.33628459853E+02 -0.27433407379E+02  0.47787270696E+02  0.19999998410E+02 0.  0.
        -12    1    1    2    0    0  0.39768281286E+00 -0.33628459853E+02  0.27433407379E+02  0.43400729304E+02  0.00000000000E+00 0.  1.
         11    1    3    3    0    0  0.38035120216E+01  0.68177801204E+01 -0.13306314071E+01  0.79195586791E+01  0.51100000000E-03 0. -1.
        -11    1    3    3    0    0 -0.12249026943E+01  0.15195058303E+02 -0.22806150765E+02  0.27431928413E+02  0.51100000000E-03 0.  1.
        -12    1    3    3    0    0 -0.29762921402E+01  0.11615621429E+02 -0.32966252069E+01  0.12435783604E+02  0.00000000000E+00 0.  1.
</event>
<event>
 7    1  0.2442667E-009  0.4778727E+02  0.7816164E-02  0.1312668E+00
        -11   -1    0    0    0    0  0.00000000000E+00  0.00000000000E+00  0.45593999997E+02  0.45594000000E+02  0.51100000000E-03 0.  1.
         11   -1    0    0    0    0 -0.00000000000E+00 -0.00000000000E+00 -0.45593999997E+02  0.45594000000E+02  0.51100000000E-03 0. -1.
    9900012    2    1    2    0    0  0.40754301899E+01 -0.99993708630E+01 -0.42036017516E+02  0.47787270542E+02  0.19999997707E+02 0.  0.
        -12    1    1    2    0    0 -0.40754301899E+01  0.99993708630E+01  0.42036017516E+02  0.43400729458E+02  0.00000000000E+00 0.  1.
         11    1    3    3    0    0  0.36704707850E+01 -0.25942529013E+01 -0.28052158513E+01  0.52982770910E+01  0.51100000000E-03 0. -1.
        -11    1    3    3    0    0  0.31992652986E+01 -0.85035082573E+01 -0.11790489938E+02  0.14884911971E+02  0.51100000000E-03 0.  1.
        -12    1    3    3    0    0 -0.27943058938E+01  0.10983902956E+01 -0.27440311727E+02  0.27604081480E+02  0.00000000000E+00 0.  1.
</event>
<event>
 7    1  0.2442667E-009  0.4778727E+02  0.7816164E-02  0.1312668E+00
        -11   -1    0    0    0    0  0.00000000000E+00  0.00000000000E+00  0.45593999997E+02  0.45594000000E+02  0.51100000000E-03 0.  1.
         11   -1    0    0    0    0 -0.00000000000E+00 -0.00000000000E+00 -0.45593999997E+02  0.45594000000E+02  0.51100000000E-03 0. -1.
    9900012    2    1    2    0    0 -0.31622708049E+02 -0.78370961973E+01 -0.28674169795E+02  0.47787265506E+02  0.19999974750E+02 0.  0.
        -12    1    1    2    0    0  0.31622708049E+02  0.78370961973E+01  0.28674169795E+02  0.43400734494E+02  0.00000000000E+00 0.  1.
         11    1    3    3    0    0 -0.24348728050E+01 -0.52980861129E+01 -0.78785419622E+01  0.98015175227E+01  0.51100000000E-03 0. -1.
        -11    1    3    3    0    0 -0.71467411214E+01 -0.61720886707E+01 -0.58380042328E+01  0.11101931404E+02  0.51100000000E-03 0.  1.
        -12    1    3    3    0    0 -0.22041094123E+02  0.36330785863E+01 -0.14957623600E+02  0.26883816580E+02  0.00000000000E+00 0.  1.
</event>
<event>
 7    1  0.2442667E-009  0.4778725E+02  0.7816164E-02  0.1312668E+00
        -11   -1    0    0    0    0  0.00000000000E+00  0.00000000000E+00  0.45593999997E+02  0.45594000000E+02  0.51100000000E-03 0.  1.
         11   -1    0    0    0    0 -0.00000000000E+00 -0.00000000000E+00 -0.45593999997E+02  0.45594000000E+02  0.51100000000E-03 0. -1.
    9900012    2    1    2    0    0  0.34804608040E+02 -0.16744513288E+02 -0.19796100274E+02  0.47787250558E+02  0.19999906596E+02 0.  0.
        -12    1    1    2    0    0 -0.34804608040E+02  0.16744513288E+02  0.19796100274E+02  0.43400749442E+02  0.00000000000E+00 0.  1.
         11    1    3    3    0    0  0.15679576962E+02 -0.69629145664E+01 -0.17524783865E+02  0.24524464576E+02  0.51100000000E-03 0. -1.
        -11    1    3    3    0    0  0.62200053926E+01 -0.22835660512E+01  0.32104945752E+01  0.73627723497E+01  0.51100000000E-03 0.  1.
        -12    1    3    3    0    0  0.12905025685E+02 -0.74980326707E+01 -0.54818109835E+01  0.15900013633E+02  0.00000000000E+00 0.  1.
</event>
<event>
 7    1  0.2442667E-009  0.4778727E+02  0.7816164E-02  0.1312668E+00
        -11   -1    0    0    0    0  0.00000000000E+00  0.00000000000E+00  0.45593999997E+02  0.45594000000E+02  0.51100000000E-03 0. -1.
         11   -1    0    0    0    0 -0.00000000000E+00 -0.00000000000E+00 -0.45593999997E+02  0.45594000000E+02  0.51100000000E-03 0.  1.
    9900012    2    1    2    0    0  0.19258644111E+02  0.67112366536E+01  0.38310404368E+02  0.47787272434E+02  0.20000006335E+02 0.  0.
        -12    1    1    2    0    0 -0.19258644111E+02 -0.67112366536E+01 -0.38310404368E+02  0.43400727566E+02  0.00000000000E+00 0.  1.
         11    1    3    3    0    0  0.17312913856E+01  0.79453597023E+01  0.16333513404E+02  0.18245815165E+02  0.51100000000E-03 0. -1.
        -11    1    3    3    0    0  0.66614190051E+01 -0.67662027848E+00  0.23418375049E+01  0.70934139399E+01  0.51100000000E-03 0.  1.
         12    1    3    3    0    0  0.10865933720E+02 -0.55750277018E+00  0.19635053460E+02  0.22448043329E+02  0.00000000000E+00 0. -1.
</event>
<event>
 7    1  0.2442667E-009  0.4778727E+02  0.7816164E-02  0.1312668E+00
        -11   -1    0    0    0    0  0.00000000000E+00  0.00000000000E+00  0.45593999997E+02  0.45594000000E+02  0.51100000000E-03 0.  1.
         11   -1    0    0    0    0 -0.00000000000E+00 -0.00000000000E+00 -0.45593999997E+02  0.45594000000E+02  0.51100000000E-03 0. -1.
    9900012    2    1    2    0    0 -0.33137743335E+02 -0.27828468837E+02 -0.33300950607E+01  0.47787271385E+02  0.20000001554E+02 0.  0.
        -12    1    1    2    0    0  0.33137743335E+02  0.27828468837E+02  0.33300950607E+01  0.43400728615E+02  0.00000000000E+00 0.  1.
         11    1    3    3    0    0 -0.75879281566E+01 -0.89825790109E+01  0.35448965388E+01  0.12281273188E+02  0.51100000000E-03 0. -1.
        -11    1    3    3    0    0 -0.17289988674E+02 -0.12468790967E+02 -0.11351736150E+02  0.24151115304E+02  0.51100000000E-03 0.  1.
        -12    1    3    3    0    0 -0.82598265049E+01 -0.63770988590E+01  0.44767445508E+01  0.11354882893E+02  0.00000000000E+00 0.  1.
</event>
<event>
 7    1  0.2442667E-009  0.4778727E+02  0.7816164E-02  0.1312668E+00
        -11   -1    0    0    0    0  0.00000000000E+00  0.00000000000E+00  0.45593999997E+02  0.45594000000E+02  0.51100000000E-03 0.  1.
         11   -1    0    0    0    0 -0.00000000000E+00 -0.00000000000E+00 -0.45593999997E+02  0.45594000000E+02  0.51100000000E-03 0. -1.
    9900012    2    1    2    0    0 -0.81419702406E+01  0.31919493509E+02 -0.28257345239E+02  0.47787270683E+02  0.19999998351E+02 0.  0.
        -12    1    1    2    0    0  0.81419702406E+01 -0.31919493509E+02  0.28257345239E+02  0.43400729317E+02  0.00000000000E+00 0.  1.
         11    1    3    3    0    0  0.51203578961E+01  0.10505308380E+02 -0.13163715432E+02  0.17602925137E+02  0.51100000000E-03 0. -1.
        -11    1    3    3    0    0 -0.19026005117E+01  0.14632915091E+01 -0.40504506439E+01  0.47082121264E+01  0.51100000000E-03 0.  1.
         12    1    3    3    0    0 -0.11359727625E+02  0.19950893620E+02 -0.11043179163E+02  0.25476133419E+02  0.00000000000E+00 0. -1.
</event>
<event>
 7    1  0.2442667E-009  0.4778727E+02  0.7816164E-02  0.1312668E+00
        -11   -1    0    0    0    0  0.00000000000E+00  0.00000000000E+00  0.45593999997E+02  0.45594000000E+02  0.51100000000E-03 0. -1.
         11   -1    0    0    0    0 -0.00000000000E+00 -0.00000000000E+00 -0.45593999997E+02  0.45594000000E+02  0.51100000000E-03 0.  1.
    9900012    2    1    2    0    0  0.14733510863E+02  0.46324206940E+01  0.40559684376E+02  0.47787266590E+02  0.19999979692E+02 0.  0.
        -12    1    1    2    0    0 -0.14733510863E+02 -0.46324206940E+01 -0.40559684376E+02  0.43400733410E+02  0.00000000000E+00 0.  1.
         11    1    3    3    0    0  0.39273667799E+01  0.67779036815E+01  0.20128614483E+02  0.21599196962E+02  0.51100000000E-03 0. -1.
        -11    1    3    3    0    0  0.20768927003E+01 -0.20129367510E+01 -0.98939233184E+00  0.30568439770E+01  0.51100000000E-03 0.  1.
        -12    1    3    3    0    0  0.87292513831E+01 -0.13254623659E+00  0.21420462224E+02  0.23131225651E+02  0.00000000000E+00 0.  1.
</event>
<event>
 7    1  0.2442667E-009  0.4778727E+02  0.7816164E-02  0.1312668E+00
        -11   -1    0    0    0    0  0.00000000000E+00  0.00000000000E+00  0.45593999997E+02  0.45594000000E+02  0.51100000000E-03 0.  1.
         11   -1    0    0    0    0 -0.00000000000E+00 -0.00000000000E+00 -0.45593999997E+02  0.45594000000E+02  0.51100000000E-03 0. -1.
    9900012    2    1    2    0    0  0.28644056804E+02  0.11493710482E+02 -0.30512879989E+02  0.47787271711E+02  0.20000003038E+02 0.  0.
        -12    1    1    2    0    0 -0.28644056804E+02 -0.11493710482E+02  0.30512879989E+02  0.43400728289E+02  0.00000000000E+00 0.  1.
         11    1    3    3    0    0  0.21840582604E+02  0.74927006823E+01 -0.11425349940E+02  0.25762186116E+02  0.51100000000E-03 0. -1.
        -11    1    3    3    0    0 -0.16754335767E+01  0.71375773037E+00 -0.23104226928E+01  0.29418669324E+01  0.51100000000E-03 0.  1.
         12    1    3    3    0    0  0.84789077765E+01  0.32872520692E+01 -0.16777107356E+02  0.19083218662E+02  0.00000000000E+00 0. -1.
</event>
<event>
 7    1  0.2442667E-009  0.4778727E+02  0.7816164E-02  0.1312668E+00
        -11   -1    0    0    0    0  0.00000000000E+00  0.00000000000E+00  0.45593999997E+02  0.45594000000E+02  0.51100000000E-03 0.  1.
         11   -1    0    0    0    0 -0.00000000000E+00 -0.00000000000E+00 -0.45593999997E+02  0.45594000000E+02  0.51100000000E-03 0. -1.
    9900012    2    1    2    0    0 -0.15071870701E+02  0.12314597709E+02 -0.38791913552E+02  0.47787272355E+02  0.20000005973E+02 0.  0.
        -12    1    1    2    0    0  0.15071870701E+02 -0.12314597709E+02  0.38791913552E+02  0.43400727645E+02  0.00000000000E+00 0.  1.
         11    1    3    3    0    0 -0.39636737646E+01 -0.30179042897E+01 -0.11550193448E+02  0.12578768818E+02  0.51100000000E-03 0. -1.
        -11    1    3    3    0    0 -0.10949985476E+02  0.16454207873E+02 -0.20896443987E+02  0.28762901630E+02  0.51100000000E-03 0.  1.
        -12    1    3    3    0    0 -0.15821146074E+00 -0.11217058752E+01 -0.63452761170E+01  0.64456019065E+01  0.00000000000E+00 0.  1.
</event>
<event>
 7    1  0.2442667E-009  0.4778723E+02  0.7816164E-02  0.1312668E+00
        -11   -1    0    0    0    0  0.00000000000E+00  0.00000000000E+00  0.45593999997E+02  0.45594000000E+02  0.51100000000E-03 0. -1.
         11   -1    0    0    0    0 -0.00000000000E+00 -0.00000000000E+00 -0.45593999997E+02  0.45594000000E+02  0.51100000000E-03 0.  1.
    9900012    2    1    2    0    0  0.31359405037E+02  0.84082984541E+01 -0.28801297094E+02  0.47787234091E+02  0.19999831515E+02 0.  0.
        -12    1    1    2    0    0 -0.31359405037E+02 -0.84082984541E+01  0.28801297094E+02  0.43400765909E+02  0.00000000000E+00 0.  1.
         11    1    3    3    0    0  0.30206495985E+02  0.49183832914E+01 -0.23090785764E+02  0.38338065696E+02  0.51100000000E-03 0. -1.
        -11    1    3    3    0    0  0.11391101358E+01  0.49570475493E+01 -0.20110582633E+01  0.54693919138E+01  0.51100000000E-03 0.  1.
        -12    1    3    3    0    0  0.13798916880E-01 -0.14671323867E+01 -0.36994530663E+01  0.39797764811E+01  0.00000000000E+00 0.  1.
</event>
<event>
 7    1  0.2442667E-009  0.4778727E+02  0.7816164E-02  0.1312668E+00
        -11   -1    0    0    0    0  0.00000000000E+00  0.00000000000E+00  0.45593999997E+02  0.45594000000E+02  0.51100000000E-03 0.  1.
         11   -1    0    0    0    0 -0.00000000000E+00 -0.00000000000E+00 -0.45593999997E+02  0.45594000000E+02  0.51100000000E-03 0. -1.
    9900012    2    1    2    0    0  0.41038723457E+01  0.41738655689E+02 -0.11165410057E+02  0.47787268109E+02  0.19999986617E+02 0.  0.
        -12    1    1    2    0    0 -0.41038723457E+01 -0.41738655689E+02  0.11165410057E+02  0.43400731891E+02  0.00000000000E+00 0.  1.
         11    1    3    3    0    0  0.46242295275E+01  0.29676886632E+02 -0.16170042880E+02  0.34111162189E+02  0.51100000000E-03 0. -1.
        -11    1    3    3    0    0  0.61084155593E-01  0.70193988380E+01  0.49686692423E+01  0.86001956734E+01  0.51100000000E-03 0.  1.
         12    1    3    3    0    0 -0.58144133730E+00  0.50423702186E+01  0.35963581077E-01  0.50759102463E+01  0.00000000000E+00 0. -1.
</event>
<event>
 7    1  0.2442667E-009  0.4778727E+02  0.7816164E-02  0.1312668E+00
        -11   -1    0    0    0    0  0.00000000000E+00  0.00000000000E+00  0.45593999997E+02  0.45594000000E+02  0.51100000000E-03 0. -1.
         11   -1    0    0    0    0 -0.00000000000E+00 -0.00000000000E+00 -0.45593999997E+02  0.45594000000E+02  0.51100000000E-03 0.  1.
    9900012    2    1    2    0    0  0.34489694366E+00 -0.36253089274E+02  0.23858285993E+02  0.47787271361E+02  0.20000001445E+02 0.  0.
        -12    1    1    2    0    0 -0.34489694366E+00  0.36253089274E+02 -0.23858285993E+02  0.43400728639E+02  0.00000000000E+00 0.  1.
         11    1    3    3    0    0  0.39715304538E+01 -0.14662626370E+02  0.20131111537E+02  0.25219582039E+02  0.51100000000E-03 0. -1.
        -11    1    3    3    0    0 -0.80362282352E-02 -0.77098491283E+01 -0.13961318931E+00  0.77111173163E+01  0.51100000000E-03 0.  1.
         12    1    3    3    0    0 -0.36185972819E+01 -0.13880613776E+02  0.38667876453E+01  0.14856572006E+02  0.00000000000E+00 0. -1.
</event>
<event>
 7    1  0.2442667E-009  0.4778727E+02  0.7816164E-02  0.1312668E+00
        -11   -1    0    0    0    0  0.00000000000E+00  0.00000000000E+00  0.45593999997E+02  0.45594000000E+02  0.51100000000E-03 0.  1.
         11   -1    0    0    0    0 -0.00000000000E+00 -0.00000000000E+00 -0.45593999997E+02  0.45594000000E+02  0.51100000000E-03 0. -1.
    9900012    2    1    2    0    0  0.29206401347E+02 -0.24061088410E+02 -0.21252607004E+02  0.47787272361E+02  0.20000006005E+02 0.  0.
        -12    1    1    2    0    0 -0.29206401347E+02  0.24061088410E+02  0.21252607004E+02  0.43400727639E+02  0.00000000000E+00 0.  1.
         11    1    3    3    0    0  0.21510591501E+02 -0.16318036699E+02 -0.69644748903E+01  0.27883467847E+02  0.51100000000E-03 0. -1.
        -11    1    3    3    0    0  0.25544781264E+01 -0.66899108988E+01 -0.36409741656E+01  0.80334898686E+01  0.51100000000E-03 0.  1.
         12    1    3    3    0    0  0.51413317195E+01 -0.10531408122E+01 -0.10647157948E+02  0.11870314646E+02  0.00000000000E+00 0. -1.
</event>
<event>
 7    1  0.2442667E-009  0.4778731E+02  0.7816164E-02  0.1312668E+00
        -11   -1    0    0    0    0  0.00000000000E+00  0.00000000000E+00  0.45593999997E+02  0.45594000000E+02  0.51100000000E-03 0.  1.
         11   -1    0    0    0    0 -0.00000000000E+00 -0.00000000000E+00 -0.45593999997E+02  0.45594000000E+02  0.51100000000E-03 0. -1.
    9900012    2    1    2    0    0  0.12099178566E+02  0.28538070935E+02 -0.30377761951E+02  0.47787308348E+02  0.20000170083E+02 0.  0.
        -12    1    1    2    0    0 -0.12099178566E+02 -0.28538070935E+02  0.30377761951E+02  0.43400691652E+02  0.00000000000E+00 0.  1.
         11    1    3    3    0    0  0.66611099682E+01  0.13108810026E+01 -0.41514651512E+01  0.79576037960E+01  0.51100000000E-03 0. -1.
        -11    1    3    3    0    0  0.51737700425E+01  0.15489716433E+02 -0.21897478417E+02  0.27316639122E+02  0.51100000000E-03 0.  1.
        -12    1    3    3    0    0  0.26429855537E+00  0.11737473499E+02 -0.43288183834E+01  0.12513065431E+02  0.00000000000E+00 0.  1.
</event>
<event>
 7    1  0.2442667E-009  0.4778727E+02  0.7816164E-02  0.1312668E+00
        -11   -1    0    0    0    0  0.00000000000E+00  0.00000000000E+00  0.45593999997E+02  0.45594000000E+02  0.51100000000E-03 0. -1.
         11   -1    0    0    0    0 -0.00000000000E+00 -0.00000000000E+00 -0.45593999997E+02  0.45594000000E+02  0.51100000000E-03 0.  1.
    9900012    2    1    2    0    0  0.24757927655E+02 -0.15959788784E+02  0.31874019998E+02  0.47787274308E+02  0.20000014879E+02 0.  0.
        -12    1    1    2    0    0 -0.24757927655E+02  0.15959788784E+02 -0.31874019998E+02  0.43400725692E+02  0.00000000000E+00 0.  1.
         11    1    3    3    0    0  0.63484139400E+01 -0.13129552145E+02  0.19201419618E+02  0.24111864604E+02  0.51100000000E-03 0. -1.
        -11    1    3    3    0    0  0.13583065684E+02 -0.46197276155E+01  0.68338993627E+01  0.15891624756E+02  0.51100000000E-03 0.  1.
        -12    1    3    3    0    0  0.48264480303E+01  0.17894909761E+01  0.58387010169E+01  0.77837849474E+01  0.00000000000E+00 0.  1.
</event>
<event>
 7    1  0.2442667E-009  0.4778726E+02  0.7816164E-02  0.1312668E+00
        -11   -1    0    0    0    0  0.00000000000E+00  0.00000000000E+00  0.45593999997E+02  0.45594000000E+02  0.51100000000E-03 0.  1.
         11   -1    0    0    0    0 -0.00000000000E+00 -0.00000000000E+00 -0.45593999997E+02  0.45594000000E+02  0.51100000000E-03 0. -1.
    9900012    2    1    2    0    0 -0.13263928588E+02  0.35171372722E+02 -0.21694850823E+02  0.47787264833E+02  0.19999971682E+02 0.  0.
        -12    1    1    2    0    0  0.13263928588E+02 -0.35171372722E+02  0.21694850823E+02  0.43400735167E+02  0.00000000000E+00 0.  1.
         11    1    3    3    0    0 -0.15082265876E+02  0.28932884301E+02 -0.20418688220E+02  0.38490380185E+02  0.51100000000E-03 0. -1.
        -11    1    3    3    0    0 -0.13038059697E+01  0.93790649431E+00 -0.25509440572E+01  0.30144476182E+01  0.51100000000E-03 0.  1.
         12    1    3    3    0    0  0.31221432574E+01  0.53005819266E+01  0.12747814536E+01  0.62824370299E+01  0.00000000000E+00 0. -1.
</event>
<event>
 7    1  0.2442667E-009  0.4778726E+02  0.7816164E-02  0.1312668E+00
        -11   -1    0    0    0    0  0.00000000000E+00  0.00000000000E+00  0.45593999997E+02  0.45594000000E+02  0.51100000000E-03 0.  1.
         11   -1    0    0    0    0 -0.00000000000E+00 -0.00000000000E+00 -0.45593999997E+02  0.45594000000E+02  0.51100000000E-03 0. -1.
    9900012    2    1    2    0    0 -0.19473586257E+02  0.26052547284E+02 -0.28734442924E+02  0.47787262773E+02  0.19999962289E+02 0.  0.
        -12    1    1    2    0    0  0.19473586257E+02 -0.26052547284E+02  0.28734442924E+02  0.43400737227E+02  0.00000000000E+00 0.  1.
         11    1    3    3    0    0 -0.45851942008E+00  0.59330349106E+01 -0.21987671237E+01  0.63439514843E+01  0.51100000000E-03 0. -1.
        -11    1    3    3    0    0 -0.11057012424E+02  0.18507722914E+02 -0.11695552173E+02  0.24527113000E+02  0.51100000000E-03 0.  1.
        -12    1    3    3    0    0 -0.79580544125E+01  0.16117894590E+01 -0.14840123627E+02  0.16916198289E+02  0.00000000000E+00 0.  1.
</event>
<event>
 7    1  0.2442667E-009  0.4778727E+02  0.7816164E-02  0.1312668E+00
        -11   -1    0    0    0    0  0.00000000000E+00  0.00000000000E+00  0.45593999997E+02  0.45594000000E+02  0.51100000000E-03 0. -1.
         11   -1    0    0    0    0 -0.00000000000E+00 -0.00000000000E+00 -0.45593999997E+02  0.45594000000E+02  0.51100000000E-03 0.  1.
    9900012    2    1    2    0    0 -0.11037518730E+02  0.41405264086E+02 -0.68848210551E+01  0.47787268731E+02  0.19999989452E+02 0.  0.
        -12    1    1    2    0    0  0.11037518730E+02 -0.41405264086E+02  0.68848210551E+01  0.43400731269E+02  0.00000000000E+00 0.  1.
         11    1    3    3    0    0 -0.56071389073E+01  0.33719465668E+02 -0.85705953310E+01  0.35240565777E+02  0.51100000000E-03 0. -1.
        -11    1    3    3    0    0 -0.33695177829E+01  0.56634993000E+01  0.49103809908E+01  0.82183158947E+01  0.51100000000E-03 0.  1.
         12    1    3    3    0    0 -0.20608620402E+01  0.20222991172E+01 -0.32246067149E+01  0.43283870592E+01  0.00000000000E+00 0. -1.
</event>
<event>
 7    1  0.2442667E-009  0.4778727E+02  0.7816164E-02  0.1312668E+00
        -11   -1    0    0    0    0  0.00000000000E+00  0.00000000000E+00  0.45593999997E+02  0.45594000000E+02  0.51100000000E-03 0.  1.
         11   -1    0    0    0    0 -0.00000000000E+00 -0.00000000000E+00 -0.45593999997E+02  0.45594000000E+02  0.51100000000E-03 0. -1.
    9900012    2    1    2    0    0  0.66001170232E+01  0.27214239533E+02 -0.33157906349E+02  0.47787272684E+02  0.20000007476E+02 0.  0.
        -12    1    1    2    0    0 -0.66001170232E+01 -0.27214239533E+02  0.33157906349E+02  0.43400727316E+02  0.00000000000E+00 0.  1.
         11    1    3    3    0    0  0.36565007591E+01  0.44489467421E+01 -0.18164407860E+02  0.19055414928E+02  0.51100000000E-03 0. -1.
        -11    1    3    3    0    0  0.30247945276E+01  0.17499990893E+02 -0.68513528454E+01  0.19035233103E+02  0.51100000000E-03 0.  1.
         12    1    3    3    0    0 -0.81178263488E-01  0.52653018973E+01 -0.81421456435E+01  0.96966246530E+01  0.00000000000E+00 0. -1.
</event>
<event>
 7    1  0.2442667E-009  0.4778727E+02  0.7816164E-02  0.1312668E+00
        -11   -1    0    0    0    0  0.00000000000E+00  0.00000000000E+00  0.45593999997E+02  0.45594000000E+02  0.51100000000E-03 0. -1.
         11   -1    0    0    0    0 -0.00000000000E+00 -0.00000000000E+00 -0.45593999997E+02  0.45594000000E+02  0.51100000000E-03 0.  1.
    9900012    2    1    2    0    0  0.43377332977E+01 -0.32602256589E+02  0.28317840993E+02  0.47787272087E+02  0.20000004752E+02 0.  0.
        -12    1    1    2    0    0 -0.43377332977E+01  0.32602256589E+02 -0.28317840993E+02  0.43400727913E+02  0.00000000000E+00 0.  1.
         11    1    3    3    0    0  0.12137438668E+01  0.10260487654E+00  0.64909959851E+01  0.66042964103E+01  0.51100000000E-03 0. -1.
        -11    1    3    3    0    0  0.48633153684E+01 -0.23751794097E+02  0.99467328717E+01  0.26205668361E+02  0.51100000000E-03 0.  1.
         12    1    3    3    0    0 -0.17393259375E+01 -0.89530673694E+01  0.11880112136E+02  0.14977307315E+02  0.00000000000E+00 0. -1.
</event>
<event>
 7    1  0.2442667E-009  0.4778727E+02  0.7816164E-02  0.1312668E+00
        -11   -1    0    0    0    0  0.00000000000E+00  0.00000000000E+00  0.45593999997E+02  0.45594000000E+02  0.51100000000E-03 0. -1.
         11   -1    0    0    0    0 -0.00000000000E+00 -0.00000000000E+00 -0.45593999997E+02  0.45594000000E+02  0.51100000000E-03 0.  1.
    9900012    2    1    2    0    0 -0.38187768142E+02  0.20435100981E+02 -0.27792182212E+01  0.47787273720E+02  0.20000012197E+02 0.  0.
        -12    1    1    2    0    0  0.38187768142E+02 -0.20435100981E+02  0.27792182212E+01  0.43400726280E+02  0.00000000000E+00 0.  1.
         11    1    3    3    0    0 -0.81525329063E+01  0.11894730060E+02  0.38472663116E+01  0.14924806676E+02  0.51100000000E-03 0.  1.
        -11    1    3    3    0    0 -0.18611986396E+02  0.19330815094E+01 -0.60023813281E+01  0.19651244836E+02  0.51100000000E-03 0. -1.
        -12    1    3    3    0    0 -0.11423248839E+02  0.66072894116E+01 -0.62410320463E+00  0.13211222208E+02  0.00000000000E+00 0.  1.
</event>
<event>
 7    1  0.2442667E-009  0.4778727E+02  0.7816164E-02  0.1312668E+00
        -11   -1    0    0    0    0  0.00000000000E+00  0.00000000000E+00  0.45593999997E+02  0.45594000000E+02  0.51100000000E-03 0. -1.
         11   -1    0    0    0    0 -0.00000000000E+00 -0.00000000000E+00 -0.45593999997E+02  0.45594000000E+02  0.51100000000E-03 0.  1.
    9900012    2    1    2    0    0  0.51389117981E+01 -0.43086897573E+02 -0.85694453774E+00  0.47787268315E+02  0.19999987553E+02 0.  0.
        -12    1    1    2    0    0 -0.51389117981E+01  0.43086897573E+02  0.85694453774E+00  0.43400731685E+02  0.00000000000E+00 0.  1.
         11    1    3    3    0    0  0.10093338858E+02 -0.20249255944E+02  0.59232997185E+01  0.23387888648E+02  0.51100000000E-03 0. -1.
        -11    1    3    3    0    0 -0.35959490626E+01 -0.17646981550E+02 -0.44597506770E+01  0.18553602989E+02  0.51100000000E-03 0.  1.
         12    1    3    3    0    0 -0.13584779974E+01 -0.51906600783E+01 -0.23204935793E+01  0.58457766781E+01  0.00000000000E+00 0. -1.
</event>
<event>
 7    1  0.2442667E-009  0.4778727E+02  0.7816164E-02  0.1312668E+00
        -11   -1    0    0    0    0  0.00000000000E+00  0.00000000000E+00  0.45593999997E+02  0.45594000000E+02  0.51100000000E-03 0. -1.
         11   -1    0    0    0    0 -0.00000000000E+00 -0.00000000000E+00 -0.45593999997E+02  0.45594000000E+02  0.51100000000E-03 0.  1.
    9900012    2    1    2    0    0  0.34880883594E+02  0.24431741093E+02  0.83688330413E+01  0.47787269826E+02  0.19999994445E+02 0.  0.
        -12    1    1    2    0    0 -0.34880883594E+02 -0.24431741093E+02 -0.83688330413E+01  0.43400730174E+02  0.00000000000E+00 0.  1.
         11    1    3    3    0    0  0.16869612965E+02  0.44641111235E+01  0.98569145466E+00  0.17478092505E+02  0.51100000000E-03 0. -1.
        -11    1    3    3    0    0  0.10046129825E+02  0.12771659401E+02  0.10233031271E+02  0.19202992932E+02  0.51100000000E-03 0.  1.
         12    1    3    3    0    0  0.79651408046E+01  0.71959705685E+01 -0.28498896840E+01  0.11106184388E+02  0.00000000000E+00 0. -1.
</event>
<event>
 7    1  0.2442667E-009  0.4778727E+02  0.7816164E-02  0.1312668E+00
        -11   -1    0    0    0    0  0.00000000000E+00  0.00000000000E+00  0.45593999997E+02  0.45594000000E+02  0.51100000000E-03 0.  1.
         11   -1    0    0    0    0 -0.00000000000E+00 -0.00000000000E+00 -0.45593999997E+02  0.45594000000E+02  0.51100000000E-03 0. -1.
    9900012    2    1    2    0    0 -0.10857220853E+02 -0.93096318903E+01 -0.40976514792E+02  0.47787271261E+02  0.20000000989E+02 0.  0.
        -12    1    1    2    0    0  0.10857220853E+02  0.93096318903E+01  0.40976514792E+02  0.43400728739E+02  0.00000000000E+00 0.  1.
         11    1    3    3    0    0  0.33864394359E+01  0.37672385814E+01 -0.80594133232E+01  0.95191492245E+01  0.51100000000E-03 0. -1.
        -11    1    3    3    0    0 -0.13470981874E+02 -0.11484757114E+02 -0.30614312885E+02  0.35363867892E+02  0.51100000000E-03 0.  1.
         12    1    3    3    0    0 -0.77267841429E+00 -0.15921133581E+01 -0.23027885832E+01  0.29042541445E+01  0.00000000000E+00 0. -1.
</event>
<event>
 7    1  0.2442667E-009  0.4778728E+02  0.7816164E-02  0.1312668E+00
        -11   -1    0    0    0    0  0.00000000000E+00  0.00000000000E+00  0.45593999997E+02  0.45594000000E+02  0.51100000000E-03 0. -1.
         11   -1    0    0    0    0 -0.00000000000E+00 -0.00000000000E+00 -0.45593999997E+02  0.45594000000E+02  0.51100000000E-03 0.  1.
    9900012    2    1    2    0    0  0.25316173830E+02  0.29745947869E+02  0.18918046144E+02  0.47787279477E+02  0.20000038446E+02 0.  0.
        -12    1    1    2    0    0 -0.25316173830E+02 -0.29745947869E+02 -0.18918046144E+02  0.43400720523E+02  0.00000000000E+00 0.  1.
         11    1    3    3    0    0  0.65239242508E+01  0.16110930419E+02  0.66374983678E+01  0.18605914421E+02  0.51100000000E-03 0. -1.
        -11    1    3    3    0    0  0.20558011563E+02  0.11629888212E+02  0.12005015297E+02  0.26495405862E+02  0.51100000000E-03 0.  1.
         12    1    3    3    0    0 -0.17657619838E+01  0.20051292380E+01  0.27553247979E+00  0.26859591940E+01  0.00000000000E+00 0. -1.
</event>
<event>
 7    1  0.2442667E-009  0.4778727E+02  0.7816164E-02  0.1312668E+00
        -11   -1    0    0    0    0  0.00000000000E+00  0.00000000000E+00  0.45593999997E+02  0.45594000000E+02  0.51100000000E-03 0.  1.
         11   -1    0    0    0    0 -0.00000000000E+00 -0.00000000000E+00 -0.45593999997E+02  0.45594000000E+02  0.51100000000E-03 0. -1.
    9900012    2    1    2    0    0 -0.16909370849E+02 -0.10531792360E+02 -0.38558757440E+02  0.47787271341E+02  0.20000001353E+02 0.  0.
        -12    1    1    2    0    0  0.16909370849E+02  0.10531792360E+02  0.38558757440E+02  0.43400728659E+02  0.00000000000E+00 0.  1.
         11    1    3    3    0    0  0.70697439916E+00 -0.46500315326E+01 -0.18814510217E+02  0.19393514406E+02  0.51100000000E-03 0. -1.
        -11    1    3    3    0    0 -0.23161339799E+00  0.12112986207E+01 -0.29708076151E+01  0.32166111456E+01  0.51100000000E-03 0.  1.
         12    1    3    3    0    0 -0.17384731850E+02 -0.70930594485E+01 -0.16773439607E+02  0.25177145789E+02  0.00000000000E+00 0. -1.
</event>
<event>
 7    1  0.2442667E-009  0.4778727E+02  0.7816164E-02  0.1312668E+00
        -11   -1    0    0    0    0  0.00000000000E+00  0.00000000000E+00  0.45593999997E+02  0.45594000000E+02  0.51100000000E-03 0.  1.
         11   -1    0    0    0    0 -0.00000000000E+00 -0.00000000000E+00 -0.45593999997E+02  0.45594000000E+02  0.51100000000E-03 0. -1.
    9900012    2    1    2    0    0 -0.83200388556E+01 -0.37443418852E+02 -0.20307401020E+02  0.47787271918E+02  0.20000003982E+02 0.  0.
        -12    1    1    2    0    0  0.83200388556E+01  0.37443418852E+02  0.20307401020E+02  0.43400728082E+02  0.00000000000E+00 0.  1.
         11    1    3    3    0    0 -0.12203631902E+02 -0.20070636901E+02 -0.10221159391E+02  0.25617009911E+02  0.51100000000E-03 0.  1.
        -11    1    3    3    0    0  0.43961890501E+01 -0.79877707766E+01 -0.88214138735E+01  0.12686540235E+02  0.51100000000E-03 0. -1.
         12    1    3    3    0    0 -0.51259600357E+00 -0.93850111737E+01 -0.12648277559E+01  0.94837217718E+01  0.00000000000E+00 0. -1.
</event>
<event>
 7    1  0.2442667E-009  0.4778727E+02  0.7816164E-02  0.1312668E+00
        -11   -1    0    0    0    0  0.00000000000E+00  0.00000000000E+00  0.45593999997E+02  0.45594000000E+02  0.51100000000E-03 0. -1.
         11   -1    0    0    0    0 -0.00000000000E+00 -0.00000000000E+00 -0.45593999997E+02  0.45594000000E+02  0.51100000000E-03 0.  1.
    9900012    2    1    2    0    0 -0.28308864839E+02  0.58472791948E+01  0.32373453867E+02  0.47787273995E+02  0.20000013453E+02 0.  0.
        -12    1    1    2    0    0  0.28308864839E+02 -0.58472791948E+01 -0.32373453867E+02  0.43400726005E+02  0.00000000000E+00 0.  1.
         11    1    3    3    0    0 -0.14615469062E+02  0.72553746321E+01  0.29302997541E+02  0.33539798182E+02  0.51100000000E-03 0. -1.
        -11    1    3    3    0    0 -0.94466494614E+01 -0.12425804319E+01  0.30269569706E+01  0.99972826778E+01  0.51100000000E-03 0.  1.
         12    1    3    3    0    0 -0.42467463162E+01 -0.16551500547E+00  0.43499355175E-01  0.42501931350E+01  0.00000000000E+00 0. -1.
</event>
<event>
 7    1  0.2442667E-009  0.4778728E+02  0.7816164E-02  0.1312668E+00
        -11   -1    0    0    0    0  0.00000000000E+00  0.00000000000E+00  0.45593999997E+02  0.45594000000E+02  0.51100000000E-03 0.  1.
         11   -1    0    0    0    0 -0.00000000000E+00 -0.00000000000E+00 -0.45593999997E+02  0.45594000000E+02  0.51100000000E-03 0. -1.
    9900012    2    1    2    0    0 -0.17279683955E+01  0.37244490913E+02 -0.22214520818E+02  0.47787275198E+02  0.20000018939E+02 0.  0.
        -12    1    1    2    0    0  0.17279683955E+01 -0.37244490913E+02  0.22214520818E+02  0.43400724802E+02  0.00000000000E+00 0.  1.
         11    1    3    3    0    0 -0.42951580798E+00  0.26810118551E+02 -0.21086717326E+02  0.34111824759E+02  0.51100000000E-03 0. -1.
        -11    1    3    3    0    0 -0.27204036944E+01  0.10393714397E+02  0.13399300938E+01  0.10827063690E+02  0.51100000000E-03 0.  1.
         12    1    3    3    0    0  0.14219511068E+01  0.40657964550E-01 -0.24677335860E+01  0.28483867489E+01  0.00000000000E+00 0. -1.
</event>
<event>
 7    1  0.2442667E-009  0.4778727E+02  0.7816164E-02  0.1312668E+00
        -11   -1    0    0    0    0  0.00000000000E+00  0.00000000000E+00  0.45593999997E+02  0.45594000000E+02  0.51100000000E-03 0.  1.
         11   -1    0    0    0    0 -0.00000000000E+00 -0.00000000000E+00 -0.45593999997E+02  0.45594000000E+02  0.51100000000E-03 0. -1.
    9900012    2    1    2    0    0  0.28288318907E+02 -0.17662667416E+02  0.27774536939E+02  0.47787266031E+02  0.19999977142E+02 0.  0.
        -12    1    1    2    0    0 -0.28288318907E+02  0.17662667416E+02 -0.27774536939E+02  0.43400733969E+02  0.00000000000E+00 0.  1.
         11    1    3    3    0    0  0.70354430108E+01  0.38194952497E+01  0.38005800958E+01  0.88617386357E+01  0.51100000000E-03 0. -1.
        -11    1    3    3    0    0  0.18005165336E+02 -0.16053511158E+02  0.17006878844E+02  0.29514998349E+02  0.51100000000E-03 0.  1.
         12    1    3    3    0    0  0.32477105606E+01 -0.54286515077E+01  0.69670779994E+01  0.94105290461E+01  0.00000000000E+00 0. -1.
</event>
<event>
 7    1  0.2442667E-009  0.4778727E+02  0.7816164E-02  0.1312668E+00
        -11   -1    0    0    0    0  0.00000000000E+00  0.00000000000E+00  0.45593999997E+02  0.45594000000E+02  0.51100000000E-03 0.  1.
         11   -1    0    0    0    0 -0.00000000000E+00 -0.00000000000E+00 -0.45593999997E+02  0.45594000000E+02  0.51100000000E-03 0. -1.
    9900012    2    1    2    0    0 -0.27434349754E+02  0.30647562130E+02 -0.13845817412E+02  0.47787271081E+02  0.20000000165E+02 0.  0.
        -12    1    1    2    0    0  0.27434349754E+02 -0.30647562130E+02  0.13845817412E+02  0.43400728919E+02  0.00000000000E+00 0.  1.
         11    1    3    3    0    0 -0.22505003417E+02  0.23745347913E+02 -0.10984562732E+02  0.34510539622E+02  0.51100000000E-03 0. -1.
        -11    1    3    3    0    0 -0.13161117328E+01 -0.51634938830E+00  0.28908505902E+01  0.32180404255E+01  0.51100000000E-03 0.  1.
        -12    1    3    3    0    0 -0.36132346047E+01  0.74185636045E+01 -0.57521052698E+01  0.10058691033E+02  0.00000000000E+00 0.  1.
</event>
<event>
 7    1  0.2442667E-009  0.4778728E+02  0.7816164E-02  0.1312668E+00
        -11   -1    0    0    0    0  0.00000000000E+00  0.00000000000E+00  0.45593999997E+02  0.45594000000E+02  0.51100000000E-03 0. -1.
         11   -1    0    0    0    0 -0.00000000000E+00 -0.00000000000E+00 -0.45593999997E+02  0.45594000000E+02  0.51100000000E-03 0.  1.
    9900012    2    1    2    0    0 -0.97170722665E+01 -0.51802946532E+01  0.41980539532E+02  0.47787278283E+02  0.20000033004E+02 0.  0.
        -12    1    1    2    0    0  0.97170722665E+01  0.51802946532E+01 -0.41980539532E+02  0.43400721717E+02  0.00000000000E+00 0.  1.
         11    1    3    3    0    0 -0.49295910215E+00 -0.69286939818E+01  0.17589231459E+02  0.18911130917E+02  0.51100000000E-03 0. -1.
        -11    1    3    3    0    0 -0.12042585473E+02  0.15747550257E+01  0.22187886753E+02  0.25294387462E+02  0.51100000000E-03 0.  1.
        -12    1    3    3    0    0  0.28184723084E+01  0.17364430296E+00  0.22034213201E+01  0.35817599041E+01  0.00000000000E+00 0.  1.
</event>
<event>
 7    1  0.2442667E-009  0.4778727E+02  0.7816164E-02  0.1312668E+00
        -11   -1    0    0    0    0  0.00000000000E+00  0.00000000000E+00  0.45593999997E+02  0.45594000000E+02  0.51100000000E-03 0. -1.
         11   -1    0    0    0    0 -0.00000000000E+00 -0.00000000000E+00 -0.45593999997E+02  0.45594000000E+02  0.51100000000E-03 0.  1.
    9900012    2    1    2    0    0 -0.22033927563E+02  0.25456828313E+02  0.27387572207E+02  0.47787272091E+02  0.20000004773E+02 0.  0.
        -12    1    1    2    0    0  0.22033927563E+02 -0.25456828313E+02 -0.27387572207E+02  0.43400727909E+02  0.00000000000E+00 0.  1.
         11    1    3    3    0    0 -0.39823262740E+01  0.49333416771E+01 -0.23413117643E+01  0.67585888833E+01  0.51100000000E-03 0. -1.
        -11    1    3    3    0    0 -0.10603487047E+02  0.91752584935E+01  0.10622866463E+02  0.17591605899E+02  0.51100000000E-03 0.  1.
         12    1    3    3    0    0 -0.74481142424E+01  0.11348228143E+02  0.19106017508E+02  0.23437077309E+02  0.00000000000E+00 0. -1.
</event>
<event>
 7    1  0.2442667E-009  0.4778727E+02  0.7816164E-02  0.1312668E+00
        -11   -1    0    0    0    0  0.00000000000E+00  0.00000000000E+00  0.45593999997E+02  0.45594000000E+02  0.51100000000E-03 0.  1.
         11   -1    0    0    0    0 -0.00000000000E+00 -0.00000000000E+00 -0.45593999997E+02  0.45594000000E+02  0.51100000000E-03 0. -1.
    9900012    2    1    2    0    0 -0.16579615435E+02  0.22950552707E+02 -0.32893943912E+02  0.47787273467E+02  0.20000011046E+02 0.  0.
        -12    1    1    2    0    0  0.16579615435E+02 -0.22950552707E+02  0.32893943912E+02  0.43400726533E+02  0.00000000000E+00 0.  1.
         11    1    3    3    0    0 -0.59507631663E+01  0.11035208230E+02 -0.31759381693E+01  0.12933444493E+02  0.51100000000E-03 0. -1.
        -11    1    3    3    0    0 -0.85504048287E+01  0.36305137824E+01 -0.11918353774E+02  0.15110830884E+02  0.51100000000E-03 0.  1.
         12    1    3    3    0    0 -0.20784474402E+01  0.82848306943E+01 -0.17799651969E+02  0.19742998091E+02  0.00000000000E+00 0. -1.
</event>
<event>
 7    1  0.2442667E-009  0.4778727E+02  0.7816164E-02  0.1312668E+00
        -11   -1    0    0    0    0  0.00000000000E+00  0.00000000000E+00  0.45593999997E+02  0.45594000000E+02  0.51100000000E-03 0.  1.
         11   -1    0    0    0    0 -0.00000000000E+00 -0.00000000000E+00 -0.45593999997E+02  0.45594000000E+02  0.51100000000E-03 0. -1.
    9900012    2    1    2    0    0 -0.39401419547E+01  0.29841317500E+02 -0.31266505544E+02  0.47787270540E+02  0.19999997700E+02 0.  0.
        -12    1    1    2    0    0  0.39401419547E+01 -0.29841317500E+02  0.31266505544E+02  0.43400729460E+02  0.00000000000E+00 0.  1.
         11    1    3    3    0    0  0.45762681132E+01  0.39879537783E+01 -0.33924912376E+01  0.69537761137E+01  0.51100000000E-03 0. -1.
        -11    1    3    3    0    0 -0.49911904707E+01  0.14176176067E+02 -0.23460960977E+02  0.27862028648E+02  0.51100000000E-03 0.  1.
        -12    1    3    3    0    0 -0.35252195972E+01  0.11677187655E+02 -0.44130533293E+01  0.12971465778E+02  0.00000000000E+00 0.  1.
</event>
<event>
 7    1  0.2442667E-009  0.4778727E+02  0.7816164E-02  0.1312668E+00
        -11   -1    0    0    0    0  0.00000000000E+00  0.00000000000E+00  0.45593999997E+02  0.45594000000E+02  0.51100000000E-03 0.  1.
         11   -1    0    0    0    0 -0.00000000000E+00 -0.00000000000E+00 -0.45593999997E+02  0.45594000000E+02  0.51100000000E-03 0. -1.
    9900012    2    1    2    0    0  0.41904621646E+02  0.58336063503E+01 -0.96744535674E+01  0.47787270396E+02  0.19999997043E+02 0.  0.
        -12    1    1    2    0    0 -0.41904621646E+02 -0.58336063503E+01  0.96744535674E+01  0.43400729604E+02  0.00000000000E+00 0.  1.
         11    1    3    3    0    0  0.60563036336E+01  0.21361738382E+01  0.30099303248E+01  0.70923714786E+01  0.51100000000E-03 0. -1.
        -11    1    3    3    0    0  0.10805090914E+02  0.52782073011E+01  0.10814952441E+01  0.12073901366E+02  0.51100000000E-03 0.  1.
        -12    1    3    3    0    0  0.25043227098E+02 -0.15807747890E+01 -0.13765879136E+02  0.28620997551E+02  0.00000000000E+00 0.  1.
</event>
<event>
 7    1  0.2442667E-009  0.4778727E+02  0.7816164E-02  0.1312668E+00
        -11   -1    0    0    0    0  0.00000000000E+00  0.00000000000E+00  0.45593999997E+02  0.45594000000E+02  0.51100000000E-03 0.  1.
         11   -1    0    0    0    0 -0.00000000000E+00 -0.00000000000E+00 -0.45593999997E+02  0.45594000000E+02  0.51100000000E-03 0. -1.
    9900012    2    1    2    0    0 -0.68054734907E+01  0.41822923829E+02  0.93889088298E+01  0.47787273784E+02  0.20000012490E+02 0.  0.
        -12    1    1    2    0    0  0.68054734907E+01 -0.41822923829E+02 -0.93889088298E+01  0.43400726216E+02  0.00000000000E+00 0.  1.
         11    1    3    3    0    0 -0.44167962511E+00  0.98142675824E+01  0.34273934845E+01  0.10404900549E+02  0.51100000000E-03 0. -1.
        -11    1    3    3    0    0 -0.74836791432E+01  0.11492690237E+02  0.92944960102E+01  0.16567288214E+02  0.51100000000E-03 0.  1.
        -12    1    3    3    0    0  0.11198852776E+01  0.20515966010E+02 -0.33329806649E+01  0.20815085021E+02  0.00000000000E+00 0.  1.
</event>
<event>
 7    1  0.2442667E-009  0.4778729E+02  0.7816164E-02  0.1312668E+00
        -11   -1    0    0    0    0  0.00000000000E+00  0.00000000000E+00  0.45593999997E+02  0.45594000000E+02  0.51100000000E-03 0.  1.
         11   -1    0    0    0    0 -0.00000000000E+00 -0.00000000000E+00 -0.45593999997E+02  0.45594000000E+02  0.51100000000E-03 0. -1.
    9900012    2    1    2    0    0 -0.26377772566E+02 -0.24402954308E+02 -0.24337843682E+02  0.47787289181E+02  0.20000082691E+02 0.  0.
        -12    1    1    2    0    0  0.26377772566E+02  0.24402954308E+02  0.24337843682E+02  0.43400710819E+02  0.00000000000E+00 0.  1.
         11    1    3    3    0    0 -0.11048794712E+02 -0.94273419471E+01 -0.97606164541E+01  0.17499150682E+02  0.51100000000E-03 0. -1.
        -11    1    3    3    0    0 -0.11958786405E+02 -0.33338869396E+01 -0.13150225489E+02  0.18084684269E+02  0.51100000000E-03 0.  1.
        -12    1    3    3    0    0 -0.33701914493E+01 -0.11641725421E+02 -0.14270017387E+01  0.12203454230E+02  0.00000000000E+00 0.  1.
</event>
<event>
 7    1  0.2442667E-009  0.4778728E+02  0.7816164E-02  0.1312668E+00
        -11   -1    0    0    0    0  0.00000000000E+00  0.00000000000E+00  0.45593999997E+02  0.45594000000E+02  0.51100000000E-03 0. -1.
         11   -1    0    0    0    0 -0.00000000000E+00 -0.00000000000E+00 -0.45593999997E+02  0.45594000000E+02  0.51100000000E-03 0.  1.
    9900012    2    1    2    0    0  0.42626775542E+02 -0.78129748651E+01  0.23533493303E+01  0.47787276246E+02  0.20000023714E+02 0.  0.
        -12    1    1    2    0    0 -0.42626775542E+02  0.78129748651E+01 -0.23533493303E+01  0.43400723754E+02  0.00000000000E+00 0.  1.
         11    1    3    3    0    0  0.40345596690E+02 -0.84583715479E+01 -0.23126832621E+01  0.41287525061E+02  0.51100000000E-03 0. -1.
        -11    1    3    3    0    0  0.27206300446E+01  0.24823685909E+00  0.50862471521E+01  0.57735049780E+01  0.51100000000E-03 0.  1.
         12    1    3    3    0    0 -0.43945119300E+00  0.39715982376E+00 -0.42021455966E+00  0.72624620673E+00  0.00000000000E+00 0. -1.
</event>
<event>
 7    1  0.2442667E-009  0.4778727E+02  0.7816164E-02  0.1312668E+00
        -11   -1    0    0    0    0  0.00000000000E+00  0.00000000000E+00  0.45593999997E+02  0.45594000000E+02  0.51100000000E-03 0. -1.
         11   -1    0    0    0    0 -0.00000000000E+00 -0.00000000000E+00 -0.45593999997E+02  0.45594000000E+02  0.51100000000E-03 0.  1.
    9900012    2    1    2    0    0  0.15332647479E+02 -0.20236696918E+02  0.35199560643E+02  0.47787273620E+02  0.20000011741E+02 0.  0.
        -12    1    1    2    0    0 -0.15332647479E+02  0.20236696918E+02 -0.35199560643E+02  0.43400726380E+02  0.00000000000E+00 0.  1.
         11    1    3    3    0    0  0.60308394901E+01 -0.94557724493E+01  0.90033888800E+01  0.14382060671E+02  0.51100000000E-03 0. -1.
        -11    1    3    3    0    0  0.81442264237E+00  0.31156979799E+01  0.97227111473E+01  0.10242166297E+02  0.51100000000E-03 0.  1.
        -12    1    3    3    0    0  0.84873853469E+01 -0.13896622449E+02  0.16473460616E+02  0.23163046651E+02  0.00000000000E+00 0.  1.
</event>
<event>
 7    1  0.2442667E-009  0.4778727E+02  0.7816164E-02  0.1312668E+00
        -11   -1    0    0    0    0  0.00000000000E+00  0.00000000000E+00  0.45593999997E+02  0.45594000000E+02  0.51100000000E-03 0. -1.
         11   -1    0    0    0    0 -0.00000000000E+00 -0.00000000000E+00 -0.45593999997E+02  0.45594000000E+02  0.51100000000E-03 0.  1.
    9900012    2    1    2    0    0 -0.21308851378E+02  0.46987594315E+00  0.37806548509E+02  0.47787273732E+02  0.20000012254E+02 0.  0.
        -12    1    1    2    0    0  0.21308851378E+02 -0.46987594315E+00 -0.37806548509E+02  0.43400726268E+02  0.00000000000E+00 0.  1.
         11    1    3    3    0    0 -0.10605248069E+02 -0.71291887842E+01  0.22718083299E+02  0.26065454693E+02  0.51100000000E-03 0.  1.
        -11    1    3    3    0    0 -0.53354638552E+01  0.21702388210E+01  0.12321172854E+02  0.13601044513E+02  0.51100000000E-03 0. -1.
         12    1    3    3    0    0 -0.53681394536E+01  0.54288259064E+01  0.27672923560E+01  0.81207745258E+01  0.00000000000E+00 0. -1.
</event>
<event>
 7    1  0.2442667E-009  0.4778727E+02  0.7816164E-02  0.1312668E+00
        -11   -1    0    0    0    0  0.00000000000E+00  0.00000000000E+00  0.45593999997E+02  0.45594000000E+02  0.51100000000E-03 0.  1.
         11   -1    0    0    0    0 -0.00000000000E+00 -0.00000000000E+00 -0.45593999997E+02  0.45594000000E+02  0.51100000000E-03 0. -1.
    9900012    2    1    2    0    0  0.13742978875E+02 -0.63315161267E+01 -0.40677580650E+02  0.47787272675E+02  0.20000007434E+02 0.  0.
        -12    1    1    2    0    0 -0.13742978875E+02  0.63315161267E+01  0.40677580650E+02  0.43400727325E+02  0.00000000000E+00 0.  1.
         11    1    3    3    0    0  0.17928292218E+00 -0.88881459296E+01 -0.10530976339E+02  0.13781608881E+02  0.51100000000E-03 0. -1.
        -11    1    3    3    0    0  0.29757908033E+01  0.11591336093E+00 -0.14328053734E+01  0.33047992846E+01  0.51100000000E-03 0.  1.
         12    1    3    3    0    0  0.10587905149E+02  0.24407164420E+01 -0.28713798937E+02  0.30700864509E+02  0.00000000000E+00 0. -1.
</event>
<event>
 7    1  0.2442667E-009  0.4778727E+02  0.7816164E-02  0.1312668E+00
        -11   -1    0    0    0    0  0.00000000000E+00  0.00000000000E+00  0.45593999997E+02  0.45594000000E+02  0.51100000000E-03 0.  1.
         11   -1    0    0    0    0 -0.00000000000E+00 -0.00000000000E+00 -0.45593999997E+02  0.45594000000E+02  0.51100000000E-03 0. -1.
    9900012    2    1    2    0    0  0.42677430487E+02  0.78717244959E+01 -0.54419931093E+00  0.47787271061E+02  0.20000000076E+02 0.  0.
        -12    1    1    2    0    0 -0.42677430487E+02 -0.78717244959E+01  0.54419931093E+00  0.43400728939E+02  0.00000000000E+00 0.  1.
         11    1    3    3    0    0  0.18990796834E+02  0.79715359193E+01 -0.22655614677E+01  0.20720244167E+02  0.51100000000E-03 0. -1.
        -11    1    3    3    0    0 -0.14818805747E+01 -0.96540635988E+00  0.56667111767E+00  0.18571741691E+01  0.51100000000E-03 0.  1.
        -12    1    3    3    0    0  0.25168514228E+02  0.86559493655E+00  0.11546910391E+01  0.25209852726E+02  0.00000000000E+00 0.  1.
</event>
<event>
 7    1  0.2442667E-009  0.4778727E+02  0.7816164E-02  0.1312668E+00
        -11   -1    0    0    0    0  0.00000000000E+00  0.00000000000E+00  0.45593999997E+02  0.45594000000E+02  0.51100000000E-03 0. -1.
         11   -1    0    0    0    0 -0.00000000000E+00 -0.00000000000E+00 -0.45593999997E+02  0.45594000000E+02  0.51100000000E-03 0.  1.
    9900012    2    1    2    0    0  0.34689282018E+02 -0.87235800064E+01 -0.24579992330E+02  0.47787272379E+02  0.20000006087E+02 0.  0.
        -12    1    1    2    0    0 -0.34689282018E+02  0.87235800064E+01  0.24579992330E+02  0.43400727621E+02  0.00000000000E+00 0.  1.
         11    1    3    3    0    0  0.31129611651E+02 -0.66701040459E+01 -0.12156531422E+02  0.34078208081E+02  0.51100000000E-03 0. -1.
        -11    1    3    3    0    0 -0.38370677243E+00 -0.53347281683E+00 -0.58986901602E+01  0.59351807049E+01  0.51100000000E-03 0.  1.
         12    1    3    3    0    0  0.39433771398E+01 -0.15200031436E+01 -0.65247707475E+01  0.77738835939E+01  0.00000000000E+00 0. -1.
</event>
<event>
 7    1  0.2442667E-009  0.4778728E+02  0.7816164E-02  0.1312668E+00
        -11   -1    0    0    0    0  0.00000000000E+00  0.00000000000E+00  0.45593999997E+02  0.45594000000E+02  0.51100000000E-03 0.  1.
         11   -1    0    0    0    0 -0.00000000000E+00 -0.00000000000E+00 -0.45593999997E+02  0.45594000000E+02  0.51100000000E-03 0. -1.
    9900012    2    1    2    0    0  0.29318248831E+02 -0.28699455260E+01 -0.31872030458E+02  0.47787278493E+02  0.20000033959E+02 0.  0.
        -12    1    1    2    0    0 -0.29318248831E+02  0.28699455260E+01  0.31872030458E+02  0.43400721507E+02  0.00000000000E+00 0.  1.
         11    1    3    3    0    0  0.17636904091E+02 -0.58316517590E+01 -0.29440051750E+02  0.34810705185E+02  0.51100000000E-03 0. -1.
        -11    1    3    3    0    0  0.11146441889E+02  0.31701807393E+01 -0.31957817795E+01  0.12021074584E+02  0.51100000000E-03 0.  1.
        -12    1    3    3    0    0  0.53490285106E+00 -0.20847450626E+00  0.76380307147E+00  0.95549872413E+00  0.00000000000E+00 0.  1.
</event>
<event>
 7    1  0.2442667E-009  0.4778727E+02  0.7816164E-02  0.1312668E+00
        -11   -1    0    0    0    0  0.00000000000E+00  0.00000000000E+00  0.45593999997E+02  0.45594000000E+02  0.51100000000E-03 0. -1.
         11   -1    0    0    0    0 -0.00000000000E+00 -0.00000000000E+00 -0.45593999997E+02  0.45594000000E+02  0.51100000000E-03 0.  1.
    9900012    2    1    2    0    0 -0.27608235761E+02  0.26464160826E+02  0.20519673616E+02  0.47787268492E+02  0.19999988364E+02 0.  0.
        -12    1    1    2    0    0  0.27608235761E+02 -0.26464160826E+02 -0.20519673616E+02  0.43400731508E+02  0.00000000000E+00 0.  1.
         11    1    3    3    0    0 -0.14468232911E+02  0.19401965128E+02  0.12463343159E+02  0.27223169128E+02  0.51100000000E-03 0. -1.
        -11    1    3    3    0    0 -0.20719617548E+01  0.20248714498E+00  0.72219070084E+01  0.75159808180E+01  0.51100000000E-03 0.  1.
         12    1    3    3    0    0 -0.11068041095E+02  0.68597085539E+01  0.83442344868E+00  0.13048118547E+02  0.00000000000E+00 0. -1.
</event>
<event>
 7    1  0.2442667E-009  0.4778727E+02  0.7816164E-02  0.1312668E+00
        -11   -1    0    0    0    0  0.00000000000E+00  0.00000000000E+00  0.45593999997E+02  0.45594000000E+02  0.51100000000E-03 0.  1.
         11   -1    0    0    0    0 -0.00000000000E+00 -0.00000000000E+00 -0.45593999997E+02  0.45594000000E+02  0.51100000000E-03 0. -1.
    9900012    2    1    2    0    0 -0.15358536310E+02  0.19368080599E+02 -0.35673742959E+02  0.47787272813E+02  0.20000008064E+02 0.  0.
        -12    1    1    2    0    0  0.15358536310E+02 -0.19368080599E+02  0.35673742959E+02  0.43400727187E+02  0.00000000000E+00 0.  1.
         11    1    3    3    0    0 -0.11222327752E+02  0.13670856254E+02 -0.26662698070E+02  0.31995818782E+02  0.51100000000E-03 0. -1.
        -11    1    3    3    0    0 -0.44690762242E+00  0.35318813238E+01  0.19259566956E+01  0.40476192463E+01  0.51100000000E-03 0.  1.
        -12    1    3    3    0    0 -0.36893009352E+01  0.21653430203E+01 -0.10937001585E+02  0.11743834785E+02  0.00000000000E+00 0.  1.
</event>
<event>
 7    1  0.2442667E-009  0.4778727E+02  0.7816164E-02  0.1312668E+00
        -11   -1    0    0    0    0  0.00000000000E+00  0.00000000000E+00  0.45593999997E+02  0.45594000000E+02  0.51100000000E-03 0.  1.
         11   -1    0    0    0    0 -0.00000000000E+00 -0.00000000000E+00 -0.45593999997E+02  0.45594000000E+02  0.51100000000E-03 0. -1.
    9900012    2    1    2    0    0  0.78347682536E+01 -0.31787692105E+02 -0.28491790698E+02  0.47787273046E+02  0.20000009125E+02 0.  0.
        -12    1    1    2    0    0 -0.78347682536E+01  0.31787692105E+02  0.28491790698E+02  0.43400726954E+02  0.00000000000E+00 0.  1.
         11    1    3    3    0    0  0.62316987901E+01 -0.95080012077E+01 -0.84110224714E+01  0.14141479981E+02  0.51100000000E-03 0. -1.
        -11    1    3    3    0    0  0.51987544151E+01 -0.12738547295E+02 -0.18905700502E+02  0.23382111675E+02  0.51100000000E-03 0.  1.
        -12    1    3    3    0    0 -0.35956849516E+01 -0.95411436023E+01 -0.11750677247E+01  0.10263681390E+02  0.00000000000E+00 0.  1.
</event>
<event>
 7    1  0.2442667E-009  0.4778727E+02  0.7816164E-02  0.1312668E+00
        -11   -1    0    0    0    0  0.00000000000E+00  0.00000000000E+00  0.45593999997E+02  0.45594000000E+02  0.51100000000E-03 0.  1.
         11   -1    0    0    0    0 -0.00000000000E+00 -0.00000000000E+00 -0.45593999997E+02  0.45594000000E+02  0.51100000000E-03 0. -1.
    9900012    2    1    2    0    0 -0.21086669394E+02  0.18408603284E+02 -0.33167735939E+02  0.47787274104E+02  0.20000013949E+02 0.  0.
        -12    1    1    2    0    0  0.21086669394E+02 -0.18408603284E+02  0.33167735939E+02  0.43400725896E+02  0.00000000000E+00 0.  1.
         11    1    3    3    0    0 -0.23684028376E+02  0.18208322432E+02 -0.29544134326E+02  0.42015855094E+02  0.51100000000E-03 0. -1.
        -11    1    3    3    0    0  0.15410996157E+00 -0.11688250671E+01  0.15897242545E-01  0.11790483032E+01  0.51100000000E-03 0.  1.
         12    1    3    3    0    0  0.24432490203E+01  0.13691059186E+01 -0.36394988555E+01  0.45923707071E+01  0.00000000000E+00 0. -1.
</event>
<event>
 7    1  0.2442667E-009  0.4778727E+02  0.7816164E-02  0.1312668E+00
        -11   -1    0    0    0    0  0.00000000000E+00  0.00000000000E+00  0.45593999997E+02  0.45594000000E+02  0.51100000000E-03 0. -1.
         11   -1    0    0    0    0 -0.00000000000E+00 -0.00000000000E+00 -0.45593999997E+02  0.45594000000E+02  0.51100000000E-03 0.  1.
    9900012    2    1    2    0    0  0.33581288051E+02  0.21430171439E+02 -0.17224063117E+02  0.47787268378E+02  0.19999987843E+02 0.  0.
        -12    1    1    2    0    0 -0.33581288051E+02 -0.21430171439E+02  0.17224063117E+02  0.43400731622E+02  0.00000000000E+00 0.  1.
         11    1    3    3    0    0  0.11616856576E+02  0.31673497472E+01 -0.37556862521E+01  0.12613034552E+02  0.51100000000E-03 0. -1.
        -11    1    3    3    0    0  0.13429701820E+02  0.19674996782E+02 -0.93133005459E+01  0.25577332869E+02  0.51100000000E-03 0.  1.
        -12    1    3    3    0    0  0.85347296550E+01 -0.14121750900E+01 -0.41550763188E+01  0.95969009573E+01  0.00000000000E+00 0.  1.
</event>
<event>
 7    1  0.2442667E-009  0.4778727E+02  0.7816164E-02  0.1312668E+00
        -11   -1    0    0    0    0  0.00000000000E+00  0.00000000000E+00  0.45593999997E+02  0.45594000000E+02  0.51100000000E-03 0. -1.
         11   -1    0    0    0    0 -0.00000000000E+00 -0.00000000000E+00 -0.45593999997E+02  0.45594000000E+02  0.51100000000E-03 0.  1.
    9900012    2    1    2    0    0  0.28353675532E+02  0.32856943319E+02 -0.33692467787E+00  0.47787272371E+02  0.20000006050E+02 0.  0.
        -12    1    1    2    0    0 -0.28353675532E+02 -0.32856943319E+02  0.33692467787E+00  0.43400727629E+02  0.00000000000E+00 0.  1.
         11    1    3    3    0    0 -0.11948205903E+01  0.85012237975E+01 -0.14452312298E+00  0.85859937976E+01  0.51100000000E-03 0.  1.
        -11    1    3    3    0    0  0.28503003077E+02  0.24514364798E+02 -0.13683772984E+01  0.37619778343E+02  0.51100000000E-03 0. -1.
        -12    1    3    3    0    0  0.10454930455E+01 -0.15864527648E+00  0.11759757436E+01  0.15815002312E+01  0.00000000000E+00 0.  1.
</event>
<event>
 7    1  0.2442667E-009  0.4778727E+02  0.7816164E-02  0.1312668E+00
        -11   -1    0    0    0    0  0.00000000000E+00  0.00000000000E+00  0.45593999997E+02  0.45594000000E+02  0.51100000000E-03 0.  1.
         11   -1    0    0    0    0 -0.00000000000E+00 -0.00000000000E+00 -0.45593999997E+02  0.45594000000E+02  0.51100000000E-03 0. -1.
    9900012    2    1    2    0    0  0.22778491664E+02  0.34993763593E+02 -0.11840614299E+02  0.47787270515E+02  0.19999997585E+02 0.  0.
        -12    1    1    2    0    0 -0.22778491664E+02 -0.34993763593E+02  0.11840614299E+02  0.43400729485E+02  0.00000000000E+00 0.  1.
         11    1    3    3    0    0  0.19066665128E+02  0.23996481305E+02 -0.60388360299E+01  0.31238379839E+02  0.51100000000E-03 0. -1.
        -11    1    3    3    0    0 -0.13195124078E+01  0.12748239092E+01  0.22910249475E+01  0.29351464299E+01  0.51100000000E-03 0.  1.
         12    1    3    3    0    0  0.50313389443E+01  0.97224583788E+01 -0.80928032164E+01  0.13613744246E+02  0.00000000000E+00 0. -1.
</event>
<event>
 7    1  0.2442667E-009  0.4778728E+02  0.7816164E-02  0.1312668E+00
        -11   -1    0    0    0    0  0.00000000000E+00  0.00000000000E+00  0.45593999997E+02  0.45594000000E+02  0.51100000000E-03 0.  1.
         11   -1    0    0    0    0 -0.00000000000E+00 -0.00000000000E+00 -0.45593999997E+02  0.45594000000E+02  0.51100000000E-03 0. -1.
    9900012    2    1    2    0    0 -0.21450819338E+02  0.10594545384E+02 -0.36211055850E+02  0.47787278716E+02  0.20000034979E+02 0.  0.
        -12    1    1    2    0    0  0.21450819338E+02 -0.10594545384E+02  0.36211055850E+02  0.43400721284E+02  0.00000000000E+00 0.  1.
         11    1    3    3    0    0 -0.86239999947E+01  0.24527614434E+01 -0.23755452160E+02  0.25391158347E+02  0.51100000000E-03 0. -1.
        -11    1    3    3    0    0 -0.13558995494E+02  0.94494428792E+01 -0.12744195743E+02  0.20869903088E+02  0.51100000000E-03 0.  1.
         12    1    3    3    0    0  0.73217615012E+00 -0.13076589390E+01  0.28859205303E+00  0.15262172810E+01  0.00000000000E+00 0. -1.
</event>
<event>
 7    1  0.2442667E-009  0.4778727E+02  0.7816164E-02  0.1312668E+00
        -11   -1    0    0    0    0  0.00000000000E+00  0.00000000000E+00  0.45593999997E+02  0.45594000000E+02  0.51100000000E-03 0.  1.
         11   -1    0    0    0    0 -0.00000000000E+00 -0.00000000000E+00 -0.45593999997E+02  0.45594000000E+02  0.51100000000E-03 0. -1.
    9900012    2    1    2    0    0  0.12829357926E+02  0.12372570848E+02 -0.39572087286E+02  0.47787273896E+02  0.20000013001E+02 0.  0.
        -12    1    1    2    0    0 -0.12829357926E+02 -0.12372570848E+02  0.39572087286E+02  0.43400726104E+02  0.00000000000E+00 0.  1.
         11    1    3    3    0    0  0.77167621352E+01  0.11229145336E+02 -0.24429524222E+02  0.27972196496E+02  0.51100000000E-03 0. -1.
        -11    1    3    3    0    0  0.57525312445E+01 -0.19576740436E+01 -0.21553869856E+01  0.64474643620E+01  0.51100000000E-03 0.  1.
         12    1    3    3    0    0 -0.63993545376E+00  0.31010995559E+01 -0.12987176079E+02  0.13367613038E+02  0.00000000000E+00 0. -1.
</event>
<event>
 7    1  0.2442667E-009  0.4778727E+02  0.7816164E-02  0.1312668E+00
        -11   -1    0    0    0    0  0.00000000000E+00  0.00000000000E+00  0.45593999997E+02  0.45594000000E+02  0.51100000000E-03 0. -1.
         11   -1    0    0    0    0 -0.00000000000E+00 -0.00000000000E+00 -0.45593999997E+02  0.45594000000E+02  0.51100000000E-03 0.  1.
    9900012    2    1    2    0    0  0.19157776047E+02 -0.23524877066E+02  0.31035188892E+02  0.47787272200E+02  0.20000005266E+02 0.  0.
        -12    1    1    2    0    0 -0.19157776047E+02  0.23524877066E+02 -0.31035188892E+02  0.43400727800E+02  0.00000000000E+00 0.  1.
         11    1    3    3    0    0  0.10950342020E+02 -0.62150013675E+01  0.20194882681E+02  0.23798519263E+02  0.51100000000E-03 0. -1.
        -11    1    3    3    0    0  0.48743919220E+01 -0.40592388769E+01 -0.31324379768E+00  0.63510029765E+01  0.51100000000E-03 0.  1.
        -12    1    3    3    0    0  0.33330421051E+01 -0.13250636822E+02  0.11153550009E+02  0.17637749960E+02  0.00000000000E+00 0.  1.
</event>
<event>
 7    1  0.2442667E-009  0.4778727E+02  0.7816164E-02  0.1312668E+00
        -11   -1    0    0    0    0  0.00000000000E+00  0.00000000000E+00  0.45593999997E+02  0.45594000000E+02  0.51100000000E-03 0.  1.
         11   -1    0    0    0    0 -0.00000000000E+00 -0.00000000000E+00 -0.45593999997E+02  0.45594000000E+02  0.51100000000E-03 0. -1.
    9900012    2    1    2    0    0 -0.30999526538E+02 -0.71481240961E+01 -0.29522143343E+02  0.47787271075E+02  0.20000000140E+02 0.  0.
        -12    1    1    2    0    0  0.30999526538E+02  0.71481240961E+01  0.29522143343E+02  0.43400728925E+02  0.00000000000E+00 0.  1.
         11    1    3    3    0    0 -0.55158840300E+01 -0.25325595741E+01  0.77901211232E+00  0.61192887463E+01  0.51100000000E-03 0.  1.
        -11    1    3    3    0    0 -0.13860967135E+02 -0.54272130235E+01 -0.90171856138E+01  0.17403754991E+02  0.51100000000E-03 0. -1.
         12    1    3    3    0    0 -0.11622675372E+02  0.81164850147E+00 -0.21283969841E+02  0.24264227338E+02  0.00000000000E+00 0. -1.
</event>
<event>
 7    1  0.2442667E-009  0.4778727E+02  0.7816164E-02  0.1312668E+00
        -11   -1    0    0    0    0  0.00000000000E+00  0.00000000000E+00  0.45593999997E+02  0.45594000000E+02  0.51100000000E-03 0. -1.
         11   -1    0    0    0    0 -0.00000000000E+00 -0.00000000000E+00 -0.45593999997E+02  0.45594000000E+02  0.51100000000E-03 0.  1.
    9900012    2    1    2    0    0 -0.83197423120E+01 -0.67222602984E+01  0.42062055791E+02  0.47787269211E+02  0.19999991639E+02 0.  0.
        -12    1    1    2    0    0  0.83197423120E+01  0.67222602984E+01 -0.42062055791E+02  0.43400730789E+02  0.00000000000E+00 0.  1.
         11    1    3    3    0    0 -0.80606659002E+01  0.31281111210E+01  0.29110594305E+02  0.30367517432E+02  0.51100000000E-03 0. -1.
        -11    1    3    3    0    0  0.15438671373E+01 -0.24497650590E+01  0.67672676335E+00  0.29736902924E+01  0.51100000000E-03 0.  1.
         12    1    3    3    0    0 -0.18029435491E+01 -0.74006063604E+01  0.12274734723E+02  0.14446061486E+02  0.00000000000E+00 0. -1.
</event>
<event>
 7    1  0.2442667E-009  0.4778728E+02  0.7816164E-02  0.1312668E+00
        -11   -1    0    0    0    0  0.00000000000E+00  0.00000000000E+00  0.45593999997E+02  0.45594000000E+02  0.51100000000E-03 0. -1.
         11   -1    0    0    0    0 -0.00000000000E+00 -0.00000000000E+00 -0.45593999997E+02  0.45594000000E+02  0.51100000000E-03 0.  1.
    9900012    2    1    2    0    0  0.18008237420E+02 -0.66553945565E+01  0.38923412062E+02  0.47787275372E+02  0.20000019732E+02 0.  0.
        -12    1    1    2    0    0 -0.18008237420E+02  0.66553945565E+01 -0.38923412062E+02  0.43400724628E+02  0.00000000000E+00 0.  1.
         11    1    3    3    0    0 -0.39483980875E+00  0.44911166810E+01  0.11741052502E+02  0.12576897139E+02  0.51100000000E-03 0. -1.
        -11    1    3    3    0    0  0.11095226449E+02 -0.42637366289E+01  0.18212071661E+02  0.21747713775E+02  0.51100000000E-03 0.  1.
         12    1    3    3    0    0  0.73078507803E+01 -0.68827746086E+01  0.89702878990E+01  0.13462664459E+02  0.00000000000E+00 0. -1.
</event>
<event>
 7    1  0.2442667E-009  0.4778733E+02  0.7816164E-02  0.1312667E+00
        -11   -1    0    0    0    0  0.00000000000E+00  0.00000000000E+00  0.45593999997E+02  0.45594000000E+02  0.51100000000E-03 0. -1.
         11   -1    0    0    0    0 -0.00000000000E+00 -0.00000000000E+00 -0.45593999997E+02  0.45594000000E+02  0.51100000000E-03 0.  1.
    9900012    2    1    2    0    0 -0.29571951434E+01 -0.21813458336E+02  0.37403820531E+02  0.47787334590E+02  0.20000289730E+02 0.  0.
        -12    1    1    2    0    0  0.29571951434E+01  0.21813458336E+02 -0.37403820531E+02  0.43400665410E+02  0.00000000000E+00 0.  1.
         11    1    3    3    0    0  0.45498166893E+00 -0.18654959545E+02  0.30666046880E+02  0.35897366971E+02  0.51100000000E-03 0. -1.
        -11    1    3    3    0    0  0.24448089187E+01  0.69416130550E+00  0.69549601338E+00  0.26348938371E+01  0.51100000000E-03 0.  1.
         12    1    3    3    0    0 -0.58569857310E+01 -0.38526600966E+01  0.60422776378E+01  0.92550737828E+01  0.00000000000E+00 0. -1.
</event>
<event>
 7    1  0.2442667E-009  0.4778727E+02  0.7816164E-02  0.1312668E+00
        -11   -1    0    0    0    0  0.00000000000E+00  0.00000000000E+00  0.45593999997E+02  0.45594000000E+02  0.51100000000E-03 0.  1.
         11   -1    0    0    0    0 -0.00000000000E+00 -0.00000000000E+00 -0.45593999997E+02  0.45594000000E+02  0.51100000000E-03 0. -1.
    9900012    2    1    2    0    0 -0.21964781187E+02  0.14256699037E+02 -0.34610957741E+02  0.47787268719E+02  0.19999989397E+02 0.  0.
        -12    1    1    2    0    0  0.21964781187E+02 -0.14256699037E+02  0.34610957741E+02  0.43400731281E+02  0.00000000000E+00 0.  1.
         11    1    3    3    0    0 -0.22769100081E+01  0.58589674616E+01 -0.57640002824E+01  0.85285120869E+01  0.51100000000E-03 0. -1.
        -11    1    3    3    0    0 -0.14497202090E+02  0.71802351610E+01 -0.86002033430E+01  0.18321794214E+02  0.51100000000E-03 0.  1.
        -12    1    3    3    0    0 -0.51906690885E+01  0.12174964141E+01 -0.20246754115E+02  0.20936962418E+02  0.00000000000E+00 0.  1.
</event>
<event>
 7    1  0.2442667E-009  0.4778727E+02  0.7816164E-02  0.1312668E+00
        -11   -1    0    0    0    0  0.00000000000E+00  0.00000000000E+00  0.45593999997E+02  0.45594000000E+02  0.51100000000E-03 0.  1.
         11   -1    0    0    0    0 -0.00000000000E+00 -0.00000000000E+00 -0.45593999997E+02  0.45594000000E+02  0.51100000000E-03 0. -1.
    9900012    2    1    2    0    0 -0.72527345662E+01  0.42306815626E+02  0.64151904142E+01  0.47787268726E+02  0.19999989429E+02 0.  0.
        -12    1    1    2    0    0  0.72527345662E+01 -0.42306815626E+02 -0.64151904142E+01  0.43400731274E+02  0.00000000000E+00 0.  1.
         11    1    3    3    0    0 -0.74757316329E+01  0.14635118268E+02 -0.50422968845E+01  0.17190055506E+02  0.51100000000E-03 0. -1.
        -11    1    3    3    0    0 -0.96294022973E+00  0.23747174625E+02  0.11699541688E+02  0.26490278076E+02  0.51100000000E-03 0.  1.
         12    1    3    3    0    0  0.11859372964E+01  0.39245227331E+01 -0.24205438931E+00  0.41069351445E+01  0.00000000000E+00 0. -1.
</event>
<event>
 7    1  0.2442667E-009  0.4778727E+02  0.7816164E-02  0.1312668E+00
        -11   -1    0    0    0    0  0.00000000000E+00  0.00000000000E+00  0.45593999997E+02  0.45594000000E+02  0.51100000000E-03 0. -1.
         11   -1    0    0    0    0 -0.00000000000E+00 -0.00000000000E+00 -0.45593999997E+02  0.45594000000E+02  0.51100000000E-03 0.  1.
    9900012    2    1    2    0    0 -0.25465107216E+02 -0.13034215768E+02  0.32638332489E+02  0.47787271736E+02  0.20000003152E+02 0.  0.
        -12    1    1    2    0    0  0.25465107216E+02  0.13034215768E+02 -0.32638332489E+02  0.43400728264E+02  0.00000000000E+00 0.  1.
         11    1    3    3    0    0 -0.11177069417E+02 -0.30533342685E+01  0.23117795999E+02  0.25858890599E+02  0.51100000000E-03 0. -1.
        -11    1    3    3    0    0 -0.27075575808E+01 -0.72359595160E+01  0.25494902294E+01  0.81357162476E+01  0.51100000000E-03 0.  1.
         12    1    3    3    0    0 -0.11580480218E+02 -0.27449219832E+01  0.69710462609E+01  0.13792664889E+02  0.00000000000E+00 0. -1.
</event>
<event>
 7    1  0.2442667E-009  0.4778727E+02  0.7816164E-02  0.1312668E+00
        -11   -1    0    0    0    0  0.00000000000E+00  0.00000000000E+00  0.45593999997E+02  0.45594000000E+02  0.51100000000E-03 0.  1.
         11   -1    0    0    0    0 -0.00000000000E+00 -0.00000000000E+00 -0.45593999997E+02  0.45594000000E+02  0.51100000000E-03 0. -1.
    9900012    2    1    2    0    0 -0.95954530090E+01 -0.22742565053E+02 -0.35697703347E+02  0.47787274109E+02  0.20000013973E+02 0.  0.
        -12    1    1    2    0    0  0.95954530090E+01  0.22742565053E+02  0.35697703347E+02  0.43400725891E+02  0.00000000000E+00 0.  1.
         11    1    3    3    0    0 -0.36769400239E+01 -0.97819713050E+01 -0.19615357845E+02  0.22225415951E+02  0.51100000000E-03 0. -1.
        -11    1    3    3    0    0 -0.77248251536E+01 -0.18256938359E+01 -0.99303254970E+01  0.12712885053E+02  0.51100000000E-03 0.  1.
        -12    1    3    3    0    0  0.18063121685E+01 -0.11134899912E+02 -0.61520200042E+01  0.12848973104E+02  0.00000000000E+00 0.  1.
</event>
<event>
 7    1  0.2442667E-009  0.4778727E+02  0.7816164E-02  0.1312668E+00
        -11   -1    0    0    0    0  0.00000000000E+00  0.00000000000E+00  0.45593999997E+02  0.45594000000E+02  0.51100000000E-03 0.  1.
         11   -1    0    0    0    0 -0.00000000000E+00 -0.00000000000E+00 -0.45593999997E+02  0.45594000000E+02  0.51100000000E-03 0. -1.
    9900012    2    1    2    0    0 -0.46347429275E+01 -0.28689255242E+02 -0.32234594505E+02  0.47787270844E+02  0.19999999086E+02 0.  0.
        -12    1    1    2    0    0  0.46347429275E+01  0.28689255242E+02  0.32234594505E+02  0.43400729156E+02  0.00000000000E+00 0.  1.
         11    1    3    3    0    0 -0.27364709398E+01 -0.91454611563E+01 -0.18082864151E+02  0.20447926769E+02  0.51100000000E-03 0. -1.
        -11    1    3    3    0    0  0.47962398891E+01 -0.11935103250E+02 -0.54048662815E+01  0.13952174972E+02  0.51100000000E-03 0.  1.
        -12    1    3    3    0    0 -0.66945118768E+01 -0.76086908359E+01 -0.87468640723E+01  0.13387169103E+02  0.00000000000E+00 0.  1.
</event>
<event>
 7    1  0.2442667E-009  0.4778727E+02  0.7816164E-02  0.1312668E+00
        -11   -1    0    0    0    0  0.00000000000E+00  0.00000000000E+00  0.45593999997E+02  0.45594000000E+02  0.51100000000E-03 0.  1.
         11   -1    0    0    0    0 -0.00000000000E+00 -0.00000000000E+00 -0.45593999997E+02  0.45594000000E+02  0.51100000000E-03 0. -1.
    9900012    2    1    2    0    0 -0.28621828101E+02  0.28727959014E+02  0.15463455481E+02  0.47787272721E+02  0.20000007646E+02 0.  0.
        -12    1    1    2    0    0  0.28621828101E+02 -0.28727959014E+02 -0.15463455481E+02  0.43400727279E+02  0.00000000000E+00 0.  1.
         11    1    3    3    0    0 -0.76363002660E+01  0.36265633793E+01  0.11180082253E+02  0.14016393371E+02  0.51100000000E-03 0. -1.
        -11    1    3    3    0    0 -0.32396713908E+01  0.10662498333E+01  0.16203344004E+01  0.37759559396E+01  0.51100000000E-03 0.  1.
         12    1    3    3    0    0 -0.17745856444E+02  0.24035145801E+02  0.26630388274E+01  0.29994923410E+02  0.00000000000E+00 0. -1.
</event>
<event>
 7    1  0.2442667E-009  0.4778729E+02  0.7816164E-02  0.1312668E+00
        -11   -1    0    0    0    0  0.00000000000E+00  0.00000000000E+00  0.45593999997E+02  0.45594000000E+02  0.51100000000E-03 0. -1.
         11   -1    0    0    0    0 -0.00000000000E+00 -0.00000000000E+00 -0.45593999997E+02  0.45594000000E+02  0.51100000000E-03 0.  1.
    9900012    2    1    2    0    0  0.34715864934E+02 -0.94747444408E+01  0.24262316147E+02  0.47787285200E+02  0.20000064539E+02 0.  0.
        -12    1    1    2    0    0 -0.34715864934E+02  0.94747444408E+01 -0.24262316147E+02  0.43400714800E+02  0.00000000000E+00 0.  1.
         11    1    3    3    0    0  0.93596860044E+01 -0.60887581090E+01  0.12203970767E+02  0.16541269605E+02  0.51100000000E-03 0. -1.
        -11    1    3    3    0    0  0.16166531718E+02 -0.11266728874E+01  0.37391409983E+00  0.16210057113E+02  0.51100000000E-03 0.  1.
        -12    1    3    3    0    0  0.91896472121E+01 -0.22593134445E+01  0.11684431280E+02  0.15035958482E+02  0.00000000000E+00 0.  1.
</event>
<event>
 7    1  0.2442667E-009  0.4778727E+02  0.7816164E-02  0.1312668E+00
        -11   -1    0    0    0    0  0.00000000000E+00  0.00000000000E+00  0.45593999997E+02  0.45594000000E+02  0.51100000000E-03 0. -1.
         11   -1    0    0    0    0 -0.00000000000E+00 -0.00000000000E+00 -0.45593999997E+02  0.45594000000E+02  0.51100000000E-03 0.  1.
    9900012    2    1    2    0    0 -0.40480235988E+02 -0.14737017232E+02  0.52719990918E+01  0.47787272392E+02  0.20000006142E+02 0.  0.
        -12    1    1    2    0    0  0.40480235988E+02  0.14737017232E+02 -0.52719990918E+01  0.43400727608E+02  0.00000000000E+00 0.  1.
         11    1    3    3    0    0 -0.87667732573E+01 -0.43111321293E+00  0.12202651115E+00  0.87782152330E+01  0.51100000000E-03 0. -1.
        -11    1    3    3    0    0 -0.32172041021E+02 -0.13015428360E+02  0.10876663126E+01  0.34722105597E+02  0.51100000000E-03 0.  1.
        -12    1    3    3    0    0  0.45857829018E+00 -0.12904756594E+01  0.40623062680E+01  0.42869515615E+01  0.00000000000E+00 0.  1.
</event>
<event>
 7    1  0.2442667E-009  0.4778727E+02  0.7816164E-02  0.1312668E+00
        -11   -1    0    0    0    0  0.00000000000E+00  0.00000000000E+00  0.45593999997E+02  0.45594000000E+02  0.51100000000E-03 0.  1.
         11   -1    0    0    0    0 -0.00000000000E+00 -0.00000000000E+00 -0.45593999997E+02  0.45594000000E+02  0.51100000000E-03 0. -1.
    9900012    2    1    2    0    0  0.62230642160E+01 -0.39461727327E+02 -0.16960801542E+02  0.47787271425E+02  0.20000001735E+02 0.  0.
        -12    1    1    2    0    0 -0.62230642160E+01  0.39461727327E+02  0.16960801542E+02  0.43400728575E+02  0.00000000000E+00 0.  1.
         11    1    3    3    0    0  0.56372437275E+01 -0.32787589121E+02 -0.63098041731E+01  0.33861750489E+02  0.51100000000E-03 0. -1.
        -11    1    3    3    0    0  0.26497380563E+01 -0.43948130714E+01 -0.91796366140E+01  0.10516711574E+02  0.51100000000E-03 0.  1.
        -12    1    3    3    0    0 -0.20639175679E+01 -0.22793251345E+01 -0.14713607548E+01  0.34088093620E+01  0.00000000000E+00 0.  1.
</event>
<event>
 7    1  0.2442667E-009  0.4778727E+02  0.7816164E-02  0.1312668E+00
        -11   -1    0    0    0    0  0.00000000000E+00  0.00000000000E+00  0.45593999997E+02  0.45594000000E+02  0.51100000000E-03 0.  1.
         11   -1    0    0    0    0 -0.00000000000E+00 -0.00000000000E+00 -0.45593999997E+02  0.45594000000E+02  0.51100000000E-03 0. -1.
    9900012    2    1    2    0    0  0.74855578712E+01 -0.12729346838E+01 -0.42731364166E+02  0.47787269328E+02  0.19999992174E+02 0.  0.
        -12    1    1    2    0    0 -0.74855578712E+01  0.12729346838E+01  0.42731364166E+02  0.43400730672E+02  0.00000000000E+00 0.  1.
         11    1    3    3    0    0  0.10130895814E+02  0.27060309935E+00 -0.10888153742E+02  0.14874816577E+02  0.51100000000E-03 0. -1.
        -11    1    3    3    0    0  0.11003602927E+01 -0.22260954366E+01 -0.33713907785E+01  0.41871911479E+01  0.51100000000E-03 0.  1.
         12    1    3    3    0    0 -0.37456982355E+01  0.68255765353E+00 -0.28471819646E+02  0.28725261603E+02  0.00000000000E+00 0. -1.
</event>
<event>
 7    1  0.2442667E-009  0.4778727E+02  0.7816164E-02  0.1312668E+00
        -11   -1    0    0    0    0  0.00000000000E+00  0.00000000000E+00  0.45593999997E+02  0.45594000000E+02  0.51100000000E-03 0.  1.
         11   -1    0    0    0    0 -0.00000000000E+00 -0.00000000000E+00 -0.45593999997E+02  0.45594000000E+02  0.51100000000E-03 0. -1.
    9900012    2    1    2    0    0 -0.96483664411E+01  0.40867201527E+02 -0.10972885866E+02  0.47787270054E+02  0.19999995484E+02 0.  0.
        -12    1    1    2    0    0  0.96483664411E+01 -0.40867201527E+02  0.10972885866E+02  0.43400729946E+02  0.00000000000E+00 0.  1.
         11    1    3    3    0    0  0.52169065696E+01  0.99605830972E+01 -0.35432387318E+01  0.11789142071E+02  0.51100000000E-03 0. -1.
        -11    1    3    3    0    0 -0.11618524548E+02  0.28583355892E+02 -0.82147544613E+01  0.31929305314E+02  0.51100000000E-03 0.  1.
         12    1    3    3    0    0 -0.32467484629E+01  0.23232625372E+01  0.78510732659E+00  0.40688226691E+01  0.00000000000E+00 0. -1.
</event>
<event>
 7    1  0.2442667E-009  0.4778727E+02  0.7816164E-02  0.1312668E+00
        -11   -1    0    0    0    0  0.00000000000E+00  0.00000000000E+00  0.45593999997E+02  0.45594000000E+02  0.51100000000E-03 0. -1.
         11   -1    0    0    0    0 -0.00000000000E+00 -0.00000000000E+00 -0.45593999997E+02  0.45594000000E+02  0.51100000000E-03 0.  1.
    9900012    2    1    2    0    0  0.24128315520E+02 -0.21063278854E+02  0.29287980137E+02  0.47787272974E+02  0.20000008796E+02 0.  0.
        -12    1    1    2    0    0 -0.24128315520E+02  0.21063278854E+02 -0.29287980137E+02  0.43400727026E+02  0.00000000000E+00 0.  1.
         11    1    3    3    0    0  0.24636683423E+02 -0.14479152437E+02  0.16310948255E+02  0.32903784868E+02  0.51100000000E-03 0. -1.
        -11    1    3    3    0    0 -0.81736866098E+00 -0.32784331592E+01  0.94674888748E+01  0.10052341089E+02  0.51100000000E-03 0.  1.
         12    1    3    3    0    0  0.30900075783E+00 -0.33056932580E+01  0.35095430065E+01  0.48311470169E+01  0.00000000000E+00 0. -1.
</event>
<event>
 7    1  0.2442667E-009  0.4778727E+02  0.7816164E-02  0.1312668E+00
        -11   -1    0    0    0    0  0.00000000000E+00  0.00000000000E+00  0.45593999997E+02  0.45594000000E+02  0.51100000000E-03 0. -1.
         11   -1    0    0    0    0 -0.00000000000E+00 -0.00000000000E+00 -0.45593999997E+02  0.45594000000E+02  0.51100000000E-03 0.  1.
    9900012    2    1    2    0    0  0.16405456175E+01  0.20551325979E+02  0.38191298549E+02  0.47787266432E+02  0.19999978969E+02 0.  0.
        -12    1    1    2    0    0 -0.16405456175E+01 -0.20551325979E+02 -0.38191298549E+02  0.43400733568E+02  0.00000000000E+00 0.  1.
         11    1    3    3    0    0  0.32384762395E+01  0.27671486728E+00 -0.26930552741E+00  0.32614146010E+01  0.51100000000E-03 0. -1.
        -11    1    3    3    0    0 -0.54065449754E+01  0.10521577615E+02  0.22826030912E+02  0.25709181464E+02  0.51100000000E-03 0.  1.
         12    1    3    3    0    0  0.38086143534E+01  0.97530334971E+01  0.15634573164E+02  0.18816670367E+02  0.00000000000E+00 0. -1.
</event>
<event>
 7    1  0.2442667E-009  0.4778727E+02  0.7816164E-02  0.1312668E+00
        -11   -1    0    0    0    0  0.00000000000E+00  0.00000000000E+00  0.45593999997E+02  0.45594000000E+02  0.51100000000E-03 0.  1.
         11   -1    0    0    0    0 -0.00000000000E+00 -0.00000000000E+00 -0.45593999997E+02  0.45594000000E+02  0.51100000000E-03 0. -1.
    9900012    2    1    2    0    0  0.38077217372E+02 -0.10750657489E+02 -0.17837380432E+02  0.47787271205E+02  0.20000000734E+02 0.  0.
        -12    1    1    2    0    0 -0.38077217372E+02  0.10750657489E+02  0.17837380432E+02  0.43400728795E+02  0.00000000000E+00 0.  1.
         11    1    3    3    0    0  0.55443618068E+01  0.11800575685E+01 -0.94136990618E+01  0.10988640225E+02  0.51100000000E-03 0. -1.
        -11    1    3    3    0    0  0.14553304268E+02 -0.10165779394E+02 -0.44251399380E+01  0.18295452974E+02  0.51100000000E-03 0.  1.
         12    1    3    3    0    0  0.17979551297E+02 -0.17649356632E+01 -0.39985414324E+01  0.18503178006E+02  0.00000000000E+00 0. -1.
</event>
<event>
 7    1  0.2442667E-009  0.4778727E+02  0.7816164E-02  0.1312668E+00
        -11   -1    0    0    0    0  0.00000000000E+00  0.00000000000E+00  0.45593999997E+02  0.45594000000E+02  0.51100000000E-03 0.  1.
         11   -1    0    0    0    0 -0.00000000000E+00 -0.00000000000E+00 -0.45593999997E+02  0.45594000000E+02  0.51100000000E-03 0. -1.
    9900012    2    1    2    0    0  0.38461249264E+02 -0.14478486890E+02 -0.13954529630E+02  0.47787272186E+02  0.20000005204E+02 0.  0.
        -12    1    1    2    0    0 -0.38461249264E+02  0.14478486890E+02  0.13954529630E+02  0.43400727814E+02  0.00000000000E+00 0.  1.
         11    1    3    3    0    0  0.29217048772E+02 -0.10158074143E+02 -0.42403546155E+01  0.31221835576E+02  0.51100000000E-03 0. -1.
        -11    1    3    3    0    0  0.42727321731E+01 -0.63385491108E+00 -0.94270998771E+01  0.10369581700E+02  0.51100000000E-03 0.  1.
        -12    1    3    3    0    0  0.49714683195E+01 -0.36865578355E+01 -0.28707513789E+00  0.61958549096E+01  0.00000000000E+00 0.  1.
</event>
<event>
 7    1  0.2442667E-009  0.4778727E+02  0.7816164E-02  0.1312668E+00
        -11   -1    0    0    0    0  0.00000000000E+00  0.00000000000E+00  0.45593999997E+02  0.45594000000E+02  0.51100000000E-03 0.  1.
         11   -1    0    0    0    0 -0.00000000000E+00 -0.00000000000E+00 -0.45593999997E+02  0.45594000000E+02  0.51100000000E-03 0. -1.
    9900012    2    1    2    0    0 -0.10256457166E+02 -0.27929651418E+02 -0.31596876436E+02  0.47787274862E+02  0.20000017407E+02 0.  0.
        -12    1    1    2    0    0  0.10256457166E+02  0.27929651418E+02  0.31596876436E+02  0.43400725138E+02  0.00000000000E+00 0.  1.
         11    1    3    3    0    0 -0.89170519127E+01 -0.83524386593E+01 -0.18870784603E+02  0.22480737492E+02  0.51100000000E-03 0. -1.
        -11    1    3    3    0    0  0.15366079711E+01 -0.16867225832E+01 -0.52130982170E+01  0.56905703062E+01  0.51100000000E-03 0.  1.
         12    1    3    3    0    0 -0.28760132240E+01 -0.17890490176E+02 -0.75129936163E+01  0.19615967064E+02  0.00000000000E+00 0. -1.
</event>
<event>
 7    1  0.2442667E-009  0.4778727E+02  0.7816164E-02  0.1312668E+00
        -11   -1    0    0    0    0  0.00000000000E+00  0.00000000000E+00  0.45593999997E+02  0.45594000000E+02  0.51100000000E-03 0. -1.
         11   -1    0    0    0    0 -0.00000000000E+00 -0.00000000000E+00 -0.45593999997E+02  0.45594000000E+02  0.51100000000E-03 0.  1.
    9900012    2    1    2    0    0 -0.38854218531E+02  0.39336289770E+01  0.18934084110E+02  0.47787271024E+02  0.19999999908E+02 0.  0.
        -12    1    1    2    0    0  0.38854218531E+02 -0.39336289770E+01 -0.18934084110E+02  0.43400728976E+02  0.00000000000E+00 0.  1.
         11    1    3    3    0    0 -0.15077886885E+02  0.54718556024E+00  0.12321969923E+02  0.19480067453E+02  0.51100000000E-03 0. -1.
        -11    1    3    3    0    0  0.17017499158E+01  0.69766627961E+00  0.94728628584E+00  0.20688263780E+01  0.51100000000E-03 0.  1.
        -12    1    3    3    0    0 -0.25478081562E+02  0.26887771372E+01  0.56648279006E+01  0.26238377193E+02  0.00000000000E+00 0.  1.
</event>
<event>
 7    1  0.2442667E-009  0.4778727E+02  0.7816164E-02  0.1312668E+00
        -11   -1    0    0    0    0  0.00000000000E+00  0.00000000000E+00  0.45593999997E+02  0.45594000000E+02  0.51100000000E-03 0. -1.
         11   -1    0    0    0    0 -0.00000000000E+00 -0.00000000000E+00 -0.45593999997E+02  0.45594000000E+02  0.51100000000E-03 0.  1.
    9900012    2    1    2    0    0 -0.27712181469E+02 -0.13778517348E+02 -0.30427139609E+02  0.47787269973E+02  0.19999995116E+02 0.  0.
        -12    1    1    2    0    0  0.27712181469E+02  0.13778517348E+02  0.30427139609E+02  0.43400730027E+02  0.00000000000E+00 0.  1.
         11    1    3    3    0    0 -0.18835398530E+02 -0.23356428286E+01 -0.73216227808E+01  0.20342901111E+02  0.51100000000E-03 0. -1.
        -11    1    3    3    0    0 -0.51099288670E+01 -0.52786687646E+01 -0.14101673678E+02  0.15900720667E+02  0.51100000000E-03 0.  1.
         12    1    3    3    0    0 -0.37668540727E+01 -0.61642057545E+01 -0.90038431496E+01  0.11543648195E+02  0.00000000000E+00 0. -1.
</event>
<event>
 7    1  0.2442667E-009  0.4778727E+02  0.7816164E-02  0.1312668E+00
        -11   -1    0    0    0    0  0.00000000000E+00  0.00000000000E+00  0.45593999997E+02  0.45594000000E+02  0.51100000000E-03 0.  1.
         11   -1    0    0    0    0 -0.00000000000E+00 -0.00000000000E+00 -0.45593999997E+02  0.45594000000E+02  0.51100000000E-03 0. -1.
    9900012    2    1    2    0    0  0.77483684937E+01 -0.34633509221E+02 -0.24982112630E+02  0.47787272739E+02  0.20000007726E+02 0.  0.
        -12    1    1    2    0    0 -0.77483684937E+01  0.34633509221E+02  0.24982112630E+02  0.43400727261E+02  0.00000000000E+00 0.  1.
         11    1    3    3    0    0  0.25029887558E+01 -0.13798765105E+01 -0.99324313145E+01  0.10335482764E+02  0.51100000000E-03 0. -1.
        -11    1    3    3    0    0  0.23584583900E+01 -0.29206161332E+02 -0.12385266760E+02  0.31811271881E+02  0.51100000000E-03 0.  1.
         12    1    3    3    0    0  0.28869213479E+01 -0.40474713788E+01 -0.26644145559E+01  0.56405180930E+01  0.00000000000E+00 0. -1.
</event>
<event>
 7    1  0.2442667E-009  0.4778726E+02  0.7816164E-02  0.1312668E+00
        -11   -1    0    0    0    0  0.00000000000E+00  0.00000000000E+00  0.45593999997E+02  0.45594000000E+02  0.51100000000E-03 0.  1.
         11   -1    0    0    0    0 -0.00000000000E+00 -0.00000000000E+00 -0.45593999997E+02  0.45594000000E+02  0.51100000000E-03 0. -1.
    9900012    2    1    2    0    0 -0.20769757077E+02  0.61284581567E+01 -0.37612282198E+02  0.47787255991E+02  0.19999931366E+02 0.  0.
        -12    1    1    2    0    0  0.20769757077E+02 -0.61284581567E+01  0.37612282198E+02  0.43400744009E+02  0.00000000000E+00 0.  1.
         11    1    3    3    0    0 -0.55330126649E+01  0.77042698263E+01 -0.12877481389E+02  0.15993734082E+02  0.51100000000E-03 0. -1.
        -11    1    3    3    0    0 -0.17013677387E+02 -0.17911546308E+01 -0.24645663774E+02  0.30001369906E+02  0.51100000000E-03 0.  1.
        -12    1    3    3    0    0  0.17769329753E+01  0.21534296116E+00 -0.89137034900E-01  0.17921520027E+01  0.00000000000E+00 0.  1.
</event>
<event>
 7    1  0.2442667E-009  0.4778727E+02  0.7816164E-02  0.1312668E+00
        -11   -1    0    0    0    0  0.00000000000E+00  0.00000000000E+00  0.45593999997E+02  0.45594000000E+02  0.51100000000E-03 0.  1.
         11   -1    0    0    0    0 -0.00000000000E+00 -0.00000000000E+00 -0.45593999997E+02  0.45594000000E+02  0.51100000000E-03 0. -1.
    9900012    2    1    2    0    0  0.11109116402E+02  0.23505429576E+02 -0.34752059078E+02  0.47787270779E+02  0.19999998789E+02 0.  0.
        -12    1    1    2    0    0 -0.11109116402E+02 -0.23505429576E+02  0.34752059078E+02  0.43400729221E+02  0.00000000000E+00 0.  1.
         11    1    3    3    0    0  0.39833171778E+01  0.72992803773E+01 -0.54624816791E+01  0.99491213744E+01  0.51100000000E-03 0. -1.
        -11    1    3    3    0    0  0.10480583612E+02  0.38783165435E+01 -0.13330566264E+02  0.17395055885E+02  0.51100000000E-03 0.  1.
        -12    1    3    3    0    0 -0.33547843876E+01  0.12327832655E+02 -0.15959011135E+02  0.20443093520E+02  0.00000000000E+00 0.  1.
</event>
<event>
 7    1  0.2442667E-009  0.4778727E+02  0.7816164E-02  0.1312668E+00
        -11   -1    0    0    0    0  0.00000000000E+00  0.00000000000E+00  0.45593999997E+02  0.45594000000E+02  0.51100000000E-03 0. -1.
         11   -1    0    0    0    0 -0.00000000000E+00 -0.00000000000E+00 -0.45593999997E+02  0.45594000000E+02  0.51100000000E-03 0.  1.
    9900012    2    1    2    0    0 -0.25993124758E+02 -0.30140715386E+02 -0.17306592446E+02  0.47787269583E+02  0.19999993337E+02 0.  0.
        -12    1    1    2    0    0  0.25993124758E+02  0.30140715386E+02  0.17306592446E+02  0.43400730417E+02  0.00000000000E+00 0.  1.
         11    1    3    3    0    0 -0.20733268370E+02 -0.13739316166E+02 -0.42481723888E+01  0.25232601826E+02  0.51100000000E-03 0. -1.
        -11    1    3    3    0    0  0.36594047440E+00  0.20671145957E+00  0.29540271695E+00  0.51371693044E+00  0.51100000000E-03 0.  1.
         12    1    3    3    0    0 -0.56257968627E+01 -0.16608110679E+02 -0.13353822774E+02  0.22040950826E+02  0.00000000000E+00 0. -1.
</event>
<event>
 7    1  0.2442667E-009  0.4778727E+02  0.7816164E-02  0.1312668E+00
        -11   -1    0    0    0    0  0.00000000000E+00  0.00000000000E+00  0.45593999997E+02  0.45594000000E+02  0.51100000000E-03 0.  1.
         11   -1    0    0    0    0 -0.00000000000E+00 -0.00000000000E+00 -0.45593999997E+02  0.45594000000E+02  0.51100000000E-03 0. -1.
    9900012    2    1    2    0    0 -0.17068068568E+02 -0.33224654152E+01 -0.39765132485E+02  0.47787268409E+02  0.19999987985E+02 0.  0.
        -12    1    1    2    0    0  0.17068068568E+02  0.33224654152E+01  0.39765132485E+02  0.43400731591E+02  0.00000000000E+00 0.  1.
         11    1    3    3    0    0 -0.53863882229E+01 -0.87597175706E+01 -0.16513297005E+02  0.19453400942E+02  0.51100000000E-03 0. -1.
        -11    1    3    3    0    0 -0.84023723857E+00  0.17666782482E-02  0.94703649001E+00  0.12660490167E+01  0.51100000000E-03 0.  1.
         12    1    3    3    0    0 -0.10841443107E+02  0.54354854771E+01 -0.24198871970E+02  0.27067818450E+02  0.00000000000E+00 0. -1.
</event>
<event>
 7    1  0.2442667E-009  0.4778727E+02  0.7816164E-02  0.1312668E+00
        -11   -1    0    0    0    0  0.00000000000E+00  0.00000000000E+00  0.45593999997E+02  0.45594000000E+02  0.51100000000E-03 0.  1.
         11   -1    0    0    0    0 -0.00000000000E+00 -0.00000000000E+00 -0.45593999997E+02  0.45594000000E+02  0.51100000000E-03 0. -1.
    9900012    2    1    2    0    0 -0.31045654131E+02  0.12073459355E+02 -0.27821259376E+02  0.47787268042E+02  0.19999986311E+02 0.  0.
        -12    1    1    2    0    0  0.31045654131E+02 -0.12073459355E+02  0.27821259376E+02  0.43400731958E+02  0.00000000000E+00 0.  1.
         11    1    3    3    0    0 -0.87009664117E+01  0.81535519812E+00 -0.16614024945E+02  0.18772252016E+02  0.51100000000E-03 0. -1.
        -11    1    3    3    0    0 -0.80637747592E+01  0.12050222782E+01  0.19892272372E+00  0.81557410803E+01  0.51100000000E-03 0.  1.
         12    1    3    3    0    0 -0.14280912960E+02  0.10053081879E+02 -0.11406157155E+02  0.20859274946E+02  0.00000000000E+00 0. -1.
</event>
<event>
 7    1  0.2442667E-009  0.4778727E+02  0.7816164E-02  0.1312668E+00
        -11   -1    0    0    0    0  0.00000000000E+00  0.00000000000E+00  0.45593999997E+02  0.45594000000E+02  0.51100000000E-03 0.  1.
         11   -1    0    0    0    0 -0.00000000000E+00 -0.00000000000E+00 -0.45593999997E+02  0.45594000000E+02  0.51100000000E-03 0. -1.
    9900012    2    1    2    0    0  0.89054543769E+01  0.14579758676E+02 -0.39896698303E+02  0.47787274013E+02  0.20000013535E+02 0.  0.
        -12    1    1    2    0    0 -0.89054543769E+01 -0.14579758676E+02  0.39896698303E+02  0.43400725987E+02  0.00000000000E+00 0.  1.
         11    1    3    3    0    0  0.32499094951E+01 -0.42625205332E+00 -0.51626094389E+01  0.61152382635E+01  0.51100000000E-03 0. -1.
        -11    1    3    3    0    0 -0.19136329422E+01  0.22052411759E+01 -0.21705314529E+02  0.21900816395E+02  0.51100000000E-03 0.  1.
        -12    1    3    3    0    0  0.75691778240E+01  0.12800769554E+02 -0.13028774335E+02  0.19771219355E+02  0.00000000000E+00 0.  1.
</event>
<event>
 7    1  0.2442667E-009  0.4778727E+02  0.7816164E-02  0.1312668E+00
        -11   -1    0    0    0    0  0.00000000000E+00  0.00000000000E+00  0.45593999997E+02  0.45594000000E+02  0.51100000000E-03 0.  1.
         11   -1    0    0    0    0 -0.00000000000E+00 -0.00000000000E+00 -0.45593999997E+02  0.45594000000E+02  0.51100000000E-03 0. -1.
    9900012    2    1    2    0    0 -0.29704249005E+02  0.26930725428E+02 -0.16613762204E+02  0.47787268720E+02  0.19999989404E+02 0.  0.
        -12    1    1    2    0    0  0.29704249005E+02 -0.26930725428E+02  0.16613762204E+02  0.43400731280E+02  0.00000000000E+00 0.  1.
         11    1    3    3    0    0 -0.13723804663E+02  0.31278323875E+01 -0.29007057326E+01  0.14371508059E+02  0.51100000000E-03 0.  1.
        -11    1    3    3    0    0 -0.39225716799E+01  0.12561376695E+02 -0.22843965434E+01  0.13356392510E+02  0.51100000000E-03 0. -1.
         12    1    3    3    0    0 -0.12057872662E+02  0.11241516346E+02 -0.11428659928E+02  0.20059368151E+02  0.00000000000E+00 0. -1.
</event>
<event>
 7    1  0.2442667E-009  0.4778727E+02  0.7816164E-02  0.1312668E+00
        -11   -1    0    0    0    0  0.00000000000E+00  0.00000000000E+00  0.45593999997E+02  0.45594000000E+02  0.51100000000E-03 0.  1.
         11   -1    0    0    0    0 -0.00000000000E+00 -0.00000000000E+00 -0.45593999997E+02  0.45594000000E+02  0.51100000000E-03 0. -1.
    9900012    2    1    2    0    0 -0.25592824102E+02  0.33483501227E+02 -0.10367536639E+02  0.47787270560E+02  0.19999997793E+02 0.  0.
        -12    1    1    2    0    0  0.25592824102E+02 -0.33483501227E+02  0.10367536639E+02  0.43400729440E+02  0.00000000000E+00 0.  1.
         11    1    3    3    0    0 -0.50575601943E+01  0.60172630348E+00 -0.71261281372E+01  0.87591490541E+01  0.51100000000E-03 0. -1.
        -11    1    3    3    0    0 -0.14590222635E+02  0.25867077664E+02 -0.24482399484E+01  0.29798895659E+02  0.51100000000E-03 0.  1.
         12    1    3    3    0    0 -0.59450412732E+01  0.70146972591E+01 -0.79316855325E+00  0.92292258468E+01  0.00000000000E+00 0. -1.
</event>
<event>
 7    1  0.2442667E-009  0.4778727E+02  0.7816164E-02  0.1312668E+00
        -11   -1    0    0    0    0  0.00000000000E+00  0.00000000000E+00  0.45593999997E+02  0.45594000000E+02  0.51100000000E-03 0.  1.
         11   -1    0    0    0    0 -0.00000000000E+00 -0.00000000000E+00 -0.45593999997E+02  0.45594000000E+02  0.51100000000E-03 0. -1.
    9900012    2    1    2    0    0  0.28571005189E+02 -0.28109504080E+02 -0.16648623741E+02  0.47787271555E+02  0.20000002328E+02 0.  0.
        -12    1    1    2    0    0 -0.28571005189E+02  0.28109504080E+02  0.16648623741E+02  0.43400728445E+02  0.00000000000E+00 0.  1.
         11    1    3    3    0    0  0.16625417302E+02 -0.17257057295E+02 -0.26412767617E+01  0.24107817615E+02  0.51100000000E-03 0. -1.
        -11    1    3    3    0    0  0.76618439127E+01 -0.11912749512E+02 -0.12832874496E+02  0.19112826091E+02  0.51100000000E-03 0.  1.
         12    1    3    3    0    0  0.42837439738E+01  0.10603027269E+01 -0.11744724826E+01  0.45666278498E+01  0.00000000000E+00 0. -1.
</event>
<event>
 7    1  0.2442667E-009  0.4778728E+02  0.7816164E-02  0.1312668E+00
        -11   -1    0    0    0    0  0.00000000000E+00  0.00000000000E+00  0.45593999997E+02  0.45594000000E+02  0.51100000000E-03 0. -1.
         11   -1    0    0    0    0 -0.00000000000E+00 -0.00000000000E+00 -0.45593999997E+02  0.45594000000E+02  0.51100000000E-03 0.  1.
    9900012    2    1    2    0    0  0.21663282533E+02  0.24694387032E+02  0.28363925362E+02  0.47787276239E+02  0.20000023685E+02 0.  0.
        -12    1    1    2    0    0 -0.21663282533E+02 -0.24694387032E+02 -0.28363925362E+02  0.43400723761E+02  0.00000000000E+00 0.  1.
         11    1    3    3    0    0  0.15347623189E+02  0.98749789017E+01  0.17149345265E+02  0.25043258358E+02  0.51100000000E-03 0. -1.
        -11    1    3    3    0    0  0.35595557035E+01  0.16176065319E+02  0.83720676604E+01  0.18558745733E+02  0.51100000000E-03 0.  1.
        -12    1    3    3    0    0  0.27561036406E+01 -0.13566571887E+01  0.28425124366E+01  0.41852721486E+01  0.00000000000E+00 0.  1.
</event>
<event>
 7    1  0.2442667E-009  0.4778727E+02  0.7816164E-02  0.1312668E+00
        -11   -1    0    0    0    0  0.00000000000E+00  0.00000000000E+00  0.45593999997E+02  0.45594000000E+02  0.51100000000E-03 0.  1.
         11   -1    0    0    0    0 -0.00000000000E+00 -0.00000000000E+00 -0.45593999997E+02  0.45594000000E+02  0.51100000000E-03 0. -1.
    9900012    2    1    2    0    0 -0.31164150914E+02  0.43127465142E+01 -0.29896809478E+02  0.47787270725E+02  0.19999998541E+02 0.  0.
        -12    1    1    2    0    0  0.31164150914E+02 -0.43127465142E+01  0.29896809478E+02  0.43400729275E+02  0.00000000000E+00 0.  1.
         11    1    3    3    0    0 -0.10262755386E+02  0.36942190662E+01 -0.14966458171E+02  0.18519348614E+02  0.51100000000E-03 0. -1.
        -11    1    3    3    0    0 -0.33254590504E+01  0.20356401050E+01  0.23719530283E+01  0.45638437706E+01  0.51100000000E-03 0.  1.
        -12    1    3    3    0    0 -0.17575936477E+02 -0.14171126570E+01 -0.17302304336E+02  0.24704078340E+02  0.00000000000E+00 0.  1.
</event>
<event>
 7    1  0.2442667E-009  0.4778727E+02  0.7816164E-02  0.1312668E+00
        -11   -1    0    0    0    0  0.00000000000E+00  0.00000000000E+00  0.45593999997E+02  0.45594000000E+02  0.51100000000E-03 0.  1.
         11   -1    0    0    0    0 -0.00000000000E+00 -0.00000000000E+00 -0.45593999997E+02  0.45594000000E+02  0.51100000000E-03 0. -1.
    9900012    2    1    2    0    0 -0.22780995859E+02 -0.33573292946E+02 -0.15410499971E+02  0.47787270963E+02  0.19999999631E+02 0.  0.
        -12    1    1    2    0    0  0.22780995859E+02  0.33573292946E+02  0.15410499971E+02  0.43400729037E+02  0.00000000000E+00 0.  1.
         11    1    3    3    0    0 -0.18737891941E+02 -0.16989630178E+02 -0.11689117671E+02  0.27863804481E+02  0.51100000000E-03 0. -1.
        -11    1    3    3    0    0 -0.33149770727E+01 -0.64238910851E+01  0.28845460300E+01  0.77830621047E+01  0.51100000000E-03 0.  1.
         12    1    3    3    0    0 -0.72812684511E+00 -0.10159771683E+02 -0.66059283303E+01  0.12140404378E+02  0.00000000000E+00 0. -1.
</event>
<event>
 7    1  0.2442667E-009  0.4778727E+02  0.7816164E-02  0.1312668E+00
        -11   -1    0    0    0    0  0.00000000000E+00  0.00000000000E+00  0.45593999997E+02  0.45594000000E+02  0.51100000000E-03 0. -1.
         11   -1    0    0    0    0 -0.00000000000E+00 -0.00000000000E+00 -0.45593999997E+02  0.45594000000E+02  0.51100000000E-03 0.  1.
    9900012    2    1    2    0    0 -0.25122760223E+02  0.10299609129E+02  0.33858354821E+02  0.47787271658E+02  0.20000002796E+02 0.  0.
        -12    1    1    2    0    0  0.25122760223E+02 -0.10299609129E+02 -0.33858354821E+02  0.43400728342E+02  0.00000000000E+00 0.  1.
         11    1    3    3    0    0 -0.39548083149E+00 -0.45031522355E+01  0.72512438352E+01  0.85449003834E+01  0.51100000000E-03 0. -1.
        -11    1    3    3    0    0 -0.10097113343E+02  0.55425897413E+01  0.10077070994E+02  0.15304226834E+02  0.51100000000E-03 0.  1.
         12    1    3    3    0    0 -0.14630166049E+02  0.92601716233E+01  0.16530039992E+02  0.23938144440E+02  0.00000000000E+00 0. -1.
</event>
<event>
 7    1  0.2442667E-009  0.4778727E+02  0.7816164E-02  0.1312668E+00
        -11   -1    0    0    0    0  0.00000000000E+00  0.00000000000E+00  0.45593999997E+02  0.45594000000E+02  0.51100000000E-03 0. -1.
         11   -1    0    0    0    0 -0.00000000000E+00 -0.00000000000E+00 -0.45593999997E+02  0.45594000000E+02  0.51100000000E-03 0.  1.
    9900012    2    1    2    0    0  0.31392071620E+02  0.82788184938E+01  0.28803165519E+02  0.47787270281E+02  0.19999996517E+02 0.  0.
        -12    1    1    2    0    0 -0.31392071620E+02 -0.82788184938E+01 -0.28803165519E+02  0.43400729719E+02  0.00000000000E+00 0.  1.
         11    1    3    3    0    0  0.22460209321E+02 -0.13378075497E+01  0.19041524975E+02  0.29475929254E+02  0.51100000000E-03 0. -1.
        -11    1    3    3    0    0  0.29551729048E+01  0.12434475731E+01 -0.10632718045E+01  0.33778330266E+01  0.51100000000E-03 0.  1.
         12    1    3    3    0    0  0.59766893945E+01  0.83731784704E+01  0.10824912349E+02  0.14933508000E+02  0.00000000000E+00 0. -1.
</event>
<event>
 7    1  0.2442667E-009  0.4778727E+02  0.7816164E-02  0.1312668E+00
        -11   -1    0    0    0    0  0.00000000000E+00  0.00000000000E+00  0.45593999997E+02  0.45594000000E+02  0.51100000000E-03 0. -1.
         11   -1    0    0    0    0 -0.00000000000E+00 -0.00000000000E+00 -0.45593999997E+02  0.45594000000E+02  0.51100000000E-03 0.  1.
    9900012    2    1    2    0    0  0.30846764038E+02  0.22537816498E+02  0.20594831710E+02  0.47787272849E+02  0.20000008226E+02 0.  0.
        -12    1    1    2    0    0 -0.30846764038E+02 -0.22537816498E+02 -0.20594831710E+02  0.43400727151E+02  0.00000000000E+00 0.  1.
         11    1    3    3    0    0  0.10613371126E+02  0.42659595866E+01  0.30962090819E+01  0.11850256064E+02  0.51100000000E-03 0. -1.
        -11    1    3    3    0    0  0.11858873159E+02  0.16071226412E+02  0.18495074084E+02  0.27221038860E+02  0.51100000000E-03 0.  1.
        -12    1    3    3    0    0  0.83745197526E+01  0.22006304999E+01 -0.99645145523E+00  0.87159779248E+01  0.00000000000E+00 0.  1.
</event>
<event>
 7    1  0.2442667E-009  0.4778727E+02  0.7816164E-02  0.1312668E+00
        -11   -1    0    0    0    0  0.00000000000E+00  0.00000000000E+00  0.45593999997E+02  0.45594000000E+02  0.51100000000E-03 0.  1.
         11   -1    0    0    0    0 -0.00000000000E+00 -0.00000000000E+00 -0.45593999997E+02  0.45594000000E+02  0.51100000000E-03 0. -1.
    9900012    2    1    2    0    0 -0.25900773300E+02 -0.31346079702E+02 -0.15172230818E+02  0.47787270072E+02  0.19999995568E+02 0.  0.
        -12    1    1    2    0    0  0.25900773300E+02  0.31346079702E+02  0.15172230818E+02  0.43400729928E+02  0.00000000000E+00 0.  1.
         11    1    3    3    0    0 -0.18276226788E+02 -0.30338803414E+02 -0.17320283107E+02  0.39426585769E+02  0.51100000000E-03 0. -1.
        -11    1    3    3    0    0 -0.26172080680E+01  0.74331374256E+00  0.11933817499E+01  0.29709348113E+01  0.51100000000E-03 0.  1.
         12    1    3    3    0    0 -0.50073384442E+01 -0.17505900305E+01  0.95467053886E+00  0.53897494921E+01  0.00000000000E+00 0. -1.
</event>
<event>
 7    1  0.2442667E-009  0.4778727E+02  0.7816164E-02  0.1312668E+00
        -11   -1    0    0    0    0  0.00000000000E+00  0.00000000000E+00  0.45593999997E+02  0.45594000000E+02  0.51100000000E-03 0.  1.
         11   -1    0    0    0    0 -0.00000000000E+00 -0.00000000000E+00 -0.45593999997E+02  0.45594000000E+02  0.51100000000E-03 0. -1.
    9900012    2    1    2    0    0 -0.37041854490E+02 -0.22611509825E+02 -0.49376016722E+00  0.47787272360E+02  0.20000005996E+02 0.  0.
        -12    1    1    2    0    0  0.37041854490E+02  0.22611509825E+02  0.49376016722E+00  0.43400727640E+02  0.00000000000E+00 0.  1.
         11    1    3    3    0    0 -0.52688795347E+01 -0.13213232710E+02  0.19803714042E+01  0.14362189296E+02  0.51100000000E-03 0. -1.
        -11    1    3    3    0    0 -0.10262171276E+02 -0.17960400546E+01 -0.19826418384E+01  0.10605130272E+02  0.51100000000E-03 0.  1.
         12    1    3    3    0    0 -0.21510803680E+02 -0.76022370599E+01 -0.49148973302E+00  0.22819952792E+02  0.00000000000E+00 0. -1.
</event>
<event>
 7    1  0.2442667E-009  0.4778727E+02  0.7816164E-02  0.1312668E+00
        -11   -1    0    0    0    0  0.00000000000E+00  0.00000000000E+00  0.45593999997E+02  0.45594000000E+02  0.51100000000E-03 0. -1.
         11   -1    0    0    0    0 -0.00000000000E+00 -0.00000000000E+00 -0.45593999997E+02  0.45594000000E+02  0.51100000000E-03 0.  1.
    9900012    2    1    2    0    0  0.43310094260E+01 -0.36161007447E+02  0.23606082469E+02  0.47787271530E+02  0.20000002212E+02 0.  0.
        -12    1    1    2    0    0 -0.43310094260E+01  0.36161007447E+02 -0.23606082469E+02  0.43400728470E+02  0.00000000000E+00 0.  1.
         11    1    3    3    0    0  0.23125993898E+01 -0.20158392210E+02  0.78677272154E+01  0.21762583124E+02  0.51100000000E-03 0. -1.
        -11    1    3    3    0    0 -0.18692268984E+01 -0.85963321408E+01  0.15299723283E+02  0.17648582614E+02  0.51100000000E-03 0.  1.
        -12    1    3    3    0    0  0.38876369346E+01 -0.74062830960E+01  0.43863197114E+00  0.83761057921E+01  0.00000000000E+00 0.  1.
</event>
<event>
 7    1  0.2442667E-009  0.4778727E+02  0.7816164E-02  0.1312668E+00
        -11   -1    0    0    0    0  0.00000000000E+00  0.00000000000E+00  0.45593999997E+02  0.45594000000E+02  0.51100000000E-03 0. -1.
         11   -1    0    0    0    0 -0.00000000000E+00 -0.00000000000E+00 -0.45593999997E+02  0.45594000000E+02  0.51100000000E-03 0.  1.
    9900012    2    1    2    0    0  0.33635132331E+02 -0.27335974890E+02  0.22462272604E+01  0.47787272045E+02  0.20000004561E+02 0.  0.
        -12    1    1    2    0    0 -0.33635132331E+02  0.27335974890E+02 -0.22462272604E+01  0.43400727955E+02  0.00000000000E+00 0.  1.
         11    1    3    3    0    0  0.21368560933E+02 -0.11908500473E+02  0.76925810728E+01  0.25643782554E+02  0.51100000000E-03 0. -1.
        -11    1    3    3    0    0  0.86991695139E+01 -0.88026250593E+01 -0.73343929718E+01  0.14385933362E+02  0.51100000000E-03 0.  1.
         12    1    3    3    0    0  0.35674018841E+01 -0.66248493582E+01  0.18880391594E+01  0.77575561286E+01  0.00000000000E+00 0. -1.
</event>
<event>
 7    1  0.2442667E-009  0.4778727E+02  0.7816164E-02  0.1312668E+00
        -11   -1    0    0    0    0  0.00000000000E+00  0.00000000000E+00  0.45593999997E+02  0.45594000000E+02  0.51100000000E-03 0. -1.
         11   -1    0    0    0    0 -0.00000000000E+00 -0.00000000000E+00 -0.45593999997E+02  0.45594000000E+02  0.51100000000E-03 0.  1.
    9900012    2    1    2    0    0 -0.35665278980E+02 -0.95994302521E+01  0.22791705417E+02  0.47787273949E+02  0.20000013245E+02 0.  0.
        -12    1    1    2    0    0  0.35665278980E+02  0.95994302521E+01 -0.22791705417E+02  0.43400726051E+02  0.00000000000E+00 0.  1.
         11    1    3    3    0    0 -0.31975139432E+02 -0.11150222950E+02  0.20120777368E+02  0.39390134497E+02  0.51100000000E-03 0. -1.
        -11    1    3    3    0    0 -0.68580196634E+00  0.16549970670E+01  0.45239657203E+01  0.48657584947E+01  0.51100000000E-03 0.  1.
         12    1    3    3    0    0 -0.30043375819E+01 -0.10420436903E+00 -0.18530376716E+01  0.35313809578E+01  0.00000000000E+00 0. -1.
</event>
<event>
 7    1  0.2442667E-009  0.4778726E+02  0.7816164E-02  0.1312668E+00
        -11   -1    0    0    0    0  0.00000000000E+00  0.00000000000E+00  0.45593999997E+02  0.45594000000E+02  0.51100000000E-03 0.  1.
         11   -1    0    0    0    0 -0.00000000000E+00 -0.00000000000E+00 -0.45593999997E+02  0.45594000000E+02  0.51100000000E-03 0. -1.
    9900012    2    1    2    0    0 -0.69537507992E+01  0.17338748836E+02 -0.39174446925E+02  0.47787260913E+02  0.19999953808E+02 0.  0.
        -12    1    1    2    0    0  0.69537507992E+01 -0.17338748836E+02  0.39174446925E+02  0.43400739087E+02  0.00000000000E+00 0.  1.
         11    1    3    3    0    0 -0.47400121549E+01  0.15150775646E+02 -0.18613684302E+02  0.24463911410E+02  0.51100000000E-03 0. -1.
        -11    1    3    3    0    0  0.30032978966E+01  0.24762634801E+01 -0.27603287396E+01  0.47719067562E+01  0.51100000000E-03 0.  1.
         12    1    3    3    0    0 -0.52170365408E+01 -0.28829029066E+00 -0.17800433883E+02  0.18551442747E+02  0.00000000000E+00 0. -1.
</event>
<event>
 7    1  0.2442667E-009  0.4778728E+02  0.7816164E-02  0.1312668E+00
        -11   -1    0    0    0    0  0.00000000000E+00  0.00000000000E+00  0.45593999997E+02  0.45594000000E+02  0.51100000000E-03 0.  1.
         11   -1    0    0    0    0 -0.00000000000E+00 -0.00000000000E+00 -0.45593999997E+02  0.45594000000E+02  0.51100000000E-03 0. -1.
    9900012    2    1    2    0    0 -0.29876733244E+02 -0.28934124035E+02  0.12402393366E+02  0.47787284750E+02  0.20000062488E+02 0.  0.
        -12    1    1    2    0    0  0.29876733244E+02  0.28934124035E+02 -0.12402393366E+02  0.43400715250E+02  0.00000000000E+00 0.  1.
         11    1    3    3    0    0 -0.89157187877E+01 -0.68930046093E+01  0.28450106273E+01  0.11623151026E+02  0.51100000000E-03 0. -1.
        -11    1    3    3    0    0 -0.19261842826E+02 -0.22782269643E+02  0.12772520992E+02  0.32452853371E+02  0.51100000000E-03 0.  1.
        -12    1    3    3    0    0 -0.16991716303E+01  0.74115021722E+00 -0.32151382529E+01  0.37112803531E+01  0.00000000000E+00 0.  1.
</event>
<event>
 7    1  0.2442667E-009  0.4778727E+02  0.7816164E-02  0.1312668E+00
        -11   -1    0    0    0    0  0.00000000000E+00  0.00000000000E+00  0.45593999997E+02  0.45594000000E+02  0.51100000000E-03 0.  1.
         11   -1    0    0    0    0 -0.00000000000E+00 -0.00000000000E+00 -0.45593999997E+02  0.45594000000E+02  0.51100000000E-03 0. -1.
    9900012    2    1    2    0    0  0.31738444280E+02 -0.21160822441E+02 -0.20700580495E+02  0.47787270922E+02  0.19999999441E+02 0.  0.
        -12    1    1    2    0    0 -0.31738444280E+02  0.21160822441E+02  0.20700580495E+02  0.43400729078E+02  0.00000000000E+00 0.  1.
         11    1    3    3    0    0  0.15855157842E+02 -0.99458758332E+01 -0.12495415727E+01  0.18758140385E+02  0.51100000000E-03 0. -1.
        -11    1    3    3    0    0  0.94001152586E+01 -0.88104243744E+01 -0.66944461274E+01  0.14518999750E+02  0.51100000000E-03 0.  1.
         12    1    3    3    0    0  0.64831711793E+01 -0.24045222329E+01 -0.12756592795E+02  0.14510130787E+02  0.00000000000E+00 0. -1.
</event>
<event>
 7    1  0.2442667E-009  0.4778728E+02  0.7816164E-02  0.1312668E+00
        -11   -1    0    0    0    0  0.00000000000E+00  0.00000000000E+00  0.45593999997E+02  0.45594000000E+02  0.51100000000E-03 0.  1.
         11   -1    0    0    0    0 -0.00000000000E+00 -0.00000000000E+00 -0.45593999997E+02  0.45594000000E+02  0.51100000000E-03 0. -1.
    9900012    2    1    2    0    0  0.15604917978E+02  0.38185529865E+02 -0.13489780653E+02  0.47787281824E+02  0.20000049149E+02 0.  0.
        -12    1    1    2    0    0 -0.15604917978E+02 -0.38185529865E+02  0.13489780653E+02  0.43400718176E+02  0.00000000000E+00 0.  1.
         11    1    3    3    0    0  0.72077485811E+00  0.18075018010E+02 -0.45024236833E+01  0.18641287824E+02  0.51100000000E-03 0. -1.
        -11    1    3    3    0    0  0.15645468823E+02  0.21212591721E+02 -0.82620295932E+01  0.27622741998E+02  0.51100000000E-03 0.  1.
        -12    1    3    3    0    0 -0.76132570351E+00 -0.11020798665E+01 -0.72532737626E+00  0.15232520021E+01  0.00000000000E+00 0.  1.
</event>
<event>
 7    1  0.2442667E-009  0.4778727E+02  0.7816164E-02  0.1312668E+00
        -11   -1    0    0    0    0  0.00000000000E+00  0.00000000000E+00  0.45593999997E+02  0.45594000000E+02  0.51100000000E-03 0.  1.
         11   -1    0    0    0    0 -0.00000000000E+00 -0.00000000000E+00 -0.45593999997E+02  0.45594000000E+02  0.51100000000E-03 0. -1.
    9900012    2    1    2    0    0 -0.28233661978E+02 -0.19857650742E+02 -0.26308885039E+02  0.47787269664E+02  0.19999993708E+02 0.  0.
        -12    1    1    2    0    0  0.28233661978E+02  0.19857650742E+02  0.26308885039E+02  0.43400730336E+02  0.00000000000E+00 0.  1.
         11    1    3    3    0    0 -0.48160337421E+01 -0.51418499871E+01 -0.80114921423E+01  0.10668496094E+02  0.51100000000E-03 0. -1.
        -11    1    3    3    0    0 -0.25921215963E+02 -0.14042957757E+02 -0.17917760574E+02  0.34498699161E+02  0.51100000000E-03 0.  1.
        -12    1    3    3    0    0  0.25035877277E+01 -0.67284299778E+00 -0.37963232261E+00  0.26200744093E+01  0.00000000000E+00 0.  1.
</event>
<event>
 7    1  0.2442667E-009  0.4778727E+02  0.7816164E-02  0.1312668E+00
        -11   -1    0    0    0    0  0.00000000000E+00  0.00000000000E+00  0.45593999997E+02  0.45594000000E+02  0.51100000000E-03 0.  1.
         11   -1    0    0    0    0 -0.00000000000E+00 -0.00000000000E+00 -0.45593999997E+02  0.45594000000E+02  0.51100000000E-03 0. -1.
    9900012    2    1    2    0    0 -0.37096047594E+02  0.14653096331E+02 -0.17111207456E+02  0.47787269594E+02  0.19999993388E+02 0.  0.
        -12    1    1    2    0    0  0.37096047594E+02 -0.14653096331E+02  0.17111207456E+02  0.43400730406E+02  0.00000000000E+00 0.  1.
         11    1    3    3    0    0 -0.78321249825E+01  0.66136046979E+00 -0.26099723077E+01  0.82820006714E+01  0.51100000000E-03 0. -1.
        -11    1    3    3    0    0 -0.18968942872E+02  0.15597312569E+01 -0.20966746010E+01  0.19148096509E+02  0.51100000000E-03 0.  1.
        -12    1    3    3    0    0 -0.10294979739E+02  0.12432004604E+02 -0.12404560547E+02  0.20357172414E+02  0.00000000000E+00 0.  1.
</event>
<event>
 7    1  0.2442667E-009  0.4778727E+02  0.7816164E-02  0.1312668E+00
        -11   -1    0    0    0    0  0.00000000000E+00  0.00000000000E+00  0.45593999997E+02  0.45594000000E+02  0.51100000000E-03 0. -1.
         11   -1    0    0    0    0 -0.00000000000E+00 -0.00000000000E+00 -0.45593999997E+02  0.45594000000E+02  0.51100000000E-03 0.  1.
    9900012    2    1    2    0    0 -0.92116046068E+01 -0.29183054250E+02  0.30775295500E+02  0.47787272726E+02  0.20000007667E+02 0.  0.
        -12    1    1    2    0    0  0.92116046068E+01  0.29183054250E+02 -0.30775295500E+02  0.43400727274E+02  0.00000000000E+00 0.  1.
         11    1    3    3    0    0  0.46960993720E+01 -0.11360217784E+02  0.16993365489E+02  0.20973372841E+02  0.51100000000E-03 0. -1.
        -11    1    3    3    0    0 -0.51113745419E+01 -0.50366854798E+01  0.23955691983E+01  0.75652562663E+01  0.51100000000E-03 0.  1.
         12    1    3    3    0    0 -0.87963294369E+01 -0.12786150987E+02  0.11386360812E+02  0.19248643619E+02  0.00000000000E+00 0. -1.
</event>
<event>
 7    1  0.2442667E-009  0.4778726E+02  0.7816164E-02  0.1312668E+00
        -11   -1    0    0    0    0  0.00000000000E+00  0.00000000000E+00  0.45593999997E+02  0.45594000000E+02  0.51100000000E-03 0.  1.
         11   -1    0    0    0    0 -0.00000000000E+00 -0.00000000000E+00 -0.45593999997E+02  0.45594000000E+02  0.51100000000E-03 0. -1.
    9900012    2    1    2    0    0  0.20162798897E+02  0.18694327198E+02 -0.33579870163E+02  0.47787262576E+02  0.19999961390E+02 0.  0.
        -12    1    1    2    0    0 -0.20162798897E+02 -0.18694327198E+02  0.33579870163E+02  0.43400737424E+02  0.00000000000E+00 0.  1.
         11    1    3    3    0    0  0.15334444534E+02  0.11200439315E+02 -0.91927761673E+01  0.21097444488E+02  0.51100000000E-03 0. -1.
        -11    1    3    3    0    0  0.58399225281E+01  0.70211990561E+01 -0.23649722985E+02  0.25351751987E+02  0.51100000000E-03 0.  1.
        -12    1    3    3    0    0 -0.10115681656E+01  0.47268882744E+00 -0.73737101130E+00  0.13380661006E+01  0.00000000000E+00 0.  1.
</event>
<event>
 7    1  0.2442667E-009  0.4778727E+02  0.7816164E-02  0.1312668E+00
        -11   -1    0    0    0    0  0.00000000000E+00  0.00000000000E+00  0.45593999997E+02  0.45594000000E+02  0.51100000000E-03 0. -1.
         11   -1    0    0    0    0 -0.00000000000E+00 -0.00000000000E+00 -0.45593999997E+02  0.45594000000E+02  0.51100000000E-03 0.  1.
    9900012    2    1    2    0    0  0.15469705211E+02 -0.39376290238E+02  0.96860288506E+01  0.47787272274E+02  0.20000005606E+02 0.  0.
        -12    1    1    2    0    0 -0.15469705211E+02  0.39376290238E+02 -0.96860288506E+01  0.43400727726E+02  0.00000000000E+00 0.  1.
         11    1    3    3    0    0  0.14591009613E+02 -0.13716307952E+02  0.42101228336E+01  0.20463621378E+02  0.51100000000E-03 0. -1.
        -11    1    3    3    0    0 -0.32391081422E+01 -0.79283211317E+01  0.16250329893E+01  0.87172719357E+01  0.51100000000E-03 0.  1.
        -12    1    3    3    0    0  0.41178037405E+01 -0.17731661154E+02  0.38508730277E+01  0.18606378960E+02  0.00000000000E+00 0.  1.
</event>
<event>
 7    1  0.2442667E-009  0.4778727E+02  0.7816164E-02  0.1312668E+00
        -11   -1    0    0    0    0  0.00000000000E+00  0.00000000000E+00  0.45593999997E+02  0.45594000000E+02  0.51100000000E-03 0.  1.
         11   -1    0    0    0    0 -0.00000000000E+00 -0.00000000000E+00 -0.45593999997E+02  0.45594000000E+02  0.51100000000E-03 0. -1.
    9900012    2    1    2    0    0  0.22522794171E+02 -0.34884906223E+02 -0.12624999269E+02  0.47787267910E+02  0.19999985709E+02 0.  0.
        -12    1    1    2    0    0 -0.22522794171E+02  0.34884906223E+02  0.12624999269E+02  0.43400732090E+02  0.00000000000E+00 0.  1.
         11    1    3    3    0    0  0.63609288751E+01 -0.10292424487E+02 -0.58006902119E+01  0.13418026128E+02  0.51100000000E-03 0. -1.
        -11    1    3    3    0    0  0.11519458738E+02 -0.26119276100E+02 -0.72819192172E+01  0.29460836060E+02  0.51100000000E-03 0.  1.
        -12    1    3    3    0    0  0.46424065575E+01  0.15267943642E+01  0.45761016002E+00  0.49084057222E+01  0.00000000000E+00 0.  1.
</event>
<event>
 7    1  0.2442667E-009  0.4778727E+02  0.7816164E-02  0.1312668E+00
        -11   -1    0    0    0    0  0.00000000000E+00  0.00000000000E+00  0.45593999997E+02  0.45594000000E+02  0.51100000000E-03 0.  1.
         11   -1    0    0    0    0 -0.00000000000E+00 -0.00000000000E+00 -0.45593999997E+02  0.45594000000E+02  0.51100000000E-03 0. -1.
    9900012    2    1    2    0    0  0.33972802557E+02 -0.27003507248E+02 -0.53164376440E+00  0.47787270025E+02  0.19999995350E+02 0.  0.
        -12    1    1    2    0    0 -0.33972802557E+02  0.27003507248E+02  0.53164376440E+00  0.43400729975E+02  0.00000000000E+00 0.  1.
         11    1    3    3    0    0  0.21459463678E+02 -0.13975555207E+02  0.89091169458E+01  0.27114518061E+02  0.51100000000E-03 0.  1.
        -11    1    3    3    0    0  0.10349551180E+02 -0.85756934568E+01 -0.69333975587E+01  0.15123747216E+02  0.51100000000E-03 0. -1.
        -12    1    3    3    0    0  0.21637876997E+01 -0.44522585840E+01 -0.25073631515E+01  0.55490047469E+01  0.00000000000E+00 0.  1.
</event>
<event>
 7    1  0.2442667E-009  0.4778727E+02  0.7816164E-02  0.1312668E+00
        -11   -1    0    0    0    0  0.00000000000E+00  0.00000000000E+00  0.45593999997E+02  0.45594000000E+02  0.51100000000E-03 0.  1.
         11   -1    0    0    0    0 -0.00000000000E+00 -0.00000000000E+00 -0.45593999997E+02  0.45594000000E+02  0.51100000000E-03 0. -1.
    9900012    2    1    2    0    0 -0.40257754558E+02 -0.79979193101E+01 -0.14105667784E+02  0.47787269833E+02  0.19999994479E+02 0.  0.
        -12    1    1    2    0    0  0.40257754558E+02  0.79979193101E+01  0.14105667784E+02  0.43400730167E+02  0.00000000000E+00 0.  1.
         11    1    3    3    0    0 -0.21244179454E+02 -0.30799594978E+01 -0.13759891987E+02  0.25497763410E+02  0.51100000000E-03 0. -1.
        -11    1    3    3    0    0 -0.15813913300E+02 -0.13457452415E+01  0.33673618725E+01  0.16224364714E+02  0.51100000000E-03 0.  1.
         12    1    3    3    0    0 -0.31996618039E+01 -0.35722145707E+01 -0.37131376695E+01  0.60651417091E+01  0.00000000000E+00 0. -1.
</event>
<event>
 7    1  0.2442667E-009  0.4778727E+02  0.7816164E-02  0.1312668E+00
        -11   -1    0    0    0    0  0.00000000000E+00  0.00000000000E+00  0.45593999997E+02  0.45594000000E+02  0.51100000000E-03 0.  1.
         11   -1    0    0    0    0 -0.00000000000E+00 -0.00000000000E+00 -0.45593999997E+02  0.45594000000E+02  0.51100000000E-03 0. -1.
    9900012    2    1    2    0    0 -0.34538120542E+02  0.38588523486E+01 -0.25997129820E+02  0.47787271079E+02  0.20000000156E+02 0.  0.
        -12    1    1    2    0    0  0.34538120542E+02 -0.38588523486E+01  0.25997129820E+02  0.43400728921E+02  0.00000000000E+00 0.  1.
         11    1    3    3    0    0 -0.18890892453E+02 -0.63933872560E+01 -0.17484234203E+02  0.26522436996E+02  0.51100000000E-03 0.  1.
        -11    1    3    3    0    0 -0.10656883849E+02  0.73027869358E+01 -0.29947492491E+01  0.13261538136E+02  0.51100000000E-03 0. -1.
        -12    1    3    3    0    0 -0.49903442401E+01  0.29494526688E+01 -0.55181463671E+01  0.80032959466E+01  0.00000000000E+00 0.  1.
</event>
<event>
 7    1  0.2442667E-009  0.4778728E+02  0.7816164E-02  0.1312668E+00
        -11   -1    0    0    0    0  0.00000000000E+00  0.00000000000E+00  0.45593999997E+02  0.45594000000E+02  0.51100000000E-03 0.  1.
         11   -1    0    0    0    0 -0.00000000000E+00 -0.00000000000E+00 -0.45593999997E+02  0.45594000000E+02  0.51100000000E-03 0. -1.
    9900012    2    1    2    0    0  0.33621113241E+00 -0.27181412912E+02 -0.33833128672E+02  0.47787276025E+02  0.20000022708E+02 0.  0.
        -12    1    1    2    0    0 -0.33621113241E+00  0.27181412912E+02  0.33833128672E+02  0.43400723975E+02  0.00000000000E+00 0.  1.
         11    1    3    3    0    0  0.21943926079E+01 -0.63090572001E+01 -0.66393652769E+01  0.94181066682E+01  0.51100000000E-03 0. -1.
        -11    1    3    3    0    0 -0.36858065048E+01 -0.14292872716E+02 -0.57102330669E+01  0.15826501256E+02  0.51100000000E-03 0.  1.
        -12    1    3    3    0    0  0.18276250292E+01 -0.65794829962E+01 -0.21483530328E+02  0.22542668101E+02  0.00000000000E+00 0.  1.
</event>
<event>
 7    1  0.2442667E-009  0.4778727E+02  0.7816164E-02  0.1312668E+00
        -11   -1    0    0    0    0  0.00000000000E+00  0.00000000000E+00  0.45593999997E+02  0.45594000000E+02  0.51100000000E-03 0.  1.
         11   -1    0    0    0    0 -0.00000000000E+00 -0.00000000000E+00 -0.45593999997E+02  0.45594000000E+02  0.51100000000E-03 0. -1.
    9900012    2    1    2    0    0  0.27956624105E+02 -0.28112625801E+02 -0.17655893244E+02  0.47787272736E+02  0.20000007711E+02 0.  0.
        -12    1    1    2    0    0 -0.27956624105E+02  0.28112625801E+02  0.17655893244E+02  0.43400727264E+02  0.00000000000E+00 0.  1.
         11    1    3    3    0    0  0.17124374607E+02 -0.11413195794E+02 -0.50050891363E+01  0.21179144492E+02  0.51100000000E-03 0. -1.
        -11    1    3    3    0    0 -0.19332707409E+01 -0.47169380894E+01 -0.15874627545E+00  0.51002197343E+01  0.51100000000E-03 0.  1.
        -12    1    3    3    0    0  0.12765520239E+02 -0.11982491918E+02 -0.12492057832E+02  0.21507908509E+02  0.00000000000E+00 0.  1.
</event>
<event>
 7    1  0.2442667E-009  0.4778727E+02  0.7816164E-02  0.1312668E+00
        -11   -1    0    0    0    0  0.00000000000E+00  0.00000000000E+00  0.45593999997E+02  0.45594000000E+02  0.51100000000E-03 0.  1.
         11   -1    0    0    0    0 -0.00000000000E+00 -0.00000000000E+00 -0.45593999997E+02  0.45594000000E+02  0.51100000000E-03 0. -1.
    9900012    2    1    2    0    0 -0.18186249416E+02 -0.30564184615E+02 -0.24873971842E+02  0.47787268161E+02  0.19999986851E+02 0.  0.
        -12    1    1    2    0    0  0.18186249416E+02  0.30564184615E+02  0.24873971842E+02  0.43400731839E+02  0.00000000000E+00 0.  1.
         11    1    3    3    0    0 -0.50616509611E+01  0.74219142721E+00 -0.48536128290E+00  0.51387483303E+01  0.51100000000E-03 0.  1.
        -11    1    3    3    0    0 -0.12415648610E+02 -0.20170376111E+02 -0.14742873844E+02  0.27898830303E+02  0.51100000000E-03 0. -1.
        -12    1    3    3    0    0 -0.70894984447E+00 -0.11135999931E+02 -0.96457367154E+01  0.14749689527E+02  0.00000000000E+00 0.  1.
</event>
<event>
 7    1  0.2442667E-009  0.4778727E+02  0.7816164E-02  0.1312668E+00
        -11   -1    0    0    0    0  0.00000000000E+00  0.00000000000E+00  0.45593999997E+02  0.45594000000E+02  0.51100000000E-03 0.  1.
         11   -1    0    0    0    0 -0.00000000000E+00 -0.00000000000E+00 -0.45593999997E+02  0.45594000000E+02  0.51100000000E-03 0. -1.
    9900012    2    1    2    0    0 -0.22346341789E+02  0.29493288729E+01 -0.37088624926E+02  0.47787266930E+02  0.19999981241E+02 0.  0.
        -12    1    1    2    0    0  0.22346341789E+02 -0.29493288729E+01  0.37088624926E+02  0.43400733070E+02  0.00000000000E+00 0.  1.
         11    1    3    3    0    0 -0.11341898593E+02 -0.57447052243E+01 -0.20473809958E+02  0.24100149299E+02  0.51100000000E-03 0. -1.
        -11    1    3    3    0    0 -0.43448806448E+01 -0.15279137909E+01 -0.35776550130E+01  0.58319914286E+01  0.51100000000E-03 0.  1.
         12    1    3    3    0    0 -0.66595625509E+01  0.10221947888E+02 -0.13037159955E+02  0.17855126202E+02  0.00000000000E+00 0. -1.
</event>
<event>
 7    1  0.2442667E-009  0.4778728E+02  0.7816164E-02  0.1312668E+00
        -11   -1    0    0    0    0  0.00000000000E+00  0.00000000000E+00  0.45593999997E+02  0.45594000000E+02  0.51100000000E-03 0. -1.
         11   -1    0    0    0    0 -0.00000000000E+00 -0.00000000000E+00 -0.45593999997E+02  0.45594000000E+02  0.51100000000E-03 0.  1.
    9900012    2    1    2    0    0 -0.37156986060E+02 -0.15015058559E+01 -0.22376906959E+02  0.47787284592E+02  0.20000061767E+02 0.  0.
        -12    1    1    2    0    0  0.37156986060E+02  0.15015058559E+01  0.22376906959E+02  0.43400715408E+02  0.00000000000E+00 0.  1.
         11    1    3    3    0    0 -0.25246296241E+02  0.66397607308E+00 -0.91850621413E+01  0.26873438650E+02  0.51100000000E-03 0. -1.
        -11    1    3    3    0    0 -0.22110841633E+01 -0.49401223529E+01 -0.77449377644E+01  0.94486910879E+01  0.51100000000E-03 0.  1.
        -12    1    3    3    0    0 -0.96996056561E+01  0.27746404239E+01 -0.54469070534E+01  0.11465154853E+02  0.00000000000E+00 0.  1.
</event>
<event>
 7    1  0.2442667E-009  0.4778727E+02  0.7816164E-02  0.1312668E+00
        -11   -1    0    0    0    0  0.00000000000E+00  0.00000000000E+00  0.45593999997E+02  0.45594000000E+02  0.51100000000E-03 0. -1.
         11   -1    0    0    0    0 -0.00000000000E+00 -0.00000000000E+00 -0.45593999997E+02  0.45594000000E+02  0.51100000000E-03 0.  1.
    9900012    2    1    2    0    0 -0.27835792450E+02 -0.22543322922E+02  0.24506943351E+02  0.47787273945E+02  0.20000013226E+02 0.  0.
        -12    1    1    2    0    0  0.27835792450E+02  0.22543322922E+02 -0.24506943351E+02  0.43400726055E+02  0.00000000000E+00 0.  1.
         11    1    3    3    0    0 -0.80021022259E+01  0.13177590026E+01  0.58369020881E+01  0.99919745331E+01  0.51100000000E-03 0.  1.
        -11    1    3    3    0    0 -0.26806047481E+01 -0.11263450863E+02  0.67721919383E+01  0.13413185717E+02  0.51100000000E-03 0. -1.
        -12    1    3    3    0    0 -0.17153085476E+02 -0.12597631061E+02  0.11897849325E+02  0.24382113695E+02  0.00000000000E+00 0.  1.
</event>
<event>
 7    1  0.2442667E-009  0.4778727E+02  0.7816164E-02  0.1312668E+00
        -11   -1    0    0    0    0  0.00000000000E+00  0.00000000000E+00  0.45593999997E+02  0.45594000000E+02  0.51100000000E-03 0.  1.
         11   -1    0    0    0    0 -0.00000000000E+00 -0.00000000000E+00 -0.45593999997E+02  0.45594000000E+02  0.51100000000E-03 0. -1.
    9900012    2    1    2    0    0 -0.24300675304E+02 -0.27096297440E+02 -0.23640875117E+02  0.47787272685E+02  0.20000007478E+02 0.  0.
        -12    1    1    2    0    0  0.24300675304E+02  0.27096297440E+02  0.23640875117E+02  0.43400727315E+02  0.00000000000E+00 0.  1.
         11    1    3    3    0    0 -0.17366316123E+02 -0.11289977959E+02 -0.76955534995E+01  0.22096924716E+02  0.51100000000E-03 0. -1.
        -11    1    3    3    0    0 -0.78858357610E+00 -0.10928728247E+02 -0.45709951642E+01  0.11872361273E+02  0.51100000000E-03 0.  1.
         12    1    3    3    0    0 -0.61457756053E+01 -0.48775912339E+01 -0.11374326453E+02  0.13817986695E+02  0.00000000000E+00 0. -1.
</event>
<event>
 7    1  0.2442667E-009  0.4778727E+02  0.7816164E-02  0.1312668E+00
        -11   -1    0    0    0    0  0.00000000000E+00  0.00000000000E+00  0.45593999997E+02  0.45594000000E+02  0.51100000000E-03 0.  1.
         11   -1    0    0    0    0 -0.00000000000E+00 -0.00000000000E+00 -0.45593999997E+02  0.45594000000E+02  0.51100000000E-03 0. -1.
    9900012    2    1    2    0    0  0.17181481105E+02  0.38814198511E+02  0.90486639066E+01  0.47787267085E+02  0.19999981949E+02 0.  0.
        -12    1    1    2    0    0 -0.17181481105E+02 -0.38814198511E+02 -0.90486639066E+01  0.43400732915E+02  0.00000000000E+00 0.  1.
         11    1    3    3    0    0  0.12812795773E+02  0.12847944488E+02  0.45383060468E+01  0.18703840117E+02  0.51100000000E-03 0. -1.
        -11    1    3    3    0    0  0.14218246887E+01  0.15808882812E+02 -0.29450474656E+01  0.16143595202E+02  0.51100000000E-03 0.  1.
        -12    1    3    3    0    0  0.29468606432E+01  0.10157371211E+02  0.74554053254E+01  0.12939831766E+02  0.00000000000E+00 0.  1.
</event>
<event>
 7    1  0.2442667E-009  0.4778727E+02  0.7816164E-02  0.1312668E+00
        -11   -1    0    0    0    0  0.00000000000E+00  0.00000000000E+00  0.45593999997E+02  0.45594000000E+02  0.51100000000E-03 0.  1.
         11   -1    0    0    0    0 -0.00000000000E+00 -0.00000000000E+00 -0.45593999997E+02  0.45594000000E+02  0.51100000000E-03 0. -1.
    9900012    2    1    2    0    0  0.37227454932E+02  0.10109337429E+00 -0.22309859731E+02  0.47787268879E+02  0.19999990128E+02 0.  0.
        -12    1    1    2    0    0 -0.37227454932E+02 -0.10109337429E+00  0.22309859731E+02  0.43400731121E+02  0.00000000000E+00 0.  1.
         11    1    3    3    0    0  0.34864334610E+01  0.41504840724E+01 -0.10042259932E+01  0.55127313031E+01  0.51100000000E-03 0. -1.
        -11    1    3    3    0    0  0.28673639899E+02  0.38395090841E+00 -0.20984105747E+02  0.35533895615E+02  0.51100000000E-03 0.  1.
        -12    1    3    3    0    0  0.50673815722E+01 -0.44333416065E+01 -0.32152799141E+00  0.67406419611E+01  0.00000000000E+00 0.  1.
</event>
<event>
 7    1  0.2442667E-009  0.4778728E+02  0.7816164E-02  0.1312668E+00
        -11   -1    0    0    0    0  0.00000000000E+00  0.00000000000E+00  0.45593999997E+02  0.45594000000E+02  0.51100000000E-03 0.  1.
         11   -1    0    0    0    0 -0.00000000000E+00 -0.00000000000E+00 -0.45593999997E+02  0.45594000000E+02  0.51100000000E-03 0. -1.
    9900012    2    1    2    0    0 -0.12567572267E+02  0.23183424994E+02 -0.34470391053E+02  0.47787275047E+02  0.20000018249E+02 0.  0.
        -12    1    1    2    0    0  0.12567572267E+02 -0.23183424994E+02  0.34470391053E+02  0.43400724953E+02  0.00000000000E+00 0.  1.
         11    1    3    3    0    0 -0.39074074141E+01  0.17721518377E+02 -0.25329584593E+02  0.31159395087E+02  0.51100000000E-03 0. -1.
        -11    1    3    3    0    0  0.11927058178E+01 -0.10638209783E+01  0.13572454995E+00  0.16039587452E+01  0.51100000000E-03 0.  1.
         12    1    3    3    0    0 -0.98528706704E+01  0.65257275958E+01 -0.92765310091E+01  0.15023921215E+02  0.00000000000E+00 0. -1.
</event>
<event>
 7    1  0.2442667E-009  0.4778727E+02  0.7816164E-02  0.1312668E+00
        -11   -1    0    0    0    0  0.00000000000E+00  0.00000000000E+00  0.45593999997E+02  0.45594000000E+02  0.51100000000E-03 0.  1.
         11   -1    0    0    0    0 -0.00000000000E+00 -0.00000000000E+00 -0.45593999997E+02  0.45594000000E+02  0.51100000000E-03 0. -1.
    9900012    2    1    2    0    0  0.16339658271E+02  0.38015648709E+02 -0.13093882963E+02  0.47787265556E+02  0.19999974977E+02 0.  0.
        -12    1    1    2    0    0 -0.16339658271E+02 -0.38015648709E+02  0.13093882963E+02  0.43400734444E+02  0.00000000000E+00 0.  1.
         11    1    3    3    0    0  0.62522349723E+01  0.20413642119E+02 -0.81417591704E+01  0.22849408513E+02  0.51100000000E-03 0. -1.
        -11    1    3    3    0    0 -0.14668486231E+01  0.40992846441E+01  0.31826512207E+01  0.53930555838E+01  0.51100000000E-03 0.  1.
        -12    1    3    3    0    0  0.11554271922E+02  0.13502721946E+02 -0.81347750131E+01  0.19544801460E+02  0.00000000000E+00 0.  1.
</event>
<event>
 7    1  0.2442667E-009  0.4778727E+02  0.7816164E-02  0.1312668E+00
        -11   -1    0    0    0    0  0.00000000000E+00  0.00000000000E+00  0.45593999997E+02  0.45594000000E+02  0.51100000000E-03 0.  1.
         11   -1    0    0    0    0 -0.00000000000E+00 -0.00000000000E+00 -0.45593999997E+02  0.45594000000E+02  0.51100000000E-03 0. -1.
    9900012    2    1    2    0    0 -0.18476151134E+02 -0.31398800344E+00 -0.39270302321E+02  0.47787269666E+02  0.19999993713E+02 0.  0.
        -12    1    1    2    0    0  0.18476151134E+02  0.31398800344E+00  0.39270302321E+02  0.43400730334E+02  0.00000000000E+00 0.  1.
         11    1    3    3    0    0 -0.15483394788E+02  0.35552366857E+01 -0.27390681518E+02  0.31664248868E+02  0.51100000000E-03 0. -1.
        -11    1    3    3    0    0  0.20394633428E+01 -0.49318156316E+01 -0.38236558949E+01  0.65652540556E+01  0.51100000000E-03 0.  1.
        -12    1    3    3    0    0 -0.50322196889E+01  0.10625909425E+01 -0.80559649076E+01  0.95577667423E+01  0.00000000000E+00 0.  1.
</event>
<event>
 7    1  0.2442667E-009  0.4778727E+02  0.7816164E-02  0.1312668E+00
        -11   -1    0    0    0    0  0.00000000000E+00  0.00000000000E+00  0.45593999997E+02  0.45594000000E+02  0.51100000000E-03 0.  1.
         11   -1    0    0    0    0 -0.00000000000E+00 -0.00000000000E+00 -0.45593999997E+02  0.45594000000E+02  0.51100000000E-03 0. -1.
    9900012    2    1    2    0    0  0.11894523103E+02 -0.21515990555E+02 -0.35765988493E+02  0.47787268874E+02  0.19999990105E+02 0.  0.
        -12    1    1    2    0    0 -0.11894523103E+02  0.21515990555E+02  0.35765988493E+02  0.43400731126E+02  0.00000000000E+00 0.  1.
         11    1    3    3    0    0 -0.20384768757E+01 -0.12657534792E+02 -0.13219097296E+02  0.18415023990E+02  0.51100000000E-03 0. -1.
        -11    1    3    3    0    0  0.81726506832E+00 -0.40186085913E+01 -0.90694270858E+01  0.99534740231E+01  0.51100000000E-03 0.  1.
         12    1    3    3    0    0  0.13115734910E+02 -0.48398471713E+01 -0.13477464111E+02  0.19418770861E+02  0.00000000000E+00 0. -1.
</event>
<event>
 7    1  0.2442667E-009  0.4778727E+02  0.7816164E-02  0.1312668E+00
        -11   -1    0    0    0    0  0.00000000000E+00  0.00000000000E+00  0.45593999997E+02  0.45594000000E+02  0.51100000000E-03 0. -1.
         11   -1    0    0    0    0 -0.00000000000E+00 -0.00000000000E+00 -0.45593999997E+02  0.45594000000E+02  0.51100000000E-03 0.  1.
    9900012    2    1    2    0    0  0.42333683671E+02  0.68074673287E+01  0.67186993385E+01  0.47787270681E+02  0.19999998344E+02 0.  0.
        -12    1    1    2    0    0 -0.42333683671E+02 -0.68074673287E+01 -0.67186993385E+01  0.43400729319E+02  0.00000000000E+00 0.  1.
         11    1    3    3    0    0  0.34888106235E+02  0.69942435554E+01  0.37030618371E+01  0.35774461097E+02  0.51100000000E-03 0. -1.
        -11    1    3    3    0    0  0.46342553280E+01  0.23714049508E+01  0.54200774750E+01  0.75151263451E+01  0.51100000000E-03 0.  1.
         12    1    3    3    0    0  0.28113221085E+01 -0.25581811775E+01 -0.24044399736E+01  0.44976832394E+01  0.00000000000E+00 0. -1.
</event>
<event>
 7    1  0.2442667E-009  0.4778728E+02  0.7816164E-02  0.1312668E+00
        -11   -1    0    0    0    0  0.00000000000E+00  0.00000000000E+00  0.45593999997E+02  0.45594000000E+02  0.51100000000E-03 0.  1.
         11   -1    0    0    0    0 -0.00000000000E+00 -0.00000000000E+00 -0.45593999997E+02  0.45594000000E+02  0.51100000000E-03 0. -1.
    9900012    2    1    2    0    0 -0.31350127791E+02 -0.21134014829E+02 -0.21310681910E+02  0.47787282739E+02  0.20000053321E+02 0.  0.
        -12    1    1    2    0    0  0.31350127791E+02  0.21134014829E+02  0.21310681910E+02  0.43400717261E+02  0.00000000000E+00 0.  1.
         11    1    3    3    0    0 -0.44078290296E+01 -0.70152220863E+01 -0.80518293902E+01  0.11553105836E+02  0.51100000000E-03 0. -1.
        -11    1    3    3    0    0 -0.21469617282E+02 -0.38509166452E+01 -0.10810001557E+02  0.24343996368E+02  0.51100000000E-03 0.  1.
        -12    1    3    3    0    0 -0.54726814794E+01 -0.10267876097E+02 -0.24488509633E+01  0.11890180535E+02  0.00000000000E+00 0.  1.
</event>
<event>
 7    1  0.2442667E-009  0.4778727E+02  0.7816164E-02  0.1312668E+00
        -11   -1    0    0    0    0  0.00000000000E+00  0.00000000000E+00  0.45593999997E+02  0.45594000000E+02  0.51100000000E-03 0. -1.
         11   -1    0    0    0    0 -0.00000000000E+00 -0.00000000000E+00 -0.45593999997E+02  0.45594000000E+02  0.51100000000E-03 0.  1.
    9900012    2    1    2    0    0  0.22386340708E+01  0.42334420729E+01  0.43135713081E+02  0.47787271235E+02  0.20000000869E+02 0.  0.
        -12    1    1    2    0    0 -0.22386340708E+01 -0.42334420729E+01 -0.43135713081E+02  0.43400728765E+02  0.00000000000E+00 0.  1.
         11    1    3    3    0    0  0.73033047514E+00  0.10015059309E+02  0.28863589253E+02  0.30560457791E+02  0.51100000000E-03 0. -1.
        -11    1    3    3    0    0 -0.40096230698E+00 -0.70951318354E+00 -0.84115165808E+00  0.11712028442E+01  0.51100000000E-03 0.  1.
         12    1    3    3    0    0  0.19092659027E+01 -0.50721040526E+01  0.15113275486E+02  0.16055610600E+02  0.00000000000E+00 0. -1.
</event>
<event>
 7    1  0.2442667E-009  0.4778727E+02  0.7816164E-02  0.1312668E+00
        -11   -1    0    0    0    0  0.00000000000E+00  0.00000000000E+00  0.45593999997E+02  0.45594000000E+02  0.51100000000E-03 0.  1.
         11   -1    0    0    0    0 -0.00000000000E+00 -0.00000000000E+00 -0.45593999997E+02  0.45594000000E+02  0.51100000000E-03 0. -1.
    9900012    2    1    2    0    0  0.35794817149E+02  0.61483560409E+01 -0.23760301168E+02  0.47787272721E+02  0.20000007644E+02 0.  0.
        -12    1    1    2    0    0 -0.35794817149E+02 -0.61483560409E+01  0.23760301168E+02  0.43400727279E+02  0.00000000000E+00 0.  1.
         11    1    3    3    0    0  0.15812251256E+02 -0.14315870703E+01 -0.19828870555E+02  0.25401984944E+02  0.51100000000E-03 0. -1.
        -11    1    3    3    0    0  0.19625491156E+02  0.68164454020E+01 -0.46362230824E+01  0.21286577831E+02  0.51100000000E-03 0.  1.
        -12    1    3    3    0    0  0.35707473691E+00  0.76349770918E+00  0.70479246968E+00  0.10987099458E+01  0.00000000000E+00 0.  1.
</event>
<event>
 7    1  0.2442667E-009  0.4778727E+02  0.7816164E-02  0.1312668E+00
        -11   -1    0    0    0    0  0.00000000000E+00  0.00000000000E+00  0.45593999997E+02  0.45594000000E+02  0.51100000000E-03 0.  1.
         11   -1    0    0    0    0 -0.00000000000E+00 -0.00000000000E+00 -0.45593999997E+02  0.45594000000E+02  0.51100000000E-03 0. -1.
    9900012    2    1    2    0    0 -0.27037831261E+02 -0.33773952256E+02  0.34495417855E+01  0.47787268338E+02  0.19999987660E+02 0.  0.
        -12    1    1    2    0    0  0.27037831261E+02  0.33773952256E+02 -0.34495417855E+01  0.43400731662E+02  0.00000000000E+00 0.  1.
         11    1    3    3    0    0 -0.13885636134E+02 -0.23870341160E+02  0.29479891484E+01  0.27772193256E+02  0.51100000000E-03 0. -1.
        -11    1    3    3    0    0 -0.14132633733E+01  0.15787976142E+01  0.27167321362E+01  0.34453663129E+01  0.51100000000E-03 0.  1.
        -12    1    3    3    0    0 -0.11738931753E+02 -0.11482408710E+02 -0.22151794991E+01  0.16569708769E+02  0.00000000000E+00 0.  1.
</event>
<event>
 7    1  0.2442667E-009  0.4778727E+02  0.7816164E-02  0.1312668E+00
        -11   -1    0    0    0    0  0.00000000000E+00  0.00000000000E+00  0.45593999997E+02  0.45594000000E+02  0.51100000000E-03 0.  1.
         11   -1    0    0    0    0 -0.00000000000E+00 -0.00000000000E+00 -0.45593999997E+02  0.45594000000E+02  0.51100000000E-03 0. -1.
    9900012    2    1    2    0    0  0.44622659313E+01  0.58665526674E+01 -0.42770258171E+02  0.47787271418E+02  0.20000001704E+02 0.  0.
        -12    1    1    2    0    0 -0.44622659313E+01 -0.58665526674E+01  0.42770258171E+02  0.43400728582E+02  0.00000000000E+00 0.  1.
         11    1    3    3    0    0  0.10978959135E+01  0.77846080116E+00 -0.21788146083E+02  0.21829674451E+02  0.51100000000E-03 0. -1.
        -11    1    3    3    0    0  0.26616747703E+01  0.44879238674E+01 -0.26995016251E+00  0.52248298129E+01  0.51100000000E-03 0.  1.
        -12    1    3    3    0    0  0.70269524748E+00  0.60016799884E+00 -0.20712161925E+02  0.20732767154E+02  0.00000000000E+00 0.  1.
</event>
<event>
 7    1  0.2442667E-009  0.4778727E+02  0.7816164E-02  0.1312668E+00
        -11   -1    0    0    0    0  0.00000000000E+00  0.00000000000E+00  0.45593999997E+02  0.45594000000E+02  0.51100000000E-03 0. -1.
         11   -1    0    0    0    0 -0.00000000000E+00 -0.00000000000E+00 -0.45593999997E+02  0.45594000000E+02  0.51100000000E-03 0.  1.
    9900012    2    1    2    0    0  0.33550235450E+01  0.14961478236E+02  0.40601987032E+02  0.47787269996E+02  0.19999995218E+02 0.  0.
        -12    1    1    2    0    0 -0.33550235450E+01 -0.14961478236E+02 -0.40601987032E+02  0.43400730004E+02  0.00000000000E+00 0.  1.
         11    1    3    3    0    0  0.64547879981E+01  0.91988999746E+01  0.11765378261E+02  0.16269854785E+02  0.51100000000E-03 0. -1.
        -11    1    3    3    0    0 -0.65787345654E+01  0.14582571018E+01  0.11612375566E+02  0.13425853001E+02  0.51100000000E-03 0.  1.
        -12    1    3    3    0    0  0.34789701123E+01  0.43043211600E+01  0.17224233205E+02  0.18091562210E+02  0.00000000000E+00 0.  1.
</event>
<event>
 7    1  0.2442667E-009  0.4778727E+02  0.7816164E-02  0.1312668E+00
        -11   -1    0    0    0    0  0.00000000000E+00  0.00000000000E+00  0.45593999997E+02  0.45594000000E+02  0.51100000000E-03 0.  1.
         11   -1    0    0    0    0 -0.00000000000E+00 -0.00000000000E+00 -0.45593999997E+02  0.45594000000E+02  0.51100000000E-03 0. -1.
    9900012    2    1    2    0    0  0.28322784798E+02  0.99530640852E+00 -0.32870237172E+02  0.47787271143E+02  0.20000000450E+02 0.  0.
        -12    1    1    2    0    0 -0.28322784798E+02 -0.99530640852E+00  0.32870237172E+02  0.43400728857E+02  0.00000000000E+00 0.  1.
         11    1    3    3    0    0  0.40014192192E+01 -0.25675496194E+01 -0.17155178833E+02  0.17801792828E+02  0.51100000000E-03 0. -1.
        -11    1    3    3    0    0  0.20738712752E+02  0.15940902945E+01 -0.10327857633E+02  0.23222833032E+02  0.51100000000E-03 0.  1.
         12    1    3    3    0    0  0.35826528271E+01  0.19687657334E+01 -0.53872007055E+01  0.67626452837E+01  0.00000000000E+00 0. -1.
</event>
<event>
 7    1  0.2442667E-009  0.4778728E+02  0.7816164E-02  0.1312668E+00
        -11   -1    0    0    0    0  0.00000000000E+00  0.00000000000E+00  0.45593999997E+02  0.45594000000E+02  0.51100000000E-03 0. -1.
         11   -1    0    0    0    0 -0.00000000000E+00 -0.00000000000E+00 -0.45593999997E+02  0.45594000000E+02  0.51100000000E-03 0.  1.
    9900012    2    1    2    0    0 -0.25415516057E+01 -0.28211507699E+02  0.32882728864E+02  0.47787279858E+02  0.20000040187E+02 0.  0.
        -12    1    1    2    0    0  0.25415516057E+01  0.28211507699E+02 -0.32882728864E+02  0.43400720142E+02  0.00000000000E+00 0.  1.
         11    1    3    3    0    0  0.89334246959E+00 -0.68233471511E+01  0.12723131829E+02  0.14464930381E+02  0.51100000000E-03 0. -1.
        -11    1    3    3    0    0  0.20685385239E+01 -0.17662191854E+02  0.80742883817E+01  0.19530130717E+02  0.51100000000E-03 0.  1.
        -12    1    3    3    0    0 -0.55034325992E+01 -0.37259686943E+01  0.12085308654E+02  0.13792218761E+02  0.00000000000E+00 0.  1.
</event>
<event>
 7    1  0.2442667E-009  0.4778727E+02  0.7816164E-02  0.1312668E+00
        -11   -1    0    0    0    0  0.00000000000E+00  0.00000000000E+00  0.45593999997E+02  0.45594000000E+02  0.51100000000E-03 0.  1.
         11   -1    0    0    0    0 -0.00000000000E+00 -0.00000000000E+00 -0.45593999997E+02  0.45594000000E+02  0.51100000000E-03 0. -1.
    9900012    2    1    2    0    0  0.23976372699E+02 -0.14618937288E+02 -0.33091443285E+02  0.47787269661E+02  0.19999993693E+02 0.  0.
        -12    1    1    2    0    0 -0.23976372699E+02  0.14618937288E+02  0.33091443285E+02  0.43400730339E+02  0.00000000000E+00 0.  1.
         11    1    3    3    0    0  0.58312270386E+01 -0.13471375452E+01 -0.13826474244E+02  0.15066166686E+02  0.51100000000E-03 0. -1.
        -11    1    3    3    0    0  0.67199482870E+01 -0.30244884445E+01  0.85193466285E+00  0.74182901171E+01  0.51100000000E-03 0.  1.
        -12    1    3    3    0    0  0.11425197373E+02 -0.10247311299E+02 -0.20116903704E+02  0.25302812858E+02  0.00000000000E+00 0.  1.
</event>
<event>
 7    1  0.2442667E-009  0.4778727E+02  0.7816164E-02  0.1312668E+00
        -11   -1    0    0    0    0  0.00000000000E+00  0.00000000000E+00  0.45593999997E+02  0.45594000000E+02  0.51100000000E-03 0.  1.
         11   -1    0    0    0    0 -0.00000000000E+00 -0.00000000000E+00 -0.45593999997E+02  0.45594000000E+02  0.51100000000E-03 0. -1.
    9900012    2    1    2    0    0 -0.15177058636E+02  0.15081654143E+02 -0.37760082726E+02  0.47787271342E+02  0.20000001358E+02 0.  0.
        -12    1    1    2    0    0  0.15177058636E+02 -0.15081654143E+02  0.37760082726E+02  0.43400728658E+02  0.00000000000E+00 0.  1.
         11    1    3    3    0    0 -0.62915339569E+00  0.83039214711E+01 -0.24182482385E+02  0.25576227250E+02  0.51100000000E-03 0.  1.
        -11    1    3    3    0    0 -0.12937839382E+02  0.56215543103E+01 -0.78354881526E+01  0.16136431935E+02  0.51100000000E-03 0. -1.
         12    1    3    3    0    0 -0.16100658580E+01  0.11561783618E+01 -0.57421121889E+01  0.60746121573E+01  0.00000000000E+00 0. -1.
</event>
<event>
 7    1  0.2442667E-009  0.4778728E+02  0.7816164E-02  0.1312668E+00
        -11   -1    0    0    0    0  0.00000000000E+00  0.00000000000E+00  0.45593999997E+02  0.45594000000E+02  0.51100000000E-03 0.  1.
         11   -1    0    0    0    0 -0.00000000000E+00 -0.00000000000E+00 -0.45593999997E+02  0.45594000000E+02  0.51100000000E-03 0. -1.
    9900012    2    1    2    0    0 -0.18855633960E+02 -0.17416107695E+02 -0.34996673514E+02  0.47787275394E+02  0.20000019832E+02 0.  0.
        -12    1    1    2    0    0  0.18855633960E+02  0.17416107695E+02  0.34996673514E+02  0.43400724606E+02  0.00000000000E+00 0.  1.
         11    1    3    3    0    0 -0.15202331116E+02 -0.20190269257E+02 -0.30435929164E+02  0.39561390627E+02  0.51100000000E-03 0. -1.
        -11    1    3    3    0    0 -0.44283142748E+00  0.25989698978E+01 -0.42424639024E+01  0.49949218640E+01  0.51100000000E-03 0.  1.
         12    1    3    3    0    0 -0.32104714169E+01  0.17519166475E+00 -0.31828044796E+00  0.32309629031E+01  0.00000000000E+00 0. -1.
</event>
<event>
 7    1  0.2442667E-009  0.4778727E+02  0.7816164E-02  0.1312668E+00
        -11   -1    0    0    0    0  0.00000000000E+00  0.00000000000E+00  0.45593999997E+02  0.45594000000E+02  0.51100000000E-03 0.  1.
         11   -1    0    0    0    0 -0.00000000000E+00 -0.00000000000E+00 -0.45593999997E+02  0.45594000000E+02  0.51100000000E-03 0. -1.
    9900012    2    1    2    0    0  0.62937432030E+01  0.20875927163E+02 -0.37526095034E+02  0.47787270203E+02  0.19999996163E+02 0.  0.
        -12    1    1    2    0    0 -0.62937432030E+01 -0.20875927163E+02  0.37526095034E+02  0.43400729797E+02  0.00000000000E+00 0.  1.
         11    1    3    3    0    0  0.19616530535E+01  0.68265967811E+01 -0.23745602329E+02  0.24785159603E+02  0.51100000000E-03 0. -1.
        -11    1    3    3    0    0  0.78793764438E+01  0.11872798496E+02 -0.10907963945E+02  0.17945238782E+02  0.51100000000E-03 0.  1.
        -12    1    3    3    0    0 -0.35472862943E+01  0.21765318868E+01 -0.28725287596E+01  0.50568718179E+01  0.00000000000E+00 0.  1.
</event>
<event>
 7    1  0.2442667E-009  0.4778727E+02  0.7816164E-02  0.1312668E+00
        -11   -1    0    0    0    0  0.00000000000E+00  0.00000000000E+00  0.45593999997E+02  0.45594000000E+02  0.51100000000E-03 0.  1.
         11   -1    0    0    0    0 -0.00000000000E+00 -0.00000000000E+00 -0.45593999997E+02  0.45594000000E+02  0.51100000000E-03 0. -1.
    9900012    2    1    2    0    0 -0.10132816941E+02 -0.41275305677E+02 -0.87919486624E+01  0.47787271905E+02  0.20000003923E+02 0.  0.
        -12    1    1    2    0    0  0.10132816941E+02  0.41275305677E+02  0.87919486624E+01  0.43400728095E+02  0.00000000000E+00 0.  1.
         11    1    3    3    0    0 -0.12438731285E+02 -0.37733366905E+02 -0.47505086487E+01  0.40013701986E+02  0.51100000000E-03 0. -1.
        -11    1    3    3    0    0  0.18382095523E+01  0.94517799246E+00 -0.79104587403E+00  0.22131718487E+01  0.51100000000E-03 0.  1.
         12    1    3    3    0    0  0.46770479169E+00 -0.44871167648E+01 -0.32503941397E+01  0.55603980700E+01  0.00000000000E+00 0. -1.
</event>
<event>
 7    1  0.2442667E-009  0.4778725E+02  0.7816164E-02  0.1312668E+00
        -11   -1    0    0    0    0  0.00000000000E+00  0.00000000000E+00  0.45593999997E+02  0.45594000000E+02  0.51100000000E-03 0.  1.
         11   -1    0    0    0    0 -0.00000000000E+00 -0.00000000000E+00 -0.45593999997E+02  0.45594000000E+02  0.51100000000E-03 0. -1.
    9900012    2    1    2    0    0 -0.15457564387E+02 -0.38973259080E+02  0.11214890867E+02  0.47787251190E+02  0.19999909475E+02 0.  0.
        -12    1    1    2    0    0  0.15457564387E+02  0.38973259080E+02 -0.11214890867E+02  0.43400748810E+02  0.00000000000E+00 0.  1.
         11    1    3    3    0    0 -0.13830168159E+02 -0.21323716847E+02 -0.20359626915E+01  0.25497442928E+02  0.51100000000E-03 0. -1.
        -11    1    3    3    0    0 -0.15180039007E+01 -0.11634023684E+02  0.10187413122E+02  0.15538282701E+02  0.51100000000E-03 0.  1.
        -12    1    3    3    0    0 -0.10939232710E+00 -0.60155185489E+01  0.30634404366E+01  0.67515255611E+01  0.00000000000E+00 0.  1.
</event>
<event>
 7    1  0.2442667E-009  0.4778727E+02  0.7816164E-02  0.1312668E+00
        -11   -1    0    0    0    0  0.00000000000E+00  0.00000000000E+00  0.45593999997E+02  0.45594000000E+02  0.51100000000E-03 0. -1.
         11   -1    0    0    0    0 -0.00000000000E+00 -0.00000000000E+00 -0.45593999997E+02  0.45594000000E+02  0.51100000000E-03 0.  1.
    9900012    2    1    2    0    0 -0.35113257403E+01  0.43242125055E+02 -0.11884789233E+01  0.47787271090E+02  0.20000000208E+02 0.  0.
        -12    1    1    2    0    0  0.35113257403E+01 -0.43242125055E+02  0.11884789233E+01  0.43400728910E+02  0.00000000000E+00 0.  1.
         11    1    3    3    0    0 -0.23063640599E+01  0.14658043576E+01  0.30959315435E+01  0.41294902803E+01  0.51100000000E-03 0. -1.
        -11    1    3    3    0    0  0.45981166737E+01  0.21195211699E+02 -0.50196854338E+01  0.22261556954E+02  0.51100000000E-03 0.  1.
        -12    1    3    3    0    0 -0.58030783541E+01  0.20581108999E+02  0.73527496691E+00  0.21396223856E+02  0.00000000000E+00 0.  1.
</event>
<event>
 7    1  0.2442667E-009  0.4778727E+02  0.7816164E-02  0.1312668E+00
        -11   -1    0    0    0    0  0.00000000000E+00  0.00000000000E+00  0.45593999997E+02  0.45594000000E+02  0.51100000000E-03 0.  1.
         11   -1    0    0    0    0 -0.00000000000E+00 -0.00000000000E+00 -0.45593999997E+02  0.45594000000E+02  0.51100000000E-03 0. -1.
    9900012    2    1    2    0    0 -0.16620244780E+02  0.72405095628E+01 -0.39433058303E+02  0.47787267260E+02  0.19999982744E+02 0.  0.
        -12    1    1    2    0    0  0.16620244780E+02 -0.72405095628E+01  0.39433058303E+02  0.43400732740E+02  0.00000000000E+00 0.  1.
         11    1    3    3    0    0 -0.92442955050E+01  0.26987519119E+01 -0.11097018307E+02  0.14692994141E+02  0.51100000000E-03 0. -1.
        -11    1    3    3    0    0 -0.68765563300E+01  0.89192995604E+01 -0.13309561050E+02  0.17435175572E+02  0.51100000000E-03 0.  1.
        -12    1    3    3    0    0 -0.49939294534E+00 -0.43775419095E+01 -0.15026478946E+02  0.15659097547E+02  0.00000000000E+00 0.  1.
</event>
<event>
 7    1  0.2442667E-009  0.4778726E+02  0.7816164E-02  0.1312668E+00
        -11   -1    0    0    0    0  0.00000000000E+00  0.00000000000E+00  0.45593999997E+02  0.45594000000E+02  0.51100000000E-03 0. -1.
         11   -1    0    0    0    0 -0.00000000000E+00 -0.00000000000E+00 -0.45593999997E+02  0.45594000000E+02  0.51100000000E-03 0.  1.
    9900012    2    1    2    0    0 -0.94588082158E+01  0.40500028145E+02  0.12405757185E+02  0.47787261021E+02  0.19999954299E+02 0.  0.
        -12    1    1    2    0    0  0.94588082158E+01 -0.40500028145E+02 -0.12405757185E+02  0.43400738979E+02  0.00000000000E+00 0.  1.
         11    1    3    3    0    0 -0.12703181158E+02  0.28966364711E+02  0.54590696398E+01  0.32097079894E+02  0.51100000000E-03 0. -1.
        -11    1    3    3    0    0  0.29776311531E+01  0.62314336615E+00  0.23667880529E+01  0.38543846314E+01  0.51100000000E-03 0.  1.
         12    1    3    3    0    0  0.26674178950E+00  0.10910520068E+02  0.45798994924E+01  0.11835796496E+02  0.00000000000E+00 0. -1.
</event>
<event>
 7    1  0.2442667E-009  0.4778727E+02  0.7816164E-02  0.1312668E+00
        -11   -1    0    0    0    0  0.00000000000E+00  0.00000000000E+00  0.45593999997E+02  0.45594000000E+02  0.51100000000E-03 0. -1.
         11   -1    0    0    0    0 -0.00000000000E+00 -0.00000000000E+00 -0.45593999997E+02  0.45594000000E+02  0.51100000000E-03 0.  1.
    9900012    2    1    2    0    0 -0.90519736062E+01 -0.38336081381E+02  0.18221699801E+02  0.47787266072E+02  0.19999977329E+02 0.  0.
        -12    1    1    2    0    0  0.90519736062E+01  0.38336081381E+02 -0.18221699801E+02  0.43400733928E+02  0.00000000000E+00 0.  1.
         11    1    3    3    0    0 -0.46063358576E+00 -0.24270739512E+02  0.17192735882E+02  0.29746783812E+02  0.51100000000E-03 0. -1.
        -11    1    3    3    0    0 -0.43051068611E+01 -0.37445907607E+01  0.33641567474E+01  0.66237040946E+01  0.51100000000E-03 0.  1.
         12    1    3    3    0    0 -0.42862331593E+01 -0.10320751109E+02 -0.23351928284E+01  0.11416778166E+02  0.00000000000E+00 0. -1.
</event>
<event>
 7    1  0.2442667E-009  0.4778727E+02  0.7816164E-02  0.1312668E+00
        -11   -1    0    0    0    0  0.00000000000E+00  0.00000000000E+00  0.45593999997E+02  0.45594000000E+02  0.51100000000E-03 0.  1.
         11   -1    0    0    0    0 -0.00000000000E+00 -0.00000000000E+00 -0.45593999997E+02  0.45594000000E+02  0.51100000000E-03 0. -1.
    9900012    2    1    2    0    0  0.29504837213E+01  0.13129096609E+01 -0.43280411890E+02  0.47787272595E+02  0.20000007069E+02 0.  0.
        -12    1    1    2    0    0 -0.29504837213E+01 -0.13129096609E+01  0.43280411890E+02  0.43400727405E+02  0.00000000000E+00 0.  1.
         11    1    3    3    0    0 -0.48736369793E+01 -0.19523409457E+01 -0.25186831104E+02  0.25728203083E+02  0.51100000000E-03 0. -1.
        -11    1    3    3    0    0  0.24793128962E+01  0.11374751274E+01  0.33979369955E+00  0.27488728821E+01  0.51100000000E-03 0.  1.
        -12    1    3    3    0    0  0.53448078044E+01  0.21277754792E+01 -0.18433374485E+02  0.19310196630E+02  0.00000000000E+00 0.  1.
</event>
<event>
 7    1  0.2442667E-009  0.4778727E+02  0.7816164E-02  0.1312668E+00
        -11   -1    0    0    0    0  0.00000000000E+00  0.00000000000E+00  0.45593999997E+02  0.45594000000E+02  0.51100000000E-03 0.  1.
         11   -1    0    0    0    0 -0.00000000000E+00 -0.00000000000E+00 -0.45593999997E+02  0.45594000000E+02  0.51100000000E-03 0. -1.
    9900012    2    1    2    0    0  0.25790157406E+02  0.19398584167E+02 -0.29020443692E+02  0.47787269144E+02  0.19999991336E+02 0.  0.
        -12    1    1    2    0    0 -0.25790157406E+02 -0.19398584167E+02  0.29020443692E+02  0.43400730856E+02  0.00000000000E+00 0.  1.
         11    1    3    3    0    0  0.97577759741E+01 -0.16694186555E+01 -0.13409281518E+02  0.16667632756E+02  0.51100000000E-03 0. -1.
        -11    1    3    3    0    0  0.12176241563E+02  0.15529919932E+02 -0.13958516195E+02  0.24171873041E+02  0.51100000000E-03 0.  1.
         12    1    3    3    0    0  0.38561398695E+01  0.55380828902E+01 -0.16526459797E+01  0.69477633471E+01  0.00000000000E+00 0. -1.
</event>
<event>
 7    1  0.2442667E-009  0.4778727E+02  0.7816164E-02  0.1312668E+00
        -11   -1    0    0    0    0  0.00000000000E+00  0.00000000000E+00  0.45593999997E+02  0.45594000000E+02  0.51100000000E-03 0.  1.
         11   -1    0    0    0    0 -0.00000000000E+00 -0.00000000000E+00 -0.45593999997E+02  0.45594000000E+02  0.51100000000E-03 0. -1.
    9900012    2    1    2    0    0 -0.15433658369E+02  0.30109699580E+00 -0.40562726724E+02  0.47787271096E+02  0.20000000237E+02 0.  0.
        -12    1    1    2    0    0  0.15433658369E+02 -0.30109699580E+00  0.40562726724E+02  0.43400728904E+02  0.00000000000E+00 0.  1.
         11    1    3    3    0    0 -0.34954479322E+01  0.28519872028E+00 -0.10204807548E+02  0.10790625186E+02  0.51100000000E-03 0. -1.
        -11    1    3    3    0    0 -0.91797730381E+01  0.81091084004E+01 -0.21075972034E+02  0.24376678804E+02  0.51100000000E-03 0.  1.
        -12    1    3    3    0    0 -0.27584373983E+01 -0.80932101249E+01 -0.92819471426E+01  0.12619967106E+02  0.00000000000E+00 0.  1.
</event>
<event>
 7    1  0.2442667E-009  0.4778727E+02  0.7816164E-02  0.1312668E+00
        -11   -1    0    0    0    0  0.00000000000E+00  0.00000000000E+00  0.45593999997E+02  0.45594000000E+02  0.51100000000E-03 0.  1.
         11   -1    0    0    0    0 -0.00000000000E+00 -0.00000000000E+00 -0.45593999997E+02  0.45594000000E+02  0.51100000000E-03 0. -1.
    9900012    2    1    2    0    0  0.36502176808E+02  0.22562520504E+02 -0.64920693358E+01  0.47787271810E+02  0.20000003489E+02 0.  0.
        -12    1    1    2    0    0 -0.36502176808E+02 -0.22562520504E+02  0.64920693358E+01  0.43400728190E+02  0.00000000000E+00 0.  1.
         11    1    3    3    0    0  0.23525608852E+02  0.14312270176E+02 -0.95623275485E+01  0.29150187956E+02  0.51100000000E-03 0.  1.
        -11    1    3    3    0    0  0.13767136153E+02  0.57881223800E+01  0.46071740402E+01  0.15628897960E+02  0.51100000000E-03 0. -1.
        -12    1    3    3    0    0 -0.79056819798E+00  0.24621279484E+01 -0.15369158276E+01  0.30081858937E+01  0.00000000000E+00 0.  1.
</event>
<event>
 7    1  0.2442667E-009  0.4778727E+02  0.7816164E-02  0.1312668E+00
        -11   -1    0    0    0    0  0.00000000000E+00  0.00000000000E+00  0.45593999997E+02  0.45594000000E+02  0.51100000000E-03 0.  1.
         11   -1    0    0    0    0 -0.00000000000E+00 -0.00000000000E+00 -0.45593999997E+02  0.45594000000E+02  0.51100000000E-03 0. -1.
    9900012    2    1    2    0    0 -0.23071223608E+02  0.78146016833E+01 -0.35920380973E+02  0.47787272731E+02  0.20000007690E+02 0.  0.
        -12    1    1    2    0    0  0.23071223608E+02 -0.78146016833E+01  0.35920380973E+02  0.43400727269E+02  0.00000000000E+00 0.  1.
         11    1    3    3    0    0 -0.95600981871E+01  0.38759124867E+01 -0.20282899620E+02  0.22755531024E+02  0.51100000000E-03 0. -1.
        -11    1    3    3    0    0 -0.97559037413E+01 -0.18407903632E+01 -0.15161718821E+02  0.18123020853E+02  0.51100000000E-03 0.  1.
         12    1    3    3    0    0 -0.37552216795E+01  0.57794795598E+01 -0.47576253179E+00  0.69087208534E+01  0.00000000000E+00 0. -1.
</event>
<event>
 7    1  0.2442667E-009  0.4778727E+02  0.7816164E-02  0.1312668E+00
        -11   -1    0    0    0    0  0.00000000000E+00  0.00000000000E+00  0.45593999997E+02  0.45594000000E+02  0.51100000000E-03 0.  1.
         11   -1    0    0    0    0 -0.00000000000E+00 -0.00000000000E+00 -0.45593999997E+02  0.45594000000E+02  0.51100000000E-03 0. -1.
    9900012    2    1    2    0    0  0.57952220869E+01 -0.35277255633E+02 -0.24608008326E+02  0.47787269156E+02  0.19999991390E+02 0.  0.
        -12    1    1    2    0    0 -0.57952220869E+01  0.35277255633E+02  0.24608008326E+02  0.43400730844E+02  0.00000000000E+00 0.  1.
         11    1    3    3    0    0 -0.23522455254E+00 -0.18287137538E+02 -0.14874829758E+02  0.23574038485E+02  0.51100000000E-03 0. -1.
        -11    1    3    3    0    0 -0.34361162356E+01 -0.87750763542E+01 -0.25331536496E+01  0.97583670498E+01  0.51100000000E-03 0.  1.
         12    1    3    3    0    0  0.94665628750E+01 -0.82150417413E+01 -0.72000249177E+01  0.14454863621E+02  0.00000000000E+00 0. -1.
</event>
<event>
 7    1  0.2442667E-009  0.4778727E+02  0.7816164E-02  0.1312668E+00
        -11   -1    0    0    0    0  0.00000000000E+00  0.00000000000E+00  0.45593999997E+02  0.45594000000E+02  0.51100000000E-03 0.  1.
         11   -1    0    0    0    0 -0.00000000000E+00 -0.00000000000E+00 -0.45593999997E+02  0.45594000000E+02  0.51100000000E-03 0. -1.
    9900012    2    1    2    0    0 -0.92524971172E+01 -0.41529665827E+02 -0.85616258327E+01  0.47787270934E+02  0.19999999496E+02 0.  0.
        -12    1    1    2    0    0  0.92524971172E+01  0.41529665827E+02  0.85616258327E+01  0.43400729066E+02  0.00000000000E+00 0.  1.
         11    1    3    3    0    0 -0.61567851821E+01 -0.28903504162E+02 -0.10730329795E+02  0.31439760406E+02  0.51100000000E-03 0. -1.
        -11    1    3    3    0    0  0.74117961357E+00 -0.39050366686E+01  0.50191844597E+01  0.64024113820E+01  0.51100000000E-03 0.  1.
        -12    1    3    3    0    0 -0.38368915487E+01 -0.87211249958E+01 -0.28504804970E+01  0.99450991454E+01  0.00000000000E+00 0.  1.
</event>
<event>
 7    1  0.2442667E-009  0.4778727E+02  0.7816164E-02  0.1312668E+00
        -11   -1    0    0    0    0  0.00000000000E+00  0.00000000000E+00  0.45593999997E+02  0.45594000000E+02  0.51100000000E-03 0.  1.
         11   -1    0    0    0    0 -0.00000000000E+00 -0.00000000000E+00 -0.45593999997E+02  0.45594000000E+02  0.51100000000E-03 0. -1.
    9900012    2    1    2    0    0  0.18013072724E+02  0.30327453598E+02 -0.25286316532E+02  0.47787273802E+02  0.20000012573E+02 0.  0.
        -12    1    1    2    0    0 -0.18013072724E+02 -0.30327453598E+02  0.25286316532E+02  0.43400726198E+02  0.00000000000E+00 0.  1.
         11    1    3    3    0    0  0.17867938876E+02  0.30721733682E+02 -0.23969615773E+02  0.42867594295E+02  0.51100000000E-03 0. -1.
        -11    1    3    3    0    0  0.81616638556E-01 -0.24754677649E+01 -0.13824081076E+01  0.28364862714E+01  0.51100000000E-03 0.  1.
        -12    1    3    3    0    0  0.63517209501E-01  0.20811876815E+01  0.65707347852E-01  0.20831932357E+01  0.00000000000E+00 0.  1.
</event>
<event>
 7    1  0.2442667E-009  0.4778727E+02  0.7816164E-02  0.1312668E+00
        -11   -1    0    0    0    0  0.00000000000E+00  0.00000000000E+00  0.45593999997E+02  0.45594000000E+02  0.51100000000E-03 0.  1.
         11   -1    0    0    0    0 -0.00000000000E+00 -0.00000000000E+00 -0.45593999997E+02  0.45594000000E+02  0.51100000000E-03 0. -1.
    9900012    2    1    2    0    0 -0.13037574192E+02  0.13281444894E+02 -0.39207762786E+02  0.47787265190E+02  0.19999973309E+02 0.  0.
        -12    1    1    2    0    0  0.13037574192E+02 -0.13281444894E+02  0.39207762786E+02  0.43400734810E+02  0.00000000000E+00 0.  1.
         11    1    3    3    0    0 -0.54643142711E+01  0.13088779958E+01 -0.22226374925E+01  0.60425168387E+01  0.51100000000E-03 0.  1.
        -11    1    3    3    0    0 -0.56792520230E+01  0.14196029818E+02 -0.35053433767E+02  0.38242965174E+02  0.51100000000E-03 0. -1.
         12    1    3    3    0    0 -0.18940078984E+01 -0.22234629195E+01 -0.19316915266E+01  0.35017831783E+01  0.00000000000E+00 0. -1.
</event>
<event>
 7    1  0.2442667E-009  0.4778727E+02  0.7816164E-02  0.1312668E+00
        -11   -1    0    0    0    0  0.00000000000E+00  0.00000000000E+00  0.45593999997E+02  0.45594000000E+02  0.51100000000E-03 0. -1.
         11   -1    0    0    0    0 -0.00000000000E+00 -0.00000000000E+00 -0.45593999997E+02  0.45594000000E+02  0.51100000000E-03 0.  1.
    9900012    2    1    2    0    0 -0.33737054535E+02 -0.24640972133E+02 -0.11758270756E+02  0.47787270887E+02  0.19999999282E+02 0.  0.
        -12    1    1    2    0    0  0.33737054535E+02  0.24640972133E+02  0.11758270756E+02  0.43400729113E+02  0.00000000000E+00 0.  1.
         11    1    3    3    0    0 -0.21073655641E+02 -0.10202460608E+02 -0.16111452141E+01  0.23468808101E+02  0.51100000000E-03 0. -1.
        -11    1    3    3    0    0  0.11255006412E+01 -0.41057809317E+01  0.12329401921E+00  0.42590363263E+01  0.51100000000E-03 0.  1.
        -12    1    3    3    0    0 -0.13788899535E+02 -0.10332730594E+02 -0.10270419561E+02  0.20059426459E+02  0.00000000000E+00 0.  1.
</event>
<event>
 7    1  0.2442667E-009  0.4778728E+02  0.7816164E-02  0.1312668E+00
        -11   -1    0    0    0    0  0.00000000000E+00  0.00000000000E+00  0.45593999997E+02  0.45594000000E+02  0.51100000000E-03 0.  1.
         11   -1    0    0    0    0 -0.00000000000E+00 -0.00000000000E+00 -0.45593999997E+02  0.45594000000E+02  0.51100000000E-03 0. -1.
    9900012    2    1    2    0    0  0.11399492426E+02  0.41203791386E+02 -0.74780648427E+01  0.47787282196E+02  0.20000050843E+02 0.  0.
        -12    1    1    2    0    0 -0.11399492426E+02 -0.41203791386E+02  0.74780648427E+01  0.43400717804E+02  0.00000000000E+00 0.  1.
         11    1    3    3    0    0  0.14464575612E+02  0.18961484101E+02 -0.12327658596E+00  0.23849046612E+02  0.51100000000E-03 0. -1.
        -11    1    3    3    0    0 -0.93608738783E+00  0.13468159446E+02 -0.26539569874E+01  0.13759035810E+02  0.51100000000E-03 0.  1.
         12    1    3    3    0    0 -0.21289957977E+01  0.87741478391E+01 -0.47008312693E+01  0.10179199774E+02  0.00000000000E+00 0. -1.
</event>
<event>
 7    1  0.2442667E-009  0.4778731E+02  0.7816164E-02  0.1312668E+00
        -11   -1    0    0    0    0  0.00000000000E+00  0.00000000000E+00  0.45593999997E+02  0.45594000000E+02  0.51100000000E-03 0. -1.
         11   -1    0    0    0    0 -0.00000000000E+00 -0.00000000000E+00 -0.45593999997E+02  0.45594000000E+02  0.51100000000E-03 0.  1.
    9900012    2    1    2    0    0  0.24723154714E+02 -0.14888505403E+02  0.32414783767E+02  0.47787306701E+02  0.20000162573E+02 0.  0.
        -12    1    1    2    0    0 -0.24723154714E+02  0.14888505403E+02 -0.32414783767E+02  0.43400693299E+02  0.00000000000E+00 0.  1.
         11    1    3    3    0    0  0.20642666939E+02 -0.97395853151E+01  0.32387356755E+02  0.39622217231E+02  0.51100000000E-03 0. -1.
        -11    1    3    3    0    0  0.19330160874E+01 -0.11170960491E+01 -0.21545377795E+01  0.31026582283E+01  0.51100000000E-03 0.  1.
         12    1    3    3    0    0  0.21474716873E+01 -0.40318240390E+01  0.21819647917E+01  0.50624312422E+01  0.00000000000E+00 0. -1.
</event>
<event>
 7    1  0.2442667E-009  0.4778727E+02  0.7816164E-02  0.1312668E+00
        -11   -1    0    0    0    0  0.00000000000E+00  0.00000000000E+00  0.45593999997E+02  0.45594000000E+02  0.51100000000E-03 0. -1.
         11   -1    0    0    0    0 -0.00000000000E+00 -0.00000000000E+00 -0.45593999997E+02  0.45594000000E+02  0.51100000000E-03 0.  1.
    9900012    2    1    2    0    0  0.24129311098E+02 -0.14583404704E+02  0.32995812805E+02  0.47787274090E+02  0.20000013885E+02 0.  0.
        -12    1    1    2    0    0 -0.24129311098E+02  0.14583404704E+02 -0.32995812805E+02  0.43400725910E+02  0.00000000000E+00 0.  1.
         11    1    3    3    0    0  0.86167462869E+01 -0.11189203887E+02  0.10860706267E+02  0.17815766643E+02  0.51100000000E-03 0. -1.
        -11    1    3    3    0    0  0.46257952783E+01  0.44105121144E+01  0.44590766055E+01  0.77931998244E+01  0.51100000000E-03 0.  1.
        -12    1    3    3    0    0  0.10886769533E+02 -0.78047129318E+01  0.17676029933E+02  0.22178307622E+02  0.00000000000E+00 0.  1.
</event>
<event>
 7    1  0.2442667E-009  0.4778728E+02  0.7816164E-02  0.1312668E+00
        -11   -1    0    0    0    0  0.00000000000E+00  0.00000000000E+00  0.45593999997E+02  0.45594000000E+02  0.51100000000E-03 0. -1.
         11   -1    0    0    0    0 -0.00000000000E+00 -0.00000000000E+00 -0.45593999997E+02  0.45594000000E+02  0.51100000000E-03 0.  1.
    9900012    2    1    2    0    0 -0.29384734450E+02 -0.23001184221E+02  0.22160888667E+02  0.47787284789E+02  0.20000062669E+02 0.  0.
        -12    1    1    2    0    0  0.29384734450E+02  0.23001184221E+02 -0.22160888667E+02  0.43400715211E+02  0.00000000000E+00 0.  1.
         11    1    3    3    0    0 -0.15857937102E+02 -0.18743983701E+02  0.11234042204E+02  0.27000274047E+02  0.51100000000E-03 0. -1.
        -11    1    3    3    0    0 -0.49969375295E+01  0.27642993959E+00  0.98741529811E+01  0.11069990765E+02  0.51100000000E-03 0.  1.
        -12    1    3    3    0    0 -0.85298598187E+01 -0.45336304595E+01  0.10526934822E+01  0.97170199772E+01  0.00000000000E+00 0.  1.
</event>
<event>
 7    1  0.2442667E-009  0.4778727E+02  0.7816164E-02  0.1312668E+00
        -11   -1    0    0    0    0  0.00000000000E+00  0.00000000000E+00  0.45593999997E+02  0.45594000000E+02  0.51100000000E-03 0.  1.
         11   -1    0    0    0    0 -0.00000000000E+00 -0.00000000000E+00 -0.45593999997E+02  0.45594000000E+02  0.51100000000E-03 0. -1.
    9900012    2    1    2    0    0 -0.21334199975E+02 -0.24081696276E+01 -0.37718375347E+02  0.47787271799E+02  0.20000003442E+02 0.  0.
        -12    1    1    2    0    0  0.21334199975E+02  0.24081696276E+01  0.37718375347E+02  0.43400728201E+02  0.00000000000E+00 0.  1.
         11    1    3    3    0    0 -0.86451872204E+01 -0.78082986902E+01 -0.15658921806E+02  0.19516931698E+02  0.51100000000E-03 0. -1.
        -11    1    3    3    0    0 -0.71651167665E+01  0.86673466125E+01 -0.14634176711E+02  0.18455918396E+02  0.51100000000E-03 0.  1.
        -12    1    3    3    0    0 -0.55238959880E+01 -0.32672175499E+01 -0.74252768297E+01  0.98144217050E+01  0.00000000000E+00 0.  1.
</event>
<event>
 7    1  0.2442667E-009  0.4778727E+02  0.7816164E-02  0.1312668E+00
        -11   -1    0    0    0    0  0.00000000000E+00  0.00000000000E+00  0.45593999997E+02  0.45594000000E+02  0.51100000000E-03 0. -1.
         11   -1    0    0    0    0 -0.00000000000E+00 -0.00000000000E+00 -0.45593999997E+02  0.45594000000E+02  0.51100000000E-03 0.  1.
    9900012    2    1    2    0    0  0.18375170419E+01  0.20898254233E+02  0.37993547383E+02  0.47787272568E+02  0.20000006948E+02 0.  0.
        -12    1    1    2    0    0 -0.18375170419E+01 -0.20898254233E+02 -0.37993547383E+02  0.43400727432E+02  0.00000000000E+00 0.  1.
         11    1    3    3    0    0  0.78139677545E+00  0.18720842245E+01  0.14657399773E+01  0.25027333471E+01  0.51100000000E-03 0. -1.
        -11    1    3    3    0    0  0.42068368693E+01  0.10543534758E+02  0.48584888319E+01  0.12347814205E+02  0.51100000000E-03 0.  1.
        -12    1    3    3    0    0 -0.31507166029E+01  0.84826352507E+01  0.31669318573E+02  0.32936725016E+02  0.00000000000E+00 0.  1.
</event>
<event>
 7    1  0.2442667E-009  0.4778727E+02  0.7816164E-02  0.1312668E+00
        -11   -1    0    0    0    0  0.00000000000E+00  0.00000000000E+00  0.45593999997E+02  0.45594000000E+02  0.51100000000E-03 0.  1.
         11   -1    0    0    0    0 -0.00000000000E+00 -0.00000000000E+00 -0.45593999997E+02  0.45594000000E+02  0.51100000000E-03 0. -1.
    9900012    2    1    2    0    0  0.41419111150E+02  0.12553657151E+02  0.32382410474E+01  0.47787270957E+02  0.19999999603E+02 0.  0.
        -12    1    1    2    0    0 -0.41419111150E+02 -0.12553657151E+02 -0.32382410474E+01  0.43400729043E+02  0.00000000000E+00 0.  1.
         11    1    3    3    0    0  0.14880168471E+02  0.50307122190E+01 -0.53138166764E+01  0.16582042307E+02  0.51100000000E-03 0. -1.
        -11    1    3    3    0    0  0.16321447329E+01  0.11093656416E+01  0.48304881511E+01  0.52180652157E+01  0.51100000000E-03 0.  1.
         12    1    3    3    0    0  0.24906797947E+02  0.64135792907E+01  0.37215695726E+01  0.25987163435E+02  0.00000000000E+00 0. -1.
</event>
<event>
 7    1  0.2442667E-009  0.4778727E+02  0.7816164E-02  0.1312668E+00
        -11   -1    0    0    0    0  0.00000000000E+00  0.00000000000E+00  0.45593999997E+02  0.45594000000E+02  0.51100000000E-03 0.  1.
         11   -1    0    0    0    0 -0.00000000000E+00 -0.00000000000E+00 -0.45593999997E+02  0.45594000000E+02  0.51100000000E-03 0. -1.
    9900012    2    1    2    0    0  0.22627775841E+02  0.55457758453E+01 -0.36617638961E+02  0.47787270141E+02  0.19999995880E+02 0.  0.
        -12    1    1    2    0    0 -0.22627775841E+02 -0.55457758453E+01  0.36617638961E+02  0.43400729859E+02  0.00000000000E+00 0.  1.
         11    1    3    3    0    0  0.39718863244E+01 -0.12272057486E+01 -0.67039428483E+01  0.78882675473E+01  0.51100000000E-03 0. -1.
        -11    1    3    3    0    0  0.20934896541E+02  0.82285423915E+01 -0.21712870162E+02  0.31263837481E+02  0.51100000000E-03 0.  1.
        -12    1    3    3    0    0 -0.22790070250E+01 -0.14555607976E+01 -0.82008259504E+01  0.86351651127E+01  0.00000000000E+00 0.  1.
</event>
<event>
 7    1  0.2442667E-009  0.4778727E+02  0.7816164E-02  0.1312668E+00
        -11   -1    0    0    0    0  0.00000000000E+00  0.00000000000E+00  0.45593999997E+02  0.45594000000E+02  0.51100000000E-03 0.  1.
         11   -1    0    0    0    0 -0.00000000000E+00 -0.00000000000E+00 -0.45593999997E+02  0.45594000000E+02  0.51100000000E-03 0. -1.
    9900012    2    1    2    0    0 -0.34084225674E+02 -0.31421431241E+01 -0.26683622162E+02  0.47787271954E+02  0.20000004147E+02 0.  0.
        -12    1    1    2    0    0  0.34084225674E+02  0.31421431241E+01  0.26683622162E+02  0.43400728046E+02  0.00000000000E+00 0.  1.
         11    1    3    3    0    0 -0.26260217606E+02 -0.78726453400E+01 -0.22987185192E+02  0.35776923522E+02  0.51100000000E-03 0. -1.
        -11    1    3    3    0    0 -0.66415749035E+01  0.57697499619E+01 -0.48617673091E+01  0.10051731863E+02  0.51100000000E-03 0.  1.
         12    1    3    3    0    0 -0.11824331647E+01 -0.10392477460E+01  0.11653303388E+01  0.19586165692E+01  0.00000000000E+00 0. -1.
</event>
<event>
 7    1  0.2442667E-009  0.4778727E+02  0.7816164E-02  0.1312668E+00
        -11   -1    0    0    0    0  0.00000000000E+00  0.00000000000E+00  0.45593999997E+02  0.45594000000E+02  0.51100000000E-03 0. -1.
         11   -1    0    0    0    0 -0.00000000000E+00 -0.00000000000E+00 -0.45593999997E+02  0.45594000000E+02  0.51100000000E-03 0.  1.
    9900012    2    1    2    0    0  0.30364701531E+02  0.92643172039E+00  0.30995962936E+02  0.47787273127E+02  0.20000009495E+02 0.  0.
        -12    1    1    2    0    0 -0.30364701531E+02 -0.92643172039E+00 -0.30995962936E+02  0.43400726873E+02  0.00000000000E+00 0.  1.
         11    1    3    3    0    0  0.15614670279E+02  0.98347177621E+00  0.26929547176E+02  0.31144592726E+02  0.51100000000E-03 0. -1.
        -11    1    3    3    0    0  0.97639013987E+01  0.26891385702E+01  0.99938310918E+00  0.10176640096E+02  0.51100000000E-03 0.  1.
         12    1    3    3    0    0  0.49861298532E+01 -0.27461786260E+01  0.30670326503E+01  0.64660403059E+01  0.00000000000E+00 0. -1.
</event>
<event>
 7    1  0.2442667E-009  0.4778727E+02  0.7816164E-02  0.1312668E+00
        -11   -1    0    0    0    0  0.00000000000E+00  0.00000000000E+00  0.45593999997E+02  0.45594000000E+02  0.51100000000E-03 0.  1.
         11   -1    0    0    0    0 -0.00000000000E+00 -0.00000000000E+00 -0.45593999997E+02  0.45594000000E+02  0.51100000000E-03 0. -1.
    9900012    2    1    2    0    0 -0.14967680786E+02  0.31301092893E+02 -0.26073621891E+02  0.47787266793E+02  0.19999980614E+02 0.  0.
        -12    1    1    2    0    0  0.14967680786E+02 -0.31301092893E+02  0.26073621891E+02  0.43400733207E+02  0.00000000000E+00 0.  1.
         11    1    3    3    0    0 -0.20430737406E+01  0.39295974320E+01 -0.58738228327E+01  0.73564720633E+01  0.51100000000E-03 0. -1.
        -11    1    3    3    0    0 -0.13051824975E+02  0.28857725659E+02 -0.15043676607E+02  0.35063238178E+02  0.51100000000E-03 0.  1.
        -12    1    3    3    0    0  0.12721792950E+00 -0.14862301979E+01 -0.51561224512E+01  0.53675565516E+01  0.00000000000E+00 0.  1.
</event>
<event>
 7    1  0.2442667E-009  0.4778727E+02  0.7816164E-02  0.1312668E+00
        -11   -1    0    0    0    0  0.00000000000E+00  0.00000000000E+00  0.45593999997E+02  0.45594000000E+02  0.51100000000E-03 0.  1.
         11   -1    0    0    0    0 -0.00000000000E+00 -0.00000000000E+00 -0.45593999997E+02  0.45594000000E+02  0.51100000000E-03 0. -1.
    9900012    2    1    2    0    0 -0.13874271053E+02 -0.29206454311E+02 -0.28950147723E+02  0.47787269316E+02  0.19999992120E+02 0.  0.
        -12    1    1    2    0    0  0.13874271053E+02  0.29206454311E+02  0.28950147723E+02  0.43400730684E+02  0.00000000000E+00 0.  1.
         11    1    3    3    0    0 -0.79617852686E+01 -0.63991004030E+01 -0.15298655463E+02  0.18395308366E+02  0.51100000000E-03 0. -1.
        -11    1    3    3    0    0  0.17283884647E+01 -0.12175837599E+02 -0.33878240980E+01  0.12756006440E+02  0.51100000000E-03 0.  1.
         12    1    3    3    0    0 -0.76408742491E+01 -0.10631516309E+02 -0.10263668162E+02  0.16635954510E+02  0.00000000000E+00 0. -1.
</event>
<event>
 7    1  0.2442667E-009  0.4778727E+02  0.7816164E-02  0.1312668E+00
        -11   -1    0    0    0    0  0.00000000000E+00  0.00000000000E+00  0.45593999997E+02  0.45594000000E+02  0.51100000000E-03 0.  1.
         11   -1    0    0    0    0 -0.00000000000E+00 -0.00000000000E+00 -0.45593999997E+02  0.45594000000E+02  0.51100000000E-03 0. -1.
    9900012    2    1    2    0    0  0.15318784013E+02  0.39366976222E+02  0.99598901942E+01  0.47787269900E+02  0.19999994782E+02 0.  0.
        -12    1    1    2    0    0 -0.15318784013E+02 -0.39366976222E+02 -0.99598901942E+01  0.43400730100E+02  0.00000000000E+00 0.  1.
         11    1    3    3    0    0  0.11749068134E+02  0.30906996373E+02  0.53453823228E+00  0.33069151156E+02  0.51100000000E-03 0. -1.
        -11    1    3    3    0    0  0.49739406890E+01  0.78855350136E+01  0.93425614280E+01  0.13198681856E+02  0.51100000000E-03 0.  1.
         12    1    3    3    0    0 -0.14042248096E+01  0.57444483596E+00  0.82790533965E-01  0.15194368884E+01  0.00000000000E+00 0. -1.
</event>
<event>
 7    1  0.2442667E-009  0.4778728E+02  0.7816164E-02  0.1312668E+00
        -11   -1    0    0    0    0  0.00000000000E+00  0.00000000000E+00  0.45593999997E+02  0.45594000000E+02  0.51100000000E-03 0.  1.
         11   -1    0    0    0    0 -0.00000000000E+00 -0.00000000000E+00 -0.45593999997E+02  0.45594000000E+02  0.51100000000E-03 0. -1.
    9900012    2    1    2    0    0  0.11350964201E+02  0.30981382434E+02 -0.28194546439E+02  0.47787275412E+02  0.20000019916E+02 0.  0.
        -12    1    1    2    0    0 -0.11350964201E+02 -0.30981382434E+02  0.28194546439E+02  0.43400724588E+02  0.00000000000E+00 0.  1.
         11    1    3    3    0    0  0.41753421544E+01  0.23110461092E+02 -0.17345136005E+02  0.29195558520E+02  0.51100000000E-03 0. -1.
        -11    1    3    3    0    0  0.43324814366E+01 -0.97522337970E+00 -0.74971185622E+01  0.87136813710E+01  0.51100000000E-03 0.  1.
        -12    1    3    3    0    0  0.28431406101E+01  0.88461447224E+01 -0.33522918710E+01  0.98780355217E+01  0.00000000000E+00 0.  1.
</event>
<event>
 7    1  0.2442667E-009  0.4778727E+02  0.7816164E-02  0.1312668E+00
        -11   -1    0    0    0    0  0.00000000000E+00  0.00000000000E+00  0.45593999997E+02  0.45594000000E+02  0.51100000000E-03 0. -1.
         11   -1    0    0    0    0 -0.00000000000E+00 -0.00000000000E+00 -0.45593999997E+02  0.45594000000E+02  0.51100000000E-03 0.  1.
    9900012    2    1    2    0    0 -0.11396990290E+02 -0.34928385754E+02  0.23102808897E+02  0.47787270767E+02  0.19999998734E+02 0.  0.
        -12    1    1    2    0    0  0.11396990290E+02  0.34928385754E+02 -0.23102808897E+02  0.43400729233E+02  0.00000000000E+00 0.  1.
         11    1    3    3    0    0 -0.97072015303E+01 -0.21563937718E+02  0.76939265488E+01  0.24868246368E+02  0.51100000000E-03 0. -1.
        -11    1    3    3    0    0  0.40568338507E+01 -0.65113256059E+01  0.48273291390E+01  0.90641253807E+01  0.51100000000E-03 0.  1.
         12    1    3    3    0    0 -0.57466226103E+01 -0.68531224302E+01  0.10581553209E+02  0.13854899018E+02  0.00000000000E+00 0. -1.
</event>
<event>
 7    1  0.2442667E-009  0.4778727E+02  0.7816164E-02  0.1312668E+00
        -11   -1    0    0    0    0  0.00000000000E+00  0.00000000000E+00  0.45593999997E+02  0.45594000000E+02  0.51100000000E-03 0.  1.
         11   -1    0    0    0    0 -0.00000000000E+00 -0.00000000000E+00 -0.45593999997E+02  0.45594000000E+02  0.51100000000E-03 0. -1.
    9900012    2    1    2    0    0  0.36468024405E+02 -0.13996148384E+02 -0.18915981140E+02  0.47787270558E+02  0.19999997783E+02 0.  0.
        -12    1    1    2    0    0 -0.36468024405E+02  0.13996148384E+02  0.18915981140E+02  0.43400729442E+02  0.00000000000E+00 0.  1.
         11    1    3    3    0    0  0.25062612566E+02 -0.88087608707E+01 -0.28296042821E+01  0.26715828218E+02  0.51100000000E-03 0. -1.
        -11    1    3    3    0    0  0.25610397871E+01 -0.34705115238E+01 -0.73479853800E+01  0.85203441500E+01  0.51100000000E-03 0.  1.
         12    1    3    3    0    0  0.88443720518E+01 -0.17168759890E+01 -0.87383914779E+01  0.12551098190E+02  0.00000000000E+00 0. -1.
</event>
<event>
 7    1  0.2442667E-009  0.4778727E+02  0.7816164E-02  0.1312668E+00
        -11   -1    0    0    0    0  0.00000000000E+00  0.00000000000E+00  0.45593999997E+02  0.45594000000E+02  0.51100000000E-03 0.  1.
         11   -1    0    0    0    0 -0.00000000000E+00 -0.00000000000E+00 -0.45593999997E+02  0.45594000000E+02  0.51100000000E-03 0. -1.
    9900012    2    1    2    0    0  0.16403743092E+02  0.40155982598E+02  0.14274255626E+01  0.47787271094E+02  0.20000000225E+02 0.  0.
        -12    1    1    2    0    0 -0.16403743092E+02 -0.40155982598E+02 -0.14274255626E+01  0.43400728906E+02  0.00000000000E+00 0.  1.
         11    1    3    3    0    0  0.46206048568E+01  0.46595564344E+01  0.12889656102E+01  0.66875173281E+01  0.51100000000E-03 0. -1.
        -11    1    3    3    0    0  0.10269258955E+02  0.34302855259E+02 -0.44884917422E+01  0.36087256986E+02  0.51100000000E-03 0.  1.
        -12    1    3    3    0    0  0.15138792807E+01  0.11935709050E+01  0.46269516947E+01  0.50124967797E+01  0.00000000000E+00 0.  1.
</event>
<event>
 7    1  0.2442667E-009  0.4778728E+02  0.7816164E-02  0.1312668E+00
        -11   -1    0    0    0    0  0.00000000000E+00  0.00000000000E+00  0.45593999997E+02  0.45594000000E+02  0.51100000000E-03 0. -1.
         11   -1    0    0    0    0 -0.00000000000E+00 -0.00000000000E+00 -0.45593999997E+02  0.45594000000E+02  0.51100000000E-03 0.  1.
    9900012    2    1    2    0    0 -0.26091543820E+02  0.17455052748E+02  0.29969561463E+02  0.47787284111E+02  0.20000059577E+02 0.  0.
        -12    1    1    2    0    0  0.26091543820E+02 -0.17455052748E+02 -0.29969561463E+02  0.43400715889E+02  0.00000000000E+00 0.  1.
         11    1    3    3    0    0 -0.14085576664E+02  0.13510206175E+02  0.18210418900E+02  0.26693604058E+02  0.51100000000E-03 0. -1.
        -11    1    3    3    0    0  0.24452470740E+01  0.11816581243E+01  0.26180815541E+01  0.37722540292E+01  0.51100000000E-03 0.  1.
        -12    1    3    3    0    0 -0.14451214230E+02  0.27631884492E+01  0.91410610090E+01  0.17321426024E+02  0.00000000000E+00 0.  1.
</event>
<event>
 7    1  0.2442667E-009  0.4778729E+02  0.7816164E-02  0.1312668E+00
        -11   -1    0    0    0    0  0.00000000000E+00  0.00000000000E+00  0.45593999997E+02  0.45594000000E+02  0.51100000000E-03 0. -1.
         11   -1    0    0    0    0 -0.00000000000E+00 -0.00000000000E+00 -0.45593999997E+02  0.45594000000E+02  0.51100000000E-03 0.  1.
    9900012    2    1    2    0    0  0.32785496638E+02 -0.81514991705E+00  0.28426541578E+02  0.47787291189E+02  0.20000091847E+02 0.  0.
        -12    1    1    2    0    0 -0.32785496638E+02  0.81514991705E+00 -0.28426541578E+02  0.43400708811E+02  0.00000000000E+00 0.  1.
         11    1    3    3    0    0  0.83759534451E+01  0.10979017835E+01 -0.41005970314E+00  0.84575489157E+01  0.51100000000E-03 0. -1.
        -11    1    3    3    0    0  0.75472259058E+01 -0.47762115688E+01  0.58453068050E+01  0.10674288160E+02  0.51100000000E-03 0.  1.
         12    1    3    3    0    0  0.16862317287E+02  0.28631598682E+01  0.22991294477E+02  0.28655454113E+02  0.00000000000E+00 0. -1.
</event>
<event>
 7    1  0.2442667E-009  0.4778727E+02  0.7816164E-02  0.1312668E+00
        -11   -1    0    0    0    0  0.00000000000E+00  0.00000000000E+00  0.45593999997E+02  0.45594000000E+02  0.51100000000E-03 0. -1.
         11   -1    0    0    0    0 -0.00000000000E+00 -0.00000000000E+00 -0.45593999997E+02  0.45594000000E+02  0.51100000000E-03 0.  1.
    9900012    2    1    2    0    0  0.67796527733E+00  0.32729982779E+02  0.28494061560E+02  0.47787274732E+02  0.20000016813E+02 0.  0.
        -12    1    1    2    0    0 -0.67796527733E+00 -0.32729982779E+02 -0.28494061560E+02  0.43400725268E+02  0.00000000000E+00 0.  1.
         11    1    3    3    0    0  0.10927330433E+01  0.12217374746E+02  0.61456205580E+01  0.13719583211E+02  0.51100000000E-03 0. -1.
        -11    1    3    3    0    0  0.38208032519E+01  0.25756328800E+01 -0.58660717995E+00  0.46450544095E+01  0.51100000000E-03 0.  1.
        -12    1    3    3    0    0 -0.42355710179E+01  0.17936975153E+02  0.22935048182E+02  0.29422637112E+02  0.00000000000E+00 0.  1.
</event>
<event>
 7    1  0.2442667E-009  0.4778728E+02  0.7816164E-02  0.1312668E+00
        -11   -1    0    0    0    0  0.00000000000E+00  0.00000000000E+00  0.45593999997E+02  0.45594000000E+02  0.51100000000E-03 0.  1.
         11   -1    0    0    0    0 -0.00000000000E+00 -0.00000000000E+00 -0.45593999997E+02  0.45594000000E+02  0.51100000000E-03 0. -1.
    9900012    2    1    2    0    0  0.27977969294E+01 -0.18732698498E+02 -0.39049724382E+02  0.47787278405E+02  0.20000033558E+02 0.  0.
        -12    1    1    2    0    0 -0.27977969294E+01  0.18732698498E+02  0.39049724382E+02  0.43400721595E+02  0.00000000000E+00 0.  1.
         11    1    3    3    0    0 -0.26351803131E+01 -0.63297506272E+01 -0.17532208877E+02  0.18825202965E+02  0.51100000000E-03 0. -1.
        -11    1    3    3    0    0  0.48837803191E+01 -0.14502428099E+02 -0.12714403110E+02  0.19895421023E+02  0.51100000000E-03 0.  1.
        -12    1    3    3    0    0  0.54919692342E+00  0.20994802279E+01 -0.88031123943E+01  0.90666544169E+01  0.00000000000E+00 0.  1.
</event>
<event>
 7    1  0.2442667E-009  0.4778727E+02  0.7816164E-02  0.1312668E+00
        -11   -1    0    0    0    0  0.00000000000E+00  0.00000000000E+00  0.45593999997E+02  0.45594000000E+02  0.51100000000E-03 0. -1.
         11   -1    0    0    0    0 -0.00000000000E+00 -0.00000000000E+00 -0.45593999997E+02  0.45594000000E+02  0.51100000000E-03 0.  1.
    9900012    2    1    2    0    0  0.16868992737E+02  0.20140050694E+02  0.34546180272E+02  0.47787272710E+02  0.20000007594E+02 0.  0.
        -12    1    1    2    0    0 -0.16868992737E+02 -0.20140050694E+02 -0.34546180272E+02  0.43400727290E+02  0.00000000000E+00 0.  1.
         11    1    3    3    0    0  0.15773309495E+02  0.20111421197E+02  0.21002190440E+02  0.33081090649E+02  0.51100000000E-03 0. -1.
        -11    1    3    3    0    0  0.61039122245E+00 -0.20077262918E+01  0.17632956433E+01  0.27409403668E+01  0.51100000000E-03 0.  1.
         12    1    3    3    0    0  0.48529202024E+00  0.20363557891E+01  0.11780694188E+02  0.11965241694E+02  0.00000000000E+00 0. -1.
</event>
<event>
 7    1  0.2442667E-009  0.4778728E+02  0.7816164E-02  0.1312668E+00
        -11   -1    0    0    0    0  0.00000000000E+00  0.00000000000E+00  0.45593999997E+02  0.45594000000E+02  0.51100000000E-03 0.  1.
         11   -1    0    0    0    0 -0.00000000000E+00 -0.00000000000E+00 -0.45593999997E+02  0.45594000000E+02  0.51100000000E-03 0. -1.
    9900012    2    1    2    0    0  0.99431351765E+01  0.39645286678E+02 -0.14594785558E+02  0.47787280439E+02  0.20000042834E+02 0.  0.
        -12    1    1    2    0    0 -0.99431351765E+01 -0.39645286678E+02  0.14594785558E+02  0.43400719561E+02  0.00000000000E+00 0.  1.
         11    1    3    3    0    0 -0.38498712479E+00  0.31708470529E+01  0.23567673098E+01  0.39694884473E+01  0.51100000000E-03 0. -1.
        -11    1    3    3    0    0  0.11926287990E+02  0.16499479829E+02 -0.89968921479E+01  0.22257880592E+02  0.51100000000E-03 0.  1.
        -12    1    3    3    0    0 -0.15981656886E+01  0.19974959796E+02 -0.79546607195E+01  0.21559911400E+02  0.00000000000E+00 0.  1.
</event>
<event>
 7    1  0.2442667E-009  0.4778722E+02  0.7816164E-02  0.1312668E+00
        -11   -1    0    0    0    0  0.00000000000E+00  0.00000000000E+00  0.45593999997E+02  0.45594000000E+02  0.51100000000E-03 0.  1.
         11   -1    0    0    0    0 -0.00000000000E+00 -0.00000000000E+00 -0.45593999997E+02  0.45594000000E+02  0.51100000000E-03 0. -1.
    9900012    2    1    2    0    0 -0.26147066671E+02  0.26526635465E+02 -0.22277715681E+02  0.47787215439E+02  0.19999746469E+02 0.  0.
        -12    1    1    2    0    0  0.26147066671E+02 -0.26526635465E+02  0.22277715681E+02  0.43400784561E+02  0.00000000000E+00 0.  1.
         11    1    3    3    0    0 -0.75958071274E+01  0.83896946904E+01 -0.66286036232E+01  0.13115702390E+02  0.51100000000E-03 0. -1.
        -11    1    3    3    0    0 -0.51556434319E+01  0.69360163971E+01 -0.14862257528E+02  0.17192314613E+02  0.51100000000E-03 0.  1.
        -12    1    3    3    0    0 -0.13395616112E+02  0.11200924378E+02 -0.78685452972E+00  0.17479198436E+02  0.00000000000E+00 0.  1.
</event>
<event>
 7    1  0.2442667E-009  0.4778727E+02  0.7816164E-02  0.1312668E+00
        -11   -1    0    0    0    0  0.00000000000E+00  0.00000000000E+00  0.45593999997E+02  0.45594000000E+02  0.51100000000E-03 0.  1.
         11   -1    0    0    0    0 -0.00000000000E+00 -0.00000000000E+00 -0.45593999997E+02  0.45594000000E+02  0.51100000000E-03 0. -1.
    9900012    2    1    2    0    0 -0.26250033116E+01 -0.21825826817E+02 -0.37421461666E+02  0.47787272451E+02  0.20000006411E+02 0.  0.
        -12    1    1    2    0    0  0.26250033116E+01  0.21825826817E+02  0.37421461666E+02  0.43400727549E+02  0.00000000000E+00 0.  1.
         11    1    3    3    0    0 -0.48407582912E+01 -0.10989318922E+02 -0.23493520315E+02  0.26384532746E+02  0.51100000000E-03 0. -1.
        -11    1    3    3    0    0 -0.56133563554E+00 -0.36582629409E+01  0.16307269820E+01  0.40444104875E+01  0.51100000000E-03 0.  1.
        -12    1    3    3    0    0  0.27770906151E+01 -0.71782449539E+01 -0.15558668333E+02  0.17358329217E+02  0.00000000000E+00 0.  1.
</event>
<event>
 7    1  0.2442667E-009  0.4778727E+02  0.7816164E-02  0.1312668E+00
        -11   -1    0    0    0    0  0.00000000000E+00  0.00000000000E+00  0.45593999997E+02  0.45594000000E+02  0.51100000000E-03 0.  1.
         11   -1    0    0    0    0 -0.00000000000E+00 -0.00000000000E+00 -0.45593999997E+02  0.45594000000E+02  0.51100000000E-03 0. -1.
    9900012    2    1    2    0    0 -0.18865257536E+02  0.25361459137E+02 -0.29740907422E+02  0.47787272751E+02  0.20000007781E+02 0.  0.
        -12    1    1    2    0    0  0.18865257536E+02 -0.25361459137E+02  0.29740907422E+02  0.43400727249E+02  0.00000000000E+00 0.  1.
         11    1    3    3    0    0 -0.37357939927E+01  0.54476042211E+01 -0.72388588515E+01  0.97996748027E+01  0.51100000000E-03 0. -1.
        -11    1    3    3    0    0 -0.14171487495E+02  0.10060781269E+02 -0.53512104709E+01  0.18184769213E+02  0.51100000000E-03 0.  1.
        -12    1    3    3    0    0 -0.95797604812E+00  0.98530736461E+01 -0.17150838100E+02  0.19802828735E+02  0.00000000000E+00 0.  1.
</event>
<event>
 7    1  0.2442667E-009  0.4778727E+02  0.7816164E-02  0.1312668E+00
        -11   -1    0    0    0    0  0.00000000000E+00  0.00000000000E+00  0.45593999997E+02  0.45594000000E+02  0.51100000000E-03 0.  1.
         11   -1    0    0    0    0 -0.00000000000E+00 -0.00000000000E+00 -0.45593999997E+02  0.45594000000E+02  0.51100000000E-03 0. -1.
    9900012    2    1    2    0    0 -0.20819233475E+02  0.36693336413E+02 -0.10187331643E+02  0.47787272522E+02  0.20000006737E+02 0.  0.
        -12    1    1    2    0    0  0.20819233475E+02 -0.36693336413E+02  0.10187331643E+02  0.43400727478E+02  0.00000000000E+00 0.  1.
         11    1    3    3    0    0 -0.17613835958E+02  0.32522848586E+02 -0.10906651149E+02  0.38560834235E+02  0.51100000000E-03 0. -1.
        -11    1    3    3    0    0 -0.29402925337E+01  0.19650989086E+01  0.39525349739E+01  0.53037219841E+01  0.51100000000E-03 0.  1.
         12    1    3    3    0    0 -0.26510498271E+00  0.22053889185E+01 -0.32332154679E+01  0.39227163032E+01  0.00000000000E+00 0. -1.
</event>
<event>
 7    1  0.2442667E-009  0.4778724E+02  0.7816164E-02  0.1312668E+00
        -11   -1    0    0    0    0  0.00000000000E+00  0.00000000000E+00  0.45593999997E+02  0.45594000000E+02  0.51100000000E-03 0.  1.
         11   -1    0    0    0    0 -0.00000000000E+00 -0.00000000000E+00 -0.45593999997E+02  0.45594000000E+02  0.51100000000E-03 0. -1.
    9900012    2    1    2    0    0 -0.41628482240E+02  0.11823501826E+02 -0.33015645609E+01  0.47787238974E+02  0.19999853778E+02 0.  0.
        -12    1    1    2    0    0  0.41628482240E+02 -0.11823501826E+02  0.33015645609E+01  0.43400761026E+02  0.00000000000E+00 0.  1.
         11    1    3    3    0    0 -0.25569040845E+01 -0.30485232558E+01 -0.56396353353E-01  0.39792503500E+01  0.51100000000E-03 0. -1.
        -11    1    3    3    0    0 -0.35502573261E+02  0.15048176161E+02 -0.63435839856E+01  0.39078400325E+02  0.51100000000E-03 0.  1.
        -12    1    3    3    0    0 -0.35690048954E+01 -0.17615107979E+00  0.30984157780E+01  0.47295882992E+01  0.00000000000E+00 0.  1.
</event>
<event>
 7    1  0.2442667E-009  0.4778727E+02  0.7816164E-02  0.1312668E+00
        -11   -1    0    0    0    0  0.00000000000E+00  0.00000000000E+00  0.45593999997E+02  0.45594000000E+02  0.51100000000E-03 0.  1.
         11   -1    0    0    0    0 -0.00000000000E+00 -0.00000000000E+00 -0.45593999997E+02  0.45594000000E+02  0.51100000000E-03 0. -1.
    9900012    2    1    2    0    0 -0.26794947601E+02  0.11435469969E+01 -0.34122517561E+02  0.47787272801E+02  0.20000008009E+02 0.  0.
        -12    1    1    2    0    0  0.26794947601E+02 -0.11435469969E+01  0.34122517561E+02  0.43400727199E+02  0.00000000000E+00 0.  1.
         11    1    3    3    0    0 -0.28928416169E+02  0.15037200704E+01 -0.32685086836E+02  0.43674126641E+02  0.51100000000E-03 0. -1.
        -11    1    3    3    0    0  0.65193261250E+00 -0.92260476560E+00 -0.21086139486E+01  0.23921682069E+01  0.51100000000E-03 0.  1.
         12    1    3    3    0    0  0.14815359551E+01  0.56243169219E+00  0.67118322392E+00  0.17209779530E+01  0.00000000000E+00 0. -1.
</event>
<event>
 7    1  0.2442667E-009  0.4778727E+02  0.7816164E-02  0.1312668E+00
        -11   -1    0    0    0    0  0.00000000000E+00  0.00000000000E+00  0.45593999997E+02  0.45594000000E+02  0.51100000000E-03 0. -1.
         11   -1    0    0    0    0 -0.00000000000E+00 -0.00000000000E+00 -0.45593999997E+02  0.45594000000E+02  0.51100000000E-03 0.  1.
    9900012    2    1    2    0    0  0.43487877922E+01  0.40683916022E+02 -0.14475167528E+02  0.47787268980E+02  0.19999990587E+02 0.  0.
        -12    1    1    2    0    0 -0.43487877922E+01 -0.40683916022E+02  0.14475167528E+02  0.43400731020E+02  0.00000000000E+00 0.  1.
         11    1    3    3    0    0 -0.19612896845E+01  0.16049153969E+02  0.55078656262E+00  0.16177928373E+02  0.51100000000E-03 0. -1.
        -11    1    3    3    0    0  0.84780196845E+01  0.11538882685E+02 -0.97613264813E+01  0.17329342928E+02  0.51100000000E-03 0.  1.
        -12    1    3    3    0    0 -0.21679422077E+01  0.13095879368E+02 -0.52646276093E+01  0.14279997679E+02  0.00000000000E+00 0.  1.
</event>
<event>
 7    1  0.2442667E-009  0.4778727E+02  0.7816164E-02  0.1312668E+00
        -11   -1    0    0    0    0  0.00000000000E+00  0.00000000000E+00  0.45593999997E+02  0.45594000000E+02  0.51100000000E-03 0.  1.
         11   -1    0    0    0    0 -0.00000000000E+00 -0.00000000000E+00 -0.45593999997E+02  0.45594000000E+02  0.51100000000E-03 0. -1.
    9900012    2    1    2    0    0  0.18730046827E+02  0.16153808225E+02 -0.35663191985E+02  0.47787269166E+02  0.19999991437E+02 0.  0.
        -12    1    1    2    0    0 -0.18730046827E+02 -0.16153808225E+02  0.35663191985E+02  0.43400730834E+02  0.00000000000E+00 0.  1.
         11    1    3    3    0    0  0.90467722717E+01  0.29791638307E+01 -0.18737631342E+02  0.21019475118E+02  0.51100000000E-03 0. -1.
        -11    1    3    3    0    0  0.20238080815E+01  0.11109127719E+02 -0.47823650661E+01  0.12262933324E+02  0.51100000000E-03 0.  1.
        -12    1    3    3    0    0  0.76594664734E+01  0.20655166754E+01 -0.12143195577E+02  0.14504860724E+02  0.00000000000E+00 0.  1.
</event>
<event>
 7    1  0.2442667E-009  0.4778728E+02  0.7816164E-02  0.1312668E+00
        -11   -1    0    0    0    0  0.00000000000E+00  0.00000000000E+00  0.45593999997E+02  0.45594000000E+02  0.51100000000E-03 0.  1.
         11   -1    0    0    0    0 -0.00000000000E+00 -0.00000000000E+00 -0.45593999997E+02  0.45594000000E+02  0.51100000000E-03 0. -1.
    9900012    2    1    2    0    0 -0.21459904404E+01  0.64987069191E+01 -0.42857721362E+02  0.47787277115E+02  0.20000027678E+02 0.  0.
        -12    1    1    2    0    0  0.21459904404E+01 -0.64987069191E+01  0.42857721362E+02  0.43400722885E+02  0.00000000000E+00 0.  1.
         11    1    3    3    0    0 -0.14046694098E+01  0.10248742936E+01 -0.28101727053E+02  0.28155470642E+02  0.51100000000E-03 0. -1.
        -11    1    3    3    0    0 -0.15949436084E+01  0.29501680642E+01  0.11185058621E+01  0.35353065420E+01  0.51100000000E-03 0.  1.
        -12    1    3    3    0    0  0.85362257784E+00  0.25236645612E+01 -0.15874500171E+02  0.16096499930E+02  0.00000000000E+00 0.  1.
</event>
<event>
 7    1  0.2442667E-009  0.4778727E+02  0.7816164E-02  0.1312668E+00
        -11   -1    0    0    0    0  0.00000000000E+00  0.00000000000E+00  0.45593999997E+02  0.45594000000E+02  0.51100000000E-03 0. -1.
         11   -1    0    0    0    0 -0.00000000000E+00 -0.00000000000E+00 -0.45593999997E+02  0.45594000000E+02  0.51100000000E-03 0.  1.
    9900012    2    1    2    0    0 -0.37115634425E+02  0.20345301287E+02  0.95980117003E+01  0.47787269225E+02  0.19999991705E+02 0.  0.
        -12    1    1    2    0    0  0.37115634425E+02 -0.20345301287E+02 -0.95980117003E+01  0.43400730775E+02  0.00000000000E+00 0.  1.
         11    1    3    3    0    0 -0.35180550809E+02  0.19671629919E+02  0.60360084861E+01  0.40756319481E+02  0.51100000000E-03 0. -1.
        -11    1    3    3    0    0 -0.23505043246E+01 -0.14882973064E+01  0.39134442859E+01  0.48015566113E+01  0.51100000000E-03 0.  1.
         12    1    3    3    0    0  0.41542070928E+00  0.21619686741E+01 -0.35144107167E+00  0.22293931328E+01  0.00000000000E+00 0. -1.
</event>
<event>
 7    1  0.2442667E-009  0.4778728E+02  0.7816164E-02  0.1312668E+00
        -11   -1    0    0    0    0  0.00000000000E+00  0.00000000000E+00  0.45593999997E+02  0.45594000000E+02  0.51100000000E-03 0. -1.
         11   -1    0    0    0    0 -0.00000000000E+00 -0.00000000000E+00 -0.45593999997E+02  0.45594000000E+02  0.51100000000E-03 0.  1.
    9900012    2    1    2    0    0 -0.20319595338E+02  0.97373730021E+01  0.37093400844E+02  0.47787276805E+02  0.20000026263E+02 0.  0.
        -12    1    1    2    0    0  0.20319595338E+02 -0.97373730021E+01 -0.37093400844E+02  0.43400723195E+02  0.00000000000E+00 0.  1.
         11    1    3    3    0    0 -0.30956383807E+01  0.54072438686E+01  0.43555315863E+01  0.76020996375E+01  0.51100000000E-03 0. -1.
        -11    1    3    3    0    0 -0.13442993890E+02 -0.19622347758E+01  0.11789107674E+02  0.17987426443E+02  0.51100000000E-03 0.  1.
        -12    1    3    3    0    0 -0.37809630668E+01  0.62923639093E+01  0.20948761584E+02  0.22197750724E+02  0.00000000000E+00 0.  1.
</event>
<event>
 7    1  0.2442667E-009  0.4778727E+02  0.7816164E-02  0.1312668E+00
        -11   -1    0    0    0    0  0.00000000000E+00  0.00000000000E+00  0.45593999997E+02  0.45594000000E+02  0.51100000000E-03 0. -1.
         11   -1    0    0    0    0 -0.00000000000E+00 -0.00000000000E+00 -0.45593999997E+02  0.45594000000E+02  0.51100000000E-03 0.  1.
    9900012    2    1    2    0    0 -0.28378100989E+02 -0.23291057428E+02  0.23148072024E+02  0.47787271777E+02  0.20000003340E+02 0.  0.
        -12    1    1    2    0    0  0.28378100989E+02  0.23291057428E+02 -0.23148072024E+02  0.43400728223E+02  0.00000000000E+00 0.  1.
         11    1    3    3    0    0 -0.27055158080E+02 -0.18818468476E+02  0.14846169364E+02  0.36145886068E+02  0.51100000000E-03 0. -1.
        -11    1    3    3    0    0 -0.27806806961E+01 -0.21543102252E+01  0.81753274171E+01  0.88999559728E+01  0.51100000000E-03 0.  1.
        -12    1    3    3    0    0  0.14577377874E+01 -0.23182787261E+01  0.12657524298E+00  0.27414297367E+01  0.00000000000E+00 0.  1.
</event>
<event>
 7    1  0.2442667E-009  0.4778727E+02  0.7816164E-02  0.1312668E+00
        -11   -1    0    0    0    0  0.00000000000E+00  0.00000000000E+00  0.45593999997E+02  0.45594000000E+02  0.51100000000E-03 0.  1.
         11   -1    0    0    0    0 -0.00000000000E+00 -0.00000000000E+00 -0.45593999997E+02  0.45594000000E+02  0.51100000000E-03 0. -1.
    9900012    2    1    2    0    0  0.13012898885E+02  0.67759805915E+01 -0.40845732889E+02  0.47787270218E+02  0.19999996232E+02 0.  0.
        -12    1    1    2    0    0 -0.13012898885E+02 -0.67759805915E+01  0.40845732889E+02  0.43400729782E+02  0.00000000000E+00 0.  1.
         11    1    3    3    0    0  0.43235041557E+01 -0.40166555561E+01 -0.22013481883E+02  0.22790778726E+02  0.51100000000E-03 0. -1.
        -11    1    3    3    0    0  0.41165672664E+01 -0.59480006932E+00 -0.50711461479E+01  0.65586916909E+01  0.51100000000E-03 0.  1.
         12    1    3    3    0    0  0.45728274626E+01  0.11387436217E+02 -0.13761104858E+02  0.18437799801E+02  0.00000000000E+00 0. -1.
</event>
<event>
 7    1  0.2442667E-009  0.4778727E+02  0.7816164E-02  0.1312668E+00
        -11   -1    0    0    0    0  0.00000000000E+00  0.00000000000E+00  0.45593999997E+02  0.45594000000E+02  0.51100000000E-03 0.  1.
         11   -1    0    0    0    0 -0.00000000000E+00 -0.00000000000E+00 -0.45593999997E+02  0.45594000000E+02  0.51100000000E-03 0. -1.
    9900012    2    1    2    0    0  0.25259644422E+02 -0.34220137586E+02 -0.86345773729E+01  0.47787269832E+02  0.19999994471E+02 0.  0.
        -12    1    1    2    0    0 -0.25259644422E+02  0.34220137586E+02  0.86345773729E+01  0.43400730168E+02  0.00000000000E+00 0.  1.
         11    1    3    3    0    0  0.17678567252E+02 -0.11669061805E+02 -0.48887968211E+01  0.21739344013E+02  0.51100000000E-03 0. -1.
        -11    1    3    3    0    0  0.24292993800E+01 -0.67077698490E-01 -0.15376247614E+01  0.28758103316E+01  0.51100000000E-03 0.  1.
         12    1    3    3    0    0  0.51517777902E+01 -0.22483998083E+02 -0.22081557904E+01  0.23172115488E+02  0.00000000000E+00 0. -1.
</event>
<event>
 7    1  0.2442667E-009  0.4778727E+02  0.7816164E-02  0.1312668E+00
        -11   -1    0    0    0    0  0.00000000000E+00  0.00000000000E+00  0.45593999997E+02  0.45594000000E+02  0.51100000000E-03 0.  1.
         11   -1    0    0    0    0 -0.00000000000E+00 -0.00000000000E+00 -0.45593999997E+02  0.45594000000E+02  0.51100000000E-03 0. -1.
    9900012    2    1    2    0    0  0.38417056861E+02 -0.18153594458E+02 -0.88430608786E+01  0.47787274484E+02  0.20000015683E+02 0.  0.
        -12    1    1    2    0    0 -0.38417056861E+02  0.18153594458E+02  0.88430608786E+01  0.43400725516E+02  0.00000000000E+00 0.  1.
         11    1    3    3    0    0  0.12750944608E+02 -0.27154619481E+01 -0.73122683998E+01  0.14947561387E+02  0.51100000000E-03 0. -1.
        -11    1    3    3    0    0  0.55210428220E+01 -0.10721108453E+02  0.35152257817E+00  0.12064313022E+02  0.51100000000E-03 0.  1.
        -12    1    3    3    0    0  0.20145069431E+02 -0.47170240564E+01 -0.18823150570E+01  0.20775400076E+02  0.00000000000E+00 0.  1.
</event>
<event>
 7    1  0.2442667E-009  0.4778727E+02  0.7816164E-02  0.1312668E+00
        -11   -1    0    0    0    0  0.00000000000E+00  0.00000000000E+00  0.45593999997E+02  0.45594000000E+02  0.51100000000E-03 0. -1.
         11   -1    0    0    0    0 -0.00000000000E+00 -0.00000000000E+00 -0.45593999997E+02  0.45594000000E+02  0.51100000000E-03 0.  1.
    9900012    2    1    2    0    0 -0.15093549609E+02  0.34713750587E+02 -0.21231197630E+02  0.47787268757E+02  0.19999989571E+02 0.  0.
        -12    1    1    2    0    0  0.15093549609E+02 -0.34713750587E+02  0.21231197630E+02  0.43400731243E+02  0.00000000000E+00 0.  1.
         11    1    3    3    0    0 -0.11868309060E+02  0.79360177799E+01 -0.71959392419E+01  0.15988079309E+02  0.51100000000E-03 0. -1.
        -11    1    3    3    0    0 -0.39969781090E+01  0.20085638705E+02 -0.60550597711E+01  0.21355853186E+02  0.51100000000E-03 0.  1.
        -12    1    3    3    0    0  0.77173755959E+00  0.66920941019E+01 -0.79801986171E+01  0.10443336263E+02  0.00000000000E+00 0.  1.
</event>
<event>
 7    1  0.2442667E-009  0.4778728E+02  0.7816164E-02  0.1312668E+00
        -11   -1    0    0    0    0  0.00000000000E+00  0.00000000000E+00  0.45593999997E+02  0.45594000000E+02  0.51100000000E-03 0. -1.
         11   -1    0    0    0    0 -0.00000000000E+00 -0.00000000000E+00 -0.45593999997E+02  0.45594000000E+02  0.51100000000E-03 0.  1.
    9900012    2    1    2    0    0 -0.25797439074E+02  0.32367072458E+02  0.13057084357E+02  0.47787277723E+02  0.20000030451E+02 0.  0.
        -12    1    1    2    0    0  0.25797439074E+02 -0.32367072458E+02 -0.13057084357E+02  0.43400722277E+02  0.00000000000E+00 0.  1.
         11    1    3    3    0    0 -0.26474936698E+02  0.29643128285E+02  0.11278253725E+02  0.41313875817E+02  0.51100000000E-03 0. -1.
        -11    1    3    3    0    0  0.18149734418E+01  0.39527967958E+01  0.52422604781E+00  0.43810437470E+01  0.51100000000E-03 0.  1.
         12    1    3    3    0    0 -0.11374758175E+01 -0.12288526230E+01  0.12546045839E+01  0.20923581592E+01  0.00000000000E+00 0. -1.
</event>
<event>
 7    1  0.2442667E-009  0.4778727E+02  0.7816164E-02  0.1312668E+00
        -11   -1    0    0    0    0  0.00000000000E+00  0.00000000000E+00  0.45593999997E+02  0.45594000000E+02  0.51100000000E-03 0.  1.
         11   -1    0    0    0    0 -0.00000000000E+00 -0.00000000000E+00 -0.45593999997E+02  0.45594000000E+02  0.51100000000E-03 0. -1.
    9900012    2    1    2    0    0 -0.36156825264E+01 -0.21396428565E+02 -0.37586479957E+02  0.47787265087E+02  0.19999972836E+02 0.  0.
        -12    1    1    2    0    0  0.36156825264E+01  0.21396428565E+02  0.37586479957E+02  0.43400734913E+02  0.00000000000E+00 0.  1.
         11    1    3    3    0    0 -0.47539510286E+01 -0.89052128315E+01 -0.21399933430E+02  0.23661361267E+02  0.51100000000E-03 0. -1.
        -11    1    3    3    0    0  0.26632569426E+01  0.18527838166E+01 -0.16224958332E+01  0.36274286214E+01  0.51100000000E-03 0.  1.
        -12    1    3    3    0    0 -0.15249884404E+01 -0.14343999550E+02 -0.14564050694E+02  0.20498475198E+02  0.00000000000E+00 0.  1.
</event>
<event>
 7    1  0.2442667E-009  0.4778728E+02  0.7816164E-02  0.1312668E+00
        -11   -1    0    0    0    0  0.00000000000E+00  0.00000000000E+00  0.45593999997E+02  0.45594000000E+02  0.51100000000E-03 0.  1.
         11   -1    0    0    0    0 -0.00000000000E+00 -0.00000000000E+00 -0.45593999997E+02  0.45594000000E+02  0.51100000000E-03 0. -1.
    9900012    2    1    2    0    0  0.30984715834E+02  0.18263466643E+02 -0.24290231179E+02  0.47787283878E+02  0.20000058514E+02 0.  0.
        -12    1    1    2    0    0 -0.30984715834E+02 -0.18263466643E+02  0.24290231179E+02  0.43400716122E+02  0.00000000000E+00 0.  1.
         11    1    3    3    0    0  0.22181951701E+02  0.74581148292E+01 -0.12760795844E+02  0.26655212790E+02  0.51100000000E-03 0. -1.
        -11    1    3    3    0    0  0.13405384612E+01  0.18625466318E+01 -0.89008136851E+01  0.91918772750E+01  0.51100000000E-03 0.  1.
        -12    1    3    3    0    0  0.74622256720E+01  0.89428051824E+01 -0.26286216496E+01  0.11940193813E+02  0.00000000000E+00 0.  1.
</event>
<event>
 7    1  0.2442667E-009  0.4778723E+02  0.7816164E-02  0.1312668E+00
        -11   -1    0    0    0    0  0.00000000000E+00  0.00000000000E+00  0.45593999997E+02  0.45594000000E+02  0.51100000000E-03 0.  1.
         11   -1    0    0    0    0 -0.00000000000E+00 -0.00000000000E+00 -0.45593999997E+02  0.45594000000E+02  0.51100000000E-03 0. -1.
    9900012    2    1    2    0    0 -0.20215572030E+02  0.36375809377E+02 -0.12319009873E+02  0.47787229677E+02  0.19999811390E+02 0.  0.
        -12    1    1    2    0    0  0.20215572030E+02 -0.36375809377E+02  0.12319009873E+02  0.43400770323E+02  0.00000000000E+00 0.  1.
         11    1    3    3    0    0 -0.35413019827E+01  0.76722830551E+01 -0.63223435824E+01  0.10553519586E+02  0.51100000000E-03 0. -1.
        -11    1    3    3    0    0 -0.21257456550E+01  0.19576514738E+01 -0.61406616120E+01  0.67866721725E+01  0.51100000000E-03 0.  1.
        -12    1    3    3    0    0 -0.14548524393E+02  0.26745874848E+02  0.14399532101E+00  0.30447037919E+02  0.00000000000E+00 0.  1.
</event>
<event>
 7    1  0.2442667E-009  0.4778727E+02  0.7816164E-02  0.1312668E+00
        -11   -1    0    0    0    0  0.00000000000E+00  0.00000000000E+00  0.45593999997E+02  0.45594000000E+02  0.51100000000E-03 0.  1.
         11   -1    0    0    0    0 -0.00000000000E+00 -0.00000000000E+00 -0.45593999997E+02  0.45594000000E+02  0.51100000000E-03 0. -1.
    9900012    2    1    2    0    0 -0.42060064704E+02 -0.67863317020E+01 -0.82776633199E+01  0.47787273613E+02  0.20000011711E+02 0.  0.
        -12    1    1    2    0    0  0.42060064704E+02  0.67863317020E+01  0.82776633199E+01  0.43400726387E+02  0.00000000000E+00 0.  1.
         11    1    3    3    0    0 -0.16857970168E+02  0.35041002796E+01  0.28922114523E+01  0.17459517871E+02  0.51100000000E-03 0. -1.
        -11    1    3    3    0    0 -0.11239027683E+02 -0.82544248381E+01 -0.40399810405E+01  0.14518013629E+02  0.51100000000E-03 0.  1.
         12    1    3    3    0    0 -0.13963066853E+02 -0.20360071435E+01 -0.71298937317E+01  0.15809742112E+02  0.00000000000E+00 0. -1.
</event>
<event>
 7    1  0.2442667E-009  0.4778727E+02  0.7816164E-02  0.1312668E+00
        -11   -1    0    0    0    0  0.00000000000E+00  0.00000000000E+00  0.45593999997E+02  0.45594000000E+02  0.51100000000E-03 0.  1.
         11   -1    0    0    0    0 -0.00000000000E+00 -0.00000000000E+00 -0.45593999997E+02  0.45594000000E+02  0.51100000000E-03 0. -1.
    9900012    2    1    2    0    0  0.13748690159E+02 -0.40704420004E+02 -0.61438633052E+01  0.47787270222E+02  0.19999996251E+02 0.  0.
        -12    1    1    2    0    0 -0.13748690159E+02  0.40704420004E+02  0.61438633052E+01  0.43400729778E+02  0.00000000000E+00 0.  1.
         11    1    3    3    0    0  0.10038662286E+02 -0.16926744774E+02 -0.55571588174E+01  0.20449240659E+02  0.51100000000E-03 0. -1.
        -11    1    3    3    0    0 -0.38164299275E+01 -0.74288803194E+01  0.32035719027E+01  0.89451815738E+01  0.51100000000E-03 0.  1.
        -12    1    3    3    0    0  0.75264578006E+01 -0.16348794910E+02 -0.37902763905E+01  0.18392847989E+02  0.00000000000E+00 0.  1.
</event>
<event>
 7    1  0.2442667E-009  0.4778727E+02  0.7816164E-02  0.1312668E+00
        -11   -1    0    0    0    0  0.00000000000E+00  0.00000000000E+00  0.45593999997E+02  0.45594000000E+02  0.51100000000E-03 0.  1.
         11   -1    0    0    0    0 -0.00000000000E+00 -0.00000000000E+00 -0.45593999997E+02  0.45594000000E+02  0.51100000000E-03 0. -1.
    9900012    2    1    2    0    0  0.26951670625E+02  0.23633313372E+01 -0.33935901181E+02  0.47787271049E+02  0.20000000022E+02 0.  0.
        -12    1    1    2    0    0 -0.26951670625E+02 -0.23633313372E+01  0.33935901181E+02  0.43400728951E+02  0.00000000000E+00 0.  1.
         11    1    3    3    0    0  0.89971583378E+01  0.79559740165E+00 -0.12589655184E+02  0.15494555537E+02  0.51100000000E-03 0. -1.
        -11    1    3    3    0    0  0.16692532049E+02  0.70350186962E+01 -0.13254144687E+02  0.22445589008E+02  0.51100000000E-03 0.  1.
        -12    1    3    3    0    0  0.12619802377E+01 -0.54672847606E+01 -0.80921013106E+01  0.98471265045E+01  0.00000000000E+00 0.  1.
</event>
<event>
 7    1  0.2442667E-009  0.4778727E+02  0.7816164E-02  0.1312668E+00
        -11   -1    0    0    0    0  0.00000000000E+00  0.00000000000E+00  0.45593999997E+02  0.45594000000E+02  0.51100000000E-03 0.  1.
         11   -1    0    0    0    0 -0.00000000000E+00 -0.00000000000E+00 -0.45593999997E+02  0.45594000000E+02  0.51100000000E-03 0. -1.
    9900012    2    1    2    0    0  0.97626923656E+01  0.77087321619E+00 -0.42281425034E+02  0.47787270621E+02  0.19999998069E+02 0.  0.
        -12    1    1    2    0    0 -0.97626923656E+01 -0.77087321619E+00  0.42281425034E+02  0.43400729379E+02  0.00000000000E+00 0.  1.
         11    1    3    3    0    0  0.71943474570E+01  0.55366784875E+01 -0.27076710826E+02  0.28558041134E+02  0.51100000000E-03 0. -1.
        -11    1    3    3    0    0 -0.17576076291E+01  0.14900972897E+01 -0.86867275877E-01  0.23058882660E+01  0.51100000000E-03 0.  1.
         12    1    3    3    0    0  0.43259525377E+01 -0.62559025610E+01 -0.15117846932E+02  0.16923341221E+02  0.00000000000E+00 0. -1.
</event>
<event>
 7    1  0.2442667E-009  0.4778727E+02  0.7816164E-02  0.1312668E+00
        -11   -1    0    0    0    0  0.00000000000E+00  0.00000000000E+00  0.45593999997E+02  0.45594000000E+02  0.51100000000E-03 0. -1.
         11   -1    0    0    0    0 -0.00000000000E+00 -0.00000000000E+00 -0.45593999997E+02  0.45594000000E+02  0.51100000000E-03 0.  1.
    9900012    2    1    2    0    0 -0.19881588528E+02 -0.34687030141E+02 -0.16886552277E+02  0.47787271087E+02  0.20000000192E+02 0.  0.
        -12    1    1    2    0    0  0.19881588528E+02  0.34687030141E+02  0.16886552277E+02  0.43400728913E+02  0.00000000000E+00 0.  1.
         11    1    3    3    0    0 -0.69584592980E+01 -0.66558998337E+01 -0.82727036679E+01  0.12694832990E+02  0.51100000000E-03 0. -1.
        -11    1    3    3    0    0 -0.13980050708E+02 -0.14432182790E+02 -0.73456486446E+01  0.21393650276E+02  0.51100000000E-03 0.  1.
         12    1    3    3    0    0  0.10569214782E+01 -0.13598947518E+02 -0.12681999649E+01  0.13698787820E+02  0.00000000000E+00 0. -1.
</event>
<event>
 7    1  0.2442667E-009  0.4778727E+02  0.7816164E-02  0.1312668E+00
        -11   -1    0    0    0    0  0.00000000000E+00  0.00000000000E+00  0.45593999997E+02  0.45594000000E+02  0.51100000000E-03 0. -1.
         11   -1    0    0    0    0 -0.00000000000E+00 -0.00000000000E+00 -0.45593999997E+02  0.45594000000E+02  0.51100000000E-03 0.  1.
    9900012    2    1    2    0    0  0.42223107095E+02 -0.46456420699E+00  0.10030800398E+02  0.47787267872E+02  0.19999985534E+02 0.  0.
        -12    1    1    2    0    0 -0.42223107095E+02  0.46456420699E+00 -0.10030800398E+02  0.43400732128E+02  0.00000000000E+00 0.  1.
         11    1    3    3    0    0  0.18886405237E+02  0.33981779878E+01  0.41421644985E+01  0.19631643930E+02  0.51100000000E-03 0. -1.
        -11    1    3    3    0    0  0.11739052704E+02 -0.89747818841E+01  0.42502383441E+01  0.15375844513E+02  0.51100000000E-03 0.  1.
        -12    1    3    3    0    0  0.11597649154E+02  0.51120396892E+01  0.16383975557E+01  0.12779779429E+02  0.00000000000E+00 0.  1.
</event>
<event>
 7    1  0.2442667E-009  0.4778726E+02  0.7816164E-02  0.1312668E+00
        -11   -1    0    0    0    0  0.00000000000E+00  0.00000000000E+00  0.45593999997E+02  0.45594000000E+02  0.51100000000E-03 0.  1.
         11   -1    0    0    0    0 -0.00000000000E+00 -0.00000000000E+00 -0.45593999997E+02  0.45594000000E+02  0.51100000000E-03 0. -1.
    9900012    2    1    2    0    0 -0.43227464975E+02 -0.34516485498E+01  0.17597234682E+01  0.47787260000E+02  0.19999949643E+02 0.  0.
        -12    1    1    2    0    0  0.43227464975E+02  0.34516485498E+01 -0.17597234682E+01  0.43400740000E+02  0.00000000000E+00 0.  1.
         11    1    3    3    0    0 -0.15023215626E+02 -0.12172529916E+01 -0.26395607729E+01  0.15301829757E+02  0.51100000000E-03 0. -1.
        -11    1    3    3    0    0 -0.12825925855E+02  0.46802577629E+01 -0.31489977318E+01  0.14011615672E+02  0.51100000000E-03 0.  1.
        -12    1    3    3    0    0 -0.15378323495E+02 -0.69146533211E+01  0.75482819729E+01  0.18473814571E+02  0.00000000000E+00 0.  1.
</event>
<event>
 7    1  0.2442667E-009  0.4778727E+02  0.7816164E-02  0.1312668E+00
        -11   -1    0    0    0    0  0.00000000000E+00  0.00000000000E+00  0.45593999997E+02  0.45594000000E+02  0.51100000000E-03 0.  1.
         11   -1    0    0    0    0 -0.00000000000E+00 -0.00000000000E+00 -0.45593999997E+02  0.45594000000E+02  0.51100000000E-03 0. -1.
    9900012    2    1    2    0    0 -0.14276351856E+01 -0.14353519286E+02 -0.40933626674E+02  0.47787269006E+02  0.19999990708E+02 0.  0.
        -12    1    1    2    0    0  0.14276351856E+01  0.14353519286E+02  0.40933626674E+02  0.43400730994E+02  0.00000000000E+00 0.  1.
         11    1    3    3    0    0 -0.12708962734E+01 -0.34988563842E+00 -0.10457254426E+02  0.10540007955E+02  0.51100000000E-03 0. -1.
        -11    1    3    3    0    0  0.17763535480E+01  0.32699969975E+01 -0.32233569036E+01  0.49232450965E+01  0.51100000000E-03 0.  1.
        -12    1    3    3    0    0 -0.19330924602E+01 -0.17273630645E+02 -0.27253015344E+02  0.32324015955E+02  0.00000000000E+00 0.  1.
</event>
<event>
 7    1  0.2442667E-009  0.4778727E+02  0.7816164E-02  0.1312668E+00
        -11   -1    0    0    0    0  0.00000000000E+00  0.00000000000E+00  0.45593999997E+02  0.45594000000E+02  0.51100000000E-03 0. -1.
         11   -1    0    0    0    0 -0.00000000000E+00 -0.00000000000E+00 -0.45593999997E+02  0.45594000000E+02  0.51100000000E-03 0.  1.
    9900012    2    1    2    0    0  0.14724961917E+02 -0.35070776677E+02  0.20900701219E+02  0.47787271992E+02  0.20000004318E+02 0.  0.
        -12    1    1    2    0    0 -0.14724961917E+02  0.35070776677E+02 -0.20900701219E+02  0.43400728008E+02  0.00000000000E+00 0.  1.
         11    1    3    3    0    0  0.43798519574E+01 -0.34221314385E+01  0.10358096813E+02  0.11755179990E+02  0.51100000000E-03 0. -1.
        -11    1    3    3    0    0  0.72255873494E+01 -0.11838542713E+02  0.12382349482E+01  0.13924562189E+02  0.51100000000E-03 0.  1.
         12    1    3    3    0    0  0.31195226103E+01 -0.19810102526E+02  0.93043694583E+01  0.22107529812E+02  0.00000000000E+00 0. -1.
</event>
<event>
 7    1  0.2442667E-009  0.4778728E+02  0.7816164E-02  0.1312668E+00
        -11   -1    0    0    0    0  0.00000000000E+00  0.00000000000E+00  0.45593999997E+02  0.45594000000E+02  0.51100000000E-03 0. -1.
         11   -1    0    0    0    0 -0.00000000000E+00 -0.00000000000E+00 -0.45593999997E+02  0.45594000000E+02  0.51100000000E-03 0.  1.
    9900012    2    1    2    0    0 -0.84259648316E+01 -0.41947887429E+02 -0.72801632104E+01  0.47787275127E+02  0.20000018616E+02 0.  0.
        -12    1    1    2    0    0  0.84259648316E+01  0.41947887429E+02  0.72801632104E+01  0.43400724873E+02  0.00000000000E+00 0.  1.
         11    1    3    3    0    0  0.27238558354E+00 -0.26952167772E+02 -0.32325267376E+01  0.27146689870E+02  0.51100000000E-03 0. -1.
        -11    1    3    3    0    0 -0.99264334045E+01 -0.11720410296E+02 -0.61666658546E+01  0.16550826737E+02  0.51100000000E-03 0.  1.
        -12    1    3    3    0    0  0.12280829894E+01 -0.32753093605E+01  0.21190293817E+01  0.40897585205E+01  0.00000000000E+00 0.  1.
</event>
<event>
 7    1  0.2442667E-009  0.4778727E+02  0.7816164E-02  0.1312668E+00
        -11   -1    0    0    0    0  0.00000000000E+00  0.00000000000E+00  0.45593999997E+02  0.45594000000E+02  0.51100000000E-03 0.  1.
         11   -1    0    0    0    0 -0.00000000000E+00 -0.00000000000E+00 -0.45593999997E+02  0.45594000000E+02  0.51100000000E-03 0. -1.
    9900012    2    1    2    0    0 -0.35303069547E+02 -0.25241284043E+02 -0.44038913824E+00  0.47787273253E+02  0.20000010068E+02 0.  0.
        -12    1    1    2    0    0  0.35303069547E+02  0.25241284043E+02  0.44038913824E+00  0.43400726747E+02  0.00000000000E+00 0.  1.
         11    1    3    3    0    0 -0.27786928205E+02 -0.14075127093E+02  0.59894173945E+00  0.31154154028E+02  0.51100000000E-03 0. -1.
        -11    1    3    3    0    0 -0.74187960264E+01 -0.11451906289E+02 -0.35541579189E+01  0.14100238682E+02  0.51100000000E-03 0.  1.
        -12    1    3    3    0    0 -0.97345315938E-01  0.28574933791E+00  0.25148270412E+01  0.25328805424E+01  0.00000000000E+00 0.  1.
</event>
<event>
 7    1  0.2442667E-009  0.4778727E+02  0.7816164E-02  0.1312668E+00
        -11   -1    0    0    0    0  0.00000000000E+00  0.00000000000E+00  0.45593999997E+02  0.45594000000E+02  0.51100000000E-03 0. -1.
         11   -1    0    0    0    0 -0.00000000000E+00 -0.00000000000E+00 -0.45593999997E+02  0.45594000000E+02  0.51100000000E-03 0.  1.
    9900012    2    1    2    0    0  0.54071835514E+01  0.42988792975E+02  0.25198559215E+01  0.47787266950E+02  0.19999981334E+02 0.  0.
        -12    1    1    2    0    0 -0.54071835514E+01 -0.42988792975E+02 -0.25198559215E+01  0.43400733050E+02  0.00000000000E+00 0.  1.
         11    1    3    3    0    0  0.22896709879E+01  0.29600270004E+02  0.33123201758E+01  0.29872898131E+02  0.51100000000E-03 0. -1.
        -11    1    3    3    0    0  0.21341105939E+01  0.62250144948E+01 -0.60777873536E+01  0.89579424459E+01  0.51100000000E-03 0.  1.
        -12    1    3    3    0    0  0.98340196966E+00  0.71635084755E+01  0.52853230993E+01  0.89564263730E+01  0.00000000000E+00 0.  1.
</event>
<event>
 7    1  0.2442667E-009  0.4778727E+02  0.7816164E-02  0.1312668E+00
        -11   -1    0    0    0    0  0.00000000000E+00  0.00000000000E+00  0.45593999997E+02  0.45594000000E+02  0.51100000000E-03 0. -1.
         11   -1    0    0    0    0 -0.00000000000E+00 -0.00000000000E+00 -0.45593999997E+02  0.45594000000E+02  0.51100000000E-03 0.  1.
    9900012    2    1    2    0    0 -0.42072463853E+02  0.68557949779E+01  0.81565613616E+01  0.47787266911E+02  0.19999981153E+02 0.  0.
        -12    1    1    2    0    0  0.42072463853E+02 -0.68557949779E+01 -0.81565613616E+01  0.43400733089E+02  0.00000000000E+00 0.  1.
         11    1    3    3    0    0 -0.19536645817E+02  0.11134645189E+02  0.72877551488E+01  0.23638363493E+02  0.51100000000E-03 0. -1.
        -11    1    3    3    0    0 -0.21554994897E+02 -0.46049465847E+01  0.25365059004E+01  0.22186870003E+02  0.51100000000E-03 0.  1.
         12    1    3    3    0    0 -0.98082313898E+00  0.32609637400E+00 -0.16676996877E+01  0.19620334155E+01  0.00000000000E+00 0. -1.
</event>
<event>
 7    1  0.2442667E-009  0.4778727E+02  0.7816164E-02  0.1312668E+00
        -11   -1    0    0    0    0  0.00000000000E+00  0.00000000000E+00  0.45593999997E+02  0.45594000000E+02  0.51100000000E-03 0.  1.
         11   -1    0    0    0    0 -0.00000000000E+00 -0.00000000000E+00 -0.45593999997E+02  0.45594000000E+02  0.51100000000E-03 0. -1.
    9900012    2    1    2    0    0  0.33570866395E+02 -0.20551325651E+02 -0.18282859702E+02  0.47787274022E+02  0.20000013576E+02 0.  0.
        -12    1    1    2    0    0 -0.33570866395E+02  0.20551325651E+02  0.18282859702E+02  0.43400725978E+02  0.00000000000E+00 0.  1.
         11    1    3    3    0    0  0.57571836489E-02  0.37997388359E+00 -0.33285059509E+00  0.50517628324E+00  0.51100000000E-03 0.  1.
        -11    1    3    3    0    0  0.15912934046E+02 -0.19282014962E+02 -0.15420196499E+02  0.29373457939E+02  0.51100000000E-03 0. -1.
        -12    1    3    3    0    0  0.17652175165E+02 -0.16492845724E+01 -0.25298126082E+01  0.17908639800E+02  0.00000000000E+00 0.  1.
</event>
<event>
 7    1  0.2442667E-009  0.4778727E+02  0.7816164E-02  0.1312668E+00
        -11   -1    0    0    0    0  0.00000000000E+00  0.00000000000E+00  0.45593999997E+02  0.45594000000E+02  0.51100000000E-03 0.  1.
         11   -1    0    0    0    0 -0.00000000000E+00 -0.00000000000E+00 -0.45593999997E+02  0.45594000000E+02  0.51100000000E-03 0. -1.
    9900012    2    1    2    0    0  0.39732206177E+02 -0.20619245813E+01 -0.17341386161E+02  0.47787269422E+02  0.19999992604E+02 0.  0.
        -12    1    1    2    0    0 -0.39732206177E+02  0.20619245813E+01  0.17341386161E+02  0.43400730578E+02  0.00000000000E+00 0.  1.
         11    1    3    3    0    0  0.60240145736E+01 -0.15731731008E+01 -0.57060229877E+01  0.84452545128E+01  0.51100000000E-03 0. -1.
        -11    1    3    3    0    0  0.32795576744E+02  0.43836450231E+00 -0.57302656323E+01  0.33295314413E+02  0.51100000000E-03 0.  1.
        -12    1    3    3    0    0  0.91261486033E+00 -0.92711598280E+00 -0.59050975407E+01  0.60467004965E+01  0.00000000000E+00 0.  1.
</event>
<event>
 7    1  0.2442667E-009  0.4778727E+02  0.7816164E-02  0.1312668E+00
        -11   -1    0    0    0    0  0.00000000000E+00  0.00000000000E+00  0.45593999997E+02  0.45594000000E+02  0.51100000000E-03 0.  1.
         11   -1    0    0    0    0 -0.00000000000E+00 -0.00000000000E+00 -0.45593999997E+02  0.45594000000E+02  0.51100000000E-03 0. -1.
    9900012    2    1    2    0    0  0.37002006037E+02 -0.10404927280E+02 -0.20154712438E+02  0.47787269638E+02  0.19999993588E+02 0.  0.
        -12    1    1    2    0    0 -0.37002006037E+02  0.10404927280E+02  0.20154712438E+02  0.43400730362E+02  0.00000000000E+00 0.  1.
         11    1    3    3    0    0  0.31002138849E+02 -0.48043753547E+01 -0.76681247694E+01  0.32295739247E+02  0.51100000000E-03 0. -1.
        -11    1    3    3    0    0  0.56901984579E+01 -0.30317192294E+01 -0.10030921081E+02  0.11924305346E+02  0.51100000000E-03 0.  1.
         12    1    3    3    0    0  0.30966873070E+00 -0.25688326957E+01 -0.24556665870E+01  0.35672250459E+01  0.00000000000E+00 0. -1.
</event>
<event>
 7    1  0.2442667E-009  0.4778727E+02  0.7816164E-02  0.1312668E+00
        -11   -1    0    0    0    0  0.00000000000E+00  0.00000000000E+00  0.45593999997E+02  0.45594000000E+02  0.51100000000E-03 0. -1.
         11   -1    0    0    0    0 -0.00000000000E+00 -0.00000000000E+00 -0.45593999997E+02  0.45594000000E+02  0.51100000000E-03 0.  1.
    9900012    2    1    2    0    0  0.36035777121E+01  0.33618258777E+02  0.27211211370E+02  0.47787272820E+02  0.20000008096E+02 0.  0.
        -12    1    1    2    0    0 -0.36035777121E+01 -0.33618258777E+02 -0.27211211370E+02  0.43400727180E+02  0.00000000000E+00 0.  1.
         11    1    3    3    0    0 -0.20681771018E+01  0.13018401316E+02  0.17129088217E+02  0.21613925899E+02  0.51100000000E-03 0. -1.
        -11    1    3    3    0    0  0.58555267394E+01  0.35017837740E+01  0.12801402939E+01  0.69417895697E+01  0.51100000000E-03 0.  1.
        -12    1    3    3    0    0 -0.18377192554E+00  0.17098073687E+02  0.88019828587E+01  0.19231557352E+02  0.00000000000E+00 0.  1.
</event>
<event>
 7    1  0.2442667E-009  0.4778727E+02  0.7816164E-02  0.1312668E+00
        -11   -1    0    0    0    0  0.00000000000E+00  0.00000000000E+00  0.45593999997E+02  0.45594000000E+02  0.51100000000E-03 0.  1.
         11   -1    0    0    0    0 -0.00000000000E+00 -0.00000000000E+00 -0.45593999997E+02  0.45594000000E+02  0.51100000000E-03 0. -1.
    9900012    2    1    2    0    0  0.62865657610E+01 -0.38557327721E+02 -0.18905946866E+02  0.47787271239E+02  0.20000000887E+02 0.  0.
        -12    1    1    2    0    0 -0.62865657610E+01  0.38557327721E+02  0.18905946866E+02  0.43400728761E+02  0.00000000000E+00 0.  1.
         11    1    3    3    0    0  0.45544151612E+01 -0.28808527993E+02 -0.13883721302E+02  0.32302193425E+02  0.51100000000E-03 0. -1.
        -11    1    3    3    0    0  0.46805081321E+01 -0.24091666871E+01  0.12262388177E+01  0.54050811650E+01  0.51100000000E-03 0.  1.
        -12    1    3    3    0    0 -0.29483575323E+01 -0.73396330408E+01 -0.62484643823E+01  0.10079996649E+02  0.00000000000E+00 0.  1.
</event>
<event>
 7    1  0.2442667E-009  0.4778726E+02  0.7816164E-02  0.1312668E+00
        -11   -1    0    0    0    0  0.00000000000E+00  0.00000000000E+00  0.45593999997E+02  0.45594000000E+02  0.51100000000E-03 0. -1.
         11   -1    0    0    0    0 -0.00000000000E+00 -0.00000000000E+00 -0.45593999997E+02  0.45594000000E+02  0.51100000000E-03 0.  1.
    9900012    2    1    2    0    0  0.33366827464E+02  0.10237058771E+02  0.25796924097E+02  0.47787264520E+02  0.19999970254E+02 0.  0.
        -12    1    1    2    0    0 -0.33366827464E+02 -0.10237058771E+02 -0.25796924097E+02  0.43400735480E+02  0.00000000000E+00 0.  1.
         11    1    3    3    0    0  0.67117861649E+01 -0.20396838095E+01  0.91735732733E+01  0.11548282575E+02  0.51100000000E-03 0. -1.
        -11    1    3    3    0    0  0.10002380345E+02 -0.68261648266E+00  0.11895998178E+01  0.10095975724E+02  0.51100000000E-03 0.  1.
         12    1    3    3    0    0  0.16652660954E+02  0.12959359063E+02  0.15433751006E+02  0.26143006221E+02  0.00000000000E+00 0. -1.
</event>
<event>
 7    1  0.2442667E-009  0.4778727E+02  0.7816164E-02  0.1312668E+00
        -11   -1    0    0    0    0  0.00000000000E+00  0.00000000000E+00  0.45593999997E+02  0.45594000000E+02  0.51100000000E-03 0.  1.
         11   -1    0    0    0    0 -0.00000000000E+00 -0.00000000000E+00 -0.45593999997E+02  0.45594000000E+02  0.51100000000E-03 0. -1.
    9900012    2    1    2    0    0 -0.30416164188E+02  0.99615483563E+01 -0.29312932071E+02  0.47787268714E+02  0.19999989374E+02 0.  0.
        -12    1    1    2    0    0  0.30416164188E+02 -0.99615483563E+01  0.29312932071E+02  0.43400731286E+02  0.00000000000E+00 0.  1.
         11    1    3    3    0    0 -0.83847833491E+01 -0.45452450900E+01 -0.99888418184E+01  0.13810894463E+02  0.51100000000E-03 0. -1.
        -11    1    3    3    0    0 -0.19846858267E+01  0.42467504174E+01 -0.66469192148E+01  0.81335971284E+01  0.51100000000E-03 0.  1.
         12    1    3    3    0    0 -0.20046695012E+02  0.10260043029E+02 -0.12677171038E+02  0.25842777122E+02  0.00000000000E+00 0. -1.
</event>
<event>
 7    1  0.2442667E-009  0.4778728E+02  0.7816164E-02  0.1312668E+00
        -11   -1    0    0    0    0  0.00000000000E+00  0.00000000000E+00  0.45593999997E+02  0.45594000000E+02  0.51100000000E-03 0.  1.
         11   -1    0    0    0    0 -0.00000000000E+00 -0.00000000000E+00 -0.45593999997E+02  0.45594000000E+02  0.51100000000E-03 0. -1.
    9900012    2    1    2    0    0 -0.27717249189E+02 -0.23589365759E+02 -0.23641447276E+02  0.47787284467E+02  0.20000061199E+02 0.  0.
        -12    1    1    2    0    0  0.27717249189E+02  0.23589365759E+02  0.23641447276E+02  0.43400715533E+02  0.00000000000E+00 0.  1.
         11    1    3    3    0    0 -0.15864319194E+02 -0.20023026593E+02 -0.21894453672E+02  0.33644692290E+02  0.51100000000E-03 0. -1.
        -11    1    3    3    0    0 -0.34337084634E+01 -0.10191857568E+01  0.25068613886E+01  0.43718929197E+01  0.51100000000E-03 0.  1.
         12    1    3    3    0    0 -0.84192215313E+01 -0.25471534087E+01 -0.42538549928E+01  0.97706992575E+01  0.00000000000E+00 0. -1.
</event>
<event>
 7    1  0.2442667E-009  0.4778727E+02  0.7816164E-02  0.1312668E+00
        -11   -1    0    0    0    0  0.00000000000E+00  0.00000000000E+00  0.45593999997E+02  0.45594000000E+02  0.51100000000E-03 0. -1.
         11   -1    0    0    0    0 -0.00000000000E+00 -0.00000000000E+00 -0.45593999997E+02  0.45594000000E+02  0.51100000000E-03 0.  1.
    9900012    2    1    2    0    0  0.34401313335E+02 -0.14692509829E+02  0.22006884707E+02  0.47787272140E+02  0.20000004996E+02 0.  0.
        -12    1    1    2    0    0 -0.34401313335E+02  0.14692509829E+02 -0.22006884707E+02  0.43400727860E+02  0.00000000000E+00 0.  1.
         11    1    3    3    0    0  0.12632074958E+00  0.27207888499E+00 -0.26692807080E+00  0.40154041831E+00  0.51100000000E-03 0.  1.
        -11    1    3    3    0    0  0.30513672483E+02 -0.98093857530E+01  0.10039654229E+02  0.33587243331E+02  0.51100000000E-03 0. -1.
        -12    1    3    3    0    0  0.37613201021E+01 -0.51552029611E+01  0.12234158549E+02  0.13798488391E+02  0.00000000000E+00 0.  1.
</event>
<event>
 7    1  0.2442667E-009  0.4778727E+02  0.7816164E-02  0.1312668E+00
        -11   -1    0    0    0    0  0.00000000000E+00  0.00000000000E+00  0.45593999997E+02  0.45594000000E+02  0.51100000000E-03 0.  1.
         11   -1    0    0    0    0 -0.00000000000E+00 -0.00000000000E+00 -0.45593999997E+02  0.45594000000E+02  0.51100000000E-03 0. -1.
    9900012    2    1    2    0    0  0.27658392420E+02 -0.17395192280E+02 -0.28566477803E+02  0.47787273741E+02  0.20000012297E+02 0.  0.
        -12    1    1    2    0    0 -0.27658392420E+02  0.17395192280E+02  0.28566477803E+02  0.43400726259E+02  0.00000000000E+00 0.  1.
         11    1    3    3    0    0  0.18109825400E+02 -0.88172091857E+01 -0.21448789979E+02  0.29423792170E+02  0.51100000000E-03 0. -1.
        -11    1    3    3    0    0  0.84850398302E+01 -0.23617443602E+01  0.61320872776E-01  0.88078089134E+01  0.51100000000E-03 0.  1.
         12    1    3    3    0    0  0.10635271899E+01 -0.62162387342E+01 -0.71790086965E+01  0.95556726581E+01  0.00000000000E+00 0. -1.
</event>
<event>
 7    1  0.2442667E-009  0.4778727E+02  0.7816164E-02  0.1312668E+00
        -11   -1    0    0    0    0  0.00000000000E+00  0.00000000000E+00  0.45593999997E+02  0.45594000000E+02  0.51100000000E-03 0.  1.
         11   -1    0    0    0    0 -0.00000000000E+00 -0.00000000000E+00 -0.45593999997E+02  0.45594000000E+02  0.51100000000E-03 0. -1.
    9900012    2    1    2    0    0  0.32191610256E+02  0.27442210288E+02 -0.97081708351E+01  0.47787271235E+02  0.20000000868E+02 0.  0.
        -12    1    1    2    0    0 -0.32191610256E+02 -0.27442210288E+02  0.97081708351E+01  0.43400728765E+02  0.00000000000E+00 0.  1.
         11    1    3    3    0    0  0.24176006776E+02  0.16194969569E+02 -0.16098025770E+01  0.29143572320E+02  0.51100000000E-03 0. -1.
        -11    1    3    3    0    0  0.14681381048E+01  0.95936385737E+01 -0.65695949695E+01  0.11719765736E+02  0.51100000000E-03 0.  1.
         12    1    3    3    0    0  0.65474653752E+01  0.16536021453E+01 -0.15287732886E+01  0.69239331787E+01  0.00000000000E+00 0. -1.
</event>
<event>
 7    1  0.2442667E-009  0.4778727E+02  0.7816164E-02  0.1312668E+00
        -11   -1    0    0    0    0  0.00000000000E+00  0.00000000000E+00  0.45593999997E+02  0.45594000000E+02  0.51100000000E-03 0.  1.
         11   -1    0    0    0    0 -0.00000000000E+00 -0.00000000000E+00 -0.45593999997E+02  0.45594000000E+02  0.51100000000E-03 0. -1.
    9900012    2    1    2    0    0  0.40319885529E+02 -0.11519408776E+02 -0.11190769568E+02  0.47787271076E+02  0.20000000142E+02 0.  0.
        -12    1    1    2    0    0 -0.40319885529E+02  0.11519408776E+02  0.11190769568E+02  0.43400728924E+02  0.00000000000E+00 0.  1.
         11    1    3    3    0    0  0.43384285774E+01 -0.25139233932E+01  0.47007709926E+00  0.50361439701E+01  0.51100000000E-03 0. -1.
        -11    1    3    3    0    0  0.84476681975E+01 -0.94600488276E+01 -0.79402074071E+01  0.14963372472E+02  0.51100000000E-03 0.  1.
        -12    1    3    3    0    0  0.27533788754E+02  0.45456344440E+00 -0.37206392601E+01  0.27787754634E+02  0.00000000000E+00 0.  1.
</event>
<event>
 7    1  0.2442667E-009  0.4778728E+02  0.7816164E-02  0.1312668E+00
        -11   -1    0    0    0    0  0.00000000000E+00  0.00000000000E+00  0.45593999997E+02  0.45594000000E+02  0.51100000000E-03 0. -1.
         11   -1    0    0    0    0 -0.00000000000E+00 -0.00000000000E+00 -0.45593999997E+02  0.45594000000E+02  0.51100000000E-03 0.  1.
    9900012    2    1    2    0    0 -0.14058876984E+02 -0.14465974307E+02  0.38427933113E+02  0.47787280213E+02  0.20000041804E+02 0.  0.
        -12    1    1    2    0    0  0.14058876984E+02  0.14465974307E+02 -0.38427933113E+02  0.43400719787E+02  0.00000000000E+00 0.  1.
         11    1    3    3    0    0 -0.85849991772E+01  0.28243459814E+01  0.14646321763E+02  0.17210284209E+02  0.51100000000E-03 0. -1.
        -11    1    3    3    0    0  0.12185363812E+00 -0.96708630611E+01  0.10512207309E+02  0.14284500111E+02  0.51100000000E-03 0.  1.
         12    1    3    3    0    0 -0.55957314448E+01 -0.76194572269E+01  0.13269404041E+02  0.16292495893E+02  0.00000000000E+00 0. -1.
</event>
<event>
 7    1  0.2442667E-009  0.4778727E+02  0.7816164E-02  0.1312668E+00
        -11   -1    0    0    0    0  0.00000000000E+00  0.00000000000E+00  0.45593999997E+02  0.45594000000E+02  0.51100000000E-03 0.  1.
         11   -1    0    0    0    0 -0.00000000000E+00 -0.00000000000E+00 -0.45593999997E+02  0.45594000000E+02  0.51100000000E-03 0. -1.
    9900012    2    1    2    0    0  0.18752084161E+02  0.72022229518E+01 -0.38472203433E+02  0.47787272900E+02  0.20000008460E+02 0.  0.
        -12    1    1    2    0    0 -0.18752084161E+02 -0.72022229518E+01  0.38472203433E+02  0.43400727100E+02  0.00000000000E+00 0.  1.
         11    1    3    3    0    0  0.92138567153E+01  0.80282170784E+01 -0.16238441514E+02  0.20323247971E+02  0.51100000000E-03 0. -1.
        -11    1    3    3    0    0  0.76427632530E+01 -0.63327130479E+01 -0.16720252346E+02  0.19444328825E+02  0.51100000000E-03 0.  1.
        -12    1    3    3    0    0  0.18954641924E+01  0.55067189214E+01 -0.55135095731E+01  0.80196961038E+01  0.00000000000E+00 0.  1.
</event>
<event>
 7    1  0.2442667E-009  0.4778724E+02  0.7816164E-02  0.1312668E+00
        -11   -1    0    0    0    0  0.00000000000E+00  0.00000000000E+00  0.45593999997E+02  0.45594000000E+02  0.51100000000E-03 0. -1.
         11   -1    0    0    0    0 -0.00000000000E+00 -0.00000000000E+00 -0.45593999997E+02  0.45594000000E+02  0.51100000000E-03 0.  1.
    9900012    2    1    2    0    0 -0.46536468616E+01  0.26708262117E+02  0.33891562100E+02  0.47787243371E+02  0.19999873824E+02 0.  0.
        -12    1    1    2    0    0  0.46536468616E+01 -0.26708262117E+02 -0.33891562100E+02  0.43400756629E+02  0.00000000000E+00 0.  1.
         11    1    3    3    0    0 -0.36922344805E+01  0.45709352376E+01  0.78635920556E+00  0.59282717099E+01  0.51100000000E-03 0. -1.
        -11    1    3    3    0    0  0.28090024002E+01  0.17278341135E+02  0.30527556894E+02  0.35190386429E+02  0.51100000000E-03 0.  1.
         12    1    3    3    0    0 -0.37704147812E+01  0.48589857443E+01  0.25776460001E+01  0.66685852314E+01  0.00000000000E+00 0. -1.
</event>
<event>
 7    1  0.2442667E-009  0.4778726E+02  0.7816164E-02  0.1312668E+00
        -11   -1    0    0    0    0  0.00000000000E+00  0.00000000000E+00  0.45593999997E+02  0.45594000000E+02  0.51100000000E-03 0.  1.
         11   -1    0    0    0    0 -0.00000000000E+00 -0.00000000000E+00 -0.45593999997E+02  0.45594000000E+02  0.51100000000E-03 0. -1.
    9900012    2    1    2    0    0 -0.67263242036E+01  0.38034770056E+02 -0.19792356944E+02  0.47787256183E+02  0.19999932239E+02 0.  0.
        -12    1    1    2    0    0  0.67263242036E+01 -0.38034770056E+02  0.19792356944E+02  0.43400743817E+02  0.00000000000E+00 0.  1.
         11    1    3    3    0    0 -0.85805819301E+00  0.47983470638E+01 -0.93939621655E+01  0.10583332360E+02  0.51100000000E-03 0. -1.
        -11    1    3    3    0    0 -0.50644436346E+01  0.28485350129E+02 -0.40199945506E+01  0.29210000304E+02  0.51100000000E-03 0.  1.
         12    1    3    3    0    0 -0.80382237597E+00  0.47510728631E+01 -0.63784002277E+01  0.79939235190E+01  0.00000000000E+00 0. -1.
</event>
<event>
 7    1  0.2442667E-009  0.4778726E+02  0.7816164E-02  0.1312668E+00
        -11   -1    0    0    0    0  0.00000000000E+00  0.00000000000E+00  0.45593999997E+02  0.45594000000E+02  0.51100000000E-03 0.  1.
         11   -1    0    0    0    0 -0.00000000000E+00 -0.00000000000E+00 -0.45593999997E+02  0.45594000000E+02  0.51100000000E-03 0. -1.
    9900012    2    1    2    0    0 -0.91884895422E+01  0.35496241773E+02 -0.23220953668E+02  0.47787260268E+02  0.19999950864E+02 0.  0.
        -12    1    1    2    0    0  0.91884895422E+01 -0.35496241773E+02  0.23220953668E+02  0.43400739732E+02  0.00000000000E+00 0.  1.
         11    1    3    3    0    0 -0.11797582730E+02  0.18123556780E+02 -0.15755690267E+02  0.26756084255E+02  0.51100000000E-03 0. -1.
        -11    1    3    3    0    0  0.37805414220E+01  0.14258532056E+02 -0.90914868327E+01  0.17327820490E+02  0.51100000000E-03 0.  1.
        -12    1    3    3    0    0 -0.11714482344E+01  0.31141529366E+01  0.16262234313E+01  0.37033555227E+01  0.00000000000E+00 0.  1.
</event>
<event>
 7    1  0.2442667E-009  0.4778727E+02  0.7816164E-02  0.1312668E+00
        -11   -1    0    0    0    0  0.00000000000E+00  0.00000000000E+00  0.45593999997E+02  0.45594000000E+02  0.51100000000E-03 0.  1.
         11   -1    0    0    0    0 -0.00000000000E+00 -0.00000000000E+00 -0.45593999997E+02  0.45594000000E+02  0.51100000000E-03 0. -1.
    9900012    2    1    2    0    0 -0.68229622215E+01  0.44470972287E+00 -0.42858752544E+02  0.47787271321E+02  0.20000001262E+02 0.  0.
        -12    1    1    2    0    0  0.68229622215E+01 -0.44470972287E+00  0.42858752544E+02  0.43400728679E+02  0.00000000000E+00 0.  1.
         11    1    3    3    0    0 -0.88489673123E+01 -0.20220943884E+01 -0.88596111837E+01  0.12684076584E+02  0.51100000000E-03 0. -1.
        -11    1    3    3    0    0  0.33981537420E+01 -0.17162339855E+01 -0.21891333738E+02  0.22219887511E+02  0.51100000000E-03 0.  1.
         12    1    3    3    0    0 -0.13721486513E+01  0.41830380968E+01 -0.12107807623E+02  0.12883307226E+02  0.00000000000E+00 0. -1.
</event>
<event>
 7    1  0.2442667E-009  0.4778727E+02  0.7816164E-02  0.1312668E+00
        -11   -1    0    0    0    0  0.00000000000E+00  0.00000000000E+00  0.45593999997E+02  0.45594000000E+02  0.51100000000E-03 0.  1.
         11   -1    0    0    0    0 -0.00000000000E+00 -0.00000000000E+00 -0.45593999997E+02  0.45594000000E+02  0.51100000000E-03 0. -1.
    9900012    2    1    2    0    0 -0.36458573752E+02 -0.14277349034E+02 -0.18723065473E+02  0.47787268713E+02  0.19999989372E+02 0.  0.
        -12    1    1    2    0    0  0.36458573752E+02  0.14277349034E+02  0.18723065473E+02  0.43400731287E+02  0.00000000000E+00 0.  1.
         11    1    3    3    0    0 -0.12209302586E+02 -0.55290394837E+01 -0.21629098627E+01  0.13576285449E+02  0.51100000000E-03 0. -1.
        -11    1    3    3    0    0 -0.10080711629E+02 -0.11044845760E+02 -0.11929309119E+02  0.19128977524E+02  0.51100000000E-03 0.  1.
        -12    1    3    3    0    0 -0.14168559537E+02  0.22965362096E+01 -0.46308464921E+01  0.15082005741E+02  0.00000000000E+00 0.  1.
</event>
<event>
 7    1  0.2442667E-009  0.4778727E+02  0.7816164E-02  0.1312668E+00
        -11   -1    0    0    0    0  0.00000000000E+00  0.00000000000E+00  0.45593999997E+02  0.45594000000E+02  0.51100000000E-03 0. -1.
         11   -1    0    0    0    0 -0.00000000000E+00 -0.00000000000E+00 -0.45593999997E+02  0.45594000000E+02  0.51100000000E-03 0.  1.
    9900012    2    1    2    0    0 -0.18099573187E+01  0.38788529218E+02  0.19385492536E+02  0.47787271144E+02  0.20000000454E+02 0.  0.
        -12    1    1    2    0    0  0.18099573187E+01 -0.38788529218E+02 -0.19385492536E+02  0.43400728856E+02  0.00000000000E+00 0.  1.
         11    1    3    3    0    0 -0.69974577926E+01  0.10012309632E+02  0.11602543522E+02  0.16847248326E+02  0.51100000000E-03 0. -1.
        -11    1    3    3    0    0  0.47473451003E+01  0.13532888301E+02  0.61455067800E+01  0.15602679421E+02  0.51100000000E-03 0.  1.
        -12    1    3    3    0    0  0.44015537365E+00  0.15243331284E+02  0.16374422341E+01  0.15337343396E+02  0.00000000000E+00 0.  1.
</event>
<event>
 7    1  0.2442667E-009  0.4778727E+02  0.7816164E-02  0.1312668E+00
        -11   -1    0    0    0    0  0.00000000000E+00  0.00000000000E+00  0.45593999997E+02  0.45594000000E+02  0.51100000000E-03 0.  1.
         11   -1    0    0    0    0 -0.00000000000E+00 -0.00000000000E+00 -0.45593999997E+02  0.45594000000E+02  0.51100000000E-03 0. -1.
    9900012    2    1    2    0    0 -0.25106005943E+02  0.32709753446E+02 -0.13541914512E+02  0.47787274734E+02  0.20000016824E+02 0.  0.
        -12    1    1    2    0    0  0.25106005943E+02 -0.32709753446E+02  0.13541914512E+02  0.43400725266E+02  0.00000000000E+00 0.  1.
         11    1    3    3    0    0 -0.26048283421E+02  0.22976519769E+02 -0.93306417545E+01  0.35965183243E+02  0.51100000000E-03 0. -1.
        -11    1    3    3    0    0  0.24340460876E+01  0.88821501964E+01 -0.41554540030E+01  0.10103710739E+02  0.51100000000E-03 0.  1.
        -12    1    3    3    0    0 -0.14917686097E+01  0.85108348105E+00 -0.55818754101E-01  0.17183807523E+01  0.00000000000E+00 0.  1.
</event>
<event>
 7    1  0.2442667E-009  0.4778728E+02  0.7816164E-02  0.1312668E+00
        -11   -1    0    0    0    0  0.00000000000E+00  0.00000000000E+00  0.45593999997E+02  0.45594000000E+02  0.51100000000E-03 0.  1.
         11   -1    0    0    0    0 -0.00000000000E+00 -0.00000000000E+00 -0.45593999997E+02  0.45594000000E+02  0.51100000000E-03 0. -1.
    9900012    2    1    2    0    0  0.42358354680E+01 -0.23891310813E+02 -0.35984517396E+02  0.47787279652E+02  0.20000039246E+02 0.  0.
        -12    1    1    2    0    0 -0.42358354680E+01  0.23891310813E+02  0.35984517396E+02  0.43400720348E+02  0.00000000000E+00 0.  1.
         11    1    3    3    0    0  0.69789343273E+00 -0.46884878719E+01 -0.16522844484E+02  0.17189338669E+02  0.51100000000E-03 0. -1.
        -11    1    3    3    0    0  0.40986475696E+00 -0.40302607601E+01  0.16820127446E+01  0.43863604558E+01  0.51100000000E-03 0.  1.
        -12    1    3    3    0    0  0.31280772783E+01 -0.15172562181E+02 -0.21143685657E+02  0.26211580528E+02  0.00000000000E+00 0.  1.
</event>
<event>
 7    1  0.2442667E-009  0.4778727E+02  0.7816164E-02  0.1312668E+00
        -11   -1    0    0    0    0  0.00000000000E+00  0.00000000000E+00  0.45593999997E+02  0.45594000000E+02  0.51100000000E-03 0.  1.
         11   -1    0    0    0    0 -0.00000000000E+00 -0.00000000000E+00 -0.45593999997E+02  0.45594000000E+02  0.51100000000E-03 0. -1.
    9900012    2    1    2    0    0 -0.34538080431E+02  0.25549321377E+02 -0.61625290064E+01  0.47787267443E+02  0.19999983580E+02 0.  0.
        -12    1    1    2    0    0  0.34538080431E+02 -0.25549321377E+02  0.61625290064E+01  0.43400732557E+02  0.00000000000E+00 0.  1.
         11    1    3    3    0    0 -0.31197994886E+01  0.47806848315E+01 -0.10015945913E+01  0.57957991937E+01  0.51100000000E-03 0. -1.
        -11    1    3    3    0    0 -0.28846748737E+02  0.19159525451E+02  0.15105388847E+01  0.34662718534E+02  0.51100000000E-03 0.  1.
        -12    1    3    3    0    0 -0.25715322063E+01  0.16091110948E+01 -0.66714732998E+01  0.73287497156E+01  0.00000000000E+00 0.  1.
</event>
<event>
 7    1  0.2442667E-009  0.4778727E+02  0.7816164E-02  0.1312668E+00
        -11   -1    0    0    0    0  0.00000000000E+00  0.00000000000E+00  0.45593999997E+02  0.45594000000E+02  0.51100000000E-03 0.  1.
         11   -1    0    0    0    0 -0.00000000000E+00 -0.00000000000E+00 -0.45593999997E+02  0.45594000000E+02  0.51100000000E-03 0. -1.
    9900012    2    1    2    0    0 -0.35659536850E+02 -0.20642252798E+02 -0.13635182640E+02  0.47787269884E+02  0.19999994710E+02 0.  0.
        -12    1    1    2    0    0  0.35659536850E+02  0.20642252798E+02  0.13635182640E+02  0.43400730116E+02  0.00000000000E+00 0.  1.
         11    1    3    3    0    0 -0.10887251718E+02  0.38057840155E+00 -0.82799622202E+01  0.13683379133E+02  0.51100000000E-03 0. -1.
        -11    1    3    3    0    0 -0.91302767646E+01 -0.10585533006E+02  0.15650234082E+01  0.14066440963E+02  0.51100000000E-03 0.  1.
         12    1    3    3    0    0 -0.15642008368E+02 -0.10437298193E+02 -0.69202438285E+01  0.20037449788E+02  0.00000000000E+00 0. -1.
</event>
<event>
 7    1  0.2442667E-009  0.4778727E+02  0.7816164E-02  0.1312668E+00
        -11   -1    0    0    0    0  0.00000000000E+00  0.00000000000E+00  0.45593999997E+02  0.45594000000E+02  0.51100000000E-03 0. -1.
         11   -1    0    0    0    0 -0.00000000000E+00 -0.00000000000E+00 -0.45593999997E+02  0.45594000000E+02  0.51100000000E-03 0.  1.
    9900012    2    1    2    0    0  0.12536826414E+02 -0.34536056489E+02  0.23102218510E+02  0.47787265969E+02  0.19999976859E+02 0.  0.
        -12    1    1    2    0    0 -0.12536826414E+02  0.34536056489E+02 -0.23102218510E+02  0.43400734031E+02  0.00000000000E+00 0.  1.
         11    1    3    3    0    0  0.12562861113E+02 -0.16468777487E+02  0.88097331336E+01  0.22509053943E+02  0.51100000000E-03 0. -1.
        -11    1    3    3    0    0 -0.32800844748E+01 -0.10808351230E+01  0.14962856015E+01  0.37637786315E+01  0.51100000000E-03 0.  1.
        -12    1    3    3    0    0  0.32540497754E+01 -0.16986443879E+02  0.12796199775E+02  0.21514433394E+02  0.00000000000E+00 0.  1.
</event>
<event>
 7    1  0.2442667E-009  0.4778727E+02  0.7816164E-02  0.1312668E+00
        -11   -1    0    0    0    0  0.00000000000E+00  0.00000000000E+00  0.45593999997E+02  0.45594000000E+02  0.51100000000E-03 0. -1.
         11   -1    0    0    0    0 -0.00000000000E+00 -0.00000000000E+00 -0.45593999997E+02  0.45594000000E+02  0.51100000000E-03 0.  1.
    9900012    2    1    2    0    0  0.23584526840E+02  0.32416044703E+02 -0.16631111021E+02  0.47787265971E+02  0.19999976866E+02 0.  0.
        -12    1    1    2    0    0 -0.23584526840E+02 -0.32416044703E+02  0.16631111021E+02  0.43400734029E+02  0.00000000000E+00 0.  1.
         11    1    3    3    0    0  0.10131440124E+02  0.17775495768E+02 -0.16580614490E+02  0.26334978752E+02  0.51100000000E-03 0. -1.
        -11    1    3    3    0    0  0.78725203493E+01  0.38135160592E+01  0.23047242825E+01  0.90460618870E+01  0.51100000000E-03 0.  1.
        -12    1    3    3    0    0  0.55805663668E+01  0.10827032877E+02 -0.23552208142E+01  0.12406225331E+02  0.00000000000E+00 0.  1.
</event>
<event>
 7    1  0.2442667E-009  0.4778727E+02  0.7816164E-02  0.1312668E+00
        -11   -1    0    0    0    0  0.00000000000E+00  0.00000000000E+00  0.45593999997E+02  0.45594000000E+02  0.51100000000E-03 0.  1.
         11   -1    0    0    0    0 -0.00000000000E+00 -0.00000000000E+00 -0.45593999997E+02  0.45594000000E+02  0.51100000000E-03 0. -1.
    9900012    2    1    2    0    0  0.79484718628E+01  0.47078522924E+01 -0.42406143412E+02  0.47787273310E+02  0.20000010330E+02 0.  0.
        -12    1    1    2    0    0 -0.79484718628E+01 -0.47078522924E+01  0.42406143412E+02  0.43400726690E+02  0.00000000000E+00 0.  1.
         11    1    3    3    0    0  0.48962338187E+01 -0.40345531357E+01 -0.89789210528E+01  0.10994168825E+02  0.51100000000E-03 0. -1.
        -11    1    3    3    0    0  0.22555491671E+01  0.11476570787E+02 -0.30689500254E+02  0.32842725300E+02  0.51100000000E-03 0.  1.
        -12    1    3    3    0    0  0.79668887701E+00 -0.27341653593E+01 -0.27377221053E+01  0.39503791849E+01  0.00000000000E+00 0.  1.
</event>
<event>
 7    1  0.2442667E-009  0.4778727E+02  0.7816164E-02  0.1312668E+00
        -11   -1    0    0    0    0  0.00000000000E+00  0.00000000000E+00  0.45593999997E+02  0.45594000000E+02  0.51100000000E-03 0. -1.
         11   -1    0    0    0    0 -0.00000000000E+00 -0.00000000000E+00 -0.45593999997E+02  0.45594000000E+02  0.51100000000E-03 0.  1.
    9900012    2    1    2    0    0  0.15970531675E+02  0.26159503318E+02 -0.30728582985E+02  0.47787270650E+02  0.19999998202E+02 0.  0.
        -12    1    1    2    0    0 -0.15970531675E+02 -0.26159503318E+02  0.30728582985E+02  0.43400729350E+02  0.00000000000E+00 0.  1.
         11    1    3    3    0    0  0.22717695149E+01  0.65326907823E+01  0.63182788264E+00  0.69452280251E+01  0.51100000000E-03 0. -1.
        -11    1    3    3    0    0  0.13647037865E+02  0.10983950265E+02 -0.20681982194E+02  0.27104117651E+02  0.51100000000E-03 0.  1.
         12    1    3    3    0    0  0.51724294364E-01  0.86428622708E+01 -0.10678428674E+02  0.13737924974E+02  0.00000000000E+00 0. -1.
</event>
<event>
 7    1  0.2442667E-009  0.4778727E+02  0.7816164E-02  0.1312668E+00
        -11   -1    0    0    0    0  0.00000000000E+00  0.00000000000E+00  0.45593999997E+02  0.45594000000E+02  0.51100000000E-03 0. -1.
         11   -1    0    0    0    0 -0.00000000000E+00 -0.00000000000E+00 -0.45593999997E+02  0.45594000000E+02  0.51100000000E-03 0.  1.
    9900012    2    1    2    0    0 -0.38849466361E+01 -0.42176844962E+02  0.94680657777E+01  0.47787270388E+02  0.19999997005E+02 0.  0.
        -12    1    1    2    0    0  0.38849466361E+01  0.42176844962E+02 -0.94680657777E+01  0.43400729612E+02  0.00000000000E+00 0.  1.
         11    1    3    3    0    0 -0.46665942220E+01 -0.17612319973E+02  0.11440877007E+02  0.21514287890E+02  0.51100000000E-03 0. -1.
        -11    1    3    3    0    0  0.32553329013E+00 -0.64577217974E+00 -0.22343303313E+01  0.23484518138E+01  0.51100000000E-03 0.  1.
         12    1    3    3    0    0  0.45611429576E+00 -0.23918752809E+02  0.26151910186E+00  0.23924530684E+02  0.00000000000E+00 0. -1.
</event>
<event>
 7    1  0.2442667E-009  0.4778727E+02  0.7816164E-02  0.1312668E+00
        -11   -1    0    0    0    0  0.00000000000E+00  0.00000000000E+00  0.45593999997E+02  0.45594000000E+02  0.51100000000E-03 0.  1.
         11   -1    0    0    0    0 -0.00000000000E+00 -0.00000000000E+00 -0.45593999997E+02  0.45594000000E+02  0.51100000000E-03 0. -1.
    9900012    2    1    2    0    0 -0.21063249543E+02 -0.95863359513E+01 -0.36716003521E+02  0.47787271517E+02  0.20000002154E+02 0.  0.
        -12    1    1    2    0    0  0.21063249543E+02  0.95863359513E+01  0.36716003521E+02  0.43400728483E+02  0.00000000000E+00 0.  1.
         11    1    3    3    0    0  0.78337326711E+00  0.25677508635E+01 -0.78763191526E+01  0.83212632350E+01  0.51100000000E-03 0. -1.
        -11    1    3    3    0    0 -0.18056052489E+02 -0.81007145954E+01 -0.15898671868E+02  0.25385239331E+02  0.51100000000E-03 0.  1.
        -12    1    3    3    0    0 -0.37905703208E+01 -0.40533722194E+01 -0.12941012501E+02  0.14080768951E+02  0.00000000000E+00 0.  1.
</event>
<event>
 7    1  0.2442667E-009  0.4778727E+02  0.7816164E-02  0.1312668E+00
        -11   -1    0    0    0    0  0.00000000000E+00  0.00000000000E+00  0.45593999997E+02  0.45594000000E+02  0.51100000000E-03 0. -1.
         11   -1    0    0    0    0 -0.00000000000E+00 -0.00000000000E+00 -0.45593999997E+02  0.45594000000E+02  0.51100000000E-03 0.  1.
    9900012    2    1    2    0    0  0.14766145301E+02 -0.34807046881E+02  0.21308545096E+02  0.47787266668E+02  0.19999980045E+02 0.  0.
        -12    1    1    2    0    0 -0.14766145301E+02  0.34807046881E+02 -0.21308545096E+02  0.43400733332E+02  0.00000000000E+00 0.  1.
         11    1    3    3    0    0  0.69974324271E+01 -0.24654279143E+02  0.18483063221E+02  0.31597803198E+02  0.51100000000E-03 0. -1.
        -11    1    3    3    0    0  0.30827427135E+01 -0.83511795469E+01 -0.21107763724E+01  0.91488184820E+01  0.51100000000E-03 0.  1.
         12    1    3    3    0    0  0.46859701608E+01 -0.18015881916E+01  0.49362582477E+01  0.70406449881E+01  0.00000000000E+00 0. -1.
</event>
<event>
 7    1  0.2442667E-009  0.4778728E+02  0.7816164E-02  0.1312668E+00
        -11   -1    0    0    0    0  0.00000000000E+00  0.00000000000E+00  0.45593999997E+02  0.45594000000E+02  0.51100000000E-03 0.  1.
         11   -1    0    0    0    0 -0.00000000000E+00 -0.00000000000E+00 -0.45593999997E+02  0.45594000000E+02  0.51100000000E-03 0. -1.
    9900012    2    1    2    0    0  0.28115427923E+02  0.28853488492E+02 -0.16143779245E+02  0.47787277727E+02  0.20000030470E+02 0.  0.
        -12    1    1    2    0    0 -0.28115427923E+02 -0.28853488492E+02  0.16143779245E+02  0.43400722273E+02  0.00000000000E+00 0.  1.
         11    1    3    3    0    0  0.12288532407E+02  0.13687443391E+02 -0.18051124778E+02  0.25772024393E+02  0.51100000000E-03 0. -1.
        -11    1    3    3    0    0  0.84054426515E+01  0.76076044080E+01  0.81447063830E+00  0.11366198735E+02  0.51100000000E-03 0.  1.
         12    1    3    3    0    0  0.74214528651E+01  0.75584406928E+01  0.10928748942E+01  0.10649054600E+02  0.00000000000E+00 0. -1.
</event>
<event>
 7    1  0.2442667E-009  0.4778727E+02  0.7816164E-02  0.1312668E+00
        -11   -1    0    0    0    0  0.00000000000E+00  0.00000000000E+00  0.45593999997E+02  0.45594000000E+02  0.51100000000E-03 0.  1.
         11   -1    0    0    0    0 -0.00000000000E+00 -0.00000000000E+00 -0.45593999997E+02  0.45594000000E+02  0.51100000000E-03 0. -1.
    9900012    2    1    2    0    0  0.99586394220E+01 -0.29013901961E+02 -0.30702477966E+02  0.47787272364E+02  0.20000006014E+02 0.  0.
        -12    1    1    2    0    0 -0.99586394220E+01  0.29013901961E+02  0.30702477966E+02  0.43400727636E+02  0.00000000000E+00 0.  1.
         11    1    3    3    0    0  0.54928384935E+01 -0.21569833117E+02 -0.18755333283E+02  0.29106554283E+02  0.51100000000E-03 0. -1.
        -11    1    3    3    0    0  0.57272489618E+01  0.66317533637E+00 -0.71186245507E+01  0.91605675562E+01  0.51100000000E-03 0.  1.
        -12    1    3    3    0    0 -0.12614480333E+01 -0.81072441801E+01 -0.48285201321E+01  0.95201505242E+01  0.00000000000E+00 0.  1.
</event>
<event>
 7    1  0.2442667E-009  0.4778725E+02  0.7816164E-02  0.1312668E+00
        -11   -1    0    0    0    0  0.00000000000E+00  0.00000000000E+00  0.45593999997E+02  0.45594000000E+02  0.51100000000E-03 0.  1.
         11   -1    0    0    0    0 -0.00000000000E+00 -0.00000000000E+00 -0.45593999997E+02  0.45594000000E+02  0.51100000000E-03 0. -1.
    9900012    2    1    2    0    0  0.10486438657E+02  0.40219040664E+02 -0.12493524731E+02  0.47787253603E+02  0.19999920477E+02 0.  0.
        -12    1    1    2    0    0 -0.10486438657E+02 -0.40219040664E+02  0.12493524731E+02  0.43400746397E+02  0.00000000000E+00 0.  1.
         11    1    3    3    0    0  0.55712025569E+01  0.10076956943E+02  0.33985254551E+01  0.12005554327E+02  0.51100000000E-03 0. -1.
        -11    1    3    3    0    0 -0.10916369088E+01  0.89757013120E+01 -0.89200126877E+01  0.12701240561E+02  0.51100000000E-03 0.  1.
         12    1    3    3    0    0  0.60068730089E+01  0.21166382409E+02 -0.69720374980E+01  0.23080458715E+02  0.00000000000E+00 0. -1.
</event>
<event>
 7    1  0.2442667E-009  0.4778728E+02  0.7816164E-02  0.1312668E+00
        -11   -1    0    0    0    0  0.00000000000E+00  0.00000000000E+00  0.45593999997E+02  0.45594000000E+02  0.51100000000E-03 0.  1.
         11   -1    0    0    0    0 -0.00000000000E+00 -0.00000000000E+00 -0.45593999997E+02  0.45594000000E+02  0.51100000000E-03 0. -1.
    9900012    2    1    2    0    0 -0.14043130230E+02 -0.15025180918E+02 -0.38218547036E+02  0.47787275285E+02  0.20000019334E+02 0.  0.
        -12    1    1    2    0    0  0.14043130230E+02  0.15025180918E+02  0.38218547036E+02  0.43400724715E+02  0.00000000000E+00 0.  1.
         11    1    3    3    0    0 -0.37636136479E+01  0.18169937545E+01 -0.28224737056E+01  0.50430756563E+01  0.51100000000E-03 0.  1.
        -11    1    3    3    0    0 -0.20717809358E+01 -0.11912760833E+02 -0.28458265409E+02  0.30920527441E+02  0.51100000000E-03 0. -1.
         12    1    3    3    0    0 -0.82077356464E+01 -0.49294138395E+01 -0.69378079211E+01  0.11823672187E+02  0.00000000000E+00 0. -1.
</event>
<event>
 7    1  0.2442667E-009  0.4778727E+02  0.7816164E-02  0.1312668E+00
        -11   -1    0    0    0    0  0.00000000000E+00  0.00000000000E+00  0.45593999997E+02  0.45594000000E+02  0.51100000000E-03 0.  1.
         11   -1    0    0    0    0 -0.00000000000E+00 -0.00000000000E+00 -0.45593999997E+02  0.45594000000E+02  0.51100000000E-03 0. -1.
    9900012    2    1    2    0    0 -0.39597996596E+02  0.14342761896E+02 -0.10483660483E+02  0.47787270855E+02  0.19999999134E+02 0.  0.
        -12    1    1    2    0    0  0.39597996596E+02 -0.14342761896E+02  0.10483660483E+02  0.43400729145E+02  0.00000000000E+00 0.  1.
         11    1    3    3    0    0 -0.31091060445E+02  0.60699800282E+01 -0.89986878693E+00  0.31690826136E+02  0.51100000000E-03 0. -1.
        -11    1    3    3    0    0 -0.18063812259E+01  0.56877917542E+00 -0.40780793945E+01  0.44963601605E+01  0.51100000000E-03 0.  1.
         12    1    3    3    0    0 -0.67005549254E+01  0.77040026925E+01 -0.55057123019E+01  0.11600084558E+02  0.00000000000E+00 0. -1.
</event>
<event>
 7    1  0.2442667E-009  0.4778726E+02  0.7816164E-02  0.1312668E+00
        -11   -1    0    0    0    0  0.00000000000E+00  0.00000000000E+00  0.45593999997E+02  0.45594000000E+02  0.51100000000E-03 0.  1.
         11   -1    0    0    0    0 -0.00000000000E+00 -0.00000000000E+00 -0.45593999997E+02  0.45594000000E+02  0.51100000000E-03 0. -1.
    9900012    2    1    2    0    0 -0.55094058140E+01 -0.59781902996E+01 -0.42632526936E+02  0.47787255022E+02  0.19999926948E+02 0.  0.
        -12    1    1    2    0    0  0.55094058140E+01  0.59781902996E+01  0.42632526936E+02  0.43400744978E+02  0.00000000000E+00 0.  1.
         11    1    3    3    0    0 -0.67119560765E+01 -0.39551072354E+01 -0.27983236728E+02  0.29047457129E+02  0.51100000000E-03 0. -1.
        -11    1    3    3    0    0 -0.62443710607E+00 -0.60203154122E+01 -0.40970463263E+01  0.73088924074E+01  0.51100000000E-03 0.  1.
         12    1    3    3    0    0  0.18269873686E+01  0.39972323480E+01 -0.10552243882E+02  0.11430905486E+02  0.00000000000E+00 0. -1.
</event>
<event>
 7    1  0.2442667E-009  0.4778727E+02  0.7816164E-02  0.1312668E+00
        -11   -1    0    0    0    0  0.00000000000E+00  0.00000000000E+00  0.45593999997E+02  0.45594000000E+02  0.51100000000E-03 0.  1.
         11   -1    0    0    0    0 -0.00000000000E+00 -0.00000000000E+00 -0.45593999997E+02  0.45594000000E+02  0.51100000000E-03 0. -1.
    9900012    2    1    2    0    0  0.17964997265E+01 -0.29753625031E+02 -0.31545486068E+02  0.47787270686E+02  0.19999998364E+02 0.  0.
        -12    1    1    2    0    0 -0.17964997265E+01  0.29753625031E+02  0.31545486068E+02  0.43400729314E+02  0.00000000000E+00 0.  1.
         11    1    3    3    0    0 -0.61308173059E+01 -0.13412863775E+02 -0.14569699955E+02  0.20730846402E+02  0.51100000000E-03 0. -1.
        -11    1    3    3    0    0  0.61282145723E+01 -0.64252780450E+01 -0.21597463884E+01  0.91380367980E+01  0.51100000000E-03 0.  1.
         12    1    3    3    0    0  0.17991024602E+01 -0.99154832105E+01 -0.14816039725E+02  0.17918387486E+02  0.00000000000E+00 0. -1.
</event>
<event>
 7    1  0.2442667E-009  0.4778728E+02  0.7816164E-02  0.1312668E+00
        -11   -1    0    0    0    0  0.00000000000E+00  0.00000000000E+00  0.45593999997E+02  0.45594000000E+02  0.51100000000E-03 0.  1.
         11   -1    0    0    0    0 -0.00000000000E+00 -0.00000000000E+00 -0.45593999997E+02  0.45594000000E+02  0.51100000000E-03 0. -1.
    9900012    2    1    2    0    0  0.14161670065E+02 -0.30327115766E+02 -0.27628532415E+02  0.47787278196E+02  0.20000032608E+02 0.  0.
        -12    1    1    2    0    0 -0.14161670065E+02  0.30327115766E+02  0.27628532415E+02  0.43400721804E+02  0.00000000000E+00 0.  1.
         11    1    3    3    0    0  0.68882826509E+01 -0.93515098752E+01 -0.11609047961E+02  0.16421606792E+02  0.51100000000E-03 0. -1.
        -11    1    3    3    0    0 -0.63514276172E+00 -0.13665707296E+02 -0.15370349491E+02  0.20576749159E+02  0.51100000000E-03 0.  1.
        -12    1    3    3    0    0  0.79085301760E+01 -0.73098985939E+01 -0.64913496353E+00  0.10788922245E+02  0.00000000000E+00 0.  1.
</event>
<event>
 7    1  0.2442667E-009  0.4778727E+02  0.7816164E-02  0.1312668E+00
        -11   -1    0    0    0    0  0.00000000000E+00  0.00000000000E+00  0.45593999997E+02  0.45594000000E+02  0.51100000000E-03 0.  1.
         11   -1    0    0    0    0 -0.00000000000E+00 -0.00000000000E+00 -0.45593999997E+02  0.45594000000E+02  0.51100000000E-03 0. -1.
    9900012    2    1    2    0    0  0.59279589393E+01  0.45397243713E+01 -0.42753633974E+02  0.47787274055E+02  0.20000013726E+02 0.  0.
        -12    1    1    2    0    0 -0.59279589393E+01 -0.45397243713E+01  0.42753633974E+02  0.43400725945E+02  0.00000000000E+00 0.  1.
         11    1    3    3    0    0 -0.17976765312E+01  0.11118255535E+01 -0.21952175562E+02  0.22053702845E+02  0.51100000000E-03 0. -1.
        -11    1    3    3    0    0  0.59555378642E+01  0.58647999991E+01 -0.51999114276E+01  0.98439519197E+01  0.51100000000E-03 0.  1.
        -12    1    3    3    0    0  0.17700976062E+01 -0.24369011813E+01 -0.15601546984E+02  0.15889619291E+02  0.00000000000E+00 0.  1.
</event>
<event>
 7    1  0.2442667E-009  0.4778727E+02  0.7816164E-02  0.1312668E+00
        -11   -1    0    0    0    0  0.00000000000E+00  0.00000000000E+00  0.45593999997E+02  0.45594000000E+02  0.51100000000E-03 0. -1.
         11   -1    0    0    0    0 -0.00000000000E+00 -0.00000000000E+00 -0.45593999997E+02  0.45594000000E+02  0.51100000000E-03 0.  1.
    9900012    2    1    2    0    0 -0.21942860554E+02 -0.10289666734E+02  0.36003566041E+02  0.47787272605E+02  0.20000007113E+02 0.  0.
        -12    1    1    2    0    0  0.21942860554E+02  0.10289666734E+02 -0.36003566041E+02  0.43400727395E+02  0.00000000000E+00 0.  1.
         11    1    3    3    0    0 -0.10977990718E+02 -0.10552801881E+02  0.23678148232E+02  0.28151955735E+02  0.51100000000E-03 0. -1.
        -11    1    3    3    0    0  0.75421746599E+00  0.18226556835E+01 -0.65454926880E+00  0.20783052550E+01  0.51100000000E-03 0.  1.
         12    1    3    3    0    0 -0.11719087302E+02 -0.15595205369E+01  0.12979967078E+02  0.17557011615E+02  0.00000000000E+00 0. -1.
</event>
<event>
 7    1  0.2442667E-009  0.4778727E+02  0.7816164E-02  0.1312668E+00
        -11   -1    0    0    0    0  0.00000000000E+00  0.00000000000E+00  0.45593999997E+02  0.45594000000E+02  0.51100000000E-03 0.  1.
         11   -1    0    0    0    0 -0.00000000000E+00 -0.00000000000E+00 -0.45593999997E+02  0.45594000000E+02  0.51100000000E-03 0. -1.
    9900012    2    1    2    0    0 -0.26800492218E+02 -0.12878692923E+02 -0.31614808957E+02  0.47787271205E+02  0.20000000732E+02 0.  0.
        -12    1    1    2    0    0  0.26800492218E+02  0.12878692923E+02  0.31614808957E+02  0.43400728795E+02  0.00000000000E+00 0.  1.
         11    1    3    3    0    0 -0.90997027155E+01  0.40965290930E+01 -0.85890199876E+01  0.13166525917E+02  0.51100000000E-03 0. -1.
        -11    1    3    3    0    0  0.76891430202E+00 -0.17482869723E+01 -0.19096341135E+01  0.27008219582E+01  0.51100000000E-03 0.  1.
         12    1    3    3    0    0 -0.18469703805E+02 -0.15226935044E+02 -0.21116154856E+02  0.31919923330E+02  0.00000000000E+00 0. -1.
</event>
<event>
 7    1  0.2442667E-009  0.4778727E+02  0.7816164E-02  0.1312668E+00
        -11   -1    0    0    0    0  0.00000000000E+00  0.00000000000E+00  0.45593999997E+02  0.45594000000E+02  0.51100000000E-03 0. -1.
         11   -1    0    0    0    0 -0.00000000000E+00 -0.00000000000E+00 -0.45593999997E+02  0.45594000000E+02  0.51100000000E-03 0.  1.
    9900012    2    1    2    0    0 -0.16300115107E+02 -0.35103909556E+02 -0.19637854028E+02  0.47787268100E+02  0.19999986576E+02 0.  0.
        -12    1    1    2    0    0  0.16300115107E+02  0.35103909556E+02  0.19637854028E+02  0.43400731900E+02  0.00000000000E+00 0.  1.
         11    1    3    3    0    0 -0.12239678893E+02 -0.75593655315E+01 -0.62550583962E+01  0.15686921382E+02  0.51100000000E-03 0. -1.
        -11    1    3    3    0    0 -0.57217577313E+01 -0.16263019252E+02 -0.11000984847E+02  0.20451062921E+02  0.51100000000E-03 0.  1.
         12    1    3    3    0    0  0.16613215177E+01 -0.11281524772E+02 -0.23818107852E+01  0.11649283797E+02  0.00000000000E+00 0. -1.
</event>
<event>
 7    1  0.2442667E-009  0.4778727E+02  0.7816164E-02  0.1312668E+00
        -11   -1    0    0    0    0  0.00000000000E+00  0.00000000000E+00  0.45593999997E+02  0.45594000000E+02  0.51100000000E-03 0.  1.
         11   -1    0    0    0    0 -0.00000000000E+00 -0.00000000000E+00 -0.45593999997E+02  0.45594000000E+02  0.51100000000E-03 0. -1.
    9900012    2    1    2    0    0 -0.11917384185E+02  0.37282112998E+02 -0.18752163259E+02  0.47787267030E+02  0.19999981698E+02 0.  0.
        -12    1    1    2    0    0  0.11917384185E+02 -0.37282112998E+02  0.18752163259E+02  0.43400732970E+02  0.00000000000E+00 0.  1.
         11    1    3    3    0    0 -0.43574539382E+01  0.79516513977E+01  0.10897509671E+00  0.90679678323E+01  0.51100000000E-03 0. -1.
        -11    1    3    3    0    0 -0.11413604494E+02  0.14479622467E+02 -0.11168778793E+02  0.21556239336E+02  0.51100000000E-03 0.  1.
        -12    1    3    3    0    0  0.38536742475E+01  0.14850839134E+02 -0.76923595629E+01  0.17163059862E+02  0.00000000000E+00 0.  1.
</event>
<event>
 7    1  0.2442667E-009  0.4778731E+02  0.7816164E-02  0.1312668E+00
        -11   -1    0    0    0    0  0.00000000000E+00  0.00000000000E+00  0.45593999997E+02  0.45594000000E+02  0.51100000000E-03 0. -1.
         11   -1    0    0    0    0 -0.00000000000E+00 -0.00000000000E+00 -0.45593999997E+02  0.45594000000E+02  0.51100000000E-03 0.  1.
    9900012    2    1    2    0    0  0.15056584407E+02 -0.23455884830E+01  0.40637633255E+02  0.47787311573E+02  0.20000184787E+02 0.  0.
        -12    1    1    2    0    0 -0.15056584407E+02  0.23455884830E+01 -0.40637633255E+02  0.43400688427E+02  0.00000000000E+00 0.  1.
         11    1    3    3    0    0 -0.67833412781E+00 -0.38406352528E+01  0.14610361864E+02  0.15121947309E+02  0.51100000000E-03 0. -1.
        -11    1    3    3    0    0 -0.97246018935E-01 -0.30551161279E+01  0.59994092108E+01  0.67332089291E+01  0.51100000000E-03 0.  1.
         12    1    3    3    0    0  0.15832164554E+02  0.45501628977E+01  0.20027862180E+02  0.25932155336E+02  0.00000000000E+00 0. -1.
</event>
<event>
 7    1  0.2442667E-009  0.4778727E+02  0.7816164E-02  0.1312668E+00
        -11   -1    0    0    0    0  0.00000000000E+00  0.00000000000E+00  0.45593999997E+02  0.45594000000E+02  0.51100000000E-03 0.  1.
         11   -1    0    0    0    0 -0.00000000000E+00 -0.00000000000E+00 -0.45593999997E+02  0.45594000000E+02  0.51100000000E-03 0. -1.
    9900012    2    1    2    0    0  0.36842579844E+02 -0.21004231760E+02 -0.92233191052E+01  0.47787273546E+02  0.20000011406E+02 0.  0.
        -12    1    1    2    0    0 -0.36842579844E+02  0.21004231760E+02  0.92233191052E+01  0.43400726454E+02  0.00000000000E+00 0.  1.
         11    1    3    3    0    0  0.27868286197E+02 -0.11728917166E+02 -0.95028924951E+01  0.31694066314E+02  0.51100000000E-03 0. -1.
        -11    1    3    3    0    0  0.21375967081E+01 -0.87549474047E+01  0.14788048763E+01  0.91326495536E+01  0.51100000000E-03 0.  1.
        -12    1    3    3    0    0  0.68366969385E+01 -0.52036718966E+00 -0.11992314865E+01  0.69605576788E+01  0.00000000000E+00 0.  1.
</event>
<event>
 7    1  0.2442667E-009  0.4778727E+02  0.7816164E-02  0.1312668E+00
        -11   -1    0    0    0    0  0.00000000000E+00  0.00000000000E+00  0.45593999997E+02  0.45594000000E+02  0.51100000000E-03 0.  1.
         11   -1    0    0    0    0 -0.00000000000E+00 -0.00000000000E+00 -0.45593999997E+02  0.45594000000E+02  0.51100000000E-03 0. -1.
    9900012    2    1    2    0    0 -0.42922325027E+02  0.56418297360E+01 -0.30768448004E+01  0.47787271867E+02  0.20000003752E+02 0.  0.
        -12    1    1    2    0    0  0.42922325027E+02 -0.56418297360E+01  0.30768448004E+01  0.43400728133E+02  0.00000000000E+00 0.  1.
         11    1    3    3    0    0 -0.13011504474E+02 -0.16969208717E+01 -0.77284931157E+01  0.15228538840E+02  0.51100000000E-03 0. -1.
        -11    1    3    3    0    0 -0.18586492608E+02  0.20472930644E+01  0.67585061982E+01  0.19882819786E+02  0.51100000000E-03 0.  1.
        -12    1    3    3    0    0 -0.11324327945E+02  0.52914575433E+01 -0.21068578829E+01  0.12675913241E+02  0.00000000000E+00 0.  1.
</event>
<event>
 7    1  0.2442667E-009  0.4778726E+02  0.7816164E-02  0.1312668E+00
        -11   -1    0    0    0    0  0.00000000000E+00  0.00000000000E+00  0.45593999997E+02  0.45594000000E+02  0.51100000000E-03 0. -1.
         11   -1    0    0    0    0 -0.00000000000E+00 -0.00000000000E+00 -0.45593999997E+02  0.45594000000E+02  0.51100000000E-03 0.  1.
    9900012    2    1    2    0    0  0.25897618308E+01  0.85510337758E+00  0.43314964147E+02  0.47787260523E+02  0.19999952026E+02 0.  0.
        -12    1    1    2    0    0 -0.25897618308E+01 -0.85510337758E+00 -0.43314964147E+02  0.43400739477E+02  0.00000000000E+00 0.  1.
         11    1    3    3    0    0 -0.63164100985E+00  0.52345787257E+01  0.38461969511E+02  0.38821680588E+02  0.51100000000E-03 0. -1.
        -11    1    3    3    0    0  0.17589090272E+01 -0.54237495524E+01  0.40697223385E+01  0.70052452024E+01  0.51100000000E-03 0.  1.
         12    1    3    3    0    0  0.14624938135E+01  0.10442742043E+01  0.78327229803E+00  0.19603347319E+01  0.00000000000E+00 0. -1.
</event>
<event>
 7    1  0.2442667E-009  0.4778728E+02  0.7816164E-02  0.1312668E+00
        -11   -1    0    0    0    0  0.00000000000E+00  0.00000000000E+00  0.45593999997E+02  0.45594000000E+02  0.51100000000E-03 0. -1.
         11   -1    0    0    0    0 -0.00000000000E+00 -0.00000000000E+00 -0.45593999997E+02  0.45594000000E+02  0.51100000000E-03 0.  1.
    9900012    2    1    2    0    0  0.27854057930E+01 -0.37708176353E+02  0.21306283836E+02  0.47787276732E+02  0.20000025931E+02 0.  0.
        -12    1    1    2    0    0 -0.27854057930E+01  0.37708176353E+02 -0.21306283836E+02  0.43400723268E+02  0.00000000000E+00 0.  1.
         11    1    3    3    0    0 -0.38340986956E+01 -0.79263013273E+01  0.44990056192E+01  0.98877508748E+01  0.51100000000E-03 0. -1.
        -11    1    3    3    0    0  0.10574537362E+02 -0.15915778385E+02  0.12564392539E+02  0.22869123335E+02  0.51100000000E-03 0.  1.
        -12    1    3    3    0    0 -0.39550328731E+01 -0.13866096641E+02  0.42428856786E+01  0.15030402522E+02  0.00000000000E+00 0.  1.
</event>
<event>
 7    1  0.2442667E-009  0.4778727E+02  0.7816164E-02  0.1312668E+00
        -11   -1    0    0    0    0  0.00000000000E+00  0.00000000000E+00  0.45593999997E+02  0.45594000000E+02  0.51100000000E-03 0.  1.
         11   -1    0    0    0    0 -0.00000000000E+00 -0.00000000000E+00 -0.45593999997E+02  0.45594000000E+02  0.51100000000E-03 0. -1.
    9900012    2    1    2    0    0  0.14755658239E+02 -0.18288471177E+02 -0.36488708393E+02  0.47787268805E+02  0.19999989789E+02 0.  0.
        -12    1    1    2    0    0 -0.14755658239E+02  0.18288471177E+02  0.36488708393E+02  0.43400731195E+02  0.00000000000E+00 0.  1.
         11    1    3    3    0    0  0.27452883063E+01  0.76804530233E+00 -0.76098136654E+01  0.81262393365E+01  0.51100000000E-03 0. -1.
        -11    1    3    3    0    0  0.12857621093E+02 -0.15348621432E+02 -0.29652730515E+02  0.35779645433E+02  0.51100000000E-03 0.  1.
        -12    1    3    3    0    0 -0.84725115995E+00 -0.37078950471E+01  0.77383578699E+00  0.38813840358E+01  0.00000000000E+00 0.  1.
</event>
<event>
 7    1  0.2442667E-009  0.4778727E+02  0.7816164E-02  0.1312668E+00
        -11   -1    0    0    0    0  0.00000000000E+00  0.00000000000E+00  0.45593999997E+02  0.45594000000E+02  0.51100000000E-03 0. -1.
         11   -1    0    0    0    0 -0.00000000000E+00 -0.00000000000E+00 -0.45593999997E+02  0.45594000000E+02  0.51100000000E-03 0.  1.
    9900012    2    1    2    0    0 -0.29368528585E+02  0.25944723517E+02  0.18654333807E+02  0.47787270520E+02  0.19999997608E+02 0.  0.
        -12    1    1    2    0    0  0.29368528585E+02 -0.25944723517E+02 -0.18654333807E+02  0.43400729480E+02  0.00000000000E+00 0.  1.
         11    1    3    3    0    0 -0.27016090600E+02  0.17709643324E+02  0.10457293187E+02  0.33953727321E+02  0.51100000000E-03 0. -1.
        -11    1    3    3    0    0 -0.11459011556E+01  0.71095916270E+01  0.93637965764E+01  0.11812707951E+02  0.51100000000E-03 0.  1.
         12    1    3    3    0    0 -0.12065368299E+01  0.11254885661E+01 -0.11667559563E+01  0.20208352471E+01  0.00000000000E+00 0. -1.
</event>
<event>
 7    1  0.2442667E-009  0.4778727E+02  0.7816164E-02  0.1312668E+00
        -11   -1    0    0    0    0  0.00000000000E+00  0.00000000000E+00  0.45593999997E+02  0.45594000000E+02  0.51100000000E-03 0.  1.
         11   -1    0    0    0    0 -0.00000000000E+00 -0.00000000000E+00 -0.45593999997E+02  0.45594000000E+02  0.51100000000E-03 0. -1.
    9900012    2    1    2    0    0  0.37788193141E+02 -0.42780421843E+01 -0.20913501326E+02  0.47787265865E+02  0.19999976385E+02 0.  0.
        -12    1    1    2    0    0 -0.37788193141E+02  0.42780421843E+01  0.20913501326E+02  0.43400734135E+02  0.00000000000E+00 0.  1.
         11    1    3    3    0    0  0.26983273038E+02 -0.34177686869E+01 -0.17827289171E+02  0.32520615094E+02  0.51100000000E-03 0. -1.
        -11    1    3    3    0    0 -0.95451757468E+00  0.24529131267E+01  0.12286586676E+00  0.26349540584E+01  0.51100000000E-03 0.  1.
         12    1    3    3    0    0  0.11759437677E+02 -0.33131866242E+01 -0.32090780215E+01  0.12631696713E+02  0.00000000000E+00 0. -1.
</event>
<event>
 7    1  0.2442667E-009  0.4778727E+02  0.7816164E-02  0.1312668E+00
        -11   -1    0    0    0    0  0.00000000000E+00  0.00000000000E+00  0.45593999997E+02  0.45594000000E+02  0.51100000000E-03 0.  1.
         11   -1    0    0    0    0 -0.00000000000E+00 -0.00000000000E+00 -0.45593999997E+02  0.45594000000E+02  0.51100000000E-03 0. -1.
    9900012    2    1    2    0    0 -0.52033221660E+01 -0.77284315557E+01 -0.42388918189E+02  0.47787267275E+02  0.19999982812E+02 0.  0.
        -12    1    1    2    0    0  0.52033221660E+01  0.77284315557E+01  0.42388918189E+02  0.43400732725E+02  0.00000000000E+00 0.  1.
         11    1    3    3    0    0 -0.41890512518E+01  0.19847734386E+01 -0.13233978237E+02  0.14022327062E+02  0.51100000000E-03 0. -1.
        -11    1    3    3    0    0 -0.48060947902E+01 -0.11762699421E+02 -0.22358478368E+02  0.25716943830E+02  0.51100000000E-03 0.  1.
        -12    1    3    3    0    0  0.37918238759E+01  0.20494944263E+01 -0.67964615843E+01  0.80479963827E+01  0.00000000000E+00 0.  1.
</event>
<event>
 7    1  0.2442667E-009  0.4778727E+02  0.7816164E-02  0.1312668E+00
        -11   -1    0    0    0    0  0.00000000000E+00  0.00000000000E+00  0.45593999997E+02  0.45594000000E+02  0.51100000000E-03 0.  1.
         11   -1    0    0    0    0 -0.00000000000E+00 -0.00000000000E+00 -0.45593999997E+02  0.45594000000E+02  0.51100000000E-03 0. -1.
    9900012    2    1    2    0    0 -0.41532341594E+02  0.67674902454E+00 -0.12578945832E+02  0.47787271137E+02  0.20000000424E+02 0.  0.
        -12    1    1    2    0    0  0.41532341594E+02 -0.67674902454E+00  0.12578945832E+02  0.43400728863E+02  0.00000000000E+00 0.  1.
         11    1    3    3    0    0 -0.15330858977E+02  0.34202487470E+01 -0.57724979513E+01  0.16734846020E+02  0.51100000000E-03 0. -1.
        -11    1    3    3    0    0 -0.21897932221E+02 -0.24198894806E+01  0.10850372701E+01  0.22057937501E+02  0.51100000000E-03 0.  1.
        -12    1    3    3    0    0 -0.43035503970E+01 -0.32361024193E+00 -0.78914851506E+01  0.89944876169E+01  0.00000000000E+00 0.  1.
</event>
<event>
 7    1  0.2442667E-009  0.4778727E+02  0.7816164E-02  0.1312668E+00
        -11   -1    0    0    0    0  0.00000000000E+00  0.00000000000E+00  0.45593999997E+02  0.45594000000E+02  0.51100000000E-03 0.  1.
         11   -1    0    0    0    0 -0.00000000000E+00 -0.00000000000E+00 -0.45593999997E+02  0.45594000000E+02  0.51100000000E-03 0. -1.
    9900012    2    1    2    0    0  0.16542956194E+02  0.29180132906E+02 -0.27540402901E+02  0.47787270191E+02  0.19999996107E+02 0.  0.
        -12    1    1    2    0    0 -0.16542956194E+02 -0.29180132906E+02  0.27540402901E+02  0.43400729809E+02  0.00000000000E+00 0.  1.
         11    1    3    3    0    0  0.61393623867E+01  0.14089256196E+02 -0.21327030898E+02  0.26287661704E+02  0.51100000000E-03 0. -1.
        -11    1    3    3    0    0  0.11355144464E+02  0.11834670435E+02 -0.72788734489E+01  0.17943821473E+02  0.51100000000E-03 0.  1.
         12    1    3    3    0    0 -0.95155065656E+00  0.32562062748E+01  0.10655014462E+01  0.35557870139E+01  0.00000000000E+00 0. -1.
</event>
<event>
 7    1  0.2442667E-009  0.4778728E+02  0.7816164E-02  0.1312668E+00
        -11   -1    0    0    0    0  0.00000000000E+00  0.00000000000E+00  0.45593999997E+02  0.45594000000E+02  0.51100000000E-03 0.  1.
         11   -1    0    0    0    0 -0.00000000000E+00 -0.00000000000E+00 -0.45593999997E+02  0.45594000000E+02  0.51100000000E-03 0. -1.
    9900012    2    1    2    0    0  0.36406540796E+02 -0.93980435385E+01  0.21676333630E+02  0.47787275643E+02  0.20000020966E+02 0.  0.
        -12    1    1    2    0    0 -0.36406540796E+02  0.93980435385E+01 -0.21676333630E+02  0.43400724357E+02  0.00000000000E+00 0.  1.
         11    1    3    3    0    0  0.11765344209E+02 -0.33490851036E+01 -0.19443520942E+01  0.12386290838E+02  0.51100000000E-03 0. -1.
        -11    1    3    3    0    0  0.11507833524E+02  0.58237396106E+00  0.12153103553E+02  0.16747158508E+02  0.51100000000E-03 0.  1.
         12    1    3    3    0    0  0.13133363063E+02 -0.66313323959E+01  0.11467582170E+02  0.18653826297E+02  0.00000000000E+00 0. -1.
</event>
<event>
 7    1  0.2442667E-009  0.4778728E+02  0.7816164E-02  0.1312668E+00
        -11   -1    0    0    0    0  0.00000000000E+00  0.00000000000E+00  0.45593999997E+02  0.45594000000E+02  0.51100000000E-03 0.  1.
         11   -1    0    0    0    0 -0.00000000000E+00 -0.00000000000E+00 -0.45593999997E+02  0.45594000000E+02  0.51100000000E-03 0. -1.
    9900012    2    1    2    0    0 -0.58836580530E+01  0.86344534297E+01 -0.42124236161E+02  0.47787280072E+02  0.20000041160E+02 0.  0.
        -12    1    1    2    0    0  0.58836580530E+01 -0.86344534297E+01  0.42124236161E+02  0.43400719928E+02  0.00000000000E+00 0.  1.
         11    1    3    3    0    0  0.28786839594E+01 -0.25368185102E+01 -0.14652343649E+02  0.15146400370E+02  0.51100000000E-03 0. -1.
        -11    1    3    3    0    0 -0.52381290957E+01  0.12731527102E+02 -0.21100381895E+02  0.25194362369E+02  0.51100000000E-03 0.  1.
        -12    1    3    3    0    0 -0.35242129168E+01 -0.15602551626E+01 -0.63715106168E+01  0.74465173333E+01  0.00000000000E+00 0.  1.
</event>
<event>
 7    1  0.2442667E-009  0.4778727E+02  0.7816164E-02  0.1312668E+00
        -11   -1    0    0    0    0  0.00000000000E+00  0.00000000000E+00  0.45593999997E+02  0.45594000000E+02  0.51100000000E-03 0.  1.
         11   -1    0    0    0    0 -0.00000000000E+00 -0.00000000000E+00 -0.45593999997E+02  0.45594000000E+02  0.51100000000E-03 0. -1.
    9900012    2    1    2    0    0  0.54541387489E+01  0.20388406062E+02 -0.37923453126E+02  0.47787273874E+02  0.20000012900E+02 0.  0.
        -12    1    1    2    0    0 -0.54541387489E+01 -0.20388406062E+02  0.37923453126E+02  0.43400726126E+02  0.00000000000E+00 0.  1.
         11    1    3    3    0    0  0.21675395280E+01  0.17467160447E+02 -0.19764890499E+02  0.26466031406E+02  0.51100000000E-03 0. -1.
        -11    1    3    3    0    0 -0.51988227201E+00 -0.94532712155E+00 -0.15008614070E+02  0.15047339217E+02  0.51100000000E-03 0.  1.
         12    1    3    3    0    0  0.38064814929E+01  0.38665727369E+01 -0.31499485569E+01  0.62739032505E+01  0.00000000000E+00 0. -1.
</event>
<event>
 7    1  0.2442667E-009  0.4778727E+02  0.7816164E-02  0.1312668E+00
        -11   -1    0    0    0    0  0.00000000000E+00  0.00000000000E+00  0.45593999997E+02  0.45594000000E+02  0.51100000000E-03 0. -1.
         11   -1    0    0    0    0 -0.00000000000E+00 -0.00000000000E+00 -0.45593999997E+02  0.45594000000E+02  0.51100000000E-03 0.  1.
    9900012    2    1    2    0    0 -0.26006790629E+02  0.34688412964E+02 -0.19960293719E+01  0.47787270905E+02  0.19999999362E+02 0.  0.
        -12    1    1    2    0    0  0.26006790629E+02 -0.34688412964E+02  0.19960293719E+01  0.43400729095E+02  0.00000000000E+00 0.  1.
         11    1    3    3    0    0 -0.78826855881E+00 -0.41747542424E+00 -0.34274005070E+01  0.35415713388E+01  0.51100000000E-03 0.  1.
        -11    1    3    3    0    0 -0.22133854096E+02  0.24016210769E+02  0.11848000313E+00  0.32660372236E+02  0.51100000000E-03 0. -1.
         12    1    3    3    0    0 -0.30846679739E+01  0.11089677619E+02  0.13128911320E+01  0.11585327329E+02  0.00000000000E+00 0. -1.
</event>
<event>
 7    1  0.2442667E-009  0.4778728E+02  0.7816164E-02  0.1312668E+00
        -11   -1    0    0    0    0  0.00000000000E+00  0.00000000000E+00  0.45593999997E+02  0.45594000000E+02  0.51100000000E-03 0.  1.
         11   -1    0    0    0    0 -0.00000000000E+00 -0.00000000000E+00 -0.45593999997E+02  0.45594000000E+02  0.51100000000E-03 0. -1.
    9900012    2    1    2    0    0  0.14580617423E+02 -0.22423103425E+02 -0.34179422686E+02  0.47787275273E+02  0.20000019280E+02 0.  0.
        -12    1    1    2    0    0 -0.14580617423E+02  0.22423103425E+02  0.34179422686E+02  0.43400724727E+02  0.00000000000E+00 0.  1.
         11    1    3    3    0    0  0.57855619632E+01 -0.14423602709E+02 -0.26286812749E+02  0.30537019617E+02  0.51100000000E-03 0. -1.
        -11    1    3    3    0    0  0.81965723843E+01 -0.10957223951E+01 -0.54445213939E+01  0.99008696531E+01  0.51100000000E-03 0.  1.
        -12    1    3    3    0    0  0.59848307516E+00 -0.69037783216E+01 -0.24480885437E+01  0.73493860031E+01  0.00000000000E+00 0.  1.
</event>
<event>
 7    1  0.2442667E-009  0.4778727E+02  0.7816164E-02  0.1312668E+00
        -11   -1    0    0    0    0  0.00000000000E+00  0.00000000000E+00  0.45593999997E+02  0.45594000000E+02  0.51100000000E-03 0.  1.
         11   -1    0    0    0    0 -0.00000000000E+00 -0.00000000000E+00 -0.45593999997E+02  0.45594000000E+02  0.51100000000E-03 0. -1.
    9900012    2    1    2    0    0 -0.12570936899E+02  0.20942654923E+02 -0.35874779867E+02  0.47787273275E+02  0.20000010170E+02 0.  0.
        -12    1    1    2    0    0  0.12570936899E+02 -0.20942654923E+02  0.35874779867E+02  0.43400726725E+02  0.00000000000E+00 0.  1.
         11    1    3    3    0    0 -0.11024312936E+02  0.14166498110E+02 -0.16565968983E+02  0.24426552623E+02  0.51100000000E-03 0. -1.
        -11    1    3    3    0    0  0.40077003393E+01  0.59334440459E+01 -0.80192987588E+01  0.10750654543E+02  0.51100000000E-03 0.  1.
        -12    1    3    3    0    0 -0.55543243016E+01  0.84271276738E+00 -0.11289512125E+02  0.12610066109E+02  0.00000000000E+00 0.  1.
</event>
<event>
 7    1  0.2442667E-009  0.4778725E+02  0.7816164E-02  0.1312668E+00
        -11   -1    0    0    0    0  0.00000000000E+00  0.00000000000E+00  0.45593999997E+02  0.45594000000E+02  0.51100000000E-03 0.  1.
         11   -1    0    0    0    0 -0.00000000000E+00 -0.00000000000E+00 -0.45593999997E+02  0.45594000000E+02  0.51100000000E-03 0. -1.
    9900012    2    1    2    0    0 -0.35832288678E+02  0.20427064147E+02 -0.13505819536E+02  0.47787250895E+02  0.19999908130E+02 0.  0.
        -12    1    1    2    0    0  0.35832288678E+02 -0.20427064147E+02  0.13505819536E+02  0.43400749105E+02  0.00000000000E+00 0.  1.
         11    1    3    3    0    0 -0.56340463560E+01  0.16760300581E+01 -0.27988908122E+01  0.65104028398E+01  0.51100000000E-03 0. -1.
        -11    1    3    3    0    0 -0.64794335128E+01  0.83270667387E+01 -0.11168799189E+02  0.15364412605E+02  0.51100000000E-03 0.  1.
        -12    1    3    3    0    0 -0.23718808809E+02  0.10423967350E+02  0.46187046474E+00  0.25912435450E+02  0.00000000000E+00 0.  1.
</event>
<event>
 7    1  0.2442667E-009  0.4778727E+02  0.7816164E-02  0.1312668E+00
        -11   -1    0    0    0    0  0.00000000000E+00  0.00000000000E+00  0.45593999997E+02  0.45594000000E+02  0.51100000000E-03 0.  1.
         11   -1    0    0    0    0 -0.00000000000E+00 -0.00000000000E+00 -0.45593999997E+02  0.45594000000E+02  0.51100000000E-03 0. -1.
    9900012    2    1    2    0    0 -0.83738323178E+01 -0.25103913137E+02 -0.34399068141E+02  0.47787269460E+02  0.19999992775E+02 0.  0.
        -12    1    1    2    0    0  0.83738323178E+01  0.25103913137E+02  0.34399068141E+02  0.43400730540E+02  0.00000000000E+00 0.  1.
         11    1    3    3    0    0  0.13364570808E+01 -0.16657677004E+02 -0.16027723541E+02  0.23154961517E+02  0.51100000000E-03 0. -1.
        -11    1    3    3    0    0 -0.93848003064E+01 -0.66019185692E+01 -0.77482795234E+01  0.13845419510E+02  0.51100000000E-03 0.  1.
        -12    1    3    3    0    0 -0.32548909217E+00 -0.18443175630E+01 -0.10623065077E+02  0.10786888432E+02  0.00000000000E+00 0.  1.
</event>
<event>
 7    1  0.2442667E-009  0.4778728E+02  0.7816164E-02  0.1312668E+00
        -11   -1    0    0    0    0  0.00000000000E+00  0.00000000000E+00  0.45593999997E+02  0.45594000000E+02  0.51100000000E-03 0.  1.
         11   -1    0    0    0    0 -0.00000000000E+00 -0.00000000000E+00 -0.45593999997E+02  0.45594000000E+02  0.51100000000E-03 0. -1.
    9900012    2    1    2    0    0 -0.70199967271E+01  0.42645060865E+02 -0.39675346485E+01  0.47787275335E+02  0.20000019563E+02 0.  0.
        -12    1    1    2    0    0  0.70199967271E+01 -0.42645060865E+02  0.39675346485E+01  0.43400724665E+02  0.00000000000E+00 0.  1.
         11    1    3    3    0    0 -0.78320247072E+01  0.36698998649E+02 -0.39952130555E+01  0.37737499129E+02  0.51100000000E-03 0. -1.
        -11    1    3    3    0    0  0.42867879354E+01  0.46762765016E+01  0.19061919996E+00  0.63466880074E+01  0.51100000000E-03 0.  1.
         12    1    3    3    0    0 -0.34747599553E+01  0.12697857147E+01 -0.16294079293E+00  0.37030881991E+01  0.00000000000E+00 0. -1.
</event>
<event>
 7    1  0.2442667E-009  0.4778728E+02  0.7816164E-02  0.1312668E+00
        -11   -1    0    0    0    0  0.00000000000E+00  0.00000000000E+00  0.45593999997E+02  0.45594000000E+02  0.51100000000E-03 0.  1.
         11   -1    0    0    0    0 -0.00000000000E+00 -0.00000000000E+00 -0.45593999997E+02  0.45594000000E+02  0.51100000000E-03 0. -1.
    9900012    2    1    2    0    0  0.18817151736E+02 -0.39092217983E+02  0.11559200045E+01  0.47787275843E+02  0.20000021878E+02 0.  0.
        -12    1    1    2    0    0 -0.18817151736E+02  0.39092217983E+02 -0.11559200045E+01  0.43400724157E+02  0.00000000000E+00 0.  1.
         11    1    3    3    0    0  0.37887030884E+01 -0.23831884882E+02 -0.43113621560E+01  0.24513279096E+02  0.51100000000E-03 0. -1.
        -11    1    3    3    0    0  0.58209829507E+01 -0.16333023754E+01  0.25941479470E+01  0.65788390308E+01  0.51100000000E-03 0.  1.
         12    1    3    3    0    0  0.92074656974E+01 -0.13627030725E+02  0.28731342135E+01  0.16695157716E+02  0.00000000000E+00 0. -1.
</event>
<event>
 7    1  0.2442667E-009  0.4778727E+02  0.7816164E-02  0.1312668E+00
        -11   -1    0    0    0    0  0.00000000000E+00  0.00000000000E+00  0.45593999997E+02  0.45594000000E+02  0.51100000000E-03 0.  1.
         11   -1    0    0    0    0 -0.00000000000E+00 -0.00000000000E+00 -0.45593999997E+02  0.45594000000E+02  0.51100000000E-03 0. -1.
    9900012    2    1    2    0    0 -0.42238130095E+02 -0.81040508499E+00 -0.99451953638E+01  0.47787270730E+02  0.19999998569E+02 0.  0.
        -12    1    1    2    0    0  0.42238130095E+02  0.81040508499E+00  0.99451953638E+01  0.43400729270E+02  0.00000000000E+00 0.  1.
         11    1    3    3    0    0 -0.63441397577E+01 -0.62840835371E+01 -0.27696988803E+01  0.93492805774E+01  0.51100000000E-03 0. -1.
        -11    1    3    3    0    0 -0.20004211457E+02  0.39388312446E+01  0.11749738623E+01  0.20422130923E+02  0.51100000000E-03 0.  1.
         12    1    3    3    0    0 -0.15889778880E+02  0.15348472076E+01 -0.83504703459E+01  0.18015859230E+02  0.00000000000E+00 0. -1.
</event>
<event>
 7    1  0.2442667E-009  0.4778727E+02  0.7816164E-02  0.1312668E+00
        -11   -1    0    0    0    0  0.00000000000E+00  0.00000000000E+00  0.45593999997E+02  0.45594000000E+02  0.51100000000E-03 0. -1.
         11   -1    0    0    0    0 -0.00000000000E+00 -0.00000000000E+00 -0.45593999997E+02  0.45594000000E+02  0.51100000000E-03 0.  1.
    9900012    2    1    2    0    0 -0.20690849964E+02  0.33969512158E+02  0.17366190106E+02  0.47787267434E+02  0.19999983539E+02 0.  0.
        -12    1    1    2    0    0  0.20690849964E+02 -0.33969512158E+02 -0.17366190106E+02  0.43400732566E+02  0.00000000000E+00 0.  1.
         11    1    3    3    0    0 -0.15575763775E+02  0.28299870760E+02  0.46897933924E+01  0.32641710503E+02  0.51100000000E-03 0. -1.
        -11    1    3    3    0    0 -0.50662516349E+01  0.36627145574E+01  0.90262838644E+01  0.10979808023E+02  0.51100000000E-03 0.  1.
         12    1    3    3    0    0 -0.48834553660E-01  0.20069268397E+01  0.36501128494E+01  0.41657489083E+01  0.00000000000E+00 0. -1.
</event>
<event>
 7    1  0.2442667E-009  0.4778727E+02  0.7816164E-02  0.1312668E+00
        -11   -1    0    0    0    0  0.00000000000E+00  0.00000000000E+00  0.45593999997E+02  0.45594000000E+02  0.51100000000E-03 0. -1.
         11   -1    0    0    0    0 -0.00000000000E+00 -0.00000000000E+00 -0.45593999997E+02  0.45594000000E+02  0.51100000000E-03 0.  1.
    9900012    2    1    2    0    0 -0.32037891835E+02 -0.21308684027E+02  0.20078265946E+02  0.47787270840E+02  0.19999999069E+02 0.  0.
        -12    1    1    2    0    0  0.32037891835E+02  0.21308684027E+02 -0.20078265946E+02  0.43400729160E+02  0.00000000000E+00 0.  1.
         11    1    3    3    0    0 -0.26700784438E+01  0.23643979785E+01 -0.84415838740E+00  0.36650102784E+01  0.51100000000E-03 0.  1.
        -11    1    3    3    0    0 -0.17819804057E+02 -0.14156304423E+02  0.17659961697E+02  0.28806607210E+02  0.51100000000E-03 0. -1.
        -12    1    3    3    0    0 -0.11548009334E+02 -0.95167775822E+01  0.32624626365E+01  0.15315653352E+02  0.00000000000E+00 0.  1.
</event>
<event>
 7    1  0.2442667E-009  0.4778727E+02  0.7816164E-02  0.1312668E+00
        -11   -1    0    0    0    0  0.00000000000E+00  0.00000000000E+00  0.45593999997E+02  0.45594000000E+02  0.51100000000E-03 0. -1.
         11   -1    0    0    0    0 -0.00000000000E+00 -0.00000000000E+00 -0.45593999997E+02  0.45594000000E+02  0.51100000000E-03 0.  1.
    9900012    2    1    2    0    0  0.33577128557E+02  0.53918206436E+01  0.26965311883E+02  0.47787270318E+02  0.19999996686E+02 0.  0.
        -12    1    1    2    0    0 -0.33577128557E+02 -0.53918206436E+01 -0.26965311883E+02  0.43400729682E+02  0.00000000000E+00 0.  1.
         11    1    3    3    0    0  0.97801855490E+01  0.32738827850E+01  0.10705166050E+01  0.10369008821E+02  0.51100000000E-03 0. -1.
        -11    1    3    3    0    0  0.23677319936E+02  0.22658041716E+01  0.27180673386E+02  0.36118393568E+02  0.51100000000E-03 0.  1.
        -12    1    3    3    0    0  0.11962307168E+00 -0.14786631293E+00 -0.12858781078E+01  0.12998679294E+01  0.00000000000E+00 0.  1.
</event>
<event>
 7    1  0.2442667E-009  0.4778727E+02  0.7816164E-02  0.1312668E+00
        -11   -1    0    0    0    0  0.00000000000E+00  0.00000000000E+00  0.45593999997E+02  0.45594000000E+02  0.51100000000E-03 0.  1.
         11   -1    0    0    0    0 -0.00000000000E+00 -0.00000000000E+00 -0.45593999997E+02  0.45594000000E+02  0.51100000000E-03 0. -1.
    9900012    2    1    2    0    0 -0.45602637455E+01 -0.21294811778E+02 -0.37541423435E+02  0.47787268582E+02  0.19999988773E+02 0.  0.
        -12    1    1    2    0    0  0.45602637455E+01  0.21294811778E+02  0.37541423435E+02  0.43400731418E+02  0.00000000000E+00 0.  1.
         11    1    3    3    0    0 -0.25713580079E+00 -0.10032859536E+02 -0.24937313706E+02  0.26881108690E+02  0.51100000000E-03 0. -1.
        -11    1    3    3    0    0  0.24749951444E+01 -0.12007031080E+01  0.76308166159E+00  0.28547474147E+01  0.51100000000E-03 0.  1.
         12    1    3    3    0    0 -0.67781230891E+01 -0.10061249134E+02 -0.13367191391E+02  0.18051412477E+02  0.00000000000E+00 0. -1.
</event>
<event>
 7    1  0.2442667E-009  0.4778726E+02  0.7816164E-02  0.1312668E+00
        -11   -1    0    0    0    0  0.00000000000E+00  0.00000000000E+00  0.45593999997E+02  0.45594000000E+02  0.51100000000E-03 0.  1.
         11   -1    0    0    0    0 -0.00000000000E+00 -0.00000000000E+00 -0.45593999997E+02  0.45594000000E+02  0.51100000000E-03 0. -1.
    9900012    2    1    2    0    0 -0.33743056069E+02 -0.26229388969E+02 -0.75530968951E+01  0.47787263241E+02  0.19999964419E+02 0.  0.
        -12    1    1    2    0    0  0.33743056069E+02  0.26229388969E+02  0.75530968951E+01  0.43400736759E+02  0.00000000000E+00 0.  1.
         11    1    3    3    0    0 -0.30440157364E+02 -0.24392827296E+02 -0.11597789704E+02  0.40695478006E+02  0.51100000000E-03 0. -1.
        -11    1    3    3    0    0  0.69171139008E+00  0.25642064484E+00 -0.33061731578E+00  0.80840847650E+00  0.51100000000E-03 0.  1.
         12    1    3    3    0    0 -0.39946100954E+01 -0.20929823176E+01  0.43753101251E+01  0.62833767583E+01  0.00000000000E+00 0. -1.
</event>
<event>
 7    1  0.2442667E-009  0.4778727E+02  0.7816164E-02  0.1312668E+00
        -11   -1    0    0    0    0  0.00000000000E+00  0.00000000000E+00  0.45593999997E+02  0.45594000000E+02  0.51100000000E-03 0.  1.
         11   -1    0    0    0    0 -0.00000000000E+00 -0.00000000000E+00 -0.45593999997E+02  0.45594000000E+02  0.51100000000E-03 0. -1.
    9900012    2    1    2    0    0 -0.21848691873E+02  0.33797301127E+02 -0.16248097291E+02  0.47787267683E+02  0.19999984676E+02 0.  0.
        -12    1    1    2    0    0  0.21848691873E+02 -0.33797301127E+02  0.16248097291E+02  0.43400732317E+02  0.00000000000E+00 0.  1.
         11    1    3    3    0    0 -0.42307232092E+01  0.19015116422E+02 -0.33263945967E+01  0.19762048798E+02  0.51100000000E-03 0. -1.
        -11    1    3    3    0    0 -0.37827233400E+01  0.62926441832E+00 -0.58760930249E+01  0.70166544074E+01  0.51100000000E-03 0.  1.
         12    1    3    3    0    0 -0.13835245324E+02  0.14152920286E+02 -0.70456096693E+01  0.21008564478E+02  0.00000000000E+00 0. -1.
</event>
<event>
 7    1  0.2442667E-009  0.4778727E+02  0.7816164E-02  0.1312668E+00
        -11   -1    0    0    0    0  0.00000000000E+00  0.00000000000E+00  0.45593999997E+02  0.45594000000E+02  0.51100000000E-03 0.  1.
         11   -1    0    0    0    0 -0.00000000000E+00 -0.00000000000E+00 -0.45593999997E+02  0.45594000000E+02  0.51100000000E-03 0. -1.
    9900012    2    1    2    0    0  0.10786434291E+02  0.37795639409E+02 -0.18405588676E+02  0.47787271693E+02  0.20000002957E+02 0.  0.
        -12    1    1    2    0    0 -0.10786434291E+02 -0.37795639409E+02  0.18405588676E+02  0.43400728307E+02  0.00000000000E+00 0.  1.
         11    1    3    3    0    0  0.36923437370E+01  0.79331181929E+01 -0.54264330108E+01  0.10296307203E+02  0.51100000000E-03 0. -1.
        -11    1    3    3    0    0 -0.32948533805E+01  0.22661817867E+01 -0.59644962551E+01  0.71810065122E+01  0.51100000000E-03 0.  1.
        -12    1    3    3    0    0  0.10388943934E+02  0.27596339430E+02 -0.70146594102E+01  0.30309957978E+02  0.00000000000E+00 0.  1.
</event>
<event>
 7    1  0.2442667E-009  0.4778728E+02  0.7816164E-02  0.1312668E+00
        -11   -1    0    0    0    0  0.00000000000E+00  0.00000000000E+00  0.45593999997E+02  0.45594000000E+02  0.51100000000E-03 0.  1.
         11   -1    0    0    0    0 -0.00000000000E+00 -0.00000000000E+00 -0.45593999997E+02  0.45594000000E+02  0.51100000000E-03 0. -1.
    9900012    2    1    2    0    0 -0.20047836566E+02 -0.36664651170E+02  0.11722205542E+02  0.47787279970E+02  0.20000040694E+02 0.  0.
        -12    1    1    2    0    0  0.20047836566E+02  0.36664651170E+02 -0.11722205542E+02  0.43400720030E+02  0.00000000000E+00 0.  1.
         11    1    3    3    0    0  0.39894312368E+00 -0.82707283495E+01  0.48336044697E+01  0.95879004729E+01  0.51100000000E-03 0. -1.
        -11    1    3    3    0    0 -0.12981440778E+02 -0.13777626800E+02 -0.28072775376E+01  0.19136917525E+02  0.51100000000E-03 0.  1.
        -12    1    3    3    0    0 -0.74653389118E+01 -0.14616296021E+02  0.96958786094E+01  0.19062461972E+02  0.00000000000E+00 0.  1.
</event>
<event>
 7    1  0.2442667E-009  0.4778727E+02  0.7816164E-02  0.1312668E+00
        -11   -1    0    0    0    0  0.00000000000E+00  0.00000000000E+00  0.45593999997E+02  0.45594000000E+02  0.51100000000E-03 0. -1.
         11   -1    0    0    0    0 -0.00000000000E+00 -0.00000000000E+00 -0.45593999997E+02  0.45594000000E+02  0.51100000000E-03 0.  1.
    9900012    2    1    2    0    0  0.54262683309E+01  0.39738956405E+02  0.16582953402E+02  0.47787269733E+02  0.19999994022E+02 0.  0.
        -12    1    1    2    0    0 -0.54262683309E+01 -0.39738956405E+02 -0.16582953402E+02  0.43400730267E+02  0.00000000000E+00 0.  1.
         11    1    3    3    0    0  0.18586329361E+01  0.34900602826E+02  0.11973660253E+02  0.36944216518E+02  0.51100000000E-03 0. -1.
        -11    1    3    3    0    0  0.26561832511E+01 -0.16346671065E+01  0.60442579355E+00  0.31769130951E+01  0.51100000000E-03 0.  1.
        -12    1    3    3    0    0  0.91145214365E+00  0.64730206856E+01  0.40048673560E+01  0.76661401204E+01  0.00000000000E+00 0.  1.
</event>
<event>
 7    1  0.2442667E-009  0.4778727E+02  0.7816164E-02  0.1312668E+00
        -11   -1    0    0    0    0  0.00000000000E+00  0.00000000000E+00  0.45593999997E+02  0.45594000000E+02  0.51100000000E-03 0.  1.
         11   -1    0    0    0    0 -0.00000000000E+00 -0.00000000000E+00 -0.45593999997E+02  0.45594000000E+02  0.51100000000E-03 0. -1.
    9900012    2    1    2    0    0  0.33930967563E+02  0.13889309937E+02 -0.23224980745E+02  0.47787271654E+02  0.20000002780E+02 0.  0.
        -12    1    1    2    0    0 -0.33930967563E+02 -0.13889309937E+02  0.23224980745E+02  0.43400728346E+02  0.00000000000E+00 0.  1.
         11    1    3    3    0    0  0.11290749688E+02  0.34841734650E+01 -0.73412068775E+00  0.11838894657E+02  0.51100000000E-03 0. -1.
        -11    1    3    3    0    0  0.68331729364E+01  0.47801456749E+01 -0.15838327276E+02  0.17899571397E+02  0.51100000000E-03 0.  1.
        -12    1    3    3    0    0  0.15807044939E+02  0.56249907976E+01 -0.66525327817E+01  0.18048805600E+02  0.00000000000E+00 0.  1.
</event>
<event>
 7    1  0.2442667E-009  0.4778727E+02  0.7816164E-02  0.1312668E+00
        -11   -1    0    0    0    0  0.00000000000E+00  0.00000000000E+00  0.45593999997E+02  0.45594000000E+02  0.51100000000E-03 0.  1.
         11   -1    0    0    0    0 -0.00000000000E+00 -0.00000000000E+00 -0.45593999997E+02  0.45594000000E+02  0.51100000000E-03 0. -1.
    9900012    2    1    2    0    0  0.16188978108E+02  0.22126549042E+02 -0.33644558011E+02  0.47787268803E+02  0.19999989779E+02 0.  0.
        -12    1    1    2    0    0 -0.16188978108E+02 -0.22126549042E+02  0.33644558011E+02  0.43400731197E+02  0.00000000000E+00 0.  1.
         11    1    3    3    0    0 -0.19412925621E+01  0.48552181502E+01 -0.95453540648E+01  0.10883728432E+02  0.51100000000E-03 0.  1.
        -11    1    3    3    0    0  0.15635235111E+02  0.18979335264E+02 -0.19426667622E+02  0.31338014602E+02  0.51100000000E-03 0. -1.
         12    1    3    3    0    0  0.24950355594E+01 -0.17080043724E+01 -0.46725363247E+01  0.55655257689E+01  0.00000000000E+00 0. -1.
</event>
<event>
 7    1  0.2442667E-009  0.4778727E+02  0.7816164E-02  0.1312668E+00
        -11   -1    0    0    0    0  0.00000000000E+00  0.00000000000E+00  0.45593999997E+02  0.45594000000E+02  0.51100000000E-03 0.  1.
         11   -1    0    0    0    0 -0.00000000000E+00 -0.00000000000E+00 -0.45593999997E+02  0.45594000000E+02  0.51100000000E-03 0. -1.
    9900012    2    1    2    0    0  0.33913881447E+02  0.13201795221E+01 -0.27050490583E+02  0.47787271094E+02  0.20000000227E+02 0.  0.
        -12    1    1    2    0    0 -0.33913881447E+02 -0.13201795221E+01  0.27050490583E+02  0.43400728906E+02  0.00000000000E+00 0.  1.
         11    1    3    3    0    0 -0.20985144632E+01 -0.90607031044E+00 -0.18097192836E+01  0.29154434494E+01  0.51100000000E-03 0. -1.
        -11    1    3    3    0    0  0.86021955950E+01 -0.19929665241E+01 -0.30115672595E+01  0.93294813489E+01  0.51100000000E-03 0.  1.
         12    1    3    3    0    0  0.27410200315E+02  0.42192163566E+01 -0.22229204040E+02  0.35542346296E+02  0.00000000000E+00 0. -1.
</event>
<event>
 7    1  0.2442667E-009  0.4778727E+02  0.7816164E-02  0.1312668E+00
        -11   -1    0    0    0    0  0.00000000000E+00  0.00000000000E+00  0.45593999997E+02  0.45594000000E+02  0.51100000000E-03 0.  1.
         11   -1    0    0    0    0 -0.00000000000E+00 -0.00000000000E+00 -0.45593999997E+02  0.45594000000E+02  0.51100000000E-03 0. -1.
    9900012    2    1    2    0    0 -0.36589059663E+02 -0.81440381435E+01 -0.21875523191E+02  0.47787272366E+02  0.20000006026E+02 0.  0.
        -12    1    1    2    0    0  0.36589059663E+02  0.81440381435E+01  0.21875523191E+02  0.43400727634E+02  0.00000000000E+00 0.  1.
         11    1    3    3    0    0 -0.56678400454E+00 -0.47447954235E+01 -0.30768769452E+01  0.56834408341E+01  0.51100000000E-03 0. -1.
        -11    1    3    3    0    0 -0.33475134215E+02 -0.37443533667E+01 -0.13641040442E+02  0.36341199450E+02  0.51100000000E-03 0.  1.
        -12    1    3    3    0    0 -0.25471414430E+01  0.34511064665E+00 -0.51576058037E+01  0.57626320822E+01  0.00000000000E+00 0.  1.
</event>
<event>
 7    1  0.2442667E-009  0.4778726E+02  0.7816164E-02  0.1312668E+00
        -11   -1    0    0    0    0  0.00000000000E+00  0.00000000000E+00  0.45593999997E+02  0.45594000000E+02  0.51100000000E-03 0.  1.
         11   -1    0    0    0    0 -0.00000000000E+00 -0.00000000000E+00 -0.45593999997E+02  0.45594000000E+02  0.51100000000E-03 0. -1.
    9900012    2    1    2    0    0 -0.32816256103E+02  0.10420685261E+01 -0.28383651305E+02  0.47787259996E+02  0.19999949628E+02 0.  0.
        -12    1    1    2    0    0  0.32816256103E+02 -0.10420685261E+01  0.28383651305E+02  0.43400740004E+02  0.00000000000E+00 0.  1.
         11    1    3    3    0    0 -0.24749896345E+02  0.52782915089E+01 -0.22238872621E+02  0.33689541197E+02  0.51100000000E-03 0. -1.
        -11    1    3    3    0    0 -0.42784326665E+01 -0.22579669601E+01  0.17303358512E+01  0.51378461727E+01  0.51100000000E-03 0.  1.
        -12    1    3    3    0    0 -0.37879270916E+01 -0.19782560227E+01 -0.78751145358E+01  0.89598726271E+01  0.00000000000E+00 0.  1.
</event>
<event>
 7    1  0.2442667E-009  0.4778727E+02  0.7816164E-02  0.1312668E+00
        -11   -1    0    0    0    0  0.00000000000E+00  0.00000000000E+00  0.45593999997E+02  0.45594000000E+02  0.51100000000E-03 0.  1.
         11   -1    0    0    0    0 -0.00000000000E+00 -0.00000000000E+00 -0.45593999997E+02  0.45594000000E+02  0.51100000000E-03 0. -1.
    9900012    2    1    2    0    0 -0.21472572297E+02 -0.36379538635E+02 -0.99539453706E+01  0.47787271656E+02  0.20000002789E+02 0.  0.
        -12    1    1    2    0    0  0.21472572297E+02  0.36379538635E+02  0.99539453706E+01  0.43400728344E+02  0.00000000000E+00 0.  1.
         11    1    3    3    0    0 -0.10979615227E+02 -0.18695934029E+02 -0.10065162936E+02  0.23903920284E+02  0.51100000000E-03 0. -1.
        -11    1    3    3    0    0 -0.29747126522E+00 -0.11389327325E+02  0.25033661741E+01  0.11664995008E+02  0.51100000000E-03 0.  1.
        -12    1    3    3    0    0 -0.10195485804E+02 -0.62942772802E+01 -0.23921486091E+01  0.12218356364E+02  0.00000000000E+00 0.  1.
</event>
<event>
 7    1  0.2442667E-009  0.4778727E+02  0.7816164E-02  0.1312668E+00
        -11   -1    0    0    0    0  0.00000000000E+00  0.00000000000E+00  0.45593999997E+02  0.45594000000E+02  0.51100000000E-03 0. -1.
         11   -1    0    0    0    0 -0.00000000000E+00 -0.00000000000E+00 -0.45593999997E+02  0.45594000000E+02  0.51100000000E-03 0.  1.
    9900012    2    1    2    0    0 -0.31171484767E+02  0.28085711134E+02  0.11097509561E+02  0.47787270157E+02  0.19999995954E+02 0.  0.
        -12    1    1    2    0    0  0.31171484767E+02 -0.28085711134E+02 -0.11097509561E+02  0.43400729843E+02  0.00000000000E+00 0.  1.
         11    1    3    3    0    0 -0.25954861676E+02  0.16876184490E+02  0.15035787144E+02  0.34417079232E+02  0.51100000000E-03 0. -1.
        -11    1    3    3    0    0 -0.11713957486E+01  0.60943909170E+01 -0.13319626443E+01  0.63472744856E+01  0.51100000000E-03 0.  1.
         12    1    3    3    0    0 -0.40452273420E+01  0.51151357270E+01 -0.26063149392E+01  0.70229164395E+01  0.00000000000E+00 0. -1.
</event>
<event>
 7    1  0.2442667E-009  0.4778726E+02  0.7816164E-02  0.1312668E+00
        -11   -1    0    0    0    0  0.00000000000E+00  0.00000000000E+00  0.45593999997E+02  0.45594000000E+02  0.51100000000E-03 0.  1.
         11   -1    0    0    0    0 -0.00000000000E+00 -0.00000000000E+00 -0.45593999997E+02  0.45594000000E+02  0.51100000000E-03 0. -1.
    9900012    2    1    2    0    0  0.20936568867E+02 -0.27821113353E+02 -0.25908873962E+02  0.47787262517E+02  0.19999961118E+02 0.  0.
        -12    1    1    2    0    0 -0.20936568867E+02  0.27821113353E+02  0.25908873962E+02  0.43400737483E+02  0.00000000000E+00 0.  1.
         11    1    3    3    0    0  0.13128298897E+02 -0.13068452940E+02 -0.22785672556E+02  0.29365346384E+02  0.51100000000E-03 0. -1.
        -11    1    3    3    0    0  0.34028315668E-01 -0.53034533122E+01  0.12121649051E+01  0.54403234260E+01  0.51100000000E-03 0.  1.
         12    1    3    3    0    0  0.77742416545E+01 -0.94492071015E+01 -0.43353663109E+01  0.12981592707E+02  0.00000000000E+00 0. -1.
</event>
<event>
 7    1  0.2442667E-009  0.4778728E+02  0.7816164E-02  0.1312668E+00
        -11   -1    0    0    0    0  0.00000000000E+00  0.00000000000E+00  0.45593999997E+02  0.45594000000E+02  0.51100000000E-03 0.  1.
         11   -1    0    0    0    0 -0.00000000000E+00 -0.00000000000E+00 -0.45593999997E+02  0.45594000000E+02  0.51100000000E-03 0. -1.
    9900012    2    1    2    0    0  0.16108758795E+02  0.38449008419E+02 -0.12074936971E+02  0.47787280407E+02  0.20000042688E+02 0.  0.
        -12    1    1    2    0    0 -0.16108758795E+02 -0.38449008419E+02  0.12074936971E+02  0.43400719593E+02  0.00000000000E+00 0.  1.
         11    1    3    3    0    0  0.33886360373E+01  0.55152279815E+01  0.19317720545E+01  0.67551711609E+01  0.51100000000E-03 0. -1.
        -11    1    3    3    0    0  0.12866571017E+02  0.11918263343E+02 -0.58406317716E+01  0.18485308507E+02  0.51100000000E-03 0.  1.
        -12    1    3    3    0    0 -0.14644825929E+00  0.21015517095E+02 -0.81660772539E+01  0.22546800739E+02  0.00000000000E+00 0.  1.
</event>
<event>
 7    1  0.2442667E-009  0.4778726E+02  0.7816164E-02  0.1312668E+00
        -11   -1    0    0    0    0  0.00000000000E+00  0.00000000000E+00  0.45593999997E+02  0.45594000000E+02  0.51100000000E-03 0.  1.
         11   -1    0    0    0    0 -0.00000000000E+00 -0.00000000000E+00 -0.45593999997E+02  0.45594000000E+02  0.51100000000E-03 0. -1.
    9900012    2    1    2    0    0 -0.34438736335E+02  0.26394748749E+02  0.95638245767E+00  0.47787262803E+02  0.19999962424E+02 0.  0.
        -12    1    1    2    0    0  0.34438736335E+02 -0.26394748749E+02 -0.95638245767E+00  0.43400737197E+02  0.00000000000E+00 0.  1.
         11    1    3    3    0    0 -0.25474386921E+02  0.98176657371E+01  0.27082837021E+01  0.27434754426E+02  0.51100000000E-03 0. -1.
        -11    1    3    3    0    0 -0.24758003494E+01  0.95748878805E+00  0.16146824102E+01  0.31070197451E+01  0.51100000000E-03 0.  1.
         12    1    3    3    0    0 -0.64885490644E+01  0.15619594223E+02 -0.33665836547E+01  0.17245488632E+02  0.00000000000E+00 0. -1.
</event>
<event>
 7    1  0.2442667E-009  0.4778728E+02  0.7816164E-02  0.1312668E+00
        -11   -1    0    0    0    0  0.00000000000E+00  0.00000000000E+00  0.45593999997E+02  0.45594000000E+02  0.51100000000E-03 0. -1.
         11   -1    0    0    0    0 -0.00000000000E+00 -0.00000000000E+00 -0.45593999997E+02  0.45594000000E+02  0.51100000000E-03 0.  1.
    9900012    2    1    2    0    0 -0.38817026688E+02 -0.54419699696E+01 -0.18634534290E+02  0.47787280348E+02  0.20000042419E+02 0.  0.
        -12    1    1    2    0    0  0.38817026688E+02  0.54419699696E+01  0.18634534290E+02  0.43400719652E+02  0.00000000000E+00 0.  1.
         11    1    3    3    0    0 -0.88316277745E+01 -0.22851121796E+01  0.28753495630E+01  0.95648848499E+01  0.51100000000E-03 0. -1.
        -11    1    3    3    0    0 -0.17271689887E+02 -0.27820578784E+01 -0.17835370475E+02  0.24983025394E+02  0.51100000000E-03 0.  1.
         12    1    3    3    0    0 -0.12713709027E+02 -0.37479991161E+00 -0.36745133787E+01  0.13239370105E+02  0.00000000000E+00 0. -1.
</event>
<event>
 7    1  0.2442667E-009  0.4778728E+02  0.7816164E-02  0.1312668E+00
        -11   -1    0    0    0    0  0.00000000000E+00  0.00000000000E+00  0.45593999997E+02  0.45594000000E+02  0.51100000000E-03 0.  1.
         11   -1    0    0    0    0 -0.00000000000E+00 -0.00000000000E+00 -0.45593999997E+02  0.45594000000E+02  0.51100000000E-03 0. -1.
    9900012    2    1    2    0    0 -0.39672938364E+02  0.32430678915E+01 -0.17296329945E+02  0.47787279299E+02  0.20000037636E+02 0.  0.
        -12    1    1    2    0    0  0.39672938364E+02 -0.32430678915E+01  0.17296329945E+02  0.43400720701E+02  0.00000000000E+00 0.  1.
         11    1    3    3    0    0 -0.38021108668E+02  0.56920372873E+01 -0.12529249317E+02  0.40434961129E+02  0.51100000000E-03 0. -1.
        -11    1    3    3    0    0  0.31476118920E+00 -0.38146822606E+00 -0.44544453641E+01  0.44818161918E+01  0.51100000000E-03 0.  1.
         12    1    3    3    0    0 -0.19665908856E+01 -0.20675011698E+01 -0.31263526408E+00  0.28705019782E+01  0.00000000000E+00 0. -1.
</event>
<event>
 7    1  0.2442667E-009  0.4778727E+02  0.7816164E-02  0.1312668E+00
        -11   -1    0    0    0    0  0.00000000000E+00  0.00000000000E+00  0.45593999997E+02  0.45594000000E+02  0.51100000000E-03 0.  1.
         11   -1    0    0    0    0 -0.00000000000E+00 -0.00000000000E+00 -0.45593999997E+02  0.45594000000E+02  0.51100000000E-03 0. -1.
    9900012    2    1    2    0    0  0.28811957301E+02  0.25424936276E+02 -0.20175910125E+02  0.47787267086E+02  0.19999981950E+02 0.  0.
        -12    1    1    2    0    0 -0.28811957301E+02 -0.25424936276E+02  0.20175910125E+02  0.43400732914E+02  0.00000000000E+00 0.  1.
         11    1    3    3    0    0  0.15759023584E+02  0.57436806600E+01 -0.49360661917E+01  0.17484319877E+02  0.51100000000E-03 0. -1.
        -11    1    3    3    0    0  0.57075958356E+01  0.16696529608E+02 -0.73411255463E+01  0.19111328466E+02  0.51100000000E-03 0.  1.
        -12    1    3    3    0    0  0.73453378817E+01  0.29847260071E+01 -0.78987183870E+01  0.11191618743E+02  0.00000000000E+00 0.  1.
</event>
<event>
 7    1  0.2442667E-009  0.4778727E+02  0.7816164E-02  0.1312668E+00
        -11   -1    0    0    0    0  0.00000000000E+00  0.00000000000E+00  0.45593999997E+02  0.45594000000E+02  0.51100000000E-03 0.  1.
         11   -1    0    0    0    0 -0.00000000000E+00 -0.00000000000E+00 -0.45593999997E+02  0.45594000000E+02  0.51100000000E-03 0. -1.
    9900012    2    1    2    0    0  0.19273886119E+02 -0.31451787288E+02 -0.22867569850E+02  0.47787270046E+02  0.19999995446E+02 0.  0.
        -12    1    1    2    0    0 -0.19273886119E+02  0.31451787288E+02  0.22867569850E+02  0.43400729954E+02  0.00000000000E+00 0.  1.
         11    1    3    3    0    0  0.31332516199E+01 -0.60832866470E+01 -0.64697602616E+01  0.94170823639E+01  0.51100000000E-03 0. -1.
        -11    1    3    3    0    0  0.14281188944E+02 -0.26714985226E+02 -0.18297942626E+02  0.35390076263E+02  0.51100000000E-03 0.  1.
        -12    1    3    3    0    0  0.18594455551E+01  0.13464845848E+01  0.19001330377E+01  0.29801114192E+01  0.00000000000E+00 0.  1.
</event>
<event>
 7    1  0.2442667E-009  0.4778729E+02  0.7816164E-02  0.1312668E+00
        -11   -1    0    0    0    0  0.00000000000E+00  0.00000000000E+00  0.45593999997E+02  0.45594000000E+02  0.51100000000E-03 0.  1.
         11   -1    0    0    0    0 -0.00000000000E+00 -0.00000000000E+00 -0.45593999997E+02  0.45594000000E+02  0.51100000000E-03 0. -1.
    9900012    2    1    2    0    0 -0.41741452203E+02  0.97233032184E+01  0.68359194878E+01  0.47787294329E+02  0.20000106165E+02 0.  0.
        -12    1    1    2    0    0  0.41741452203E+02 -0.97233032184E+01 -0.68359194878E+01  0.43400705671E+02  0.00000000000E+00 0.  1.
         11    1    3    3    0    0 -0.69752957191E+00 -0.93648564321E+00 -0.92025451138E+00  0.14867486306E+01  0.51100000000E-03 0. -1.
        -11    1    3    3    0    0 -0.31455362837E+01  0.74181094508E+00  0.63213858585E+01  0.70996198084E+01  0.51100000000E-03 0.  1.
        -12    1    3    3    0    0 -0.37898386347E+02  0.99179779165E+01  0.14347881407E+01  0.39200925890E+02  0.00000000000E+00 0.  1.
</event>
<event>
 7    1  0.2442667E-009  0.4778727E+02  0.7816164E-02  0.1312668E+00
        -11   -1    0    0    0    0  0.00000000000E+00  0.00000000000E+00  0.45593999997E+02  0.45594000000E+02  0.51100000000E-03 0.  1.
         11   -1    0    0    0    0 -0.00000000000E+00 -0.00000000000E+00 -0.45593999997E+02  0.45594000000E+02  0.51100000000E-03 0. -1.
    9900012    2    1    2    0    0  0.18995345665E+02  0.38596771869E+02  0.57523302417E+01  0.47787271218E+02  0.20000000790E+02 0.  0.
        -12    1    1    2    0    0 -0.18995345665E+02 -0.38596771869E+02 -0.57523302417E+01  0.43400728782E+02  0.00000000000E+00 0.  1.
         11    1    3    3    0    0 -0.17702997858E+01  0.16825287009E+02  0.40263362638E+00  0.16922953594E+02  0.51100000000E-03 0. -1.
        -11    1    3    3    0    0  0.16474398072E+02  0.14475092352E+02  0.40254976662E+01  0.22296607862E+02  0.51100000000E-03 0.  1.
         12    1    3    3    0    0  0.42912473789E+01  0.72963925077E+01  0.13241989491E+01  0.85677097611E+01  0.00000000000E+00 0. -1.
</event>
<event>
 7    1  0.2442667E-009  0.4778728E+02  0.7816164E-02  0.1312668E+00
        -11   -1    0    0    0    0  0.00000000000E+00  0.00000000000E+00  0.45593999997E+02  0.45594000000E+02  0.51100000000E-03 0.  1.
         11   -1    0    0    0    0 -0.00000000000E+00 -0.00000000000E+00 -0.45593999997E+02  0.45594000000E+02  0.51100000000E-03 0. -1.
    9900012    2    1    2    0    0 -0.11326657939E+02 -0.41732897196E+02 -0.37006691060E+01  0.47787276040E+02  0.20000022775E+02 0.  0.
        -12    1    1    2    0    0  0.11326657939E+02  0.41732897196E+02  0.37006691060E+01  0.43400723960E+02  0.00000000000E+00 0.  1.
         11    1    3    3    0    0 -0.81221329414E+01 -0.33128691590E+02 -0.67970415501E+01  0.34780440252E+02  0.51100000000E-03 0. -1.
        -11    1    3    3    0    0  0.23169071113E+01 -0.15394461850E+01  0.29281566182E+01  0.40388184610E+01  0.51100000000E-03 0.  1.
        -12    1    3    3    0    0 -0.55214321094E+01 -0.70647594208E+01  0.16821582581E+00  0.89680173270E+01  0.00000000000E+00 0.  1.
</event>
<event>
 7    1  0.2442667E-009  0.4778727E+02  0.7816164E-02  0.1312668E+00
        -11   -1    0    0    0    0  0.00000000000E+00  0.00000000000E+00  0.45593999997E+02  0.45594000000E+02  0.51100000000E-03 0.  1.
         11   -1    0    0    0    0 -0.00000000000E+00 -0.00000000000E+00 -0.45593999997E+02  0.45594000000E+02  0.51100000000E-03 0. -1.
    9900012    2    1    2    0    0  0.18945318792E+02 -0.37241391151E+02 -0.11737847123E+02  0.47787269890E+02  0.19999994737E+02 0.  0.
        -12    1    1    2    0    0 -0.18945318792E+02  0.37241391151E+02  0.11737847123E+02  0.43400730110E+02  0.00000000000E+00 0.  1.
         11    1    3    3    0    0  0.10780314778E+02 -0.19974718201E+02 -0.15449480181E+01  0.22750635564E+02  0.51100000000E-03 0. -1.
        -11    1    3    3    0    0  0.48863658349E+01 -0.39443454660E+01 -0.93861428127E+01  0.11293100079E+02  0.51100000000E-03 0.  1.
        -12    1    3    3    0    0  0.32786381787E+01 -0.13322327484E+02 -0.80675629229E+00  0.13743534248E+02  0.00000000000E+00 0.  1.
</event>
<event>
 7    1  0.2442667E-009  0.4778727E+02  0.7816164E-02  0.1312668E+00
        -11   -1    0    0    0    0  0.00000000000E+00  0.00000000000E+00  0.45593999997E+02  0.45594000000E+02  0.51100000000E-03 0. -1.
         11   -1    0    0    0    0 -0.00000000000E+00 -0.00000000000E+00 -0.45593999997E+02  0.45594000000E+02  0.51100000000E-03 0.  1.
    9900012    2    1    2    0    0 -0.96622814694E+01 -0.39988745228E+02  0.13826193889E+02  0.47787273444E+02  0.20000010941E+02 0.  0.
        -12    1    1    2    0    0  0.96622814694E+01  0.39988745228E+02 -0.13826193889E+02  0.43400726556E+02  0.00000000000E+00 0.  1.
         11    1    3    3    0    0  0.49968242907E+01 -0.17148637132E+02  0.16753475444E+01  0.17940200616E+02  0.51100000000E-03 0. -1.
        -11    1    3    3    0    0 -0.12840296919E+02 -0.20008414593E+02  0.96676536337E+01  0.25664633381E+02  0.51100000000E-03 0.  1.
         12    1    3    3    0    0 -0.18188088406E+01 -0.28316935024E+01  0.24831927112E+01  0.41824394474E+01  0.00000000000E+00 0. -1.
</event>
<event>
 7    1  0.2442667E-009  0.4778727E+02  0.7816164E-02  0.1312668E+00
        -11   -1    0    0    0    0  0.00000000000E+00  0.00000000000E+00  0.45593999997E+02  0.45594000000E+02  0.51100000000E-03 0.  1.
         11   -1    0    0    0    0 -0.00000000000E+00 -0.00000000000E+00 -0.45593999997E+02  0.45594000000E+02  0.51100000000E-03 0. -1.
    9900012    2    1    2    0    0  0.29443610981E+02 -0.96743622819E+01 -0.30382628350E+02  0.47787267072E+02  0.19999981890E+02 0.  0.
        -12    1    1    2    0    0 -0.29443610981E+02  0.96743622819E+01  0.30382628350E+02  0.43400732928E+02  0.00000000000E+00 0.  1.
         11    1    3    3    0    0  0.67223440490E+01 -0.19962953544E+00 -0.18297362286E+02  0.19494184475E+02  0.51100000000E-03 0. -1.
        -11    1    3    3    0    0  0.92391723110E+01 -0.51167774772E+01 -0.16350488886E+01  0.10687240143E+02  0.51100000000E-03 0.  1.
        -12    1    3    3    0    0  0.13482094621E+02 -0.43579552692E+01 -0.10450217175E+02  0.17605842454E+02  0.00000000000E+00 0.  1.
</event>
<event>
 7    1  0.2442667E-009  0.4778722E+02  0.7816164E-02  0.1312668E+00
        -11   -1    0    0    0    0  0.00000000000E+00  0.00000000000E+00  0.45593999997E+02  0.45594000000E+02  0.51100000000E-03 0.  1.
         11   -1    0    0    0    0 -0.00000000000E+00 -0.00000000000E+00 -0.45593999997E+02  0.45594000000E+02  0.51100000000E-03 0. -1.
    9900012    2    1    2    0    0  0.32004163988E+02 -0.47754567655E+01 -0.28923275109E+02  0.47787224167E+02  0.19999786264E+02 0.  0.
        -12    1    1    2    0    0 -0.32004163988E+02  0.47754567655E+01  0.28923275109E+02  0.43400775833E+02  0.00000000000E+00 0.  1.
         11    1    3    3    0    0  0.66671014517E+01  0.18376585187E+01 -0.15568273260E+02  0.17035209513E+02  0.51100000000E-03 0. -1.
        -11    1    3    3    0    0  0.36309165103E+00 -0.18547536173E+01  0.26799424009E+00  0.19088655537E+01  0.51100000000E-03 0.  1.
         12    1    3    3    0    0  0.24973970886E+02 -0.47583616668E+01 -0.13622996089E+02  0.28843149100E+02  0.00000000000E+00 0. -1.
</event>
<event>
 7    1  0.2442667E-009  0.4778727E+02  0.7816164E-02  0.1312668E+00
        -11   -1    0    0    0    0  0.00000000000E+00  0.00000000000E+00  0.45593999997E+02  0.45594000000E+02  0.51100000000E-03 0. -1.
         11   -1    0    0    0    0 -0.00000000000E+00 -0.00000000000E+00 -0.45593999997E+02  0.45594000000E+02  0.51100000000E-03 0.  1.
    9900012    2    1    2    0    0 -0.31567735669E+01  0.34180756224E+02 -0.26558121722E+02  0.47787272531E+02  0.20000006779E+02 0.  0.
        -12    1    1    2    0    0  0.31567735669E+01 -0.34180756224E+02  0.26558121722E+02  0.43400727469E+02  0.00000000000E+00 0.  1.
         11    1    3    3    0    0  0.39438847914E+01  0.15759113546E+02 -0.39526518536E+01  0.16719071264E+02  0.51100000000E-03 0. -1.
        -11    1    3    3    0    0 -0.96835642196E-01  0.66206346858E+01 -0.12072389885E+02  0.13768978850E+02  0.51100000000E-03 0.  1.
         12    1    3    3    0    0 -0.70038227162E+01  0.11801007992E+02 -0.10533079984E+02  0.17299222416E+02  0.00000000000E+00 0. -1.
</event>
<event>
 7    1  0.2442667E-009  0.4778727E+02  0.7816164E-02  0.1312668E+00
        -11   -1    0    0    0    0  0.00000000000E+00  0.00000000000E+00  0.45593999997E+02  0.45594000000E+02  0.51100000000E-03 0. -1.
         11   -1    0    0    0    0 -0.00000000000E+00 -0.00000000000E+00 -0.45593999997E+02  0.45594000000E+02  0.51100000000E-03 0.  1.
    9900012    2    1    2    0    0 -0.37803430436E+02  0.22493351080E+01  0.21200572666E+02  0.47787272557E+02  0.20000006898E+02 0.  0.
        -12    1    1    2    0    0  0.37803430436E+02 -0.22493351080E+01 -0.21200572666E+02  0.43400727443E+02  0.00000000000E+00 0.  1.
         11    1    3    3    0    0 -0.31001131704E+02  0.66375675221E+01  0.12653710659E+02  0.34135668490E+02  0.51100000000E-03 0. -1.
        -11    1    3    3    0    0 -0.71961496650E+01 -0.57483141984E+01  0.71198410665E+01  0.11641298175E+02  0.51100000000E-03 0.  1.
         12    1    3    3    0    0  0.39385093284E+00  0.13600817842E+01  0.14270209403E+01  0.20103058924E+01  0.00000000000E+00 0. -1.
</event>
<event>
 7    1  0.2442667E-009  0.4778727E+02  0.7816164E-02  0.1312668E+00
        -11   -1    0    0    0    0  0.00000000000E+00  0.00000000000E+00  0.45593999997E+02  0.45594000000E+02  0.51100000000E-03 0. -1.
         11   -1    0    0    0    0 -0.00000000000E+00 -0.00000000000E+00 -0.45593999997E+02  0.45594000000E+02  0.51100000000E-03 0.  1.
    9900012    2    1    2    0    0 -0.34923418846E+02 -0.10493516944E+02  0.23534330122E+02  0.47787265260E+02  0.19999973624E+02 0.  0.
        -12    1    1    2    0    0  0.34923418846E+02  0.10493516944E+02 -0.23534330122E+02  0.43400734740E+02  0.00000000000E+00 0.  1.
         11    1    3    3    0    0 -0.89586647337E+01  0.20387985535E+01  0.16202586864E+01  0.93295022282E+01  0.51100000000E-03 0. -1.
        -11    1    3    3    0    0 -0.13983943951E+02 -0.12066468006E+02  0.18138819110E+02  0.25887585780E+02  0.51100000000E-03 0.  1.
        -12    1    3    3    0    0 -0.11980810161E+02 -0.46584749114E+00  0.37752523254E+01  0.12570177251E+02  0.00000000000E+00 0.  1.
</event>
<event>
 7    1  0.2442667E-009  0.4778727E+02  0.7816164E-02  0.1312668E+00
        -11   -1    0    0    0    0  0.00000000000E+00  0.00000000000E+00  0.45593999997E+02  0.45594000000E+02  0.51100000000E-03 0. -1.
         11   -1    0    0    0    0 -0.00000000000E+00 -0.00000000000E+00 -0.45593999997E+02  0.45594000000E+02  0.51100000000E-03 0.  1.
    9900012    2    1    2    0    0  0.39474758678E+02 -0.83166547408E+01 -0.16006259829E+02  0.47787266452E+02  0.19999979063E+02 0.  0.
        -12    1    1    2    0    0 -0.39474758678E+02  0.83166547408E+01  0.16006259829E+02  0.43400733548E+02  0.00000000000E+00 0.  1.
         11    1    3    3    0    0  0.16846873858E+02 -0.77787372573E+01 -0.77766616686E+01  0.20119701267E+02  0.51100000000E-03 0. -1.
        -11    1    3    3    0    0  0.11436864066E+02  0.21056672657E+01  0.25506745510E+01  0.11905529607E+02  0.51100000000E-03 0.  1.
        -12    1    3    3    0    0  0.11191020753E+02 -0.26435847492E+01 -0.10780272711E+02  0.15762035578E+02  0.00000000000E+00 0.  1.
</event>
<event>
 7    1  0.2442667E-009  0.4778727E+02  0.7816164E-02  0.1312668E+00
        -11   -1    0    0    0    0  0.00000000000E+00  0.00000000000E+00  0.45593999997E+02  0.45594000000E+02  0.51100000000E-03 0.  1.
         11   -1    0    0    0    0 -0.00000000000E+00 -0.00000000000E+00 -0.45593999997E+02  0.45594000000E+02  0.51100000000E-03 0. -1.
    9900012    2    1    2    0    0 -0.26043439597E+02  0.33954105264E+02 -0.72443930294E+01  0.47787271426E+02  0.20000001742E+02 0.  0.
        -12    1    1    2    0    0  0.26043439597E+02 -0.33954105264E+02  0.72443930294E+01  0.43400728574E+02  0.00000000000E+00 0.  1.
         11    1    3    3    0    0  0.64904803600E+00  0.53507484895E+00 -0.76367262260E+00  0.11361182080E+01  0.51100000000E-03 0. -1.
        -11    1    3    3    0    0 -0.16900437830E+02  0.82681424350E+01 -0.56653563044E+01  0.19649001005E+02  0.51100000000E-03 0.  1.
        -12    1    3    3    0    0 -0.97920498030E+01  0.25150887980E+02 -0.81536410238E+00  0.27002152214E+02  0.00000000000E+00 0.  1.
</event>
<event>
 7    1  0.2442667E-009  0.4778729E+02  0.7816164E-02  0.1312668E+00
        -11   -1    0    0    0    0  0.00000000000E+00  0.00000000000E+00  0.45593999997E+02  0.45594000000E+02  0.51100000000E-03 0.  1.
         11   -1    0    0    0    0 -0.00000000000E+00 -0.00000000000E+00 -0.45593999997E+02  0.45594000000E+02  0.51100000000E-03 0. -1.
    9900012    2    1    2    0    0  0.80341100243E+01  0.75924191660E+01 -0.41969395762E+02  0.47787286489E+02  0.20000070416E+02 0.  0.
        -12    1    1    2    0    0 -0.80341100243E+01 -0.75924191660E+01  0.41969395762E+02  0.43400713511E+02  0.00000000000E+00 0.  1.
         11    1    3    3    0    0  0.10368253059E+02  0.65404835082E+01 -0.36602890070E+02  0.38601167829E+02  0.51100000000E-03 0. -1.
        -11    1    3    3    0    0 -0.38905218827E+01 -0.56794824316E+00 -0.68149520247E+00  0.39903836531E+01  0.51100000000E-03 0.  1.
        -12    1    3    3    0    0  0.15563788482E+01  0.16198839009E+01 -0.46850104895E+01  0.51957350066E+01  0.00000000000E+00 0.  1.
</event>
<event>
 7    1  0.2442667E-009  0.4778727E+02  0.7816164E-02  0.1312668E+00
        -11   -1    0    0    0    0  0.00000000000E+00  0.00000000000E+00  0.45593999997E+02  0.45594000000E+02  0.51100000000E-03 0.  1.
         11   -1    0    0    0    0 -0.00000000000E+00 -0.00000000000E+00 -0.45593999997E+02  0.45594000000E+02  0.51100000000E-03 0. -1.
    9900012    2    1    2    0    0  0.39024297388E+02 -0.14704097519E+02 -0.12021517608E+02  0.47787272401E+02  0.20000006187E+02 0.  0.
        -12    1    1    2    0    0 -0.39024297388E+02  0.14704097519E+02  0.12021517608E+02  0.43400727599E+02  0.00000000000E+00 0.  1.
         11    1    3    3    0    0  0.24178243336E+02 -0.13682611653E+02 -0.10019379660E+02  0.29532850887E+02  0.51100000000E-03 0. -1.
        -11    1    3    3    0    0  0.13368530593E+02  0.31279418058E+01 -0.12544986726E+01  0.13786783430E+02  0.51100000000E-03 0.  1.
         12    1    3    3    0    0  0.14775234590E+01 -0.41494276713E+01 -0.74763927591E+00  0.44676380849E+01  0.00000000000E+00 0. -1.
</event>
<event>
 7    1  0.2442667E-009  0.4778727E+02  0.7816164E-02  0.1312668E+00
        -11   -1    0    0    0    0  0.00000000000E+00  0.00000000000E+00  0.45593999997E+02  0.45594000000E+02  0.51100000000E-03 0.  1.
         11   -1    0    0    0    0 -0.00000000000E+00 -0.00000000000E+00 -0.45593999997E+02  0.45594000000E+02  0.51100000000E-03 0. -1.
    9900012    2    1    2    0    0 -0.11912083608E+02  0.17080005865E+02 -0.38078857931E+02  0.47787265472E+02  0.19999974592E+02 0.  0.
        -12    1    1    2    0    0  0.11912083608E+02 -0.17080005865E+02  0.38078857931E+02  0.43400734528E+02  0.00000000000E+00 0.  1.
         11    1    3    3    0    0  0.19403617232E+01 -0.10375276652E+01 -0.16487806711E+01  0.27495354581E+01  0.51100000000E-03 0. -1.
        -11    1    3    3    0    0  0.14706648869E+01 -0.19145288063E+00 -0.69295314443E+01  0.70864600269E+01  0.51100000000E-03 0.  1.
         12    1    3    3    0    0 -0.15323110218E+02  0.18308986411E+02 -0.29500545816E+02  0.37951269987E+02  0.00000000000E+00 0. -1.
</event>
<event>
 7    1  0.2442667E-009  0.4778727E+02  0.7816164E-02  0.1312668E+00
        -11   -1    0    0    0    0  0.00000000000E+00  0.00000000000E+00  0.45593999997E+02  0.45594000000E+02  0.51100000000E-03 0.  1.
         11   -1    0    0    0    0 -0.00000000000E+00 -0.00000000000E+00 -0.45593999997E+02  0.45594000000E+02  0.51100000000E-03 0. -1.
    9900012    2    1    2    0    0  0.17430116059E+02  0.34791445244E+02 -0.19218989328E+02  0.47787272370E+02  0.20000006045E+02 0.  0.
        -12    1    1    2    0    0 -0.17430116059E+02 -0.34791445244E+02  0.19218989328E+02  0.43400727630E+02  0.00000000000E+00 0.  1.
         11    1    3    3    0    0  0.29582842688E+01  0.52974717391E+01 -0.40109868637E+01  0.72734220641E+01  0.51100000000E-03 0. -1.
        -11    1    3    3    0    0  0.52074551468E+01  0.16834512540E+02  0.13892058605E+01  0.17676207024E+02  0.51100000000E-03 0.  1.
        -12    1    3    3    0    0  0.92643766431E+01  0.12659460965E+02 -0.16597208325E+02  0.22837643282E+02  0.00000000000E+00 0.  1.
</event>
<event>
 7    1  0.2442667E-009  0.4778727E+02  0.7816164E-02  0.1312668E+00
        -11   -1    0    0    0    0  0.00000000000E+00  0.00000000000E+00  0.45593999997E+02  0.45594000000E+02  0.51100000000E-03 0.  1.
         11   -1    0    0    0    0 -0.00000000000E+00 -0.00000000000E+00 -0.45593999997E+02  0.45594000000E+02  0.51100000000E-03 0. -1.
    9900012    2    1    2    0    0  0.33406176759E+02  0.18528785506E+02 -0.20599397398E+02  0.47787266007E+02  0.19999977030E+02 0.  0.
        -12    1    1    2    0    0 -0.33406176759E+02 -0.18528785506E+02  0.20599397398E+02  0.43400733993E+02  0.00000000000E+00 0.  1.
         11    1    3    3    0    0  0.19519365738E+02  0.77404374180E+01 -0.16386195750E+02  0.26635078781E+02  0.51100000000E-03 0. -1.
        -11    1    3    3    0    0  0.46169383908E+01  0.78695819399E+01  0.23541263450E+01  0.94227570871E+01  0.51100000000E-03 0.  1.
        -12    1    3    3    0    0  0.92698726302E+01  0.29187661483E+01 -0.65673279929E+01  0.11729430139E+02  0.00000000000E+00 0.  1.
</event>
<event>
 7    1  0.2442667E-009  0.4778726E+02  0.7816164E-02  0.1312668E+00
        -11   -1    0    0    0    0  0.00000000000E+00  0.00000000000E+00  0.45593999997E+02  0.45594000000E+02  0.51100000000E-03 0.  1.
         11   -1    0    0    0    0 -0.00000000000E+00 -0.00000000000E+00 -0.45593999997E+02  0.45594000000E+02  0.51100000000E-03 0. -1.
    9900012    2    1    2    0    0 -0.12472019816E+02  0.15179387519E+02 -0.38699597798E+02  0.47787263215E+02  0.19999964304E+02 0.  0.
        -12    1    1    2    0    0  0.12472019816E+02 -0.15179387519E+02  0.38699597798E+02  0.43400736785E+02  0.00000000000E+00 0.  1.
         11    1    3    3    0    0 -0.96091928492E+01  0.16168583626E+02 -0.22563077551E+02  0.29374345142E+02  0.51100000000E-03 0. -1.
        -11    1    3    3    0    0 -0.32841087126E+01 -0.43640741426E+01 -0.10259527556E+02  0.11622754368E+02  0.51100000000E-03 0.  1.
        -12    1    3    3    0    0  0.42128174586E+00  0.33748780359E+01 -0.58769926904E+01  0.67901637057E+01  0.00000000000E+00 0.  1.
</event>
<event>
 7    1  0.2442667E-009  0.4778727E+02  0.7816164E-02  0.1312668E+00
        -11   -1    0    0    0    0  0.00000000000E+00  0.00000000000E+00  0.45593999997E+02  0.45594000000E+02  0.51100000000E-03 0. -1.
         11   -1    0    0    0    0 -0.00000000000E+00 -0.00000000000E+00 -0.45593999997E+02  0.45594000000E+02  0.51100000000E-03 0.  1.
    9900012    2    1    2    0    0  0.18353461958E+02  0.39084897655E+02  0.43754491488E+01  0.47787270216E+02  0.19999996221E+02 0.  0.
        -12    1    1    2    0    0 -0.18353461958E+02 -0.39084897655E+02 -0.43754491488E+01  0.43400729784E+02  0.00000000000E+00 0.  1.
         11    1    3    3    0    0 -0.82335367004E+00  0.10965597642E+01 -0.39175522060E+00  0.14261230650E+01  0.51100000000E-03 0. -1.
        -11    1    3    3    0    0  0.61871625650E+01  0.25505913243E+02 -0.36115548582E+01  0.26492940941E+02  0.51100000000E-03 0.  1.
        -12    1    3    3    0    0  0.12989653063E+02  0.12482424648E+02  0.83787592276E+01  0.19868206210E+02  0.00000000000E+00 0.  1.
</event>
<event>
 7    1  0.2442667E-009  0.4778727E+02  0.7816164E-02  0.1312668E+00
        -11   -1    0    0    0    0  0.00000000000E+00  0.00000000000E+00  0.45593999997E+02  0.45594000000E+02  0.51100000000E-03 0. -1.
         11   -1    0    0    0    0 -0.00000000000E+00 -0.00000000000E+00 -0.45593999997E+02  0.45594000000E+02  0.51100000000E-03 0.  1.
    9900012    2    1    2    0    0  0.10022810970E+02  0.11946519290E+02  0.40502433144E+02  0.47787272432E+02  0.20000006327E+02 0.  0.
        -12    1    1    2    0    0 -0.10022810970E+02 -0.11946519290E+02 -0.40502433144E+02  0.43400727568E+02  0.00000000000E+00 0.  1.
         11    1    3    3    0    0  0.10142661371E+01  0.37882155868E+01  0.27496441807E+02  0.27774693975E+02  0.51100000000E-03 0. -1.
        -11    1    3    3    0    0  0.95684070106E+01  0.89633452880E+01  0.13580088187E+02  0.18876301728E+02  0.51100000000E-03 0.  1.
         12    1    3    3    0    0 -0.55986217776E+00 -0.80504158507E+00 -0.57409685047E+00  0.11362767293E+01  0.00000000000E+00 0. -1.
</event>
<event>
 7    1  0.2442667E-009  0.4778727E+02  0.7816164E-02  0.1312668E+00
        -11   -1    0    0    0    0  0.00000000000E+00  0.00000000000E+00  0.45593999997E+02  0.45594000000E+02  0.51100000000E-03 0.  1.
         11   -1    0    0    0    0 -0.00000000000E+00 -0.00000000000E+00 -0.45593999997E+02  0.45594000000E+02  0.51100000000E-03 0. -1.
    9900012    2    1    2    0    0 -0.34992562460E+02 -0.22916745275E+02  0.11574400245E+02  0.47787269793E+02  0.19999994293E+02 0.  0.
        -12    1    1    2    0    0  0.34992562460E+02  0.22916745275E+02 -0.11574400245E+02  0.43400730207E+02  0.00000000000E+00 0.  1.
         11    1    3    3    0    0 -0.26438456948E+02 -0.15966871469E+02  0.12987921025E+02  0.33505508250E+02  0.51100000000E-03 0. -1.
        -11    1    3    3    0    0 -0.42875767212E+01 -0.70610789831E+01 -0.41166409389E+01  0.92297824149E+01  0.51100000000E-03 0.  1.
        -12    1    3    3    0    0 -0.42665287906E+01  0.11120517723E+00  0.27031201595E+01  0.50519791279E+01  0.00000000000E+00 0.  1.
</event>
<event>
 7    1  0.2442667E-009  0.4778727E+02  0.7816164E-02  0.1312668E+00
        -11   -1    0    0    0    0  0.00000000000E+00  0.00000000000E+00  0.45593999997E+02  0.45594000000E+02  0.51100000000E-03 0.  1.
         11   -1    0    0    0    0 -0.00000000000E+00 -0.00000000000E+00 -0.45593999997E+02  0.45594000000E+02  0.51100000000E-03 0. -1.
    9900012    2    1    2    0    0  0.20956693028E+02 -0.33333269859E+02  0.18257418922E+02  0.47787271805E+02  0.20000003467E+02 0.  0.
        -12    1    1    2    0    0 -0.20956693028E+02  0.33333269859E+02 -0.18257418922E+02  0.43400728195E+02  0.00000000000E+00 0.  1.
         11    1    3    3    0    0  0.50011113406E+01 -0.13055184241E+02 -0.18422349513E+01  0.14101162367E+02  0.51100000000E-03 0. -1.
        -11    1    3    3    0    0  0.21793232599E+01 -0.15346077949E+01  0.57937562079E+01  0.63774667551E+01  0.51100000000E-03 0.  1.
         12    1    3    3    0    0  0.13776258428E+02 -0.18743477823E+02  0.14305897666E+02  0.27308642683E+02  0.00000000000E+00 0. -1.
</event>
<event>
 7    1  0.2442667E-009  0.4778727E+02  0.7816164E-02  0.1312668E+00
        -11   -1    0    0    0    0  0.00000000000E+00  0.00000000000E+00  0.45593999997E+02  0.45594000000E+02  0.51100000000E-03 0.  1.
         11   -1    0    0    0    0 -0.00000000000E+00 -0.00000000000E+00 -0.45593999997E+02  0.45594000000E+02  0.51100000000E-03 0. -1.
    9900012    2    1    2    0    0 -0.38595622773E+02 -0.36824486833E+01 -0.19504890136E+02  0.47787271150E+02  0.20000000480E+02 0.  0.
        -12    1    1    2    0    0  0.38595622773E+02  0.36824486833E+01  0.19504890136E+02  0.43400728850E+02  0.00000000000E+00 0.  1.
         11    1    3    3    0    0 -0.73266954323E+01  0.47045544599E+01 -0.94096397128E+01  0.12820086521E+02  0.51100000000E-03 0. -1.
        -11    1    3    3    0    0 -0.11312380971E+02 -0.56399595597E+01 -0.49047415825E+00  0.12649888230E+02  0.51100000000E-03 0.  1.
        -12    1    3    3    0    0 -0.19956546369E+02 -0.27470435835E+01 -0.96047762650E+01  0.22317296398E+02  0.00000000000E+00 0.  1.
</event>
<event>
 7    1  0.2442667E-009  0.4778726E+02  0.7816164E-02  0.1312668E+00
        -11   -1    0    0    0    0  0.00000000000E+00  0.00000000000E+00  0.45593999997E+02  0.45594000000E+02  0.51100000000E-03 0. -1.
         11   -1    0    0    0    0 -0.00000000000E+00 -0.00000000000E+00 -0.45593999997E+02  0.45594000000E+02  0.51100000000E-03 0.  1.
    9900012    2    1    2    0    0 -0.42869051928E+02  0.25196311465E+01  0.62864842909E+01  0.47787262229E+02  0.19999959809E+02 0.  0.
        -12    1    1    2    0    0  0.42869051928E+02 -0.25196311465E+01 -0.62864842909E+01  0.43400737771E+02  0.00000000000E+00 0.  1.
         11    1    3    3    0    0 -0.66638202907E+01  0.48417010842E+01 -0.95567437822E+00  0.82922785791E+01  0.51100000000E-03 0. -1.
        -11    1    3    3    0    0 -0.21228947527E+02 -0.66448047677E+01  0.85981038449E+01  0.23848459772E+02  0.51100000000E-03 0.  1.
        -12    1    3    3    0    0 -0.14976284110E+02  0.43227348300E+01 -0.13559451758E+01  0.15646523879E+02  0.00000000000E+00 0.  1.
</event>
<event>
 7    1  0.2442667E-009  0.4778727E+02  0.7816164E-02  0.1312668E+00
        -11   -1    0    0    0    0  0.00000000000E+00  0.00000000000E+00  0.45593999997E+02  0.45594000000E+02  0.51100000000E-03 0.  1.
         11   -1    0    0    0    0 -0.00000000000E+00 -0.00000000000E+00 -0.45593999997E+02  0.45594000000E+02  0.51100000000E-03 0. -1.
    9900012    2    1    2    0    0  0.31005140735E+01 -0.41236067405E+02 -0.13175611810E+02  0.47787272021E+02  0.20000004452E+02 0.  0.
        -12    1    1    2    0    0 -0.31005140735E+01  0.41236067405E+02  0.13175611810E+02  0.43400727979E+02  0.00000000000E+00 0.  1.
         11    1    3    3    0    0  0.22580454680E+00 -0.20884799290E+02 -0.93808409469E+01  0.22895982316E+02  0.51100000000E-03 0. -1.
        -11    1    3    3    0    0  0.76242599208E+01 -0.15487911428E+02 -0.34050418347E+00  0.17266171640E+02  0.51100000000E-03 0.  1.
        -12    1    3    3    0    0 -0.47495503941E+01 -0.48633566870E+01 -0.34542666798E+01  0.76251180651E+01  0.00000000000E+00 0.  1.
</event>
<event>
 7    1  0.2442667E-009  0.4778727E+02  0.7816164E-02  0.1312668E+00
        -11   -1    0    0    0    0  0.00000000000E+00  0.00000000000E+00  0.45593999997E+02  0.45594000000E+02  0.51100000000E-03 0.  1.
         11   -1    0    0    0    0 -0.00000000000E+00 -0.00000000000E+00 -0.45593999997E+02  0.45594000000E+02  0.51100000000E-03 0. -1.
    9900012    2    1    2    0    0 -0.99247715705E+01  0.42054996084E+02 -0.40619468808E+01  0.47787271909E+02  0.20000003942E+02 0.  0.
        -12    1    1    2    0    0  0.99247715705E+01 -0.42054996084E+02  0.40619468808E+01  0.43400728091E+02  0.00000000000E+00 0.  1.
         11    1    3    3    0    0 -0.10658051719E+02  0.13235460720E+02 -0.27479178258E+01  0.17214021597E+02  0.51100000000E-03 0. -1.
        -11    1    3    3    0    0  0.44916130173E+01  0.20444088126E+02  0.14619361013E+01  0.20982673429E+02  0.51100000000E-03 0.  1.
        -12    1    3    3    0    0 -0.37583328688E+01  0.83754472383E+01 -0.27759651563E+01  0.95905768827E+01  0.00000000000E+00 0.  1.
</event>
<event>
 7    1  0.2442667E-009  0.4778728E+02  0.7816164E-02  0.1312668E+00
        -11   -1    0    0    0    0  0.00000000000E+00  0.00000000000E+00  0.45593999997E+02  0.45594000000E+02  0.51100000000E-03 0.  1.
         11   -1    0    0    0    0 -0.00000000000E+00 -0.00000000000E+00 -0.45593999997E+02  0.45594000000E+02  0.51100000000E-03 0. -1.
    9900012    2    1    2    0    0  0.34523019347E+02 -0.42921300435E+01 -0.25949201284E+02  0.47787282351E+02  0.20000051553E+02 0.  0.
        -12    1    1    2    0    0 -0.34523019347E+02  0.42921300435E+01  0.25949201284E+02  0.43400717649E+02  0.00000000000E+00 0.  1.
         11    1    3    3    0    0  0.26456281742E+02 -0.25522585966E+01 -0.27682493014E+02  0.38376676345E+02  0.51100000000E-03 0. -1.
        -11    1    3    3    0    0  0.67915168232E+01 -0.19585066185E+01 -0.21534684104E+00  0.70715502867E+01  0.51100000000E-03 0.  1.
         12    1    3    3    0    0  0.12752207822E+01  0.21863517165E+00  0.19486385710E+01  0.23390557202E+01  0.00000000000E+00 0. -1.
</event>
<event>
 7    1  0.2442667E-009  0.4778727E+02  0.7816164E-02  0.1312668E+00
        -11   -1    0    0    0    0  0.00000000000E+00  0.00000000000E+00  0.45593999997E+02  0.45594000000E+02  0.51100000000E-03 0.  1.
         11   -1    0    0    0    0 -0.00000000000E+00 -0.00000000000E+00 -0.45593999997E+02  0.45594000000E+02  0.51100000000E-03 0. -1.
    9900012    2    1    2    0    0 -0.36320250554E+02 -0.78272301482E+01 -0.22432064756E+02  0.47787266581E+02  0.19999979649E+02 0.  0.
        -12    1    1    2    0    0  0.36320250554E+02  0.78272301482E+01  0.22432064756E+02  0.43400733419E+02  0.00000000000E+00 0.  1.
         11    1    3    3    0    0 -0.19689610131E+02  0.54021083443E+01 -0.91427664522E+01  0.22370822522E+02  0.51100000000E-03 0.  1.
        -11    1    3    3    0    0 -0.11037944106E+02 -0.10851445021E+02 -0.83638144661E+01  0.17593847271E+02  0.51100000000E-03 0. -1.
        -12    1    3    3    0    0 -0.55926963174E+01 -0.23778934717E+01 -0.49254838381E+01  0.78225967875E+01  0.00000000000E+00 0.  1.
</event>
<event>
 7    1  0.2442667E-009  0.4778727E+02  0.7816164E-02  0.1312668E+00
        -11   -1    0    0    0    0  0.00000000000E+00  0.00000000000E+00  0.45593999997E+02  0.45594000000E+02  0.51100000000E-03 0.  1.
         11   -1    0    0    0    0 -0.00000000000E+00 -0.00000000000E+00 -0.45593999997E+02  0.45594000000E+02  0.51100000000E-03 0. -1.
    9900012    2    1    2    0    0 -0.36805605599E+01 -0.57380915248E+00 -0.43240575619E+02  0.47787272324E+02  0.20000005833E+02 0.  0.
        -12    1    1    2    0    0  0.36805605599E+01  0.57380915248E+00  0.43240575619E+02  0.43400727676E+02  0.00000000000E+00 0.  1.
         11    1    3    3    0    0  0.35342864977E+01 -0.27635475083E+01 -0.21319258835E+02  0.21786215216E+02  0.51100000000E-03 0. -1.
        -11    1    3    3    0    0 -0.10139238903E+02  0.32238809249E+01 -0.14742133268E+02  0.18180430889E+02  0.51100000000E-03 0.  1.
        -12    1    3    3    0    0  0.29243918449E+01 -0.10341425691E+01 -0.71791835152E+01  0.78206262192E+01  0.00000000000E+00 0.  1.
</event>
<event>
 7    1  0.2442667E-009  0.4778728E+02  0.7816164E-02  0.1312668E+00
        -11   -1    0    0    0    0  0.00000000000E+00  0.00000000000E+00  0.45593999997E+02  0.45594000000E+02  0.51100000000E-03 0.  1.
         11   -1    0    0    0    0 -0.00000000000E+00 -0.00000000000E+00 -0.45593999997E+02  0.45594000000E+02  0.51100000000E-03 0. -1.
    9900012    2    1    2    0    0  0.19346965215E+02  0.30654878601E+02 -0.23866202419E+02  0.47787282690E+02  0.20000053099E+02 0.  0.
        -12    1    1    2    0    0 -0.19346965215E+02 -0.30654878601E+02  0.23866202419E+02  0.43400717310E+02  0.00000000000E+00 0.  1.
         11    1    3    3    0    0  0.64517307971E+01  0.23024984389E+02 -0.20971296705E+02  0.31805188604E+02  0.51100000000E-03 0. -1.
        -11    1    3    3    0    0  0.13255760357E+02  0.77260661104E+01 -0.27911038166E+01  0.15594792110E+02  0.51100000000E-03 0.  1.
        -12    1    3    3    0    0 -0.36052593901E+00 -0.96171898217E-01 -0.10380189696E+00  0.38730197588E+00  0.00000000000E+00 0.  1.
</event>
<event>
 7    1  0.2442667E-009  0.4778724E+02  0.7816164E-02  0.1312668E+00
        -11   -1    0    0    0    0  0.00000000000E+00  0.00000000000E+00  0.45593999997E+02  0.45594000000E+02  0.51100000000E-03 0.  1.
         11   -1    0    0    0    0 -0.00000000000E+00 -0.00000000000E+00 -0.45593999997E+02  0.45594000000E+02  0.51100000000E-03 0. -1.
    9900012    2    1    2    0    0 -0.15494980711E+02 -0.37216710649E+02 -0.16076305447E+02  0.47787244528E+02  0.19999879099E+02 0.  0.
        -12    1    1    2    0    0  0.15494980711E+02  0.37216710649E+02  0.16076305447E+02  0.43400755472E+02  0.00000000000E+00 0.  1.
         11    1    3    3    0    0 -0.72354270517E+01 -0.26668408426E+02 -0.19035561804E+02  0.33554552986E+02  0.51100000000E-03 0. -1.
        -11    1    3    3    0    0 -0.34684828821E+01 -0.38684432305E+01  0.30247901687E+01  0.60120364567E+01  0.51100000000E-03 0.  1.
         12    1    3    3    0    0 -0.47910707776E+01 -0.66798589921E+01 -0.65533811261E-01  0.82206550852E+01  0.00000000000E+00 0. -1.
</event>
<event>
 7    1  0.2442667E-009  0.4778727E+02  0.7816164E-02  0.1312668E+00
        -11   -1    0    0    0    0  0.00000000000E+00  0.00000000000E+00  0.45593999997E+02  0.45594000000E+02  0.51100000000E-03 0. -1.
         11   -1    0    0    0    0 -0.00000000000E+00 -0.00000000000E+00 -0.45593999997E+02  0.45594000000E+02  0.51100000000E-03 0.  1.
    9900012    2    1    2    0    0 -0.21172998802E+01 -0.18467048543E+02  0.39218724124E+02  0.47787272326E+02  0.20000005845E+02 0.  0.
        -12    1    1    2    0    0  0.21172998802E+01  0.18467048543E+02 -0.39218724124E+02  0.43400727674E+02  0.00000000000E+00 0.  1.
         11    1    3    3    0    0  0.37173300044E+01 -0.11545819261E+02  0.20393666301E+02  0.23728171237E+02  0.51100000000E-03 0. -1.
        -11    1    3    3    0    0 -0.14931963259E+01 -0.93107534071E+00 -0.15734101744E+01  0.23605415472E+01  0.51100000000E-03 0.  1.
        -12    1    3    3    0    0 -0.43414335587E+01 -0.59901539408E+01  0.20398467998E+02  0.21698559543E+02  0.00000000000E+00 0.  1.
</event>
<event>
 7    1  0.2442667E-009  0.4778727E+02  0.7816164E-02  0.1312668E+00
        -11   -1    0    0    0    0  0.00000000000E+00  0.00000000000E+00  0.45593999997E+02  0.45594000000E+02  0.51100000000E-03 0.  1.
         11   -1    0    0    0    0 -0.00000000000E+00 -0.00000000000E+00 -0.45593999997E+02  0.45594000000E+02  0.51100000000E-03 0. -1.
    9900012    2    1    2    0    0 -0.33938770828E+02  0.21153040719E+01 -0.26968661888E+02  0.47787269583E+02  0.19999993338E+02 0.  0.
        -12    1    1    2    0    0  0.33938770828E+02 -0.21153040719E+01  0.26968661888E+02  0.43400730417E+02  0.00000000000E+00 0.  1.
         11    1    3    3    0    0 -0.38735323896E+01 -0.21510774453E+00 -0.11879064568E+02  0.12496507503E+02  0.51100000000E-03 0. -1.
        -11    1    3    3    0    0 -0.24516655853E+02  0.53036257799E+01 -0.14487826798E+02  0.28967084531E+02  0.51100000000E-03 0.  1.
        -12    1    3    3    0    0 -0.55485825852E+01 -0.29732139635E+01 -0.60177052241E+00  0.63236775486E+01  0.00000000000E+00 0.  1.
</event>
<event>
 7    1  0.2442667E-009  0.4778728E+02  0.7816164E-02  0.1312668E+00
        -11   -1    0    0    0    0  0.00000000000E+00  0.00000000000E+00  0.45593999997E+02  0.45594000000E+02  0.51100000000E-03 0. -1.
         11   -1    0    0    0    0 -0.00000000000E+00 -0.00000000000E+00 -0.45593999997E+02  0.45594000000E+02  0.51100000000E-03 0.  1.
    9900012    2    1    2    0    0 -0.32079467197E+02 -0.12431291317E+02  0.26457387213E+02  0.47787279297E+02  0.20000037627E+02 0.  0.
        -12    1    1    2    0    0  0.32079467197E+02  0.12431291317E+02 -0.26457387213E+02  0.43400720703E+02  0.00000000000E+00 0.  1.
         11    1    3    3    0    0 -0.10551132002E+02 -0.22765091286E+01  0.18127679967E+02  0.21097906569E+02  0.51100000000E-03 0. -1.
        -11    1    3    3    0    0 -0.13171136855E+01  0.10638733361E+01  0.21969020080E+01  0.27736246375E+01  0.51100000000E-03 0.  1.
         12    1    3    3    0    0 -0.20211221509E+02 -0.11218655524E+02  0.61328052371E+01  0.23915748090E+02  0.00000000000E+00 0. -1.
</event>
<event>
 7    1  0.2442667E-009  0.4778728E+02  0.7816164E-02  0.1312668E+00
        -11   -1    0    0    0    0  0.00000000000E+00  0.00000000000E+00  0.45593999997E+02  0.45594000000E+02  0.51100000000E-03 0. -1.
         11   -1    0    0    0    0 -0.00000000000E+00 -0.00000000000E+00 -0.45593999997E+02  0.45594000000E+02  0.51100000000E-03 0.  1.
    9900012    2    1    2    0    0  0.39469772005E+02 -0.16156982811E+02  0.80443296027E+01  0.47787283020E+02  0.20000054601E+02 0.  0.
        -12    1    1    2    0    0 -0.39469772005E+02  0.16156982811E+02 -0.80443296027E+01  0.43400716980E+02  0.00000000000E+00 0.  1.
         11    1    3    3    0    0  0.75780925364E+01 -0.14894399881E+01  0.72176106310E+01  0.10570705816E+02  0.51100000000E-03 0. -1.
        -11    1    3    3    0    0  0.32656579399E+02 -0.13977933144E+02 -0.51391957874E+00  0.35526031394E+02  0.51100000000E-03 0.  1.
        -12    1    3    3    0    0 -0.76489993057E+00 -0.68960967901E+00  0.13406385504E+01  0.16905458101E+01  0.00000000000E+00 0.  1.
</event>
<event>
 7    1  0.2442667E-009  0.4778728E+02  0.7816164E-02  0.1312668E+00
        -11   -1    0    0    0    0  0.00000000000E+00  0.00000000000E+00  0.45593999997E+02  0.45594000000E+02  0.51100000000E-03 0.  1.
         11   -1    0    0    0    0 -0.00000000000E+00 -0.00000000000E+00 -0.45593999997E+02  0.45594000000E+02  0.51100000000E-03 0. -1.
    9900012    2    1    2    0    0 -0.31252525887E+02 -0.29682014659E+02 -0.50872924362E+01  0.47787275204E+02  0.20000018963E+02 0.  0.
        -12    1    1    2    0    0  0.31252525887E+02  0.29682014659E+02  0.50872924362E+01  0.43400724796E+02  0.00000000000E+00 0.  1.
         11    1    3    3    0    0 -0.16606080882E+02 -0.90918275519E+01  0.47444076782E+01  0.19517496124E+02  0.51100000000E-03 0.  1.
        -11    1    3    3    0    0 -0.20487249214E+01 -0.91237339572E+01 -0.47797766127E+01  0.10501716995E+02  0.51100000000E-03 0. -1.
         12    1    3    3    0    0 -0.12597720083E+02 -0.11466453150E+02 -0.50519235017E+01  0.17768062084E+02  0.00000000000E+00 0. -1.
</event>
<event>
 7    1  0.2442667E-009  0.4778727E+02  0.7816164E-02  0.1312668E+00
        -11   -1    0    0    0    0  0.00000000000E+00  0.00000000000E+00  0.45593999997E+02  0.45594000000E+02  0.51100000000E-03 0.  1.
         11   -1    0    0    0    0 -0.00000000000E+00 -0.00000000000E+00 -0.45593999997E+02  0.45594000000E+02  0.51100000000E-03 0. -1.
    9900012    2    1    2    0    0  0.18005371269E+02  0.19283395297E+02 -0.34461292341E+02  0.47787269608E+02  0.19999993453E+02 0.  0.
        -12    1    1    2    0    0 -0.18005371269E+02 -0.19283395297E+02  0.34461292341E+02  0.43400730392E+02  0.00000000000E+00 0.  1.
         11    1    3    3    0    0  0.41975489542E+01  0.20722173370E+01 -0.19101978780E+02  0.19667208635E+02  0.51100000000E-03 0. -1.
        -11    1    3    3    0    0  0.19393263251E+01  0.80062126430E-01  0.41226815847E+00  0.19842786687E+01  0.51100000000E-03 0.  1.
         12    1    3    3    0    0  0.11868495989E+02  0.17131115834E+02 -0.15771581720E+02  0.26135782305E+02  0.00000000000E+00 0. -1.
</event>
<event>
 7    1  0.2442667E-009  0.4778727E+02  0.7816164E-02  0.1312668E+00
        -11   -1    0    0    0    0  0.00000000000E+00  0.00000000000E+00  0.45593999997E+02  0.45594000000E+02  0.51100000000E-03 0. -1.
         11   -1    0    0    0    0 -0.00000000000E+00 -0.00000000000E+00 -0.45593999997E+02  0.45594000000E+02  0.51100000000E-03 0.  1.
    9900012    2    1    2    0    0  0.27579146383E+02  0.32667634358E+02  0.74725880405E+01  0.47787271644E+02  0.20000002734E+02 0.  0.
        -12    1    1    2    0    0 -0.27579146383E+02 -0.32667634358E+02 -0.74725880405E+01  0.43400728356E+02  0.00000000000E+00 0.  1.
         11    1    3    3    0    0  0.19200123978E+02  0.24496220910E+02  0.29292215242E+01  0.31261636851E+02  0.51100000000E-03 0. -1.
        -11    1    3    3    0    0 -0.75098839659E+00 -0.99798956049E+00  0.32975152764E+01  0.35261273366E+01  0.51100000000E-03 0.  1.
        -12    1    3    3    0    0  0.91300108022E+01  0.91694030093E+01  0.12458512400E+01  0.12999507456E+02  0.00000000000E+00 0.  1.
</event>
<event>
 7    1  0.2442667E-009  0.4778727E+02  0.7816164E-02  0.1312668E+00
        -11   -1    0    0    0    0  0.00000000000E+00  0.00000000000E+00  0.45593999997E+02  0.45594000000E+02  0.51100000000E-03 0. -1.
         11   -1    0    0    0    0 -0.00000000000E+00 -0.00000000000E+00 -0.45593999997E+02  0.45594000000E+02  0.51100000000E-03 0.  1.
    9900012    2    1    2    0    0 -0.37114390953E+02 -0.16548120522E+02  0.15241566345E+02  0.47787266673E+02  0.19999980070E+02 0.  0.
        -12    1    1    2    0    0  0.37114390953E+02  0.16548120522E+02 -0.15241566345E+02  0.43400733327E+02  0.00000000000E+00 0.  1.
         11    1    3    3    0    0 -0.23024622798E+02 -0.10085059474E+02  0.20324702800E+01  0.25218497483E+02  0.51100000000E-03 0. -1.
        -11    1    3    3    0    0 -0.66782368278E+01 -0.29535216048E+01  0.34142621595E+00  0.73101784602E+01  0.51100000000E-03 0.  1.
         12    1    3    3    0    0 -0.74115313277E+01 -0.35095394425E+01  0.12867669849E+02  0.15258590730E+02  0.00000000000E+00 0. -1.
</event>
<event>
 7    1  0.2442667E-009  0.4778727E+02  0.7816164E-02  0.1312668E+00
        -11   -1    0    0    0    0  0.00000000000E+00  0.00000000000E+00  0.45593999997E+02  0.45594000000E+02  0.51100000000E-03 0. -1.
         11   -1    0    0    0    0 -0.00000000000E+00 -0.00000000000E+00 -0.45593999997E+02  0.45594000000E+02  0.51100000000E-03 0.  1.
    9900012    2    1    2    0    0 -0.12127996581E+02  0.55740738292E+01  0.41297268824E+02  0.47787274056E+02  0.20000013731E+02 0.  0.
        -12    1    1    2    0    0  0.12127996581E+02 -0.55740738292E+01 -0.41297268824E+02  0.43400725944E+02  0.00000000000E+00 0.  1.
         11    1    3    3    0    0 -0.37528097862E+01 -0.37786599203E+01  0.24052655737E+02  0.24635180137E+02  0.51100000000E-03 0. -1.
        -11    1    3    3    0    0 -0.22673003387E+01  0.80300712408E+01  0.59649022502E+01  0.10256839380E+02  0.51100000000E-03 0.  1.
         12    1    3    3    0    0 -0.61078864557E+01  0.13226625088E+01  0.11279710837E+02  0.12895254539E+02  0.00000000000E+00 0. -1.
</event>
<event>
 7    1  0.2442667E-009  0.4778727E+02  0.7816164E-02  0.1312668E+00
        -11   -1    0    0    0    0  0.00000000000E+00  0.00000000000E+00  0.45593999997E+02  0.45594000000E+02  0.51100000000E-03 0.  1.
         11   -1    0    0    0    0 -0.00000000000E+00 -0.00000000000E+00 -0.45593999997E+02  0.45594000000E+02  0.51100000000E-03 0. -1.
    9900012    2    1    2    0    0  0.19377157814E+01 -0.63987668749E+01 -0.42882679848E+02  0.47787272000E+02  0.20000004357E+02 0.  0.
        -12    1    1    2    0    0 -0.19377157814E+01  0.63987668749E+01  0.42882679848E+02  0.43400728000E+02  0.00000000000E+00 0.  1.
         11    1    3    3    0    0  0.28102681008E+01 -0.66215699490E+01 -0.35843139570E+02  0.36557809698E+02  0.51100000000E-03 0. -1.
        -11    1    3    3    0    0 -0.33613817953E+01  0.24785776339E+01 -0.96246346754E+00  0.42858570728E+01  0.51100000000E-03 0.  1.
         12    1    3    3    0    0  0.24888294759E+01 -0.22557745598E+01 -0.60770768106E+01  0.69436052298E+01  0.00000000000E+00 0. -1.
</event>
<event>
 7    1  0.2442667E-009  0.4778727E+02  0.7816164E-02  0.1312668E+00
        -11   -1    0    0    0    0  0.00000000000E+00  0.00000000000E+00  0.45593999997E+02  0.45594000000E+02  0.51100000000E-03 0.  1.
         11   -1    0    0    0    0 -0.00000000000E+00 -0.00000000000E+00 -0.45593999997E+02  0.45594000000E+02  0.51100000000E-03 0. -1.
    9900012    2    1    2    0    0  0.23245039068E+01 -0.35324726151E+02 -0.25107442563E+02  0.47787271111E+02  0.20000000303E+02 0.  0.
        -12    1    1    2    0    0 -0.23245039068E+01  0.35324726151E+02  0.25107442563E+02  0.43400728889E+02  0.00000000000E+00 0.  1.
         11    1    3    3    0    0 -0.16168251629E+01 -0.20327180216E+02 -0.24152582612E+02  0.31609423061E+02  0.51100000000E-03 0. -1.
        -11    1    3    3    0    0  0.24941868511E+01 -0.34651550172E+01  0.10170530432E+01  0.43889252096E+01  0.51100000000E-03 0.  1.
         12    1    3    3    0    0  0.14471422186E+01 -0.11532390918E+02 -0.19719129941E+01  0.11788922841E+02  0.00000000000E+00 0. -1.
</event>
<event>
 7    1  0.2442667E-009  0.4778727E+02  0.7816164E-02  0.1312668E+00
        -11   -1    0    0    0    0  0.00000000000E+00  0.00000000000E+00  0.45593999997E+02  0.45594000000E+02  0.51100000000E-03 0.  1.
         11   -1    0    0    0    0 -0.00000000000E+00 -0.00000000000E+00 -0.45593999997E+02  0.45594000000E+02  0.51100000000E-03 0. -1.
    9900012    2    1    2    0    0 -0.42458123534E+02 -0.75124908151E+01 -0.49491185681E+01  0.47787267899E+02  0.19999985658E+02 0.  0.
        -12    1    1    2    0    0  0.42458123534E+02  0.75124908151E+01  0.49491185681E+01  0.43400732101E+02  0.00000000000E+00 0.  1.
         11    1    3    3    0    0 -0.50925467615E+01 -0.32870366112E+01 -0.12609592537E+01  0.61910145132E+01  0.51100000000E-03 0. -1.
        -11    1    3    3    0    0 -0.15713436854E+01 -0.47510389809E+01  0.19233008131E+01  0.53610240304E+01  0.51100000000E-03 0.  1.
        -12    1    3    3    0    0 -0.35794233087E+02  0.52558477701E+00 -0.56114601275E+01  0.36235229355E+02  0.00000000000E+00 0.  1.
</event>
<event>
 7    1  0.2442667E-009  0.4778727E+02  0.7816164E-02  0.1312668E+00
        -11   -1    0    0    0    0  0.00000000000E+00  0.00000000000E+00  0.45593999997E+02  0.45594000000E+02  0.51100000000E-03 0.  1.
         11   -1    0    0    0    0 -0.00000000000E+00 -0.00000000000E+00 -0.45593999997E+02  0.45594000000E+02  0.51100000000E-03 0. -1.
    9900012    2    1    2    0    0  0.37494252010E+01 -0.26276560687E+02 -0.34338131780E+02  0.47787272759E+02  0.20000007819E+02 0.  0.
        -12    1    1    2    0    0 -0.37494252010E+01  0.26276560687E+02  0.34338131780E+02  0.43400727241E+02  0.00000000000E+00 0.  1.
         11    1    3    3    0    0 -0.66968636590E+01 -0.12400287766E+02 -0.11581815452E+02  0.18241534172E+02  0.51100000000E-03 0. -1.
        -11    1    3    3    0    0  0.86103592434E+01 -0.68997547234E+01 -0.10001314128E+02  0.14891983954E+02  0.51100000000E-03 0.  1.
         12    1    3    3    0    0  0.18359296166E+01 -0.69765181980E+01 -0.12755002200E+02  0.14653754633E+02  0.00000000000E+00 0. -1.
</event>
<event>
 7    1  0.2442667E-009  0.4778727E+02  0.7816164E-02  0.1312668E+00
        -11   -1    0    0    0    0  0.00000000000E+00  0.00000000000E+00  0.45593999997E+02  0.45594000000E+02  0.51100000000E-03 0. -1.
         11   -1    0    0    0    0 -0.00000000000E+00 -0.00000000000E+00 -0.45593999997E+02  0.45594000000E+02  0.51100000000E-03 0.  1.
    9900012    2    1    2    0    0  0.36662806497E+02 -0.28380831710E+01  0.23052269802E+02  0.47787271442E+02  0.20000001815E+02 0.  0.
        -12    1    1    2    0    0 -0.36662806497E+02  0.28380831710E+01 -0.23052269802E+02  0.43400728558E+02  0.00000000000E+00 0.  1.
         11    1    3    3    0    0  0.10185866197E+02 -0.44186600455E+01  0.49857425118E+01  0.12171033458E+02  0.51100000000E-03 0. -1.
        -11    1    3    3    0    0  0.61383785768E+01 -0.11277191350E+01  0.13092328385E+02  0.14503810010E+02  0.51100000000E-03 0.  1.
        -12    1    3    3    0    0  0.20338561723E+02  0.27082960095E+01  0.49741989049E+01  0.21112427974E+02  0.00000000000E+00 0.  1.
</event>
<event>
 7    1  0.2442667E-009  0.4778727E+02  0.7816164E-02  0.1312668E+00
        -11   -1    0    0    0    0  0.00000000000E+00  0.00000000000E+00  0.45593999997E+02  0.45594000000E+02  0.51100000000E-03 0.  1.
         11   -1    0    0    0    0 -0.00000000000E+00 -0.00000000000E+00 -0.45593999997E+02  0.45594000000E+02  0.51100000000E-03 0. -1.
    9900012    2    1    2    0    0 -0.39483864534E+02 -0.16234920850E+02 -0.78150468056E+01  0.47787272240E+02  0.20000005449E+02 0.  0.
        -12    1    1    2    0    0  0.39483864534E+02  0.16234920850E+02  0.78150468056E+01  0.43400727760E+02  0.00000000000E+00 0.  1.
         11    1    3    3    0    0 -0.11702208663E+02 -0.12023528845E+02 -0.75205125514E+01  0.18386545156E+02  0.51100000000E-03 0. -1.
        -11    1    3    3    0    0 -0.16696541880E+02  0.63508849945E+00 -0.30696721821E+01  0.16988252874E+02  0.51100000000E-03 0.  1.
        -12    1    3    3    0    0 -0.11085113991E+02 -0.48464805042E+01  0.27751379279E+01  0.12412474209E+02  0.00000000000E+00 0.  1.
</event>
<event>
 7    1  0.2442667E-009  0.4778727E+02  0.7816164E-02  0.1312668E+00
        -11   -1    0    0    0    0  0.00000000000E+00  0.00000000000E+00  0.45593999997E+02  0.45594000000E+02  0.51100000000E-03 0. -1.
         11   -1    0    0    0    0 -0.00000000000E+00 -0.00000000000E+00 -0.45593999997E+02  0.45594000000E+02  0.51100000000E-03 0.  1.
    9900012    2    1    2    0    0 -0.10816761017E+02 -0.41348717770E+02 -0.75435110979E+01  0.47787270285E+02  0.19999996537E+02 0.  0.
        -12    1    1    2    0    0  0.10816761017E+02  0.41348717770E+02  0.75435110979E+01  0.43400729715E+02  0.00000000000E+00 0.  1.
         11    1    3    3    0    0 -0.45209669303E+01 -0.21843934967E+02 -0.80355555760E+01  0.23710056737E+02  0.51100000000E-03 0. -1.
        -11    1    3    3    0    0  0.33584680682E+00 -0.69751753591E+01  0.56592433055E+01  0.89884870484E+01  0.51100000000E-03 0.  1.
        -12    1    3    3    0    0 -0.66316408934E+01 -0.12529607444E+02 -0.51671988273E+01  0.15088726499E+02  0.00000000000E+00 0.  1.
</event>
<event>
 7    1  0.2442667E-009  0.4778727E+02  0.7816164E-02  0.1312668E+00
        -11   -1    0    0    0    0  0.00000000000E+00  0.00000000000E+00  0.45593999997E+02  0.45594000000E+02  0.51100000000E-03 0.  1.
         11   -1    0    0    0    0 -0.00000000000E+00 -0.00000000000E+00 -0.45593999997E+02  0.45594000000E+02  0.51100000000E-03 0. -1.
    9900012    2    1    2    0    0  0.35384574901E+02 -0.11095639075E+02 -0.22548651724E+02  0.47787273716E+02  0.20000012181E+02 0.  0.
        -12    1    1    2    0    0 -0.35384574901E+02  0.11095639075E+02  0.22548651724E+02  0.43400726284E+02  0.00000000000E+00 0.  1.
         11    1    3    3    0    0  0.10893704068E+02 -0.59647811391E+01 -0.16926321941E+02  0.20994089099E+02  0.51100000000E-03 0. -1.
        -11    1    3    3    0    0 -0.19872598252E+00  0.42872460812E+00  0.56842432412E+00  0.73919096255E+00  0.51100000000E-03 0.  1.
         12    1    3    3    0    0  0.24689596815E+02 -0.55595825439E+01 -0.61907541073E+01  0.26053993655E+02  0.00000000000E+00 0. -1.
</event>
<event>
 7    1  0.2442667E-009  0.4778727E+02  0.7816164E-02  0.1312668E+00
        -11   -1    0    0    0    0  0.00000000000E+00  0.00000000000E+00  0.45593999997E+02  0.45594000000E+02  0.51100000000E-03 0.  1.
         11   -1    0    0    0    0 -0.00000000000E+00 -0.00000000000E+00 -0.45593999997E+02  0.45594000000E+02  0.51100000000E-03 0. -1.
    9900012    2    1    2    0    0 -0.11705610686E+02 -0.17534983222E+02 -0.37935814142E+02  0.47787274744E+02  0.20000016868E+02 0.  0.
        -12    1    1    2    0    0  0.11705610686E+02  0.17534983222E+02  0.37935814142E+02  0.43400725256E+02  0.00000000000E+00 0.  1.
         11    1    3    3    0    0 -0.63330425044E+01 -0.11199496213E+02 -0.14194241559E+02  0.19157573867E+02  0.51100000000E-03 0. -1.
        -11    1    3    3    0    0 -0.79572539937E+00  0.41757247299E+01 -0.90134416728E+01  0.99655399744E+01  0.51100000000E-03 0.  1.
        -12    1    3    3    0    0 -0.45768427823E+01 -0.10511211739E+02 -0.14728130911E+02  0.18664160902E+02  0.00000000000E+00 0.  1.
</event>
<event>
 7    1  0.2442667E-009  0.4778727E+02  0.7816164E-02  0.1312668E+00
        -11   -1    0    0    0    0  0.00000000000E+00  0.00000000000E+00  0.45593999997E+02  0.45594000000E+02  0.51100000000E-03 0.  1.
         11   -1    0    0    0    0 -0.00000000000E+00 -0.00000000000E+00 -0.45593999997E+02  0.45594000000E+02  0.51100000000E-03 0. -1.
    9900012    2    1    2    0    0  0.26811356789E+02 -0.52410409712E+01 -0.33723969662E+02  0.47787268519E+02  0.19999988486E+02 0.  0.
        -12    1    1    2    0    0 -0.26811356789E+02  0.52410409712E+01  0.33723969662E+02  0.43400731481E+02  0.00000000000E+00 0.  1.
         11    1    3    3    0    0  0.26526620589E+01 -0.24285572436E+01 -0.14336258392E+02  0.14780487517E+02  0.51100000000E-03 0. -1.
        -11    1    3    3    0    0  0.17586857795E+02 -0.66136272181E+01 -0.11354130177E+02  0.21953448577E+02  0.51100000000E-03 0.  1.
        -12    1    3    3    0    0  0.65718369348E+01  0.38011434905E+01 -0.80335810934E+01  0.11053332426E+02  0.00000000000E+00 0.  1.
</event>
<event>
 7    1  0.2442667E-009  0.4778728E+02  0.7816164E-02  0.1312668E+00
        -11   -1    0    0    0    0  0.00000000000E+00  0.00000000000E+00  0.45593999997E+02  0.45594000000E+02  0.51100000000E-03 0. -1.
         11   -1    0    0    0    0 -0.00000000000E+00 -0.00000000000E+00 -0.45593999997E+02  0.45594000000E+02  0.51100000000E-03 0.  1.
    9900012    2    1    2    0    0 -0.12508019739E+02  0.29882363543E+02 -0.28882806387E+02  0.47787277500E+02  0.20000029432E+02 0.  0.
        -12    1    1    2    0    0  0.12508019739E+02 -0.29882363543E+02  0.28882806387E+02  0.43400722500E+02  0.00000000000E+00 0.  1.
         11    1    3    3    0    0 -0.33996762234E+01  0.10487087545E+02  0.91850439691E+00  0.11062569963E+02  0.51100000000E-03 0. -1.
        -11    1    3    3    0    0 -0.84475320032E+01  0.18572335628E+02 -0.28456134442E+02  0.35014911613E+02  0.51100000000E-03 0.  1.
         12    1    3    3    0    0 -0.66081151237E+00  0.82294036962E+00 -0.13451763425E+01  0.17097959233E+01  0.00000000000E+00 0. -1.
</event>
<event>
 7    1  0.2442667E-009  0.4778727E+02  0.7816164E-02  0.1312668E+00
        -11   -1    0    0    0    0  0.00000000000E+00  0.00000000000E+00  0.45593999997E+02  0.45594000000E+02  0.51100000000E-03 0. -1.
         11   -1    0    0    0    0 -0.00000000000E+00 -0.00000000000E+00 -0.45593999997E+02  0.45594000000E+02  0.51100000000E-03 0.  1.
    9900012    2    1    2    0    0  0.41806035251E+02 -0.10681173279E+02  0.46681349190E+01  0.47787268098E+02  0.19999986566E+02 0.  0.
        -12    1    1    2    0    0 -0.41806035251E+02  0.10681173279E+02 -0.46681349190E+01  0.43400731902E+02  0.00000000000E+00 0.  1.
         11    1    3    3    0    0  0.23049742235E+02 -0.96057756964E+01 -0.30933606388E+01  0.25162083064E+02  0.51100000000E-03 0. -1.
        -11    1    3    3    0    0  0.13296350484E+01  0.27686502687E+01 -0.21328386281E+00  0.30787731225E+01  0.51100000000E-03 0.  1.
         12    1    3    3    0    0  0.17426657967E+02 -0.38440478512E+01  0.79747794206E+01  0.19546411911E+02  0.00000000000E+00 0. -1.
</event>
<event>
 7    1  0.2442667E-009  0.4778728E+02  0.7816164E-02  0.1312668E+00
        -11   -1    0    0    0    0  0.00000000000E+00  0.00000000000E+00  0.45593999997E+02  0.45594000000E+02  0.51100000000E-03 0. -1.
         11   -1    0    0    0    0 -0.00000000000E+00 -0.00000000000E+00 -0.45593999997E+02  0.45594000000E+02  0.51100000000E-03 0.  1.
    9900012    2    1    2    0    0 -0.16130100051E+01 -0.43336894171E+02  0.17130696453E+01  0.47787276443E+02  0.20000024612E+02 0.  0.
        -12    1    1    2    0    0  0.16130100051E+01  0.43336894171E+02 -0.17130696453E+01  0.43400723557E+02  0.00000000000E+00 0.  1.
         11    1    3    3    0    0 -0.69702502553E+01 -0.31206525873E+02  0.17734984895E+01  0.32024630253E+02  0.51100000000E-03 0. -1.
        -11    1    3    3    0    0  0.78992014976E+00 -0.21383435559E+01 -0.35643953837E+01  0.42310048119E+01  0.51100000000E-03 0.  1.
         12    1    3    3    0    0  0.45673201004E+01 -0.99920247422E+01  0.35039665395E+01  0.11531641377E+02  0.00000000000E+00 0. -1.
</event>
<event>
 7    1  0.2442667E-009  0.4778729E+02  0.7816164E-02  0.1312668E+00
        -11   -1    0    0    0    0  0.00000000000E+00  0.00000000000E+00  0.45593999997E+02  0.45594000000E+02  0.51100000000E-03 0.  1.
         11   -1    0    0    0    0 -0.00000000000E+00 -0.00000000000E+00 -0.45593999997E+02  0.45594000000E+02  0.51100000000E-03 0. -1.
    9900012    2    1    2    0    0  0.83833963092E+01  0.39990741464E+02 -0.14631516028E+02  0.47787285745E+02  0.20000067027E+02 0.  0.
        -12    1    1    2    0    0 -0.83833963092E+01 -0.39990741464E+02  0.14631516028E+02  0.43400714255E+02  0.00000000000E+00 0.  1.
         11    1    3    3    0    0  0.13864155154E-01  0.21906625701E+02 -0.14168643236E+02  0.26089286944E+02  0.51100000000E-03 0. -1.
        -11    1    3    3    0    0 -0.17729399480E+01  0.20437915906E+01 -0.27032095561E+00  0.27190942987E+01  0.51100000000E-03 0.  1.
         12    1    3    3    0    0  0.10142472102E+02  0.16040324173E+02 -0.19255183583E+00  0.18978904503E+02  0.00000000000E+00 0. -1.
</event>
<event>
 7    1  0.2442667E-009  0.4778727E+02  0.7816164E-02  0.1312668E+00
        -11   -1    0    0    0    0  0.00000000000E+00  0.00000000000E+00  0.45593999997E+02  0.45594000000E+02  0.51100000000E-03 0. -1.
         11   -1    0    0    0    0 -0.00000000000E+00 -0.00000000000E+00 -0.45593999997E+02  0.45594000000E+02  0.51100000000E-03 0.  1.
    9900012    2    1    2    0    0 -0.25740236709E+02 -0.31542549901E+02  0.15037659491E+02  0.47787269095E+02  0.19999991113E+02 0.  0.
        -12    1    1    2    0    0  0.25740236709E+02  0.31542549901E+02 -0.15037659491E+02  0.43400730905E+02  0.00000000000E+00 0.  1.
         11    1    3    3    0    0 -0.10696655587E+02 -0.18429316431E+02  0.95881065033E+01  0.23366427442E+02  0.51100000000E-03 0. -1.
        -11    1    3    3    0    0 -0.17128745205E+02 -0.94574930575E+01  0.49501023557E+01  0.20182705488E+02  0.51100000000E-03 0.  1.
        -12    1    3    3    0    0  0.20851640826E+01 -0.36557404131E+01  0.49945063202E+00  0.42381361650E+01  0.00000000000E+00 0.  1.
</event>
<event>
 7    1  0.2442667E-009  0.4778727E+02  0.7816164E-02  0.1312668E+00
        -11   -1    0    0    0    0  0.00000000000E+00  0.00000000000E+00  0.45593999997E+02  0.45594000000E+02  0.51100000000E-03 0. -1.
         11   -1    0    0    0    0 -0.00000000000E+00 -0.00000000000E+00 -0.45593999997E+02  0.45594000000E+02  0.51100000000E-03 0.  1.
    9900012    2    1    2    0    0  0.29369726156E+02 -0.31479283113E+02  0.54860992193E+01  0.47787270001E+02  0.19999995244E+02 0.  0.
        -12    1    1    2    0    0 -0.29369726156E+02  0.31479283113E+02 -0.54860992193E+01  0.43400729999E+02  0.00000000000E+00 0.  1.
         11    1    3    3    0    0  0.10537196477E+02 -0.20233760010E+02  0.59355056339E+01  0.23572606583E+02  0.51100000000E-03 0. -1.
        -11    1    3    3    0    0  0.12210493332E+00 -0.39502207362E+01  0.10106704177E+01  0.40792901875E+01  0.51100000000E-03 0.  1.
         12    1    3    3    0    0  0.18710424746E+02 -0.72953023667E+01 -0.14600768323E+01  0.20135373231E+02  0.00000000000E+00 0. -1.
</event>
<event>
 7    1  0.2442667E-009  0.4778721E+02  0.7816164E-02  0.1312668E+00
        -11   -1    0    0    0    0  0.00000000000E+00  0.00000000000E+00  0.45593999997E+02  0.45594000000E+02  0.51100000000E-03 0.  1.
         11   -1    0    0    0    0 -0.00000000000E+00 -0.00000000000E+00 -0.45593999997E+02  0.45594000000E+02  0.51100000000E-03 0. -1.
    9900012    2    1    2    0    0  0.24148192045E+02  0.33807103972E+02 -0.12552797754E+02  0.47787214414E+02  0.19999741796E+02 0.  0.
        -12    1    1    2    0    0 -0.24148192045E+02 -0.33807103972E+02  0.12552797754E+02  0.43400785586E+02  0.00000000000E+00 0.  1.
         11    1    3    3    0    0  0.85328464221E+01  0.21939050166E+02 -0.94265806014E+01  0.25357283221E+02  0.51100000000E-03 0. -1.
        -11    1    3    3    0    0  0.67683359816E+01 -0.30298039228E+00  0.94866143772E+00  0.68412080704E+01  0.51100000000E-03 0.  1.
        -12    1    3    3    0    0  0.88470096415E+01  0.12171034199E+02 -0.40748785902E+01  0.15588723123E+02  0.00000000000E+00 0.  1.
</event>
<event>
 7    1  0.2442667E-009  0.4778727E+02  0.7816164E-02  0.1312668E+00
        -11   -1    0    0    0    0  0.00000000000E+00  0.00000000000E+00  0.45593999997E+02  0.45594000000E+02  0.51100000000E-03 0. -1.
         11   -1    0    0    0    0 -0.00000000000E+00 -0.00000000000E+00 -0.45593999997E+02  0.45594000000E+02  0.51100000000E-03 0.  1.
    9900012    2    1    2    0    0  0.31979805438E+02 -0.24467014701E+02  0.16195069719E+02  0.47787273653E+02  0.20000011892E+02 0.  0.
        -12    1    1    2    0    0 -0.31979805438E+02  0.24467014701E+02 -0.16195069719E+02  0.43400726347E+02  0.00000000000E+00 0.  1.
         11    1    3    3    0    0  0.21818058695E+02 -0.22533731522E+02  0.12142858448E+02  0.33633996983E+02  0.51100000000E-03 0. -1.
        -11    1    3    3    0    0  0.47765032971E+01  0.27622361370E+00 -0.24922613567E+01  0.53946872164E+01  0.51100000000E-03 0.  1.
        -12    1    3    3    0    0  0.53852434465E+01 -0.22095067935E+01  0.65444726268E+01  0.87585894534E+01  0.00000000000E+00 0.  1.
</event>
<event>
 7    1  0.2442667E-009  0.4778727E+02  0.7816164E-02  0.1312668E+00
        -11   -1    0    0    0    0  0.00000000000E+00  0.00000000000E+00  0.45593999997E+02  0.45594000000E+02  0.51100000000E-03 0. -1.
         11   -1    0    0    0    0 -0.00000000000E+00 -0.00000000000E+00 -0.45593999997E+02  0.45594000000E+02  0.51100000000E-03 0.  1.
    9900012    2    1    2    0    0 -0.15118899873E+02 -0.36949925229E+02  0.17021915284E+02  0.47787266046E+02  0.19999977210E+02 0.  0.
        -12    1    1    2    0    0  0.15118899873E+02  0.36949925229E+02 -0.17021915284E+02  0.43400733954E+02  0.00000000000E+00 0.  1.
         11    1    3    3    0    0 -0.10341466986E+02 -0.25282925551E+02  0.20390631354E+02  0.34087389327E+02  0.51100000000E-03 0. -1.
        -11    1    3    3    0    0 -0.39629402098E+01 -0.58466965530E+01 -0.33627866619E+01  0.78228569004E+01  0.51100000000E-03 0.  1.
         12    1    3    3    0    0 -0.81449267675E+00 -0.58203031256E+01 -0.59294080334E-02  0.58770198189E+01  0.00000000000E+00 0. -1.
</event>
<event>
 7    1  0.2442667E-009  0.4778727E+02  0.7816164E-02  0.1312668E+00
        -11   -1    0    0    0    0  0.00000000000E+00  0.00000000000E+00  0.45593999997E+02  0.45594000000E+02  0.51100000000E-03 0.  1.
         11   -1    0    0    0    0 -0.00000000000E+00 -0.00000000000E+00 -0.45593999997E+02  0.45594000000E+02  0.51100000000E-03 0. -1.
    9900012    2    1    2    0    0 -0.60537761326E+01  0.39113483094E+02 -0.17807594551E+02  0.47787272024E+02  0.20000004464E+02 0.  0.
        -12    1    1    2    0    0  0.60537761326E+01 -0.39113483094E+02  0.17807594551E+02  0.43400727976E+02  0.00000000000E+00 0.  1.
         11    1    3    3    0    0 -0.10530279628E+01  0.63749714275E+01 -0.83264139572E+01  0.10539368968E+02  0.51100000000E-03 0. -1.
        -11    1    3    3    0    0  0.13030382809E+01  0.27779685192E+02 -0.89288906144E+01  0.29208456070E+02  0.51100000000E-03 0.  1.
        -12    1    3    3    0    0 -0.63037864506E+01  0.49588264739E+01 -0.55228997988E+00  0.80394469856E+01  0.00000000000E+00 0.  1.
</event>
<event>
 7    1  0.2442667E-009  0.4778727E+02  0.7816164E-02  0.1312668E+00
        -11   -1    0    0    0    0  0.00000000000E+00  0.00000000000E+00  0.45593999997E+02  0.45594000000E+02  0.51100000000E-03 0.  1.
         11   -1    0    0    0    0 -0.00000000000E+00 -0.00000000000E+00 -0.45593999997E+02  0.45594000000E+02  0.51100000000E-03 0. -1.
    9900012    2    1    2    0    0  0.22268122838E+02 -0.28203472249E+02  0.24337587352E+02  0.47787270746E+02  0.19999998642E+02 0.  0.
        -12    1    1    2    0    0 -0.22268122838E+02  0.28203472249E+02 -0.24337587352E+02  0.43400729254E+02  0.00000000000E+00 0.  1.
         11    1    3    3    0    0  0.53768129921E+01 -0.11324293996E+02  0.68957566779E+01  0.14307383159E+02  0.51100000000E-03 0. -1.
        -11    1    3    3    0    0  0.11029896811E+02 -0.18186892241E+02  0.17389847659E+02  0.27474141932E+02  0.51100000000E-03 0.  1.
        -12    1    3    3    0    0  0.58614130347E+01  0.13077139881E+01  0.51983015917E-01  0.60057456550E+01  0.00000000000E+00 0.  1.
</event>
<event>
 7    1  0.2442667E-009  0.4778729E+02  0.7816164E-02  0.1312668E+00
        -11   -1    0    0    0    0  0.00000000000E+00  0.00000000000E+00  0.45593999997E+02  0.45594000000E+02  0.51100000000E-03 0. -1.
         11   -1    0    0    0    0 -0.00000000000E+00 -0.00000000000E+00 -0.45593999997E+02  0.45594000000E+02  0.51100000000E-03 0.  1.
    9900012    2    1    2    0    0  0.13454710000E+02 -0.41095207716E+02  0.37116682000E+01  0.47787288033E+02  0.20000077458E+02 0.  0.
        -12    1    1    2    0    0 -0.13454710000E+02  0.41095207716E+02 -0.37116682000E+01  0.43400711967E+02  0.00000000000E+00 0.  1.
         11    1    3    3    0    0  0.66747104865E+01 -0.21172641188E+02 -0.32162099118E+01  0.22431596051E+02  0.51100000000E-03 0.  1.
        -11    1    3    3    0    0  0.92035117856E+01 -0.14036395242E+02  0.84777227123E+01  0.18804169836E+02  0.51100000000E-03 0. -1.
        -12    1    3    3    0    0 -0.24235122719E+01 -0.58861712863E+01 -0.15498446006E+01  0.65515221460E+01  0.00000000000E+00 0.  1.
</event>
<event>
 7    1  0.2442667E-009  0.4778727E+02  0.7816164E-02  0.1312668E+00
        -11   -1    0    0    0    0  0.00000000000E+00  0.00000000000E+00  0.45593999997E+02  0.45594000000E+02  0.51100000000E-03 0.  1.
         11   -1    0    0    0    0 -0.00000000000E+00 -0.00000000000E+00 -0.45593999997E+02  0.45594000000E+02  0.51100000000E-03 0. -1.
    9900012    2    1    2    0    0 -0.43360435309E+02 -0.12790203980E-01 -0.18696386335E+01  0.47787273481E+02  0.20000011110E+02 0.  0.
        -12    1    1    2    0    0  0.43360435309E+02  0.12790203980E-01  0.18696386335E+01  0.43400726519E+02  0.00000000000E+00 0.  1.
         11    1    3    3    0    0 -0.27982787463E+02  0.57369507435E+01 -0.28656661202E+01  0.28708205109E+02  0.51100000000E-03 0. -1.
        -11    1    3    3    0    0 -0.52092737367E+01 -0.29450618200E+01  0.49985329882E+01  0.77971311572E+01  0.51100000000E-03 0.  1.
         12    1    3    3    0    0 -0.10168374109E+02 -0.28046791275E+01 -0.40025055014E+01  0.11281937215E+02  0.00000000000E+00 0. -1.
</event>
<event>
 7    1  0.2442667E-009  0.4778727E+02  0.7816164E-02  0.1312668E+00
        -11   -1    0    0    0    0  0.00000000000E+00  0.00000000000E+00  0.45593999997E+02  0.45594000000E+02  0.51100000000E-03 0.  1.
         11   -1    0    0    0    0 -0.00000000000E+00 -0.00000000000E+00 -0.45593999997E+02  0.45594000000E+02  0.51100000000E-03 0. -1.
    9900012    2    1    2    0    0  0.57342492412E+01 -0.17692837954E+02 -0.39213581869E+02  0.47787272676E+02  0.20000007438E+02 0.  0.
        -12    1    1    2    0    0 -0.57342492412E+01  0.17692837954E+02  0.39213581869E+02  0.43400727324E+02  0.00000000000E+00 0.  1.
         11    1    3    3    0    0  0.54602166278E+01 -0.41375781314E+01 -0.14683489503E+02  0.16203036218E+02  0.51100000000E-03 0. -1.
        -11    1    3    3    0    0 -0.62734770291E+01 -0.11343711473E+02 -0.15286291993E+02  0.20042630246E+02  0.51100000000E-03 0.  1.
        -12    1    3    3    0    0  0.65475096426E+01 -0.22115483499E+01 -0.92438003729E+01  0.11541606212E+02  0.00000000000E+00 0.  1.
</event>
<event>
 7    1  0.2442667E-009  0.4778727E+02  0.7816164E-02  0.1312668E+00
        -11   -1    0    0    0    0  0.00000000000E+00  0.00000000000E+00  0.45593999997E+02  0.45594000000E+02  0.51100000000E-03 0.  1.
         11   -1    0    0    0    0 -0.00000000000E+00 -0.00000000000E+00 -0.45593999997E+02  0.45594000000E+02  0.51100000000E-03 0. -1.
    9900012    2    1    2    0    0 -0.42201714137E+02  0.15501095667E+00 -0.10129868652E+02  0.47787274852E+02  0.20000017358E+02 0.  0.
        -12    1    1    2    0    0  0.42201714137E+02 -0.15501095667E+00  0.10129868652E+02  0.43400725148E+02  0.00000000000E+00 0.  1.
         11    1    3    3    0    0 -0.49025433250E+01 -0.58363420644E+01  0.15875225698E+01  0.77857593025E+01  0.51100000000E-03 0. -1.
        -11    1    3    3    0    0 -0.12163943285E+02  0.24121198189E+01 -0.67933372669E+01  0.14139634710E+02  0.51100000000E-03 0.  1.
         12    1    3    3    0    0 -0.25135227527E+02  0.35792332022E+01 -0.49240539547E+01  0.25861880839E+02  0.00000000000E+00 0. -1.
</event>
<event>
 7    1  0.2442667E-009  0.4778728E+02  0.7816164E-02  0.1312668E+00
        -11   -1    0    0    0    0  0.00000000000E+00  0.00000000000E+00  0.45593999997E+02  0.45594000000E+02  0.51100000000E-03 0. -1.
         11   -1    0    0    0    0 -0.00000000000E+00 -0.00000000000E+00 -0.45593999997E+02  0.45594000000E+02  0.51100000000E-03 0.  1.
    9900012    2    1    2    0    0  0.25740574741E+02 -0.16569651577E+02  0.30765113557E+02  0.47787277039E+02  0.20000027331E+02 0.  0.
        -12    1    1    2    0    0 -0.25740574741E+02  0.16569651577E+02 -0.30765113557E+02  0.43400722961E+02  0.00000000000E+00 0.  1.
         11    1    3    3    0    0  0.17880580061E+02 -0.12500963942E+02  0.14903274648E+02  0.26421522255E+02  0.51100000000E-03 0. -1.
        -11    1    3    3    0    0  0.59648536302E+01  0.22004858206E+00  0.15561925054E+02  0.16667375674E+02  0.51100000000E-03 0.  1.
        -12    1    3    3    0    0  0.18951410491E+01 -0.42887362175E+01  0.29991385546E+00  0.46983791098E+01  0.00000000000E+00 0.  1.
</event>
<event>
 7    1  0.2442667E-009  0.4778727E+02  0.7816164E-02  0.1312668E+00
        -11   -1    0    0    0    0  0.00000000000E+00  0.00000000000E+00  0.45593999997E+02  0.45594000000E+02  0.51100000000E-03 0.  1.
         11   -1    0    0    0    0 -0.00000000000E+00 -0.00000000000E+00 -0.45593999997E+02  0.45594000000E+02  0.51100000000E-03 0. -1.
    9900012    2    1    2    0    0  0.30466786034E+01  0.39541314531E+02 -0.17630235637E+02  0.47787274038E+02  0.20000013651E+02 0.  0.
        -12    1    1    2    0    0 -0.30466786034E+01 -0.39541314531E+02  0.17630235637E+02  0.43400725962E+02  0.00000000000E+00 0.  1.
         11    1    3    3    0    0 -0.41894879798E+01  0.48402822528E+01  0.42936264015E+00  0.64159562309E+01  0.51100000000E-03 0. -1.
        -11    1    3    3    0    0  0.33568534789E+01  0.33317652681E+01  0.43552089490E+00  0.47496109095E+01  0.51100000000E-03 0.  1.
         12    1    3    3    0    0  0.38793131042E+01  0.31369267011E+02 -0.18495119172E+02  0.36621706898E+02  0.00000000000E+00 0. -1.
</event>
<event>
 7    1  0.2442667E-009  0.4778728E+02  0.7816164E-02  0.1312668E+00
        -11   -1    0    0    0    0  0.00000000000E+00  0.00000000000E+00  0.45593999997E+02  0.45594000000E+02  0.51100000000E-03 0.  1.
         11   -1    0    0    0    0 -0.00000000000E+00 -0.00000000000E+00 -0.45593999997E+02  0.45594000000E+02  0.51100000000E-03 0. -1.
    9900012    2    1    2    0    0  0.38627665986E+02  0.18524703461E+02  0.69542578815E+01  0.47787275115E+02  0.20000018561E+02 0.  0.
        -12    1    1    2    0    0 -0.38627665986E+02 -0.18524703461E+02 -0.69542578815E+01  0.43400724885E+02  0.00000000000E+00 0.  1.
         11    1    3    3    0    0  0.67872410789E+01  0.35349683257E+01  0.82691024376E+01  0.11266796258E+02  0.51100000000E-03 0. -1.
        -11    1    3    3    0    0  0.28710486134E+00  0.24436255830E+01  0.52021422778E+00  0.25148276870E+01  0.51100000000E-03 0.  1.
         12    1    3    3    0    0  0.31553320046E+02  0.12546109552E+02 -0.18350587838E+01  0.34005651171E+02  0.00000000000E+00 0. -1.
</event>
<event>
 7    1  0.2442667E-009  0.4778727E+02  0.7816164E-02  0.1312668E+00
        -11   -1    0    0    0    0  0.00000000000E+00  0.00000000000E+00  0.45593999997E+02  0.45594000000E+02  0.51100000000E-03 0. -1.
         11   -1    0    0    0    0 -0.00000000000E+00 -0.00000000000E+00 -0.45593999997E+02  0.45594000000E+02  0.51100000000E-03 0.  1.
    9900012    2    1    2    0    0 -0.42797829952E+02 -0.40651185434E+01 -0.59534487594E+01  0.47787274321E+02  0.20000014937E+02 0.  0.
        -12    1    1    2    0    0  0.42797829952E+02  0.40651185434E+01  0.59534487594E+01  0.43400725679E+02  0.00000000000E+00 0.  1.
         11    1    3    3    0    0 -0.17313247930E+02 -0.13303892347E+01  0.25388991606E+01  0.17548917306E+02  0.51100000000E-03 0. -1.
        -11    1    3    3    0    0  0.78743560620E+00  0.55455550755E+00 -0.30622636832E+01  0.32101473131E+01  0.51100000000E-03 0.  1.
        -12    1    3    3    0    0 -0.26272017628E+02 -0.32892848162E+01 -0.54300842367E+01  0.27028209702E+02  0.00000000000E+00 0.  1.
</event>
<event>
 7    1  0.2442667E-009  0.4778727E+02  0.7816164E-02  0.1312668E+00
        -11   -1    0    0    0    0  0.00000000000E+00  0.00000000000E+00  0.45593999997E+02  0.45594000000E+02  0.51100000000E-03 0.  1.
         11   -1    0    0    0    0 -0.00000000000E+00 -0.00000000000E+00 -0.45593999997E+02  0.45594000000E+02  0.51100000000E-03 0. -1.
    9900012    2    1    2    0    0 -0.22020578048E+02 -0.36691157766E+02 -0.72440562434E+01  0.47787271127E+02  0.20000000378E+02 0.  0.
        -12    1    1    2    0    0  0.22020578048E+02  0.36691157766E+02  0.72440562434E+01  0.43400728873E+02  0.00000000000E+00 0.  1.
         11    1    3    3    0    0  0.10124735641E+01 -0.14905344942E+01 -0.13816039133E+01  0.22706002358E+01  0.51100000000E-03 0. -1.
        -11    1    3    3    0    0 -0.13444627236E+02 -0.23724311881E+02 -0.11418490944E+02  0.29563201982E+02  0.51100000000E-03 0.  1.
        -12    1    3    3    0    0 -0.95884243767E+01 -0.11476311391E+02  0.55560386136E+01  0.15953468909E+02  0.00000000000E+00 0.  1.
</event>
<event>
 7    1  0.2442667E-009  0.4778727E+02  0.7816164E-02  0.1312668E+00
        -11   -1    0    0    0    0  0.00000000000E+00  0.00000000000E+00  0.45593999997E+02  0.45594000000E+02  0.51100000000E-03 0.  1.
         11   -1    0    0    0    0 -0.00000000000E+00 -0.00000000000E+00 -0.45593999997E+02  0.45594000000E+02  0.51100000000E-03 0. -1.
    9900012    2    1    2    0    0  0.40280981574E+02 -0.13464983264E+02 -0.89308418984E+01  0.47787272035E+02  0.20000004518E+02 0.  0.
        -12    1    1    2    0    0 -0.40280981574E+02  0.13464983264E+02  0.89308418984E+01  0.43400727965E+02  0.00000000000E+00 0.  1.
         11    1    3    3    0    0  0.82312498884E+01 -0.41771070070E+01 -0.28124985250E+01  0.96494479577E+01  0.51100000000E-03 0. -1.
        -11    1    3    3    0    0  0.77147764287E+01  0.20423251410E+01 -0.79078867643E+01  0.11234925040E+02  0.51100000000E-03 0.  1.
        -12    1    3    3    0    0  0.24334955257E+02 -0.11330201398E+02  0.17895433909E+01  0.26902899037E+02  0.00000000000E+00 0.  1.
</event>
<event>
 7    1  0.2442667E-009  0.4778727E+02  0.7816164E-02  0.1312668E+00
        -11   -1    0    0    0    0  0.00000000000E+00  0.00000000000E+00  0.45593999997E+02  0.45594000000E+02  0.51100000000E-03 0.  1.
         11   -1    0    0    0    0 -0.00000000000E+00 -0.00000000000E+00 -0.45593999997E+02  0.45594000000E+02  0.51100000000E-03 0. -1.
    9900012    2    1    2    0    0 -0.24425142588E+02 -0.30397049063E+02 -0.19054002184E+02  0.47787272110E+02  0.20000004859E+02 0.  0.
        -12    1    1    2    0    0  0.24425142588E+02  0.30397049063E+02  0.19054002184E+02  0.43400727890E+02  0.00000000000E+00 0.  1.
         11    1    3    3    0    0 -0.14810200898E+02 -0.17030117084E+02 -0.13815051016E+02  0.26461719018E+02  0.51100000000E-03 0. -1.
        -11    1    3    3    0    0  0.24416035072E+01 -0.61578312967E+01 -0.17353213029E+01  0.68477481153E+01  0.51100000000E-03 0.  1.
        -12    1    3    3    0    0 -0.12056545197E+02 -0.72091006821E+01 -0.35036298645E+01  0.14477804977E+02  0.00000000000E+00 0.  1.
</event>
<event>
 7    1  0.2442667E-009  0.4778727E+02  0.7816164E-02  0.1312668E+00
        -11   -1    0    0    0    0  0.00000000000E+00  0.00000000000E+00  0.45593999997E+02  0.45594000000E+02  0.51100000000E-03 0.  1.
         11   -1    0    0    0    0 -0.00000000000E+00 -0.00000000000E+00 -0.45593999997E+02  0.45594000000E+02  0.51100000000E-03 0. -1.
    9900012    2    1    2    0    0  0.85968589105E+01  0.25756875622E+02 -0.33857066404E+02  0.47787267628E+02  0.19999984421E+02 0.  0.
        -12    1    1    2    0    0 -0.85968589105E+01 -0.25756875622E+02  0.33857066404E+02  0.43400732372E+02  0.00000000000E+00 0.  1.
         11    1    3    3    0    0  0.42728941151E+01  0.22766225540E+02 -0.31215622386E+02  0.38871245551E+02  0.51100000000E-03 0. -1.
        -11    1    3    3    0    0 -0.17025016787E+00 -0.18783514484E+01 -0.47797308214E+00  0.19456741279E+01  0.51100000000E-03 0.  1.
        -12    1    3    3    0    0  0.44942149632E+01  0.48690015304E+01 -0.21634709365E+01  0.69703479491E+01  0.00000000000E+00 0.  1.
</event>
<event>
 7    1  0.2442667E-009  0.4778727E+02  0.7816164E-02  0.1312668E+00
        -11   -1    0    0    0    0  0.00000000000E+00  0.00000000000E+00  0.45593999997E+02  0.45594000000E+02  0.51100000000E-03 0.  1.
         11   -1    0    0    0    0 -0.00000000000E+00 -0.00000000000E+00 -0.45593999997E+02  0.45594000000E+02  0.51100000000E-03 0. -1.
    9900012    2    1    2    0    0  0.40886799434E+02 -0.11731024670E+02 -0.86183391634E+01  0.47787273304E+02  0.20000010303E+02 0.  0.
        -12    1    1    2    0    0 -0.40886799434E+02  0.11731024670E+02  0.86183391634E+01  0.43400726696E+02  0.00000000000E+00 0.  1.
         11    1    3    3    0    0  0.19044256783E+02  0.17007108726E+01 -0.56490737228E+01  0.19937105308E+02  0.51100000000E-03 0. -1.
        -11    1    3    3    0    0  0.15212326213E+02 -0.14180731365E+02 -0.37501472771E+01  0.21132241142E+02  0.51100000000E-03 0.  1.
        -12    1    3    3    0    0  0.66302164387E+01  0.74899582192E+00  0.78088183646E+00  0.67179268534E+01  0.00000000000E+00 0.  1.
</event>
<event>
 7    1  0.2442667E-009  0.4778727E+02  0.7816164E-02  0.1312668E+00
        -11   -1    0    0    0    0  0.00000000000E+00  0.00000000000E+00  0.45593999997E+02  0.45594000000E+02  0.51100000000E-03 0.  1.
         11   -1    0    0    0    0 -0.00000000000E+00 -0.00000000000E+00 -0.45593999997E+02  0.45594000000E+02  0.51100000000E-03 0. -1.
    9900012    2    1    2    0    0  0.20828584636E+02  0.37815844666E+02 -0.44446913283E+01  0.47787270435E+02  0.19999997222E+02 0.  0.
        -12    1    1    2    0    0 -0.20828584636E+02 -0.37815844666E+02  0.44446913283E+01  0.43400729565E+02  0.00000000000E+00 0.  1.
         11    1    3    3    0    0 -0.22000965611E+01  0.33591034920E+01  0.25292892909E+01  0.47456617796E+01  0.51100000000E-03 0. -1.
        -11    1    3    3    0    0  0.61506845663E+00  0.42972636057E+01  0.13663728846E+01  0.45510173394E+01  0.51100000000E-03 0.  1.
         12    1    3    3    0    0  0.22413612740E+02  0.30159477569E+02 -0.83403535037E+01  0.38490591316E+02  0.00000000000E+00 0. -1.
</event>
<event>
 7    1  0.2442667E-009  0.4778727E+02  0.7816164E-02  0.1312668E+00
        -11   -1    0    0    0    0  0.00000000000E+00  0.00000000000E+00  0.45593999997E+02  0.45594000000E+02  0.51100000000E-03 0.  1.
         11   -1    0    0    0    0 -0.00000000000E+00 -0.00000000000E+00 -0.45593999997E+02  0.45594000000E+02  0.51100000000E-03 0. -1.
    9900012    2    1    2    0    0  0.14970587557E+02  0.90077281419E+01 -0.39728651619E+02  0.47787269390E+02  0.19999992455E+02 0.  0.
        -12    1    1    2    0    0 -0.14970587557E+02 -0.90077281419E+01  0.39728651619E+02  0.43400730610E+02  0.00000000000E+00 0.  1.
         11    1    3    3    0    0  0.73619325108E+01 -0.24368750777E+01 -0.16103180191E+02  0.17873131313E+02  0.51100000000E-03 0. -1.
        -11    1    3    3    0    0  0.62660004082E+01  0.87919150033E+01 -0.66494613321E+01  0.12679742379E+02  0.51100000000E-03 0.  1.
        -12    1    3    3    0    0  0.13426546379E+01  0.26526882163E+01 -0.16976010096E+02  0.17234395697E+02  0.00000000000E+00 0.  1.
</event>
<event>
 7    1  0.2442667E-009  0.4778727E+02  0.7816164E-02  0.1312668E+00
        -11   -1    0    0    0    0  0.00000000000E+00  0.00000000000E+00  0.45593999997E+02  0.45594000000E+02  0.51100000000E-03 0.  1.
         11   -1    0    0    0    0 -0.00000000000E+00 -0.00000000000E+00 -0.45593999997E+02  0.45594000000E+02  0.51100000000E-03 0. -1.
    9900012    2    1    2    0    0  0.15466462983E+02  0.22777879814E+02 -0.33549662300E+02  0.47787272743E+02  0.20000007743E+02 0.  0.
        -12    1    1    2    0    0 -0.15466462983E+02 -0.22777879814E+02  0.33549662300E+02  0.43400727257E+02  0.00000000000E+00 0.  1.
         11    1    3    3    0    0  0.11986624367E+01  0.29177466378E+00  0.21084515660E+01  0.24428451361E+01  0.51100000000E-03 0. -1.
        -11    1    3    3    0    0  0.18551293808E+00  0.71850040461E+01 -0.10070926074E+02  0.12372641207E+02  0.51100000000E-03 0.  1.
         12    1    3    3    0    0  0.14082287608E+02  0.15301101104E+02 -0.25587187792E+02  0.32971786400E+02  0.00000000000E+00 0. -1.
</event>
<event>
 7    1  0.2442667E-009  0.4778728E+02  0.7816164E-02  0.1312668E+00
        -11   -1    0    0    0    0  0.00000000000E+00  0.00000000000E+00  0.45593999997E+02  0.45594000000E+02  0.51100000000E-03 0.  1.
         11   -1    0    0    0    0 -0.00000000000E+00 -0.00000000000E+00 -0.45593999997E+02  0.45594000000E+02  0.51100000000E-03 0. -1.
    9900012    2    1    2    0    0  0.14111567662E+01  0.26889691529E+02 -0.34037859570E+02  0.47787276988E+02  0.20000027097E+02 0.  0.
        -12    1    1    2    0    0 -0.14111567662E+01 -0.26889691529E+02  0.34037859570E+02  0.43400723012E+02  0.00000000000E+00 0.  1.
         11    1    3    3    0    0 -0.90790072157E+00  0.67392220068E+01 -0.23571792177E+02  0.24533054920E+02  0.51100000000E-03 0. -1.
        -11    1    3    3    0    0 -0.29980433946E+00  0.13241635828E+02 -0.79565870097E+01  0.15451151386E+02  0.51100000000E-03 0.  1.
         12    1    3    3    0    0  0.26188618272E+01  0.69088336939E+01 -0.25094803825E+01  0.78030706821E+01  0.00000000000E+00 0. -1.
</event>
<event>
 7    1  0.2442667E-009  0.4778727E+02  0.7816164E-02  0.1312668E+00
        -11   -1    0    0    0    0  0.00000000000E+00  0.00000000000E+00  0.45593999997E+02  0.45594000000E+02  0.51100000000E-03 0.  1.
         11   -1    0    0    0    0 -0.00000000000E+00 -0.00000000000E+00 -0.45593999997E+02  0.45594000000E+02  0.51100000000E-03 0. -1.
    9900012    2    1    2    0    0 -0.15023382335E+02 -0.34082579988E+02 -0.22277767016E+02  0.47787272142E+02  0.20000005004E+02 0.  0.
        -12    1    1    2    0    0  0.15023382335E+02  0.34082579988E+02  0.22277767016E+02  0.43400727858E+02  0.00000000000E+00 0.  1.
         11    1    3    3    0    0 -0.18033782708E+01 -0.21642668411E+01  0.28570898443E+01  0.40123791928E+01  0.51100000000E-03 0.  1.
        -11    1    3    3    0    0 -0.14258722281E+02 -0.30599567583E+02 -0.25148367617E+02  0.42096141051E+02  0.51100000000E-03 0. -1.
         12    1    3    3    0    0  0.10387182166E+01 -0.13187455641E+01  0.13510756380E-01  0.16787518985E+01  0.00000000000E+00 0. -1.
</event>
<event>
 7    1  0.2442667E-009  0.4778727E+02  0.7816164E-02  0.1312668E+00
        -11   -1    0    0    0    0  0.00000000000E+00  0.00000000000E+00  0.45593999997E+02  0.45594000000E+02  0.51100000000E-03 0. -1.
         11   -1    0    0    0    0 -0.00000000000E+00 -0.00000000000E+00 -0.45593999997E+02  0.45594000000E+02  0.51100000000E-03 0.  1.
    9900012    2    1    2    0    0  0.72557038389E+00  0.42877448399E+02  0.66798960153E+01  0.47787273688E+02  0.20000012055E+02 0.  0.
        -12    1    1    2    0    0 -0.72557038389E+00 -0.42877448399E+02 -0.66798960153E+01  0.43400726312E+02  0.00000000000E+00 0.  1.
         11    1    3    3    0    0 -0.32356751816E+01  0.15243250549E+02  0.56719917392E+01  0.16583056767E+02  0.51100000000E-03 0. -1.
        -11    1    3    3    0    0  0.41035904253E+01  0.88342281794E+00  0.14743419340E+01  0.44489970390E+01  0.51100000000E-03 0.  1.
        -12    1    3    3    0    0 -0.14234485976E+00  0.26750775032E+02 -0.46643765794E+00  0.26755219882E+02  0.00000000000E+00 0.  1.
</event>
<event>
 7    1  0.2442667E-009  0.4778728E+02  0.7816164E-02  0.1312668E+00
        -11   -1    0    0    0    0  0.00000000000E+00  0.00000000000E+00  0.45593999997E+02  0.45594000000E+02  0.51100000000E-03 0.  1.
         11   -1    0    0    0    0 -0.00000000000E+00 -0.00000000000E+00 -0.45593999997E+02  0.45594000000E+02  0.51100000000E-03 0. -1.
    9900012    2    1    2    0    0  0.41498960977E+02  0.10766069018E+02 -0.67491360808E+01  0.47787276018E+02  0.20000022678E+02 0.  0.
        -12    1    1    2    0    0 -0.41498960977E+02 -0.10766069018E+02  0.67491360808E+01  0.43400723982E+02  0.00000000000E+00 0.  1.
         11    1    3    3    0    0  0.23267007786E+02 -0.16951748494E+01 -0.33292418540E+01  0.23565040222E+02  0.51100000000E-03 0. -1.
        -11    1    3    3    0    0  0.30763475036E+01  0.43048986225E+01  0.27194004497E+01  0.59490507797E+01  0.51100000000E-03 0.  1.
         12    1    3    3    0    0  0.15155605687E+02  0.81563452454E+01 -0.61392946764E+01  0.18273185016E+02  0.00000000000E+00 0. -1.
</event>
<event>
 7    1  0.2442667E-009  0.4778727E+02  0.7816164E-02  0.1312668E+00
        -11   -1    0    0    0    0  0.00000000000E+00  0.00000000000E+00  0.45593999997E+02  0.45594000000E+02  0.51100000000E-03 0.  1.
         11   -1    0    0    0    0 -0.00000000000E+00 -0.00000000000E+00 -0.45593999997E+02  0.45594000000E+02  0.51100000000E-03 0. -1.
    9900012    2    1    2    0    0  0.50628222556E+01  0.29435197139E+02 -0.31489052826E+02  0.47787269042E+02  0.19999990872E+02 0.  0.
        -12    1    1    2    0    0 -0.50628222556E+01 -0.29435197139E+02  0.31489052826E+02  0.43400730958E+02  0.00000000000E+00 0.  1.
         11    1    3    3    0    0  0.44949312969E+01  0.20231492544E+02 -0.18207375165E+02  0.27586703475E+02  0.51100000000E-03 0. -1.
        -11    1    3    3    0    0  0.35042799946E+01 -0.97169483899E+00 -0.69970930801E+01  0.78856503203E+01  0.51100000000E-03 0.  1.
        -12    1    3    3    0    0 -0.29363890359E+01  0.10175399434E+02 -0.62845845804E+01  0.12314915247E+02  0.00000000000E+00 0.  1.
</event>
<event>
 7    1  0.2442667E-009  0.4778727E+02  0.7816164E-02  0.1312668E+00
        -11   -1    0    0    0    0  0.00000000000E+00  0.00000000000E+00  0.45593999997E+02  0.45594000000E+02  0.51100000000E-03 0.  1.
         11   -1    0    0    0    0 -0.00000000000E+00 -0.00000000000E+00 -0.45593999997E+02  0.45594000000E+02  0.51100000000E-03 0. -1.
    9900012    2    1    2    0    0  0.28710624287E+02  0.63318666343E+01 -0.31925394181E+02  0.47787271024E+02  0.19999999906E+02 0.  0.
        -12    1    1    2    0    0 -0.28710624287E+02 -0.63318666343E+01  0.31925394181E+02  0.43400728976E+02  0.00000000000E+00 0.  1.
         11    1    3    3    0    0  0.12953551916E+02 -0.11166085211E+01 -0.20075752172E+01  0.13155671034E+02  0.51100000000E-03 0. -1.
        -11    1    3    3    0    0  0.12558539737E+02  0.61863987184E+01 -0.23674026439E+02  0.27503599356E+02  0.51100000000E-03 0.  1.
         12    1    3    3    0    0  0.31985326342E+01  0.12620764370E+01 -0.62437925250E+01  0.71280006341E+01  0.00000000000E+00 0. -1.
</event>
<event>
 7    1  0.2442667E-009  0.4778727E+02  0.7816164E-02  0.1312668E+00
        -11   -1    0    0    0    0  0.00000000000E+00  0.00000000000E+00  0.45593999997E+02  0.45594000000E+02  0.51100000000E-03 0.  1.
         11   -1    0    0    0    0 -0.00000000000E+00 -0.00000000000E+00 -0.45593999997E+02  0.45594000000E+02  0.51100000000E-03 0. -1.
    9900012    2    1    2    0    0  0.14946854120E+02  0.30753304021E+01 -0.40629513886E+02  0.47787268396E+02  0.19999987924E+02 0.  0.
        -12    1    1    2    0    0 -0.14946854120E+02 -0.30753304021E+01  0.40629513886E+02  0.43400731604E+02  0.00000000000E+00 0.  1.
         11    1    3    3    0    0  0.94366533631E+01  0.11345618292E+02 -0.24794625832E+02  0.28853889712E+02  0.51100000000E-03 0. -1.
        -11    1    3    3    0    0  0.60939734971E+00 -0.27933131564E+01 -0.60901577322E+01  0.67278514389E+01  0.51100000000E-03 0.  1.
         12    1    3    3    0    0  0.49008034077E+01 -0.54769747338E+01 -0.97447303218E+01  0.12205527245E+02  0.00000000000E+00 0. -1.
</event>
<event>
 7    1  0.2442667E-009  0.4778728E+02  0.7816164E-02  0.1312668E+00
        -11   -1    0    0    0    0  0.00000000000E+00  0.00000000000E+00  0.45593999997E+02  0.45594000000E+02  0.51100000000E-03 0.  1.
         11   -1    0    0    0    0 -0.00000000000E+00 -0.00000000000E+00 -0.45593999997E+02  0.45594000000E+02  0.51100000000E-03 0. -1.
    9900012    2    1    2    0    0  0.30779629182E+02  0.10657308386E+02 -0.28682030026E+02  0.47787278335E+02  0.20000033241E+02 0.  0.
        -12    1    1    2    0    0 -0.30779629182E+02 -0.10657308386E+02  0.28682030026E+02  0.43400721665E+02  0.00000000000E+00 0.  1.
         11    1    3    3    0    0  0.18113805761E+02  0.23545100773E+01 -0.12822436175E+02  0.22317449374E+02  0.51100000000E-03 0. -1.
        -11    1    3    3    0    0  0.94426706249E+01  0.10276758003E+02 -0.16527398145E+02  0.21631705279E+02  0.51100000000E-03 0.  1.
        -12    1    3    3    0    0  0.32231527962E+01 -0.19739596946E+01  0.66780429342E+00  0.38381236819E+01  0.00000000000E+00 0.  1.
</event>
<event>
 7    1  0.2442667E-009  0.4778727E+02  0.7816164E-02  0.1312668E+00
        -11   -1    0    0    0    0  0.00000000000E+00  0.00000000000E+00  0.45593999997E+02  0.45594000000E+02  0.51100000000E-03 0. -1.
         11   -1    0    0    0    0 -0.00000000000E+00 -0.00000000000E+00 -0.45593999997E+02  0.45594000000E+02  0.51100000000E-03 0.  1.
    9900012    2    1    2    0    0  0.15158237927E+02  0.49867596836E+01  0.40360665057E+02  0.47787271514E+02  0.20000002143E+02 0.  0.
        -12    1    1    2    0    0 -0.15158237927E+02 -0.49867596836E+01 -0.40360665057E+02  0.43400728486E+02  0.00000000000E+00 0.  1.
         11    1    3    3    0    0  0.15464984163E+02 -0.63268498328E+00  0.33297583586E+02  0.36719138039E+02  0.51100000000E-03 0. -1.
        -11    1    3    3    0    0 -0.28786621373E+01  0.37132437378E+01  0.61496531645E+01  0.77390638363E+01  0.51100000000E-03 0.  1.
         12    1    3    3    0    0  0.25719159016E+01  0.19062009291E+01  0.91342830717E+00  0.33290696387E+01  0.00000000000E+00 0. -1.
</event>
<event>
 7    1  0.2442667E-009  0.4778726E+02  0.7816164E-02  0.1312668E+00
        -11   -1    0    0    0    0  0.00000000000E+00  0.00000000000E+00  0.45593999997E+02  0.45594000000E+02  0.51100000000E-03 0.  1.
         11   -1    0    0    0    0 -0.00000000000E+00 -0.00000000000E+00 -0.45593999997E+02  0.45594000000E+02  0.51100000000E-03 0. -1.
    9900012    2    1    2    0    0 -0.71333384368E+01 -0.18253622393E+02 -0.38723958300E+02  0.47787260442E+02  0.19999951661E+02 0.  0.
        -12    1    1    2    0    0  0.71333384368E+01  0.18253622393E+02  0.38723958300E+02  0.43400739558E+02  0.00000000000E+00 0.  1.
         11    1    3    3    0    0 -0.16965290778E+01 -0.17333639001E+02 -0.17669927710E+02  0.24810473544E+02  0.51100000000E-03 0. -1.
        -11    1    3    3    0    0  0.51732822997E+00  0.23072456777E+01 -0.43308718642E+01  0.49343147934E+01  0.51100000000E-03 0.  1.
         12    1    3    3    0    0 -0.59541375889E+01 -0.32272290696E+01 -0.16723158726E+02  0.18042472105E+02  0.00000000000E+00 0. -1.
</event>
<event>
 7    1  0.2442667E-009  0.4778727E+02  0.7816164E-02  0.1312668E+00
        -11   -1    0    0    0    0  0.00000000000E+00  0.00000000000E+00  0.45593999997E+02  0.45594000000E+02  0.51100000000E-03 0.  1.
         11   -1    0    0    0    0 -0.00000000000E+00 -0.00000000000E+00 -0.45593999997E+02  0.45594000000E+02  0.51100000000E-03 0. -1.
    9900012    2    1    2    0    0 -0.16975713834E+02  0.19268192191E+02 -0.34988361564E+02  0.47787268031E+02  0.19999986262E+02 0.  0.
        -12    1    1    2    0    0  0.16975713834E+02 -0.19268192191E+02  0.34988361564E+02  0.43400731969E+02  0.00000000000E+00 0.  1.
         11    1    3    3    0    0  0.68842399701E+00 -0.90415578109E+00 -0.10456533674E+02  0.10518104488E+02  0.51100000000E-03 0. -1.
        -11    1    3    3    0    0 -0.16969593021E+02  0.15337197108E+02 -0.17966313449E+02  0.29085823379E+02  0.51100000000E-03 0.  1.
        -12    1    3    3    0    0 -0.69454480989E+00  0.48351508641E+01 -0.65655144410E+01  0.81833401644E+01  0.00000000000E+00 0.  1.
</event>
<event>
 7    1  0.2442667E-009  0.4778728E+02  0.7816164E-02  0.1312668E+00
        -11   -1    0    0    0    0  0.00000000000E+00  0.00000000000E+00  0.45593999997E+02  0.45594000000E+02  0.51100000000E-03 0.  1.
         11   -1    0    0    0    0 -0.00000000000E+00 -0.00000000000E+00 -0.45593999997E+02  0.45594000000E+02  0.51100000000E-03 0. -1.
    9900012    2    1    2    0    0  0.18379318944E+02 -0.25291569134E+02 -0.30102492422E+02  0.47787275535E+02  0.20000020473E+02 0.  0.
        -12    1    1    2    0    0 -0.18379318944E+02  0.25291569134E+02  0.30102492422E+02  0.43400724465E+02  0.00000000000E+00 0.  1.
         11    1    3    3    0    0  0.85637175552E+01 -0.21041618526E+02 -0.23272804315E+02  0.32522459770E+02  0.51100000000E-03 0. -1.
        -11    1    3    3    0    0  0.81405698117E+01  0.64160005033E+00 -0.25550940185E+01  0.85562277429E+01  0.51100000000E-03 0.  1.
        -12    1    3    3    0    0  0.16750315767E+01 -0.48915506576E+01 -0.42745940890E+01  0.67085880217E+01  0.00000000000E+00 0.  1.
</event>
<event>
 7    1  0.2442667E-009  0.4778727E+02  0.7816164E-02  0.1312668E+00
        -11   -1    0    0    0    0  0.00000000000E+00  0.00000000000E+00  0.45593999997E+02  0.45594000000E+02  0.51100000000E-03 0. -1.
         11   -1    0    0    0    0 -0.00000000000E+00 -0.00000000000E+00 -0.45593999997E+02  0.45594000000E+02  0.51100000000E-03 0.  1.
    9900012    2    1    2    0    0 -0.40150318232E+02  0.25391895313E+01  0.16282740821E+02  0.47787272054E+02  0.20000004603E+02 0.  0.
        -12    1    1    2    0    0  0.40150318232E+02 -0.25391895313E+01 -0.16282740821E+02  0.43400727946E+02  0.00000000000E+00 0.  1.
         11    1    3    3    0    0 -0.10010891704E+02 -0.19005618211E+01 -0.27136438964E+01  0.10544854262E+02  0.51100000000E-03 0. -1.
        -11    1    3    3    0    0 -0.21382458308E+02  0.13043579517E+01  0.17823650017E+02  0.27867424947E+02  0.51100000000E-03 0.  1.
         12    1    3    3    0    0 -0.87569682197E+01  0.31353934007E+01  0.11727347002E+01  0.93749928456E+01  0.00000000000E+00 0. -1.
</event>
<event>
 7    1  0.2442667E-009  0.4778728E+02  0.7816164E-02  0.1312668E+00
        -11   -1    0    0    0    0  0.00000000000E+00  0.00000000000E+00  0.45593999997E+02  0.45594000000E+02  0.51100000000E-03 0. -1.
         11   -1    0    0    0    0 -0.00000000000E+00 -0.00000000000E+00 -0.45593999997E+02  0.45594000000E+02  0.51100000000E-03 0.  1.
    9900012    2    1    2    0    0 -0.20108411358E+02 -0.35435675981E+02  0.14952827498E+02  0.47787281230E+02  0.20000046440E+02 0.  0.
        -12    1    1    2    0    0  0.20108411358E+02  0.35435675981E+02 -0.14952827498E+02  0.43400718770E+02  0.00000000000E+00 0.  1.
         11    1    3    3    0    0 -0.22324555239E+02 -0.27048488576E+02  0.14175159327E+02  0.37827789297E+02  0.51100000000E-03 0. -1.
        -11    1    3    3    0    0  0.17500458392E+01 -0.89773383209E+01  0.92568440032E+00  0.91930493112E+01  0.51100000000E-03 0.  1.
         12    1    3    3    0    0  0.46609804214E+00  0.59015091635E+00 -0.14801622864E+00  0.76644262205E+00  0.00000000000E+00 0. -1.
</event>
<event>
 7    1  0.2442667E-009  0.4778727E+02  0.7816164E-02  0.1312668E+00
        -11   -1    0    0    0    0  0.00000000000E+00  0.00000000000E+00  0.45593999997E+02  0.45594000000E+02  0.51100000000E-03 0. -1.
         11   -1    0    0    0    0 -0.00000000000E+00 -0.00000000000E+00 -0.45593999997E+02  0.45594000000E+02  0.51100000000E-03 0.  1.
    9900012    2    1    2    0    0  0.21333676468E+02 -0.30037849899E+02  0.22939596015E+02  0.47787271394E+02  0.20000001592E+02 0.  0.
        -12    1    1    2    0    0 -0.21333676468E+02  0.30037849899E+02 -0.22939596015E+02  0.43400728606E+02  0.00000000000E+00 0.  1.
         11    1    3    3    0    0  0.11601570846E+02 -0.18253741352E+02  0.12082679061E+02  0.24774718020E+02  0.51100000000E-03 0. -1.
        -11    1    3    3    0    0  0.77780473296E+01 -0.50474241337E+01  0.12733302849E+02  0.15751555871E+02  0.51100000000E-03 0.  1.
        -12    1    3    3    0    0  0.19540582930E+01 -0.67366844140E+01 -0.18763858952E+01  0.72609975027E+01  0.00000000000E+00 0.  1.
</event>
<event>
 7    1  0.2442667E-009  0.4778727E+02  0.7816164E-02  0.1312668E+00
        -11   -1    0    0    0    0  0.00000000000E+00  0.00000000000E+00  0.45593999997E+02  0.45594000000E+02  0.51100000000E-03 0.  1.
         11   -1    0    0    0    0 -0.00000000000E+00 -0.00000000000E+00 -0.45593999997E+02  0.45594000000E+02  0.51100000000E-03 0. -1.
    9900012    2    1    2    0    0  0.14101151995E+02  0.15501381604E+02 -0.38006419874E+02  0.47787271080E+02  0.20000000161E+02 0.  0.
        -12    1    1    2    0    0 -0.14101151995E+02 -0.15501381604E+02  0.38006419874E+02  0.43400728920E+02  0.00000000000E+00 0.  1.
         11    1    3    3    0    0  0.56420971632E+01  0.20282365297E+01 -0.13597859281E+02  0.14860981835E+02  0.51100000000E-03 0. -1.
        -11    1    3    3    0    0 -0.25894606547E+01 -0.18669088771E+01 -0.36822897092E+01  0.48733882464E+01  0.51100000000E-03 0.  1.
        -12    1    3    3    0    0  0.11048515487E+02  0.15340053951E+02 -0.20726270884E+02  0.28052900998E+02  0.00000000000E+00 0.  1.
</event>
<event>
 7    1  0.2442667E-009  0.4778723E+02  0.7816164E-02  0.1312668E+00
        -11   -1    0    0    0    0  0.00000000000E+00  0.00000000000E+00  0.45593999997E+02  0.45594000000E+02  0.51100000000E-03 0.  1.
         11   -1    0    0    0    0 -0.00000000000E+00 -0.00000000000E+00 -0.45593999997E+02  0.45594000000E+02  0.51100000000E-03 0. -1.
    9900012    2    1    2    0    0 -0.20208857323E+02 -0.31664271869E+02 -0.21739436190E+02  0.47787226814E+02  0.19999798332E+02 0.  0.
        -12    1    1    2    0    0  0.20208857323E+02  0.31664271869E+02  0.21739436190E+02  0.43400773186E+02  0.00000000000E+00 0.  1.
         11    1    3    3    0    0 -0.15225360725E+02 -0.16860634815E+02 -0.17533761470E+02  0.28697132385E+02  0.51100000000E-03 0. -1.
        -11    1    3    3    0    0 -0.60988887109E+00 -0.11732759939E+02  0.78937902835E+00  0.11775089797E+02  0.51100000000E-03 0.  1.
        -12    1    3    3    0    0 -0.43736077271E+01 -0.30708771153E+01 -0.49950537485E+01  0.73150046315E+01  0.00000000000E+00 0.  1.
</event>
<event>
 7    1  0.2442667E-009  0.4778728E+02  0.7816164E-02  0.1312668E+00
        -11   -1    0    0    0    0  0.00000000000E+00  0.00000000000E+00  0.45593999997E+02  0.45594000000E+02  0.51100000000E-03 0.  1.
         11   -1    0    0    0    0 -0.00000000000E+00 -0.00000000000E+00 -0.45593999997E+02  0.45594000000E+02  0.51100000000E-03 0. -1.
    9900012    2    1    2    0    0  0.18121450386E+02  0.28484357981E+02 -0.27274103657E+02  0.47787281757E+02  0.20000048844E+02 0.  0.
        -12    1    1    2    0    0 -0.18121450386E+02 -0.28484357981E+02  0.27274103657E+02  0.43400718243E+02  0.00000000000E+00 0.  1.
         11    1    3    3    0    0 -0.19333387152E+00  0.10067568334E+02 -0.19986126229E+01  0.10265854218E+02  0.51100000000E-03 0. -1.
        -11    1    3    3    0    0  0.17283705620E+02  0.14249571915E+02 -0.16730338280E+02  0.27958558599E+02  0.51100000000E-03 0.  1.
         12    1    3    3    0    0  0.10310786377E+01  0.41672177321E+01 -0.85451527540E+01  0.95628689405E+01  0.00000000000E+00 0. -1.
</event>
<event>
 7    1  0.2442667E-009  0.4778729E+02  0.7816164E-02  0.1312668E+00
        -11   -1    0    0    0    0  0.00000000000E+00  0.00000000000E+00  0.45593999997E+02  0.45594000000E+02  0.51100000000E-03 0.  1.
         11   -1    0    0    0    0 -0.00000000000E+00 -0.00000000000E+00 -0.45593999997E+02  0.45594000000E+02  0.51100000000E-03 0. -1.
    9900012    2    1    2    0    0  0.11334617411E+02 -0.24554052991E+02 -0.33944762135E+02  0.47787286336E+02  0.20000069722E+02 0.  0.
        -12    1    1    2    0    0 -0.11334617411E+02  0.24554052991E+02  0.33944762135E+02  0.43400713664E+02  0.00000000000E+00 0.  1.
         11    1    3    3    0    0  0.57926134514E+01 -0.11666871693E+02 -0.14011327856E+02  0.19130801715E+02  0.51100000000E-03 0. -1.
        -11    1    3    3    0    0 -0.11706134479E+01 -0.29913738346E+01  0.19222536510E+01  0.37434893645E+01  0.51100000000E-03 0.  1.
        -12    1    3    3    0    0  0.67126174076E+01 -0.98958074635E+01 -0.21855687929E+02  0.24912995257E+02  0.00000000000E+00 0.  1.
</event>
<event>
 7    1  0.2442667E-009  0.4778727E+02  0.7816164E-02  0.1312668E+00
        -11   -1    0    0    0    0  0.00000000000E+00  0.00000000000E+00  0.45593999997E+02  0.45594000000E+02  0.51100000000E-03 0. -1.
         11   -1    0    0    0    0 -0.00000000000E+00 -0.00000000000E+00 -0.45593999997E+02  0.45594000000E+02  0.51100000000E-03 0.  1.
    9900012    2    1    2    0    0 -0.39789228271E+02 -0.72130698136E+01 -0.15761106889E+02  0.47787267830E+02  0.19999985343E+02 0.  0.
        -12    1    1    2    0    0  0.39789228271E+02  0.72130698136E+01  0.15761106889E+02  0.43400732170E+02  0.00000000000E+00 0.  1.
         11    1    3    3    0    0 -0.12848342782E+02 -0.22935484386E+01  0.33627136436E+01  0.13477689712E+02  0.51100000000E-03 0. -1.
        -11    1    3    3    0    0 -0.50363892718E+01  0.11018401115E+01 -0.65808033925E+01  0.83597991650E+01  0.51100000000E-03 0.  1.
         12    1    3    3    0    0 -0.21904496218E+02 -0.60213614865E+01 -0.12543017140E+02  0.25949778952E+02  0.00000000000E+00 0. -1.
</event>
<event>
 7    1  0.2442667E-009  0.4778728E+02  0.7816164E-02  0.1312668E+00
        -11   -1    0    0    0    0  0.00000000000E+00  0.00000000000E+00  0.45593999997E+02  0.45594000000E+02  0.51100000000E-03 0.  1.
         11   -1    0    0    0    0 -0.00000000000E+00 -0.00000000000E+00 -0.45593999997E+02  0.45594000000E+02  0.51100000000E-03 0. -1.
    9900012    2    1    2    0    0  0.13443109389E+02  0.39192930606E+02 -0.12915867688E+02  0.47787278374E+02  0.20000033418E+02 0.  0.
        -12    1    1    2    0    0 -0.13443109389E+02 -0.39192930606E+02  0.12915867688E+02  0.43400721626E+02  0.00000000000E+00 0.  1.
         11    1    3    3    0    0  0.83199903414E+00  0.17771917452E+02 -0.69374208207E+01  0.19096101178E+02  0.51100000000E-03 0. -1.
        -11    1    3    3    0    0  0.50730655749E+01  0.55001922507E+01  0.39599650290E+01  0.84657800830E+01  0.51100000000E-03 0.  1.
        -12    1    3    3    0    0  0.75380447801E+01  0.15920820903E+02 -0.99384118961E+01  0.20225397113E+02  0.00000000000E+00 0.  1.
</event>
<event>
 7    1  0.2442667E-009  0.4778728E+02  0.7816164E-02  0.1312668E+00
        -11   -1    0    0    0    0  0.00000000000E+00  0.00000000000E+00  0.45593999997E+02  0.45594000000E+02  0.51100000000E-03 0.  1.
         11   -1    0    0    0    0 -0.00000000000E+00 -0.00000000000E+00 -0.45593999997E+02  0.45594000000E+02  0.51100000000E-03 0. -1.
    9900012    2    1    2    0    0  0.82095925687E+01 -0.37337265702E+02 -0.20546369197E+02  0.47787284482E+02  0.20000061269E+02 0.  0.
        -12    1    1    2    0    0 -0.82095925687E+01  0.37337265702E+02  0.20546369197E+02  0.43400715518E+02  0.00000000000E+00 0.  1.
         11    1    3    3    0    0  0.28730997905E+01 -0.87641956312E+01 -0.11089376526E+02  0.14423595234E+02  0.51100000000E-03 0. -1.
        -11    1    3    3    0    0  0.34036671708E+00 -0.26150246582E+02 -0.94607323540E+01  0.27811089564E+02  0.51100000000E-03 0.  1.
        -12    1    3    3    0    0  0.49961260611E+01 -0.24228234890E+01  0.37396827837E-02  0.55525996850E+01  0.00000000000E+00 0.  1.
</event>
<event>
 7    1  0.2442667E-009  0.4778727E+02  0.7816164E-02  0.1312668E+00
        -11   -1    0    0    0    0  0.00000000000E+00  0.00000000000E+00  0.45593999997E+02  0.45594000000E+02  0.51100000000E-03 0.  1.
         11   -1    0    0    0    0 -0.00000000000E+00 -0.00000000000E+00 -0.45593999997E+02  0.45594000000E+02  0.51100000000E-03 0. -1.
    9900012    2    1    2    0    0  0.12067716366E+01 -0.43383687265E+02  0.15011303725E+00  0.47787272444E+02  0.20000006380E+02 0.  0.
        -12    1    1    2    0    0 -0.12067716366E+01  0.43383687265E+02 -0.15011303725E+00  0.43400727556E+02  0.00000000000E+00 0.  1.
         11    1    3    3    0    0  0.20617164015E+01 -0.16238090873E+02  0.58937649043E+01  0.17397204796E+02  0.51100000000E-03 0. -1.
        -11    1    3    3    0    0 -0.52523288945E+01 -0.12785733828E+02 -0.66614903315E+01  0.15343969566E+02  0.51100000000E-03 0.  1.
        -12    1    3    3    0    0  0.43973841295E+01 -0.14359862564E+02  0.91783846447E+00  0.15046098082E+02  0.00000000000E+00 0.  1.
</event>
<event>
 7    1  0.2442667E-009  0.4778727E+02  0.7816164E-02  0.1312668E+00
        -11   -1    0    0    0    0  0.00000000000E+00  0.00000000000E+00  0.45593999997E+02  0.45594000000E+02  0.51100000000E-03 0.  1.
         11   -1    0    0    0    0 -0.00000000000E+00 -0.00000000000E+00 -0.45593999997E+02  0.45594000000E+02  0.51100000000E-03 0. -1.
    9900012    2    1    2    0    0  0.14312231774E+01  0.10707717953E+02 -0.42034742262E+02  0.47787272120E+02  0.20000004902E+02 0.  0.
        -12    1    1    2    0    0 -0.14312231774E+01 -0.10707717953E+02  0.42034742262E+02  0.43400727880E+02  0.00000000000E+00 0.  1.
         11    1    3    3    0    0  0.16442286816E+01 -0.32360594429E+01 -0.99254476262E+01  0.10568352734E+02  0.51100000000E-03 0. -1.
        -11    1    3    3    0    0  0.92837690892E-01  0.15545626964E+02 -0.32009749857E+02  0.35585098324E+02  0.51100000000E-03 0.  1.
        -12    1    3    3    0    0 -0.30584319516E+00 -0.16018495679E+01 -0.99544778549E-01  0.16338210616E+01  0.00000000000E+00 0.  1.
</event>
<event>
 7    1  0.2442667E-009  0.4778727E+02  0.7816164E-02  0.1312668E+00
        -11   -1    0    0    0    0  0.00000000000E+00  0.00000000000E+00  0.45593999997E+02  0.45594000000E+02  0.51100000000E-03 0.  1.
         11   -1    0    0    0    0 -0.00000000000E+00 -0.00000000000E+00 -0.45593999997E+02  0.45594000000E+02  0.51100000000E-03 0. -1.
    9900012    2    1    2    0    0  0.41332465715E+02 -0.11670422524E+02 -0.62491477584E+01  0.47787270379E+02  0.19999996965E+02 0.  0.
        -12    1    1    2    0    0 -0.41332465715E+02  0.11670422524E+02  0.62491477584E+01  0.43400729621E+02  0.00000000000E+00 0.  1.
         11    1    3    3    0    0  0.20335372437E+02 -0.92069820686E+01 -0.98122683362E+01  0.24383939410E+02  0.51100000000E-03 0. -1.
        -11    1    3    3    0    0  0.18322238112E+02 -0.44752492086E+01  0.53557312268E+01  0.19606532639E+02  0.51100000000E-03 0.  1.
        -12    1    3    3    0    0  0.26748551661E+01  0.20118087532E+01 -0.17926106489E+01  0.37967983298E+01  0.00000000000E+00 0.  1.
</event>
<event>
 7    1  0.2442667E-009  0.4778727E+02  0.7816164E-02  0.1312668E+00
        -11   -1    0    0    0    0  0.00000000000E+00  0.00000000000E+00  0.45593999997E+02  0.45594000000E+02  0.51100000000E-03 0. -1.
         11   -1    0    0    0    0 -0.00000000000E+00 -0.00000000000E+00 -0.45593999997E+02  0.45594000000E+02  0.51100000000E-03 0.  1.
    9900012    2    1    2    0    0  0.26056916041E+02  0.29905489857E+02 -0.17615956474E+02  0.47787272821E+02  0.20000008101E+02 0.  0.
        -12    1    1    2    0    0 -0.26056916041E+02 -0.29905489857E+02  0.17615956474E+02  0.43400727179E+02  0.00000000000E+00 0.  1.
         11    1    3    3    0    0  0.22845447059E+02  0.29351372124E+02 -0.18856334193E+02  0.41701065171E+02  0.51100000000E-03 0. -1.
        -11    1    3    3    0    0 -0.12595230161E+01 -0.42964048977E+00  0.61404191572E+00  0.14656182702E+01  0.51100000000E-03 0.  1.
         12    1    3    3    0    0  0.44709919978E+01  0.98375822272E+00  0.62633580305E+00  0.46205893805E+01  0.00000000000E+00 0. -1.
</event>
<event>
 7    1  0.2442667E-009  0.4778728E+02  0.7816164E-02  0.1312668E+00
        -11   -1    0    0    0    0  0.00000000000E+00  0.00000000000E+00  0.45593999997E+02  0.45594000000E+02  0.51100000000E-03 0.  1.
         11   -1    0    0    0    0 -0.00000000000E+00 -0.00000000000E+00 -0.45593999997E+02  0.45594000000E+02  0.51100000000E-03 0. -1.
    9900012    2    1    2    0    0 -0.11266038024E+02 -0.41779033791E+02 -0.33483409213E+01  0.47787278068E+02  0.20000032023E+02 0.  0.
        -12    1    1    2    0    0  0.11266038024E+02  0.41779033791E+02  0.33483409213E+01  0.43400721932E+02  0.00000000000E+00 0.  1.
         11    1    3    3    0    0 -0.57939163108E+01 -0.11260056336E+02 -0.87014763125E+01  0.15364700622E+02  0.51100000000E-03 0. -1.
        -11    1    3    3    0    0 -0.34986391373E+00 -0.76303559166E+01  0.46801367054E+01  0.89581480237E+01  0.51100000000E-03 0.  1.
        -12    1    3    3    0    0 -0.51222577995E+01 -0.22888621538E+02  0.67299868575E+00  0.23464429423E+02  0.00000000000E+00 0.  1.
</event>
<event>
 7    1  0.2442667E-009  0.4778727E+02  0.7816164E-02  0.1312668E+00
        -11   -1    0    0    0    0  0.00000000000E+00  0.00000000000E+00  0.45593999997E+02  0.45594000000E+02  0.51100000000E-03 0.  1.
         11   -1    0    0    0    0 -0.00000000000E+00 -0.00000000000E+00 -0.45593999997E+02  0.45594000000E+02  0.51100000000E-03 0. -1.
    9900012    2    1    2    0    0 -0.36545022470E+02 -0.36543026774E+00 -0.23408354587E+02  0.47787271077E+02  0.20000000147E+02 0.  0.
        -12    1    1    2    0    0  0.36545022470E+02  0.36543026774E+00  0.23408354587E+02  0.43400728923E+02  0.00000000000E+00 0.  1.
         11    1    3    3    0    0 -0.26217513379E+02  0.11122741113E+01 -0.24157010140E+02  0.35667300159E+02  0.51100000000E-03 0. -1.
        -11    1    3    3    0    0 -0.48127975151E+01 -0.32030477705E+01  0.21604097078E+01  0.61717019783E+01  0.51100000000E-03 0.  1.
        -12    1    3    3    0    0 -0.55147115755E+01  0.17253433915E+01 -0.14117541550E+01  0.59482689392E+01  0.00000000000E+00 0.  1.
</event>
<event>
 7    1  0.2442667E-009  0.4778727E+02  0.7816164E-02  0.1312668E+00
        -11   -1    0    0    0    0  0.00000000000E+00  0.00000000000E+00  0.45593999997E+02  0.45594000000E+02  0.51100000000E-03 0.  1.
         11   -1    0    0    0    0 -0.00000000000E+00 -0.00000000000E+00 -0.45593999997E+02  0.45594000000E+02  0.51100000000E-03 0. -1.
    9900012    2    1    2    0    0  0.41817345146E+02  0.76382162208E+01 -0.87516014979E+01  0.47787271540E+02  0.20000002260E+02 0.  0.
        -12    1    1    2    0    0 -0.41817345146E+02 -0.76382162208E+01  0.87516014979E+01  0.43400728460E+02  0.00000000000E+00 0.  1.
         11    1    3    3    0    0  0.86686581876E+01  0.56211916419E+01  0.44863268995E+01  0.11263683215E+02  0.51100000000E-03 0. -1.
        -11    1    3    3    0    0  0.58507613850E+01  0.28932260244E+01 -0.10315780137E+01  0.66080495664E+01  0.51100000000E-03 0.  1.
         12    1    3    3    0    0  0.27297925573E+02 -0.87620144555E+00 -0.12206350384E+02  0.29915538759E+02  0.00000000000E+00 0. -1.
</event>
<event>
 7    1  0.2442667E-009  0.4778727E+02  0.7816164E-02  0.1312668E+00
        -11   -1    0    0    0    0  0.00000000000E+00  0.00000000000E+00  0.45593999997E+02  0.45594000000E+02  0.51100000000E-03 0.  1.
         11   -1    0    0    0    0 -0.00000000000E+00 -0.00000000000E+00 -0.45593999997E+02  0.45594000000E+02  0.51100000000E-03 0. -1.
    9900012    2    1    2    0    0 -0.14613509773E+02 -0.14976332547E+02 -0.38023388763E+02  0.47787270773E+02  0.19999998762E+02 0.  0.
        -12    1    1    2    0    0  0.14613509773E+02  0.14976332547E+02  0.38023388763E+02  0.43400729227E+02  0.00000000000E+00 0.  1.
         11    1    3    3    0    0 -0.57738482826E+01 -0.16931570720E+01 -0.26111370085E+02  0.26795666680E+02  0.51100000000E-03 0. -1.
        -11    1    3    3    0    0 -0.79703950863E+01 -0.62163489884E+01 -0.61477250378E+01  0.11830668450E+02  0.51100000000E-03 0.  1.
         12    1    3    3    0    0 -0.86926640387E+00 -0.70668264871E+01 -0.57642936398E+01  0.91609356425E+01  0.00000000000E+00 0. -1.
</event>
<event>
 7    1  0.2442667E-009  0.4778728E+02  0.7816164E-02  0.1312668E+00
        -11   -1    0    0    0    0  0.00000000000E+00  0.00000000000E+00  0.45593999997E+02  0.45594000000E+02  0.51100000000E-03 0.  1.
         11   -1    0    0    0    0 -0.00000000000E+00 -0.00000000000E+00 -0.45593999997E+02  0.45594000000E+02  0.51100000000E-03 0. -1.
    9900012    2    1    2    0    0  0.73133698096E+01  0.25210212361E+02 -0.34562735912E+02  0.47787275363E+02  0.20000019691E+02 0.  0.
        -12    1    1    2    0    0 -0.73133698096E+01 -0.25210212361E+02  0.34562735912E+02  0.43400724637E+02  0.00000000000E+00 0.  1.
         11    1    3    3    0    0  0.91876659844E+01  0.20840881055E+02 -0.15843249051E+02  0.27744622364E+02  0.51100000000E-03 0. -1.
        -11    1    3    3    0    0  0.10410209001E+01 -0.55543112815E+00 -0.57002455660E+01  0.58210847809E+01  0.51100000000E-03 0.  1.
         12    1    3    3    0    0 -0.29153170748E+01  0.49247624346E+01 -0.13019241295E+02  0.14221568218E+02  0.00000000000E+00 0. -1.
</event>
<event>
 7    1  0.2442667E-009  0.4778732E+02  0.7816164E-02  0.1312668E+00
        -11   -1    0    0    0    0  0.00000000000E+00  0.00000000000E+00  0.45593999997E+02  0.45594000000E+02  0.51100000000E-03 0.  1.
         11   -1    0    0    0    0 -0.00000000000E+00 -0.00000000000E+00 -0.45593999997E+02  0.45594000000E+02  0.51100000000E-03 0. -1.
    9900012    2    1    2    0    0 -0.39848420225E+02 -0.10710177216E+02 -0.13454155632E+02  0.47787322653E+02  0.20000235301E+02 0.  0.
        -12    1    1    2    0    0  0.39848420225E+02  0.10710177216E+02  0.13454155632E+02  0.43400677347E+02  0.00000000000E+00 0.  1.
         11    1    3    3    0    0 -0.19716699723E+02 -0.68544420659E+01 -0.41081270927E+01  0.21274593592E+02  0.51100000000E-03 0. -1.
        -11    1    3    3    0    0  0.12766156513E+01 -0.61035131206E+00  0.16944234769E+01  0.22075659504E+01  0.51100000000E-03 0.  1.
        -12    1    3    3    0    0 -0.21408336153E+02 -0.32453838376E+01 -0.11040452017E+02  0.24305163110E+02  0.00000000000E+00 0.  1.
</event>
<event>
 7    1  0.2442667E-009  0.4778728E+02  0.7816164E-02  0.1312668E+00
        -11   -1    0    0    0    0  0.00000000000E+00  0.00000000000E+00  0.45593999997E+02  0.45594000000E+02  0.51100000000E-03 0.  1.
         11   -1    0    0    0    0 -0.00000000000E+00 -0.00000000000E+00 -0.45593999997E+02  0.45594000000E+02  0.51100000000E-03 0. -1.
    9900012    2    1    2    0    0  0.22243443447E+01  0.55940346345E+01 -0.42981181535E+02  0.47787275382E+02  0.20000019775E+02 0.  0.
        -12    1    1    2    0    0 -0.22243443447E+01 -0.55940346345E+01  0.42981181535E+02  0.43400724618E+02  0.00000000000E+00 0.  1.
         11    1    3    3    0    0 -0.42280079708E+01 -0.18060463649E+01 -0.31939848366E+01  0.55981599004E+01  0.51100000000E-03 0.  1.
        -11    1    3    3    0    0  0.14270956060E+01  0.13398176528E+01 -0.27668902968E+02  0.27738058781E+02  0.51100000000E-03 0. -1.
        -12    1    3    3    0    0  0.50252567094E+01  0.60602633466E+01 -0.12118293731E+02  0.14451056701E+02  0.00000000000E+00 0.  1.
</event>
<event>
 7    1  0.2442667E-009  0.4778728E+02  0.7816164E-02  0.1312668E+00
        -11   -1    0    0    0    0  0.00000000000E+00  0.00000000000E+00  0.45593999997E+02  0.45594000000E+02  0.51100000000E-03 0.  1.
         11   -1    0    0    0    0 -0.00000000000E+00 -0.00000000000E+00 -0.45593999997E+02  0.45594000000E+02  0.51100000000E-03 0. -1.
    9900012    2    1    2    0    0  0.10115767200E+02  0.39348332681E+02 -0.15264432346E+02  0.47787275056E+02  0.20000018290E+02 0.  0.
        -12    1    1    2    0    0 -0.10115767200E+02 -0.39348332681E+02  0.15264432346E+02  0.43400724944E+02  0.00000000000E+00 0.  1.
         11    1    3    3    0    0 -0.19513174298E+01  0.35371949569E+01 -0.72253763043E+00  0.41038334230E+01  0.51100000000E-03 0. -1.
        -11    1    3    3    0    0 -0.23286636124E+01  0.11438622917E+02 -0.92332349285E+01  0.14883460483E+02  0.51100000000E-03 0.  1.
        -12    1    3    3    0    0  0.14395748242E+02  0.24372514807E+02 -0.53086597872E+01  0.28799981150E+02  0.00000000000E+00 0.  1.
</event>
<event>
 7    1  0.2442667E-009  0.4778727E+02  0.7816164E-02  0.1312668E+00
        -11   -1    0    0    0    0  0.00000000000E+00  0.00000000000E+00  0.45593999997E+02  0.45594000000E+02  0.51100000000E-03 0.  1.
         11   -1    0    0    0    0 -0.00000000000E+00 -0.00000000000E+00 -0.45593999997E+02  0.45594000000E+02  0.51100000000E-03 0. -1.
    9900012    2    1    2    0    0 -0.33425357136E+02 -0.19106162406E+02 -0.20033056981E+02  0.47787270587E+02  0.19999997914E+02 0.  0.
        -12    1    1    2    0    0  0.33425357136E+02  0.19106162406E+02  0.20033056981E+02  0.43400729413E+02  0.00000000000E+00 0.  1.
         11    1    3    3    0    0 -0.24936233358E+02 -0.91136687456E+01 -0.18306616656E+02  0.32249138062E+02  0.51100000000E-03 0. -1.
        -11    1    3    3    0    0  0.22258422558E+00 -0.56809311218E+01 -0.11526083153E+01  0.58009506409E+01  0.51100000000E-03 0.  1.
        -12    1    3    3    0    0 -0.87117080035E+01 -0.43115625389E+01 -0.57383200962E+00  0.97371818839E+01  0.00000000000E+00 0.  1.
</event>
<event>
 7    1  0.2442667E-009  0.4778727E+02  0.7816164E-02  0.1312668E+00
        -11   -1    0    0    0    0  0.00000000000E+00  0.00000000000E+00  0.45593999997E+02  0.45594000000E+02  0.51100000000E-03 0.  1.
         11   -1    0    0    0    0 -0.00000000000E+00 -0.00000000000E+00 -0.45593999997E+02  0.45594000000E+02  0.51100000000E-03 0. -1.
    9900012    2    1    2    0    0  0.11160473340E+02 -0.31509535291E+01 -0.41822707596E+02  0.47787267933E+02  0.19999985812E+02 0.  0.
        -12    1    1    2    0    0 -0.11160473340E+02  0.31509535291E+01  0.41822707596E+02  0.43400732067E+02  0.00000000000E+00 0.  1.
         11    1    3    3    0    0  0.70265444317E+01 -0.30399937733E+01 -0.85985801916E+01  0.11513013088E+02  0.51100000000E-03 0. -1.
        -11    1    3    3    0    0 -0.22507502263E+01 -0.35863734958E+01 -0.24749357493E+02  0.25108935621E+02  0.51100000000E-03 0.  1.
        -12    1    3    3    0    0  0.63846791351E+01  0.34754137400E+01 -0.84747699113E+01  0.11165319224E+02  0.00000000000E+00 0.  1.
</event>
<event>
 7    1  0.2442667E-009  0.4778727E+02  0.7816164E-02  0.1312668E+00
        -11   -1    0    0    0    0  0.00000000000E+00  0.00000000000E+00  0.45593999997E+02  0.45594000000E+02  0.51100000000E-03 0.  1.
         11   -1    0    0    0    0 -0.00000000000E+00 -0.00000000000E+00 -0.45593999997E+02  0.45594000000E+02  0.51100000000E-03 0. -1.
    9900012    2    1    2    0    0 -0.66493988387E+01 -0.30220267431E+02 -0.30432613302E+02  0.47787273959E+02  0.20000013286E+02 0.  0.
        -12    1    1    2    0    0  0.66493988387E+01  0.30220267431E+02  0.30432613302E+02  0.43400726041E+02  0.00000000000E+00 0.  1.
         11    1    3    3    0    0 -0.29070191165E+01 -0.12269595063E+02 -0.11492169734E+02  0.17060588753E+02  0.51100000000E-03 0. -1.
        -11    1    3    3    0    0 -0.88417796043E+01 -0.96445795436E+01 -0.15740100561E+02  0.20468164233E+02  0.51100000000E-03 0.  1.
        -12    1    3    3    0    0  0.50993998821E+01 -0.83060928250E+01 -0.32003430070E+01  0.10258520972E+02  0.00000000000E+00 0.  1.
</event>
<event>
 7    1  0.2442667E-009  0.4778727E+02  0.7816164E-02  0.1312668E+00
        -11   -1    0    0    0    0  0.00000000000E+00  0.00000000000E+00  0.45593999997E+02  0.45594000000E+02  0.51100000000E-03 0.  1.
         11   -1    0    0    0    0 -0.00000000000E+00 -0.00000000000E+00 -0.45593999997E+02  0.45594000000E+02  0.51100000000E-03 0. -1.
    9900012    2    1    2    0    0 -0.14396279576E+02 -0.24907883174E+02 -0.32495657586E+02  0.47787271069E+02  0.20000000112E+02 0.  0.
        -12    1    1    2    0    0  0.14396279576E+02  0.24907883174E+02  0.32495657586E+02  0.43400728931E+02  0.00000000000E+00 0.  1.
         11    1    3    3    0    0 -0.34050080595E+01 -0.13658890685E+02 -0.52213068023E+01  0.15014040749E+02  0.51100000000E-03 0. -1.
        -11    1    3    3    0    0 -0.89522302863E+01 -0.67900387893E+01 -0.24916393841E+02  0.27332649636E+02  0.51100000000E-03 0.  1.
        -12    1    3    3    0    0 -0.20390412299E+01 -0.44589536991E+01 -0.23579569425E+01  0.54405806832E+01  0.00000000000E+00 0.  1.
</event>
<event>
 7    1  0.2442667E-009  0.4778728E+02  0.7816164E-02  0.1312668E+00
        -11   -1    0    0    0    0  0.00000000000E+00  0.00000000000E+00  0.45593999997E+02  0.45594000000E+02  0.51100000000E-03 0.  1.
         11   -1    0    0    0    0 -0.00000000000E+00 -0.00000000000E+00 -0.45593999997E+02  0.45594000000E+02  0.51100000000E-03 0. -1.
    9900012    2    1    2    0    0 -0.32732445879E+02 -0.77617524440E+01 -0.27421975466E+02  0.47787279353E+02  0.20000037881E+02 0.  0.
        -12    1    1    2    0    0  0.32732445879E+02  0.77617524440E+01  0.27421975466E+02  0.43400720647E+02  0.00000000000E+00 0.  1.
         11    1    3    3    0    0 -0.23176095762E+02 -0.71993461280E+01 -0.19444379944E+02  0.31097361803E+02  0.51100000000E-03 0. -1.
        -11    1    3    3    0    0 -0.10780675173E-01  0.40450772419E+01 -0.18654273264E+01  0.44545017103E+01  0.51100000000E-03 0.  1.
        -12    1    3    3    0    0 -0.95455694424E+01 -0.46074835579E+01 -0.61121681956E+01  0.12235415840E+02  0.00000000000E+00 0.  1.
</event>
<event>
 7    1  0.2442667E-009  0.4778728E+02  0.7816164E-02  0.1312668E+00
        -11   -1    0    0    0    0  0.00000000000E+00  0.00000000000E+00  0.45593999997E+02  0.45594000000E+02  0.51100000000E-03 0.  1.
         11   -1    0    0    0    0 -0.00000000000E+00 -0.00000000000E+00 -0.45593999997E+02  0.45594000000E+02  0.51100000000E-03 0. -1.
    9900012    2    1    2    0    0 -0.18733783906E+02  0.11457118174E+02 -0.37435312046E+02  0.47787276455E+02  0.20000024669E+02 0.  0.
        -12    1    1    2    0    0  0.18733783906E+02 -0.11457118174E+02  0.37435312046E+02  0.43400723545E+02  0.00000000000E+00 0.  1.
         11    1    3    3    0    0 -0.50526068859E+01  0.55550005254E-01 -0.69739505437E+01  0.86120792260E+01  0.51100000000E-03 0. -1.
        -11    1    3    3    0    0 -0.14647470507E+02  0.14850099029E+02 -0.24082204624E+02  0.31859479174E+02  0.51100000000E-03 0.  1.
        -12    1    3    3    0    0  0.96629348690E+00 -0.34485308595E+01 -0.63791568781E+01  0.73157180555E+01  0.00000000000E+00 0.  1.
</event>
<event>
 7    1  0.2442667E-009  0.4778727E+02  0.7816164E-02  0.1312668E+00
        -11   -1    0    0    0    0  0.00000000000E+00  0.00000000000E+00  0.45593999997E+02  0.45594000000E+02  0.51100000000E-03 0.  1.
         11   -1    0    0    0    0 -0.00000000000E+00 -0.00000000000E+00 -0.45593999997E+02  0.45594000000E+02  0.51100000000E-03 0. -1.
    9900012    2    1    2    0    0 -0.35417572432E+02 -0.20190556982E+02 -0.14884910880E+02  0.47787267286E+02  0.19999982864E+02 0.  0.
        -12    1    1    2    0    0  0.35417572432E+02  0.20190556982E+02  0.14884910880E+02  0.43400732714E+02  0.00000000000E+00 0.  1.
         11    1    3    3    0    0 -0.31013126129E+01 -0.71874439076E+01 -0.68637184164E+01  0.10410961560E+02  0.51100000000E-03 0. -1.
        -11    1    3    3    0    0  0.54798837026E-01 -0.24369036595E+01 -0.81607874136E+00  0.25705032837E+01  0.51100000000E-03 0.  1.
         12    1    3    3    0    0 -0.32371058656E+02 -0.10566209415E+02 -0.72051137217E+01  0.34805802442E+02  0.00000000000E+00 0. -1.
</event>
<event>
 7    1  0.2442667E-009  0.4778726E+02  0.7816164E-02  0.1312668E+00
        -11   -1    0    0    0    0  0.00000000000E+00  0.00000000000E+00  0.45593999997E+02  0.45594000000E+02  0.51100000000E-03 0. -1.
         11   -1    0    0    0    0 -0.00000000000E+00 -0.00000000000E+00 -0.45593999997E+02  0.45594000000E+02  0.51100000000E-03 0.  1.
    9900012    2    1    2    0    0 -0.32367903790E+02  0.24647607820E+02  0.15114166634E+02  0.47787264982E+02  0.19999972359E+02 0.  0.
        -12    1    1    2    0    0  0.32367903790E+02 -0.24647607820E+02 -0.15114166634E+02  0.43400735018E+02  0.00000000000E+00 0.  1.
         11    1    3    3    0    0 -0.14921202607E+02  0.13457723011E+02 -0.19202028908E+01  0.20185137485E+02  0.51100000000E-03 0. -1.
        -11    1    3    3    0    0 -0.31232167802E+01  0.22801918590E+01  0.69382726396E+01  0.79431344854E+01  0.51100000000E-03 0.  1.
         12    1    3    3    0    0 -0.14323484403E+02  0.89096929500E+01  0.10096096886E+02  0.19658993012E+02  0.00000000000E+00 0. -1.
</event>
<event>
 7    1  0.2442667E-009  0.4778727E+02  0.7816164E-02  0.1312668E+00
        -11   -1    0    0    0    0  0.00000000000E+00  0.00000000000E+00  0.45593999997E+02  0.45594000000E+02  0.51100000000E-03 0.  1.
         11   -1    0    0    0    0 -0.00000000000E+00 -0.00000000000E+00 -0.45593999997E+02  0.45594000000E+02  0.51100000000E-03 0. -1.
    9900012    2    1    2    0    0  0.13729193764E+02  0.14922600605E+02 -0.38372494909E+02  0.47787272636E+02  0.20000007255E+02 0.  0.
        -12    1    1    2    0    0 -0.13729193764E+02 -0.14922600605E+02  0.38372494909E+02  0.43400727364E+02  0.00000000000E+00 0.  1.
         11    1    3    3    0    0  0.12406598196E+02  0.89563879901E+00 -0.20430386690E+02  0.23919166963E+02  0.51100000000E-03 0. -1.
        -11    1    3    3    0    0 -0.97100109544E+00  0.96979286315E+01 -0.73804904291E+01  0.12225559378E+02  0.51100000000E-03 0.  1.
        -12    1    3    3    0    0  0.22935966631E+01  0.43290331741E+01 -0.10561617790E+02  0.11642546295E+02  0.00000000000E+00 0.  1.
</event>
<event>
 7    1  0.2442667E-009  0.4778728E+02  0.7816164E-02  0.1312668E+00
        -11   -1    0    0    0    0  0.00000000000E+00  0.00000000000E+00  0.45593999997E+02  0.45594000000E+02  0.51100000000E-03 0.  1.
         11   -1    0    0    0    0 -0.00000000000E+00 -0.00000000000E+00 -0.45593999997E+02  0.45594000000E+02  0.51100000000E-03 0. -1.
    9900012    2    1    2    0    0 -0.13219253925E+02  0.52665169650E+00 -0.41335174387E+02  0.47787277910E+02  0.20000031304E+02 0.  0.
        -12    1    1    2    0    0  0.13219253925E+02 -0.52665169650E+00  0.41335174387E+02  0.43400722090E+02  0.00000000000E+00 0.  1.
         11    1    3    3    0    0  0.40829730012E+01 -0.11581643865E+01 -0.68745439610E+01  0.80790697613E+01  0.51100000000E-03 0. -1.
        -11    1    3    3    0    0 -0.72935378021E+00  0.28816451437E+01 -0.36946825131E+01  0.47419948128E+01  0.51100000000E-03 0.  1.
         12    1    3    3    0    0 -0.16572873146E+02 -0.11968290607E+01 -0.30765947913E+02  0.34966213336E+02  0.00000000000E+00 0. -1.
</event>
<event>
 7    1  0.2442667E-009  0.4778726E+02  0.7816164E-02  0.1312668E+00
        -11   -1    0    0    0    0  0.00000000000E+00  0.00000000000E+00  0.45593999997E+02  0.45594000000E+02  0.51100000000E-03 0.  1.
         11   -1    0    0    0    0 -0.00000000000E+00 -0.00000000000E+00 -0.45593999997E+02  0.45594000000E+02  0.51100000000E-03 0. -1.
    9900012    2    1    2    0    0 -0.17008650121E+02 -0.21298299851E+02 -0.33774437884E+02  0.47787257958E+02  0.19999940332E+02 0.  0.
        -12    1    1    2    0    0  0.17008650121E+02  0.21298299851E+02  0.33774437884E+02  0.43400742042E+02  0.00000000000E+00 0.  1.
         11    1    3    3    0    0 -0.48810184952E+01 -0.75142687250E+01 -0.10167529041E+02  0.13552388096E+02  0.51100000000E-03 0. -1.
        -11    1    3    3    0    0 -0.16331173219E+02 -0.11764935575E+02 -0.19373450624E+02  0.27936562372E+02  0.51100000000E-03 0.  1.
        -12    1    3    3    0    0  0.42035415929E+01 -0.20190955507E+01 -0.42334582177E+01  0.62983074906E+01  0.00000000000E+00 0.  1.
</event>
<event>
 7    1  0.2442667E-009  0.4778727E+02  0.7816164E-02  0.1312668E+00
        -11   -1    0    0    0    0  0.00000000000E+00  0.00000000000E+00  0.45593999997E+02  0.45594000000E+02  0.51100000000E-03 0. -1.
         11   -1    0    0    0    0 -0.00000000000E+00 -0.00000000000E+00 -0.45593999997E+02  0.45594000000E+02  0.51100000000E-03 0.  1.
    9900012    2    1    2    0    0 -0.42631001037E+02 -0.77421537686E+00 -0.81007276372E+01  0.47787269048E+02  0.19999990899E+02 0.  0.
        -12    1    1    2    0    0  0.42631001037E+02  0.77421537686E+00  0.81007276372E+01  0.43400730952E+02  0.00000000000E+00 0.  1.
         11    1    3    3    0    0 -0.24242015994E+02 -0.40072024869E+01 -0.10318434735E+02  0.26649636149E+02  0.51100000000E-03 0. -1.
        -11    1    3    3    0    0 -0.93154877351E+01  0.65177345429E+01  0.10546228609E+01  0.11418029819E+02  0.51100000000E-03 0.  1.
         12    1    3    3    0    0 -0.90734973084E+01 -0.32847474328E+01  0.11630842369E+01  0.97196030806E+01  0.00000000000E+00 0. -1.
</event>
<event>
 7    1  0.2442667E-009  0.4778727E+02  0.7816164E-02  0.1312668E+00
        -11   -1    0    0    0    0  0.00000000000E+00  0.00000000000E+00  0.45593999997E+02  0.45594000000E+02  0.51100000000E-03 0. -1.
         11   -1    0    0    0    0 -0.00000000000E+00 -0.00000000000E+00 -0.45593999997E+02  0.45594000000E+02  0.51100000000E-03 0.  1.
    9900012    2    1    2    0    0 -0.11335489486E+02 -0.39683416841E+02  0.13429677930E+02  0.47787272548E+02  0.20000006853E+02 0.  0.
        -12    1    1    2    0    0  0.11335489486E+02  0.39683416841E+02 -0.13429677930E+02  0.43400727452E+02  0.00000000000E+00 0.  1.
         11    1    3    3    0    0 -0.30954638623E+00 -0.45834869257E+01  0.19734351684E+01  0.49998617969E+01  0.51100000000E-03 0. -1.
        -11    1    3    3    0    0 -0.28585945105E+01 -0.29065308010E+02  0.13896964377E+02  0.32343303966E+02  0.51100000000E-03 0.  1.
        -12    1    3    3    0    0 -0.81673485895E+01 -0.60346219054E+01 -0.24407216149E+01  0.10444106784E+02  0.00000000000E+00 0.  1.
</event>
<event>
 7    1  0.2442667E-009  0.4778727E+02  0.7816164E-02  0.1312668E+00
        -11   -1    0    0    0    0  0.00000000000E+00  0.00000000000E+00  0.45593999997E+02  0.45594000000E+02  0.51100000000E-03 0. -1.
         11   -1    0    0    0    0 -0.00000000000E+00 -0.00000000000E+00 -0.45593999997E+02  0.45594000000E+02  0.51100000000E-03 0.  1.
    9900012    2    1    2    0    0  0.40071006287E+02 -0.30516473880E+01  0.16389785031E+02  0.47787272472E+02  0.20000006508E+02 0.  0.
        -12    1    1    2    0    0 -0.40071006287E+02  0.30516473880E+01 -0.16389785031E+02  0.43400727528E+02  0.00000000000E+00 0.  1.
         11    1    3    3    0    0  0.64433390737E+01  0.16070213672E+01  0.35559169713E+01  0.75328402254E+01  0.51100000000E-03 0. -1.
        -11    1    3    3    0    0  0.28676210763E+02  0.31299054405E+01  0.10813048135E+02  0.30806547714E+02  0.51100000000E-03 0.  1.
        -12    1    3    3    0    0  0.49514564499E+01 -0.77885741957E+01  0.20208199249E+01  0.94478845329E+01  0.00000000000E+00 0.  1.
</event>
<event>
 7    1  0.2442667E-009  0.4778727E+02  0.7816164E-02  0.1312668E+00
        -11   -1    0    0    0    0  0.00000000000E+00  0.00000000000E+00  0.45593999997E+02  0.45594000000E+02  0.51100000000E-03 0. -1.
         11   -1    0    0    0    0 -0.00000000000E+00 -0.00000000000E+00 -0.45593999997E+02  0.45594000000E+02  0.51100000000E-03 0.  1.
    9900012    2    1    2    0    0 -0.41848076202E+02 -0.11032005350E+02  0.32644195855E+01  0.47787273519E+02  0.20000011281E+02 0.  0.
        -12    1    1    2    0    0  0.41848076202E+02  0.11032005350E+02 -0.32644195855E+01  0.43400726481E+02  0.00000000000E+00 0.  1.
         11    1    3    3    0    0 -0.11273500418E+02 -0.11496194430E+02  0.35960360939E+01  0.16498053640E+02  0.51100000000E-03 0. -1.
        -11    1    3    3    0    0 -0.22756402262E+02 -0.23562710746E+01  0.85240437494E+00  0.22893939171E+02  0.51100000000E-03 0.  1.
         12    1    3    3    0    0 -0.78181735227E+01  0.28204601546E+01 -0.11840208833E+01  0.83952807080E+01  0.00000000000E+00 0. -1.
</event>
<event>
 7    1  0.2442667E-009  0.4778727E+02  0.7816164E-02  0.1312668E+00
        -11   -1    0    0    0    0  0.00000000000E+00  0.00000000000E+00  0.45593999997E+02  0.45594000000E+02  0.51100000000E-03 0.  1.
         11   -1    0    0    0    0 -0.00000000000E+00 -0.00000000000E+00 -0.45593999997E+02  0.45594000000E+02  0.51100000000E-03 0. -1.
    9900012    2    1    2    0    0 -0.24929243523E+02  0.21551485179E+02 -0.28243395842E+02  0.47787272992E+02  0.20000008882E+02 0.  0.
        -12    1    1    2    0    0  0.24929243523E+02 -0.21551485179E+02  0.28243395842E+02  0.43400727008E+02  0.00000000000E+00 0.  1.
         11    1    3    3    0    0 -0.33443418069E+01  0.49415929283E+01 -0.12811000304E+02  0.14132434038E+02  0.51100000000E-03 0. -1.
        -11    1    3    3    0    0 -0.95525977619E+01  0.83426634698E+01 -0.38375243208E+00  0.12688554841E+02  0.51100000000E-03 0.  1.
        -12    1    3    3    0    0 -0.12032303955E+02  0.82672287813E+01 -0.15048643106E+02  0.20966284113E+02  0.00000000000E+00 0.  1.
</event>
<event>
 7    1  0.2442667E-009  0.4778727E+02  0.7816164E-02  0.1312668E+00
        -11   -1    0    0    0    0  0.00000000000E+00  0.00000000000E+00  0.45593999997E+02  0.45594000000E+02  0.51100000000E-03 0. -1.
         11   -1    0    0    0    0 -0.00000000000E+00 -0.00000000000E+00 -0.45593999997E+02  0.45594000000E+02  0.51100000000E-03 0.  1.
    9900012    2    1    2    0    0 -0.10535742312E+02 -0.15622250944E+02  0.39096885322E+02  0.47787273825E+02  0.20000012678E+02 0.  0.
        -12    1    1    2    0    0  0.10535742312E+02  0.15622250944E+02 -0.39096885322E+02  0.43400726175E+02  0.00000000000E+00 0.  1.
         11    1    3    3    0    0 -0.32628365111E+01 -0.15944906264E+02  0.21624206791E+02  0.27064597862E+02  0.51100000000E-03 0. -1.
        -11    1    3    3    0    0 -0.12962279002E+01  0.25201197916E+01  0.11988068731E+02  0.12318482159E+02  0.51100000000E-03 0.  1.
         12    1    3    3    0    0 -0.59766779007E+01 -0.21974644717E+01  0.54846098003E+01  0.84041938040E+01  0.00000000000E+00 0. -1.
</event>
<event>
 7    1  0.2442667E-009  0.4778726E+02  0.7816164E-02  0.1312668E+00
        -11   -1    0    0    0    0  0.00000000000E+00  0.00000000000E+00  0.45593999997E+02  0.45594000000E+02  0.51100000000E-03 0. -1.
         11   -1    0    0    0    0 -0.00000000000E+00 -0.00000000000E+00 -0.45593999997E+02  0.45594000000E+02  0.51100000000E-03 0.  1.
    9900012    2    1    2    0    0 -0.27787342879E+02  0.41319103808E+01  0.33081939489E+02  0.47787264660E+02  0.19999970891E+02 0.  0.
        -12    1    1    2    0    0  0.27787342879E+02 -0.41319103808E+01 -0.33081939489E+02  0.43400735340E+02  0.00000000000E+00 0.  1.
         11    1    3    3    0    0 -0.78720758829E+01 -0.21241506744E-01  0.40207931394E+01  0.88395026805E+01  0.51100000000E-03 0. -1.
        -11    1    3    3    0    0 -0.12079614539E+02  0.68265453592E+01  0.73286129757E+01  0.15691633992E+02  0.51100000000E-03 0.  1.
        -12    1    3    3    0    0 -0.78356524573E+01 -0.26733934717E+01  0.21732533374E+02  0.23256127987E+02  0.00000000000E+00 0.  1.
</event>
<event>
 7    1  0.2442667E-009  0.4778727E+02  0.7816164E-02  0.1312668E+00
        -11   -1    0    0    0    0  0.00000000000E+00  0.00000000000E+00  0.45593999997E+02  0.45594000000E+02  0.51100000000E-03 0.  1.
         11   -1    0    0    0    0 -0.00000000000E+00 -0.00000000000E+00 -0.45593999997E+02  0.45594000000E+02  0.51100000000E-03 0. -1.
    9900012    2    1    2    0    0 -0.42066480860E+02 -0.10541769919E+02  0.17046601411E+01  0.47787267389E+02  0.19999983334E+02 0.  0.
        -12    1    1    2    0    0  0.42066480860E+02  0.10541769919E+02 -0.17046601411E+01  0.43400732611E+02  0.00000000000E+00 0.  1.
         11    1    3    3    0    0 -0.14598170273E+02 -0.13303088724E+01  0.59695594243E+01  0.15827568891E+02  0.51100000000E-03 0. -1.
        -11    1    3    3    0    0 -0.50263793332E+01 -0.37502174440E+01  0.39888947582E+01  0.74323550596E+01  0.51100000000E-03 0.  1.
         12    1    3    3    0    0 -0.22441931254E+02 -0.54612436030E+01 -0.82537940414E+01  0.24527343439E+02  0.00000000000E+00 0. -1.
</event>
<event>
 7    1  0.2442667E-009  0.4778727E+02  0.7816164E-02  0.1312668E+00
        -11   -1    0    0    0    0  0.00000000000E+00  0.00000000000E+00  0.45593999997E+02  0.45594000000E+02  0.51100000000E-03 0.  1.
         11   -1    0    0    0    0 -0.00000000000E+00 -0.00000000000E+00 -0.45593999997E+02  0.45594000000E+02  0.51100000000E-03 0. -1.
    9900012    2    1    2    0    0  0.17123204156E+02 -0.33224180771E+02 -0.22058406130E+02  0.47787267409E+02  0.19999983424E+02 0.  0.
        -12    1    1    2    0    0 -0.17123204156E+02  0.33224180771E+02  0.22058406130E+02  0.43400732591E+02  0.00000000000E+00 0.  1.
         11    1    3    3    0    0  0.18419023163E+02 -0.29252155453E+02 -0.24444121318E+02  0.42337502054E+02  0.51100000000E-03 0. -1.
        -11    1    3    3    0    0 -0.94396403803E+00 -0.41263173898E+01  0.26403102108E+01  0.49888677650E+01  0.51100000000E-03 0.  1.
         12    1    3    3    0    0 -0.35185496912E+00  0.15429207172E+00 -0.25459502259E+00  0.46089758973E+00  0.00000000000E+00 0. -1.
</event>
<event>
 7    1  0.2442667E-009  0.4778728E+02  0.7816164E-02  0.1312668E+00
        -11   -1    0    0    0    0  0.00000000000E+00  0.00000000000E+00  0.45593999997E+02  0.45594000000E+02  0.51100000000E-03 0.  1.
         11   -1    0    0    0    0 -0.00000000000E+00 -0.00000000000E+00 -0.45593999997E+02  0.45594000000E+02  0.51100000000E-03 0. -1.
    9900012    2    1    2    0    0  0.41922257891E+02  0.44275167075E+00 -0.11222787581E+02  0.47787277692E+02  0.20000030309E+02 0.  0.
        -12    1    1    2    0    0 -0.41922257891E+02 -0.44275167075E+00  0.11222787581E+02  0.43400722308E+02  0.00000000000E+00 0.  1.
         11    1    3    3    0    0  0.21205741776E+02  0.13204093040E+01  0.85796539338E+00  0.21264126360E+02  0.51100000000E-03 0. -1.
        -11    1    3    3    0    0  0.20881552640E+02 -0.70250365571E+00 -0.13635987700E+02  0.24949407064E+02  0.51100000000E-03 0.  1.
        -12    1    3    3    0    0 -0.16503652381E+00 -0.17515397753E+00  0.15552347255E+01  0.15737442681E+01  0.00000000000E+00 0.  1.
</event>
<event>
 7    1  0.2442667E-009  0.4778727E+02  0.7816164E-02  0.1312668E+00
        -11   -1    0    0    0    0  0.00000000000E+00  0.00000000000E+00  0.45593999997E+02  0.45594000000E+02  0.51100000000E-03 0.  1.
         11   -1    0    0    0    0 -0.00000000000E+00 -0.00000000000E+00 -0.45593999997E+02  0.45594000000E+02  0.51100000000E-03 0. -1.
    9900012    2    1    2    0    0 -0.13042976533E+02  0.38024063640E+02 -0.16360765519E+02  0.47787270733E+02  0.19999998581E+02 0.  0.
        -12    1    1    2    0    0  0.13042976533E+02 -0.38024063640E+02  0.16360765519E+02  0.43400729267E+02  0.00000000000E+00 0.  1.
         11    1    3    3    0    0 -0.54534783858E+01  0.89456118603E+01 -0.10689772654E+02  0.14967820072E+02  0.51100000000E-03 0.  1.
        -11    1    3    3    0    0  0.33548425011E+00  0.12764934158E+02 -0.71285564624E+01  0.14624377294E+02  0.51100000000E-03 0. -1.
         12    1    3    3    0    0 -0.79249823976E+01  0.16313517621E+02  0.14575635976E+01  0.18195073366E+02  0.00000000000E+00 0. -1.
</event>
<event>
 7    1  0.2442667E-009  0.4778727E+02  0.7816164E-02  0.1312668E+00
        -11   -1    0    0    0    0  0.00000000000E+00  0.00000000000E+00  0.45593999997E+02  0.45594000000E+02  0.51100000000E-03 0.  1.
         11   -1    0    0    0    0 -0.00000000000E+00 -0.00000000000E+00 -0.45593999997E+02  0.45594000000E+02  0.51100000000E-03 0. -1.
    9900012    2    1    2    0    0 -0.32534965918E+02  0.14141552572E+02 -0.25002324644E+02  0.47787265513E+02  0.19999974778E+02 0.  0.
        -12    1    1    2    0    0  0.32534965918E+02 -0.14141552572E+02  0.25002324644E+02  0.43400734487E+02  0.00000000000E+00 0.  1.
         11    1    3    3    0    0 -0.27148425299E+02  0.10537233763E+02 -0.16440982327E+02  0.33442131985E+02  0.51100000000E-03 0. -1.
        -11    1    3    3    0    0 -0.28857828823E+01  0.15670161401E+01 -0.10208263886E+02  0.10723429221E+02  0.51100000000E-03 0.  1.
         12    1    3    3    0    0 -0.25007577371E+01  0.20373026693E+01  0.16469215695E+01  0.36217043063E+01  0.00000000000E+00 0. -1.
</event>
<event>
 7    1  0.2442667E-009  0.4778727E+02  0.7816164E-02  0.1312668E+00
        -11   -1    0    0    0    0  0.00000000000E+00  0.00000000000E+00  0.45593999997E+02  0.45594000000E+02  0.51100000000E-03 0.  1.
         11   -1    0    0    0    0 -0.00000000000E+00 -0.00000000000E+00 -0.45593999997E+02  0.45594000000E+02  0.51100000000E-03 0. -1.
    9900012    2    1    2    0    0 -0.17718953111E+00  0.34864770506E+02 -0.25846462391E+02  0.47787271473E+02  0.20000001954E+02 0.  0.
        -12    1    1    2    0    0  0.17718953111E+00 -0.34864770506E+02  0.25846462391E+02  0.43400728527E+02  0.00000000000E+00 0.  1.
         11    1    3    3    0    0 -0.55484198661E+00  0.46432323359E+01 -0.42893776133E+01  0.63455666985E+01  0.51100000000E-03 0. -1.
        -11    1    3    3    0    0  0.87670082110E+01  0.21352408117E+02 -0.15584633915E+02  0.27850791369E+02  0.51100000000E-03 0.  1.
        -12    1    3    3    0    0 -0.83893557555E+01  0.88691300530E+01 -0.59724508630E+01  0.13590913406E+02  0.00000000000E+00 0.  1.
</event>
<event>
 7    1  0.2442667E-009  0.4778727E+02  0.7816164E-02  0.1312668E+00
        -11   -1    0    0    0    0  0.00000000000E+00  0.00000000000E+00  0.45593999997E+02  0.45594000000E+02  0.51100000000E-03 0. -1.
         11   -1    0    0    0    0 -0.00000000000E+00 -0.00000000000E+00 -0.45593999997E+02  0.45594000000E+02  0.51100000000E-03 0.  1.
    9900012    2    1    2    0    0  0.21483622771E+02 -0.16069624591E+02  0.34115159845E+02  0.47787274048E+02  0.20000013696E+02 0.  0.
        -12    1    1    2    0    0 -0.21483622771E+02  0.16069624591E+02 -0.34115159845E+02  0.43400725952E+02  0.00000000000E+00 0.  1.
         11    1    3    3    0    0  0.21106983176E+02 -0.11866432279E+02  0.24023129677E+02  0.34109056181E+02  0.51100000000E-03 0. -1.
        -11    1    3    3    0    0 -0.31299296878E+01 -0.12260710870E+01  0.10303485544E+01  0.35158681099E+01  0.51100000000E-03 0.  1.
        -12    1    3    3    0    0  0.35065692826E+01 -0.29771212257E+01  0.90616816136E+01  0.10162349757E+02  0.00000000000E+00 0.  1.
</event>
<event>
 7    1  0.2442667E-009  0.4778727E+02  0.7816164E-02  0.1312668E+00
        -11   -1    0    0    0    0  0.00000000000E+00  0.00000000000E+00  0.45593999997E+02  0.45594000000E+02  0.51100000000E-03 0.  1.
         11   -1    0    0    0    0 -0.00000000000E+00 -0.00000000000E+00 -0.45593999997E+02  0.45594000000E+02  0.51100000000E-03 0. -1.
    9900012    2    1    2    0    0  0.32676631733E+02 -0.22193769874E+02 -0.17980473119E+02  0.47787273091E+02  0.20000009332E+02 0.  0.
        -12    1    1    2    0    0 -0.32676631733E+02  0.22193769874E+02  0.17980473119E+02  0.43400726909E+02  0.00000000000E+00 0.  1.
         11    1    3    3    0    0  0.24313463541E+02 -0.13805734479E+02 -0.15784627836E+02  0.32107589291E+02  0.51100000000E-03 0. -1.
        -11    1    3    3    0    0  0.32857256038E+01  0.20202784825E+01  0.16537789649E+00  0.38606823231E+01  0.51100000000E-03 0.  1.
         12    1    3    3    0    0  0.50774425876E+01 -0.10408313878E+02 -0.23612231789E+01  0.11819001477E+02  0.00000000000E+00 0. -1.
</event>
<event>
 7    1  0.2442667E-009  0.4778727E+02  0.7816164E-02  0.1312668E+00
        -11   -1    0    0    0    0  0.00000000000E+00  0.00000000000E+00  0.45593999997E+02  0.45594000000E+02  0.51100000000E-03 0.  1.
         11   -1    0    0    0    0 -0.00000000000E+00 -0.00000000000E+00 -0.45593999997E+02  0.45594000000E+02  0.51100000000E-03 0. -1.
    9900012    2    1    2    0    0 -0.43248056127E+02 -0.36330911670E+01 -0.17338187347E+00  0.47787265312E+02  0.19999973863E+02 0.  0.
        -12    1    1    2    0    0  0.43248056127E+02  0.36330911670E+01  0.17338187347E+00  0.43400734688E+02  0.00000000000E+00 0.  1.
         11    1    3    3    0    0  0.13463773986E+01 -0.22418742185E+00  0.21687167667E+01  0.25624841024E+01  0.51100000000E-03 0.  1.
        -11    1    3    3    0    0 -0.40734349271E+02 -0.13137011825E+01 -0.24762011830E+01  0.40830682016E+02  0.51100000000E-03 0. -1.
        -12    1    3    3    0    0 -0.38600842544E+01 -0.20952025627E+01  0.13410254279E+00  0.43940991935E+01  0.00000000000E+00 0.  1.
</event>
<event>
 7    1  0.2442667E-009  0.4778727E+02  0.7816164E-02  0.1312668E+00
        -11   -1    0    0    0    0  0.00000000000E+00  0.00000000000E+00  0.45593999997E+02  0.45594000000E+02  0.51100000000E-03 0. -1.
         11   -1    0    0    0    0 -0.00000000000E+00 -0.00000000000E+00 -0.45593999997E+02  0.45594000000E+02  0.51100000000E-03 0.  1.
    9900012    2    1    2    0    0  0.17822432742E+02 -0.36285941275E+02  0.15789712826E+02  0.47787266432E+02  0.19999978972E+02 0.  0.
        -12    1    1    2    0    0 -0.17822432742E+02  0.36285941275E+02 -0.15789712826E+02  0.43400733568E+02  0.00000000000E+00 0.  1.
         11    1    3    3    0    0  0.59830987417E+01 -0.44135150926E+01  0.80160062082E+01  0.10933112174E+02  0.51100000000E-03 0. -1.
        -11    1    3    3    0    0  0.90208804159E+01 -0.31956081020E+02  0.72082467846E+01  0.33978319847E+02  0.51100000000E-03 0.  1.
        -12    1    3    3    0    0  0.28184535841E+01  0.83654837511E-01  0.56545983332E+00  0.28758344112E+01  0.00000000000E+00 0.  1.
</event>
<event>
 7    1  0.2442667E-009  0.4778728E+02  0.7816164E-02  0.1312668E+00
        -11   -1    0    0    0    0  0.00000000000E+00  0.00000000000E+00  0.45593999997E+02  0.45594000000E+02  0.51100000000E-03 0. -1.
         11   -1    0    0    0    0 -0.00000000000E+00 -0.00000000000E+00 -0.45593999997E+02  0.45594000000E+02  0.51100000000E-03 0.  1.
    9900012    2    1    2    0    0 -0.31738042177E+01 -0.13668344904E+02  0.41069764433E+02  0.47787282999E+02  0.20000054505E+02 0.  0.
        -12    1    1    2    0    0  0.31738042177E+01  0.13668344904E+02 -0.41069764433E+02  0.43400717001E+02  0.00000000000E+00 0.  1.
         11    1    3    3    0    0 -0.44053840921E+01 -0.11584189091E+02  0.39841536986E+02  0.41724679933E+02  0.51100000000E-03 0. -1.
        -11    1    3    3    0    0  0.28036304570E+01 -0.29569516098E+01  0.43708672096E+00  0.40981644213E+01  0.51100000000E-03 0.  1.
        -12    1    3    3    0    0 -0.15720505825E+01  0.87279579705E+00  0.79114072659E+00  0.19644386442E+01  0.00000000000E+00 0.  1.
</event>
<event>
 7    1  0.2442667E-009  0.4778727E+02  0.7816164E-02  0.1312668E+00
        -11   -1    0    0    0    0  0.00000000000E+00  0.00000000000E+00  0.45593999997E+02  0.45594000000E+02  0.51100000000E-03 0.  1.
         11   -1    0    0    0    0 -0.00000000000E+00 -0.00000000000E+00 -0.45593999997E+02  0.45594000000E+02  0.51100000000E-03 0. -1.
    9900012    2    1    2    0    0  0.30696643353E+01 -0.41453724534E+02 -0.12481553004E+02  0.47787270948E+02  0.19999999561E+02 0.  0.
        -12    1    1    2    0    0 -0.30696643353E+01  0.41453724534E+02  0.12481553004E+02  0.43400729052E+02  0.00000000000E+00 0.  1.
         11    1    3    3    0    0  0.12403042434E+01 -0.67034302583E+01 -0.96601902181E+01  0.11823434660E+02  0.51100000000E-03 0. -1.
        -11    1    3    3    0    0  0.10620958094E+01 -0.16601243888E+02  0.29689420233E+01  0.16898046133E+02  0.51100000000E-03 0.  1.
         12    1    3    3    0    0  0.76726428242E+00 -0.18149050388E+02 -0.57903048090E+01  0.19065790155E+02  0.00000000000E+00 0. -1.
</event>
<event>
 7    1  0.2442667E-009  0.4778727E+02  0.7816164E-02  0.1312668E+00
        -11   -1    0    0    0    0  0.00000000000E+00  0.00000000000E+00  0.45593999997E+02  0.45594000000E+02  0.51100000000E-03 0.  1.
         11   -1    0    0    0    0 -0.00000000000E+00 -0.00000000000E+00 -0.45593999997E+02  0.45594000000E+02  0.51100000000E-03 0. -1.
    9900012    2    1    2    0    0 -0.26688675913E+02 -0.11118548142E+02 -0.32368435993E+02  0.47787272087E+02  0.20000004751E+02 0.  0.
        -12    1    1    2    0    0  0.26688675913E+02  0.11118548142E+02  0.32368435993E+02  0.43400727913E+02  0.00000000000E+00 0.  1.
         11    1    3    3    0    0 -0.25746490027E+02 -0.11664803279E+02 -0.25358122381E+02  0.37973461196E+02  0.51100000000E-03 0. -1.
        -11    1    3    3    0    0 -0.27623023921E+00 -0.42624053551E-01 -0.82685185173E+01  0.82732411234E+01  0.51100000000E-03 0.  1.
        -12    1    3    3    0    0 -0.66595564683E+00  0.58887919008E+00  0.12582049052E+01  0.15405697672E+01  0.00000000000E+00 0.  1.
</event>
<event>
 7    1  0.2442667E-009  0.4778727E+02  0.7816164E-02  0.1312668E+00
        -11   -1    0    0    0    0  0.00000000000E+00  0.00000000000E+00  0.45593999997E+02  0.45594000000E+02  0.51100000000E-03 0.  1.
         11   -1    0    0    0    0 -0.00000000000E+00 -0.00000000000E+00 -0.45593999997E+02  0.45594000000E+02  0.51100000000E-03 0. -1.
    9900012    2    1    2    0    0  0.85326753896E+01  0.22424038800E+02 -0.36165998024E+02  0.47787268688E+02  0.19999989255E+02 0.  0.
        -12    1    1    2    0    0 -0.85326753896E+01 -0.22424038800E+02  0.36165998024E+02  0.43400731312E+02  0.00000000000E+00 0.  1.
         11    1    3    3    0    0  0.13344832408E+01 -0.19354834910E+00 -0.13264583256E+02  0.13332947000E+02  0.51100000000E-03 0. -1.
        -11    1    3    3    0    0  0.32375899765E+01  0.21333398009E+02 -0.19141218625E+02  0.28844100093E+02  0.51100000000E-03 0.  1.
        -12    1    3    3    0    0  0.39606021722E+01  0.12841891399E+01 -0.37601961432E+01  0.56102215954E+01  0.00000000000E+00 0.  1.
</event>
<event>
 7    1  0.2442667E-009  0.4778728E+02  0.7816164E-02  0.1312668E+00
        -11   -1    0    0    0    0  0.00000000000E+00  0.00000000000E+00  0.45593999997E+02  0.45594000000E+02  0.51100000000E-03 0. -1.
         11   -1    0    0    0    0 -0.00000000000E+00 -0.00000000000E+00 -0.45593999997E+02  0.45594000000E+02  0.51100000000E-03 0.  1.
    9900012    2    1    2    0    0  0.12985092803E+01  0.26416688242E+02  0.34410678251E+02  0.47787282014E+02  0.20000050015E+02 0.  0.
        -12    1    1    2    0    0 -0.12985092803E+01 -0.26416688242E+02 -0.34410678251E+02  0.43400717986E+02  0.00000000000E+00 0.  1.
         11    1    3    3    0    0  0.64825043861E+01  0.18822894613E+02  0.16342589934E+02  0.25756639352E+02  0.51100000000E-03 0.  1.
        -11    1    3    3    0    0  0.17990283100E+01  0.30434516279E+01  0.23674659529E+01  0.42548790783E+01  0.51100000000E-03 0. -1.
         12    1    3    3    0    0 -0.69830234158E+01  0.45503420011E+01  0.15700622364E+02  0.17775763584E+02  0.00000000000E+00 0. -1.
</event>
<event>
 7    1  0.2442667E-009  0.4778727E+02  0.7816164E-02  0.1312668E+00
        -11   -1    0    0    0    0  0.00000000000E+00  0.00000000000E+00  0.45593999997E+02  0.45594000000E+02  0.51100000000E-03 0. -1.
         11   -1    0    0    0    0 -0.00000000000E+00 -0.00000000000E+00 -0.45593999997E+02  0.45594000000E+02  0.51100000000E-03 0.  1.
    9900012    2    1    2    0    0 -0.42347257830E+02 -0.69120279875E+01  0.65235786810E+01  0.47787268953E+02  0.19999990463E+02 0.  0.
        -12    1    1    2    0    0  0.42347257830E+02  0.69120279875E+01 -0.65235786810E+01  0.43400731047E+02  0.00000000000E+00 0.  1.
         11    1    3    3    0    0 -0.30758766960E+02 -0.11152184202E+01  0.11448820485E+02  0.32839320147E+02  0.51100000000E-03 0. -1.
        -11    1    3    3    0    0 -0.12093654891E+02 -0.58773769511E+01 -0.51373358098E+01  0.14394174792E+02  0.51100000000E-03 0.  1.
         12    1    3    3    0    0  0.50516402029E+00  0.80567383801E-01  0.21209400606E+00  0.55377401360E+00  0.00000000000E+00 0. -1.
</event>
<event>
 7    1  0.2442667E-009  0.4778727E+02  0.7816164E-02  0.1312668E+00
        -11   -1    0    0    0    0  0.00000000000E+00  0.00000000000E+00  0.45593999997E+02  0.45594000000E+02  0.51100000000E-03 0. -1.
         11   -1    0    0    0    0 -0.00000000000E+00 -0.00000000000E+00 -0.45593999997E+02  0.45594000000E+02  0.51100000000E-03 0.  1.
    9900012    2    1    2    0    0 -0.28641427114E+02  0.14179616196E+02  0.29363755601E+02  0.47787274136E+02  0.20000014094E+02 0.  0.
        -12    1    1    2    0    0  0.28641427114E+02 -0.14179616196E+02 -0.29363755601E+02  0.43400725864E+02  0.00000000000E+00 0.  1.
         11    1    3    3    0    0  0.19457039094E+00 -0.27458094672E+01  0.39572149404E+01  0.48204644603E+01  0.51100000000E-03 0. -1.
        -11    1    3    3    0    0 -0.22340811174E+02  0.15788315563E+02  0.23600822302E+02  0.36130064570E+02  0.51100000000E-03 0.  1.
        -12    1    3    3    0    0 -0.64951863309E+01  0.11371101009E+01  0.18057183579E+01  0.68367451059E+01  0.00000000000E+00 0.  1.
</event>
<event>
 7    1  0.2442667E-009  0.4778727E+02  0.7816164E-02  0.1312668E+00
        -11   -1    0    0    0    0  0.00000000000E+00  0.00000000000E+00  0.45593999997E+02  0.45594000000E+02  0.51100000000E-03 0.  1.
         11   -1    0    0    0    0 -0.00000000000E+00 -0.00000000000E+00 -0.45593999997E+02  0.45594000000E+02  0.51100000000E-03 0. -1.
    9900012    2    1    2    0    0  0.32577022954E+02  0.28509832475E+02  0.30903225420E+01  0.47787273443E+02  0.20000010934E+02 0.  0.
        -12    1    1    2    0    0 -0.32577022954E+02 -0.28509832475E+02 -0.30903225420E+01  0.43400726557E+02  0.00000000000E+00 0.  1.
         11    1    3    3    0    0  0.19781574532E+02  0.69600865197E+01 -0.40660841951E+01  0.21360864595E+02  0.51100000000E-03 0. -1.
        -11    1    3    3    0    0  0.34983632880E+01  0.94305162036E+01  0.16685590827E+01  0.10195943862E+02  0.51100000000E-03 0.  1.
         12    1    3    3    0    0  0.92970851345E+01  0.12119229752E+02  0.54878476544E+01  0.16230464986E+02  0.00000000000E+00 0. -1.
</event>
<event>
 7    1  0.2442667E-009  0.4778725E+02  0.7816164E-02  0.1312668E+00
        -11   -1    0    0    0    0  0.00000000000E+00  0.00000000000E+00  0.45593999997E+02  0.45594000000E+02  0.51100000000E-03 0.  1.
         11   -1    0    0    0    0 -0.00000000000E+00 -0.00000000000E+00 -0.45593999997E+02  0.45594000000E+02  0.51100000000E-03 0. -1.
    9900012    2    1    2    0    0 -0.22661974803E+02 -0.20169496078E+02 -0.31036298741E+02  0.47787245242E+02  0.19999882357E+02 0.  0.
        -12    1    1    2    0    0  0.22661974803E+02  0.20169496078E+02  0.31036298741E+02  0.43400754758E+02  0.00000000000E+00 0.  1.
         11    1    3    3    0    0 -0.32461349849E+01 -0.84681041332E+01 -0.17625284167E+02  0.19821625115E+02  0.51100000000E-03 0. -1.
        -11    1    3    3    0    0 -0.17693442084E+02 -0.66631438163E+01 -0.85271854055E+01  0.20740498295E+02  0.51100000000E-03 0.  1.
        -12    1    3    3    0    0 -0.17223977334E+01 -0.50382481280E+01 -0.48838291685E+01  0.72251218328E+01  0.00000000000E+00 0.  1.
</event>
<event>
 7    1  0.2442667E-009  0.4778727E+02  0.7816164E-02  0.1312668E+00
        -11   -1    0    0    0    0  0.00000000000E+00  0.00000000000E+00  0.45593999997E+02  0.45594000000E+02  0.51100000000E-03 0. -1.
         11   -1    0    0    0    0 -0.00000000000E+00 -0.00000000000E+00 -0.45593999997E+02  0.45594000000E+02  0.51100000000E-03 0.  1.
    9900012    2    1    2    0    0 -0.26088028016E+02  0.21108686936E+02  0.27522016913E+02  0.47787270918E+02  0.19999999422E+02 0.  0.
        -12    1    1    2    0    0  0.26088028016E+02 -0.21108686936E+02 -0.27522016913E+02  0.43400729082E+02  0.00000000000E+00 0.  1.
         11    1    3    3    0    0 -0.71427237478E+01  0.96113430071E+01  0.19421186521E+02  0.22816198261E+02  0.51100000000E-03 0. -1.
        -11    1    3    3    0    0 -0.35401385930E+01  0.45638351422E+01 -0.87374600392E+00  0.58416268970E+01  0.51100000000E-03 0.  1.
         12    1    3    3    0    0 -0.15405165676E+02  0.69335087864E+01  0.89745763953E+01  0.19129445759E+02  0.00000000000E+00 0. -1.
</event>
<event>
 7    1  0.2442667E-009  0.4778727E+02  0.7816164E-02  0.1312668E+00
        -11   -1    0    0    0    0  0.00000000000E+00  0.00000000000E+00  0.45593999997E+02  0.45594000000E+02  0.51100000000E-03 0. -1.
         11   -1    0    0    0    0 -0.00000000000E+00 -0.00000000000E+00 -0.45593999997E+02  0.45594000000E+02  0.51100000000E-03 0.  1.
    9900012    2    1    2    0    0 -0.39543507226E+02 -0.52647065664E+00  0.17878963316E+02  0.47787268851E+02  0.19999989998E+02 0.  0.
        -12    1    1    2    0    0  0.39543507226E+02  0.52647065664E+00 -0.17878963316E+02  0.43400731149E+02  0.00000000000E+00 0.  1.
         11    1    3    3    0    0 -0.28823536582E+02 -0.73868742861E+01  0.10805761508E+02  0.31656384109E+02  0.51100000000E-03 0. -1.
        -11    1    3    3    0    0 -0.32648352724E+01  0.33407031912E+01  0.63108043308E+01  0.78514774871E+01  0.51100000000E-03 0.  1.
         12    1    3    3    0    0 -0.74551353710E+01  0.35197004382E+01  0.76239747696E+00  0.82794072546E+01  0.00000000000E+00 0. -1.
</event>
<event>
 7    1  0.2442667E-009  0.4778727E+02  0.7816164E-02  0.1312668E+00
        -11   -1    0    0    0    0  0.00000000000E+00  0.00000000000E+00  0.45593999997E+02  0.45594000000E+02  0.51100000000E-03 0.  1.
         11   -1    0    0    0    0 -0.00000000000E+00 -0.00000000000E+00 -0.45593999997E+02  0.45594000000E+02  0.51100000000E-03 0. -1.
    9900012    2    1    2    0    0  0.20255316264E+02 -0.29673060845E+02 -0.24348612369E+02  0.47787270730E+02  0.19999998568E+02 0.  0.
        -12    1    1    2    0    0 -0.20255316264E+02  0.29673060845E+02  0.24348612369E+02  0.43400729270E+02  0.00000000000E+00 0.  1.
         11    1    3    3    0    0  0.19207341958E+02 -0.11172827191E+02 -0.14392726771E+02  0.26474603617E+02  0.51100000000E-03 0. -1.
        -11    1    3    3    0    0 -0.37542194911E+00 -0.95528432010E+01 -0.67470253547E+01  0.11701286522E+02  0.51100000000E-03 0.  1.
         12    1    3    3    0    0  0.14233962548E+01 -0.89473904524E+01 -0.32088602437E+01  0.96113805912E+01  0.00000000000E+00 0. -1.
</event>
<event>
 7    1  0.2442667E-009  0.4778727E+02  0.7816164E-02  0.1312668E+00
        -11   -1    0    0    0    0  0.00000000000E+00  0.00000000000E+00  0.45593999997E+02  0.45594000000E+02  0.51100000000E-03 0.  1.
         11   -1    0    0    0    0 -0.00000000000E+00 -0.00000000000E+00 -0.45593999997E+02  0.45594000000E+02  0.51100000000E-03 0. -1.
    9900012    2    1    2    0    0  0.42457192561E+02 -0.79062245788E+01  0.43013816047E+01  0.47787268774E+02  0.19999989650E+02 0.  0.
        -12    1    1    2    0    0 -0.42457192561E+02  0.79062245788E+01 -0.43013816047E+01  0.43400731226E+02  0.00000000000E+00 0.  1.
         11    1    3    3    0    0  0.13556047322E+02  0.11533770843E+01 -0.63313073763E+01  0.15006070473E+02  0.51100000000E-03 0. -1.
        -11    1    3    3    0    0  0.21265810714E+02 -0.48644036390E+01  0.10136707663E+02  0.24055144369E+02  0.51100000000E-03 0.  1.
        -12    1    3    3    0    0  0.76353345243E+01 -0.41951980240E+01  0.49598131778E+00  0.87260539321E+01  0.00000000000E+00 0.  1.
</event>
<event>
 7    1  0.2768455E-009  0.4778727E+02  0.7816164E-02  0.1312668E+00
        -11   -1    0    0    0    0  0.00000000000E+00  0.00000000000E+00  0.45593999997E+02  0.45594000000E+02  0.51100000000E-03 0. -1.
         11   -1    0    0    0    0 -0.00000000000E+00 -0.00000000000E+00 -0.45593999997E+02  0.45594000000E+02  0.51100000000E-03 0.  1.
    9900012    2    1    2    0    0  0.18018249182E+02  0.18433885089E+02  0.34916438541E+02  0.47787273008E+02  0.20000008952E+02 0.  0.
        -12    1    1    2    0    0 -0.18018249182E+02 -0.18433885089E+02 -0.34916438541E+02  0.43400726992E+02  0.00000000000E+00 0.  1.
         11    1    3    3    0    0  0.64518955283E+01  0.12385304966E+02  0.19479819222E+02  0.23968439503E+02  0.51100000000E-03 0. -1.
        -11    1    3    3    0    0  0.13558328765E+02  0.22470336724E+01  0.12806612373E+02  0.18785280407E+02  0.51100000000E-03 0.  1.
        -12    1    3    3    0    0 -0.19919751113E+01  0.38015464501E+01  0.26300069461E+01  0.50335530982E+01  0.00000000000E+00 0.  1.
</event>
<event>
 7    1  0.2442667E-009  0.4778727E+02  0.7816164E-02  0.1312668E+00
        -11   -1    0    0    0    0  0.00000000000E+00  0.00000000000E+00  0.45593999997E+02  0.45594000000E+02  0.51100000000E-03 0.  1.
         11   -1    0    0    0    0 -0.00000000000E+00 -0.00000000000E+00 -0.45593999997E+02  0.45594000000E+02  0.51100000000E-03 0. -1.
    9900012    2    1    2    0    0  0.16778096986E+02 -0.36259271582E+02 -0.16952396668E+02  0.47787273429E+02  0.20000010872E+02 0.  0.
        -12    1    1    2    0    0 -0.16778096986E+02  0.36259271582E+02  0.16952396668E+02  0.43400726571E+02  0.00000000000E+00 0.  1.
         11    1    3    3    0    0  0.15239805043E+02 -0.14606450872E+02 -0.68774429875E+01  0.22201335256E+02  0.51100000000E-03 0. -1.
        -11    1    3    3    0    0 -0.70971219684E+00 -0.16478723451E+01  0.15227131654E+01  0.23532595083E+01  0.51100000000E-03 0.  1.
         12    1    3    3    0    0  0.22480041397E+01 -0.20004948364E+02 -0.11597666846E+02  0.23232678665E+02  0.00000000000E+00 0. -1.
</event>
<event>
 7    1  0.2442667E-009  0.4778728E+02  0.7816164E-02  0.1312668E+00
        -11   -1    0    0    0    0  0.00000000000E+00  0.00000000000E+00  0.45593999997E+02  0.45594000000E+02  0.51100000000E-03 0.  1.
         11   -1    0    0    0    0 -0.00000000000E+00 -0.00000000000E+00 -0.45593999997E+02  0.45594000000E+02  0.51100000000E-03 0. -1.
    9900012    2    1    2    0    0  0.99849170399E+01 -0.17306800441E+02 -0.38527899151E+02  0.47787275089E+02  0.20000018439E+02 0.  0.
        -12    1    1    2    0    0 -0.99849170399E+01  0.17306800441E+02  0.38527899151E+02  0.43400724911E+02  0.00000000000E+00 0.  1.
         11    1    3    3    0    0  0.99015896585E+01 -0.14071076508E+02 -0.21247198222E+02  0.27340082378E+02  0.51100000000E-03 0. -1.
        -11    1    3    3    0    0 -0.48113170264E+01  0.33094844775E-01 -0.57206040649E+01  0.74749700953E+01  0.51100000000E-03 0.  1.
        -12    1    3    3    0    0  0.48946444078E+01 -0.32688187783E+01 -0.11560096864E+02  0.12972222616E+02  0.00000000000E+00 0.  1.
</event>
<event>
 7    1  0.2442667E-009  0.4778727E+02  0.7816164E-02  0.1312668E+00
        -11   -1    0    0    0    0  0.00000000000E+00  0.00000000000E+00  0.45593999997E+02  0.45594000000E+02  0.51100000000E-03 0.  1.
         11   -1    0    0    0    0 -0.00000000000E+00 -0.00000000000E+00 -0.45593999997E+02  0.45594000000E+02  0.51100000000E-03 0. -1.
    9900012    2    1    2    0    0 -0.91486097107E+01 -0.32901590370E+02 -0.26784541412E+02  0.47787269970E+02  0.19999995101E+02 0.  0.
        -12    1    1    2    0    0  0.91486097107E+01  0.32901590370E+02  0.26784541412E+02  0.43400730030E+02  0.00000000000E+00 0.  1.
         11    1    3    3    0    0 -0.18325985161E+01 -0.11785494312E+02 -0.72315850162E+01  0.13948193991E+02  0.51100000000E-03 0. -1.
        -11    1    3    3    0    0 -0.25377995562E+01 -0.19428759409E+02 -0.20846362023E+02  0.28609228032E+02  0.51100000000E-03 0.  1.
        -12    1    3    3    0    0 -0.47782116384E+01 -0.16873366491E+01  0.12934056273E+01  0.52298479467E+01  0.00000000000E+00 0.  1.
</event>
<event>
 7    1  0.2442667E-009  0.4778726E+02  0.7816164E-02  0.1312668E+00
        -11   -1    0    0    0    0  0.00000000000E+00  0.00000000000E+00  0.45593999997E+02  0.45594000000E+02  0.51100000000E-03 0.  1.
         11   -1    0    0    0    0 -0.00000000000E+00 -0.00000000000E+00 -0.45593999997E+02  0.45594000000E+02  0.51100000000E-03 0. -1.
    9900012    2    1    2    0    0  0.27729825028E+02 -0.18311926229E+02 -0.27916920758E+02  0.47787259189E+02  0.19999945948E+02 0.  0.
        -12    1    1    2    0    0 -0.27729825028E+02  0.18311926229E+02  0.27916920758E+02  0.43400740811E+02  0.00000000000E+00 0.  1.
         11    1    3    3    0    0 -0.13045760690E+01  0.95589026456E+00 -0.30493785025E+01  0.34517176058E+01  0.51100000000E-03 0. -1.
        -11    1    3    3    0    0  0.55688544057E+00  0.14061961151E+01 -0.94055142873E+00  0.17810519810E+01  0.51100000000E-03 0.  1.
         12    1    3    3    0    0  0.28477515656E+02 -0.20674012609E+02 -0.23926990827E+02  0.42554489603E+02  0.00000000000E+00 0. -1.
</event>
<event>
 7    1  0.2442667E-009  0.4778727E+02  0.7816164E-02  0.1312668E+00
        -11   -1    0    0    0    0  0.00000000000E+00  0.00000000000E+00  0.45593999997E+02  0.45594000000E+02  0.51100000000E-03 0.  1.
         11   -1    0    0    0    0 -0.00000000000E+00 -0.00000000000E+00 -0.45593999997E+02  0.45594000000E+02  0.51100000000E-03 0. -1.
    9900012    2    1    2    0    0 -0.56149029870E+01  0.36371856908E+02 -0.23003997966E+02  0.47787273820E+02  0.20000012655E+02 0.  0.
        -12    1    1    2    0    0  0.56149029870E+01 -0.36371856908E+02  0.23003997966E+02  0.43400726180E+02  0.00000000000E+00 0.  1.
         11    1    3    3    0    0 -0.85570745199E+01  0.33870072936E+02 -0.16851151610E+02  0.38786166037E+02  0.51100000000E-03 0. -1.
        -11    1    3    3    0    0  0.24360884764E+01 -0.12733262367E+01 -0.23111297851E+01  0.35912682877E+01  0.51100000000E-03 0.  1.
         12    1    3    3    0    0  0.50608305657E+00  0.37751102093E+01 -0.38417165713E+01  0.54098394954E+01  0.00000000000E+00 0. -1.
</event>
<event>
 7    1  0.2442667E-009  0.4778727E+02  0.7816164E-02  0.1312668E+00
        -11   -1    0    0    0    0  0.00000000000E+00  0.00000000000E+00  0.45593999997E+02  0.45594000000E+02  0.51100000000E-03 0. -1.
         11   -1    0    0    0    0 -0.00000000000E+00 -0.00000000000E+00 -0.45593999997E+02  0.45594000000E+02  0.51100000000E-03 0.  1.
    9900012    2    1    2    0    0 -0.33351727741E+02 -0.22167917509E+02  0.16729293434E+02  0.47787267646E+02  0.19999984507E+02 0.  0.
        -12    1    1    2    0    0  0.33351727741E+02  0.22167917509E+02 -0.16729293434E+02  0.43400732354E+02  0.00000000000E+00 0.  1.
         11    1    3    3    0    0 -0.10999607368E+02 -0.60956295821E+01  0.64304486178E+01  0.14124402003E+02  0.51100000000E-03 0. -1.
        -11    1    3    3    0    0 -0.95685398172E+01 -0.12408554880E+01  0.10257605657E+02  0.14082441218E+02  0.51100000000E-03 0.  1.
        -12    1    3    3    0    0 -0.12783580557E+02 -0.14831432439E+02  0.41239159557E-01  0.19580424426E+02  0.00000000000E+00 0.  1.
</event>
<event>
 7    1  0.2442667E-009  0.4778728E+02  0.7816164E-02  0.1312668E+00
        -11   -1    0    0    0    0  0.00000000000E+00  0.00000000000E+00  0.45593999997E+02  0.45594000000E+02  0.51100000000E-03 0. -1.
         11   -1    0    0    0    0 -0.00000000000E+00 -0.00000000000E+00 -0.45593999997E+02  0.45594000000E+02  0.51100000000E-03 0.  1.
    9900012    2    1    2    0    0 -0.17785381866E+02  0.16046657954E+02  0.36191259258E+02  0.47787282422E+02  0.20000051876E+02 0.  0.
        -12    1    1    2    0    0  0.17785381866E+02 -0.16046657954E+02 -0.36191259258E+02  0.43400717578E+02  0.00000000000E+00 0.  1.
         11    1    3    3    0    0 -0.10802554792E+02  0.20362065715E+00  0.23725788022E+02  0.26070091464E+02  0.51100000000E-03 0. -1.
        -11    1    3    3    0    0 -0.18125061705E+01  0.76698685383E+01  0.73491756797E+01  0.10776012502E+02  0.51100000000E-03 0.  1.
         12    1    3    3    0    0 -0.51703209037E+01  0.81731687582E+01  0.51162955561E+01  0.10941178456E+02  0.00000000000E+00 0. -1.
</event>
<event>
 7    1  0.2442667E-009  0.4778727E+02  0.7816164E-02  0.1312668E+00
        -11   -1    0    0    0    0  0.00000000000E+00  0.00000000000E+00  0.45593999997E+02  0.45594000000E+02  0.51100000000E-03 0. -1.
         11   -1    0    0    0    0 -0.00000000000E+00 -0.00000000000E+00 -0.45593999997E+02  0.45594000000E+02  0.51100000000E-03 0.  1.
    9900012    2    1    2    0    0 -0.96347014226E+01  0.27101293723E+02  0.32501010190E+02  0.47787271247E+02  0.20000000921E+02 0.  0.
        -12    1    1    2    0    0  0.96347014226E+01 -0.27101293723E+02 -0.32501010190E+02  0.43400728753E+02  0.00000000000E+00 0.  1.
         11    1    3    3    0    0 -0.45269460693E+01  0.41301688184E+01 -0.11723617723E+01  0.62390678446E+01  0.51100000000E-03 0. -1.
        -11    1    3    3    0    0 -0.65857323414E+00  0.49091741603E+00  0.56583385665E-02  0.82143221996E+00  0.51100000000E-03 0.  1.
         12    1    3    3    0    0 -0.44491821191E+01  0.22480207488E+02  0.33667713624E+02  0.40726771182E+02  0.00000000000E+00 0. -1.
</event>
<event>
 7    1  0.2442667E-009  0.4778727E+02  0.7816164E-02  0.1312668E+00
        -11   -1    0    0    0    0  0.00000000000E+00  0.00000000000E+00  0.45593999997E+02  0.45594000000E+02  0.51100000000E-03 0.  1.
         11   -1    0    0    0    0 -0.00000000000E+00 -0.00000000000E+00 -0.45593999997E+02  0.45594000000E+02  0.51100000000E-03 0. -1.
    9900012    2    1    2    0    0 -0.10674991887E+02  0.36185590555E+02 -0.21453927935E+02  0.47787269137E+02  0.19999991302E+02 0.  0.
        -12    1    1    2    0    0  0.10674991887E+02 -0.36185590555E+02  0.21453927935E+02  0.43400730863E+02  0.00000000000E+00 0.  1.
         11    1    3    3    0    0 -0.52129604163E+01  0.79347637279E+01 -0.27223960002E+01  0.98765819980E+01  0.51100000000E-03 0. -1.
        -11    1    3    3    0    0 -0.51515585766E+01  0.38301580045E+01 -0.10178401530E+02  0.12033641347E+02  0.51100000000E-03 0.  1.
        -12    1    3    3    0    0 -0.31047289400E+00  0.24420668823E+02 -0.85531304052E+01  0.25877045792E+02  0.00000000000E+00 0.  1.
</event>
<event>
 7    1  0.2442667E-009  0.4778727E+02  0.7816164E-02  0.1312668E+00
        -11   -1    0    0    0    0  0.00000000000E+00  0.00000000000E+00  0.45593999997E+02  0.45594000000E+02  0.51100000000E-03 0. -1.
         11   -1    0    0    0    0 -0.00000000000E+00 -0.00000000000E+00 -0.45593999997E+02  0.45594000000E+02  0.51100000000E-03 0.  1.
    9900012    2    1    2    0    0  0.37470708156E+02 -0.20394423503E+02 -0.79772916910E+01  0.47787266568E+02  0.19999979591E+02 0.  0.
        -12    1    1    2    0    0 -0.37470708156E+02  0.20394423503E+02  0.79772916910E+01  0.43400733432E+02  0.00000000000E+00 0.  1.
         11    1    3    3    0    0  0.36217162536E+02 -0.15274265813E+02 -0.43288812150E+01  0.39543966305E+02  0.51100000000E-03 0. -1.
        -11    1    3    3    0    0  0.27201413097E+00 -0.11215100694E+01 -0.39497965360E+01  0.41149324976E+01  0.51100000000E-03 0.  1.
         12    1    3    3    0    0  0.98153148839E+00 -0.39986476196E+01  0.30138605993E+00  0.41283677653E+01  0.00000000000E+00 0. -1.
</event>
<event>
 7    1  0.2442667E-009  0.4778727E+02  0.7816164E-02  0.1312668E+00
        -11   -1    0    0    0    0  0.00000000000E+00  0.00000000000E+00  0.45593999997E+02  0.45594000000E+02  0.51100000000E-03 0. -1.
         11   -1    0    0    0    0 -0.00000000000E+00 -0.00000000000E+00 -0.45593999997E+02  0.45594000000E+02  0.51100000000E-03 0.  1.
    9900012    2    1    2    0    0  0.15125929737E+02  0.27342151029E+02 -0.30120361454E+02  0.47787272501E+02  0.20000006642E+02 0.  0.
        -12    1    1    2    0    0 -0.15125929737E+02 -0.27342151029E+02  0.30120361454E+02  0.43400727499E+02  0.00000000000E+00 0.  1.
         11    1    3    3    0    0 -0.78866196098E+00  0.36915629458E+01  0.21341486315E+01  0.43363827453E+01  0.51100000000E-03 0. -1.
        -11    1    3    3    0    0  0.55938028477E+01  0.86592448381E+01 -0.16086277949E+02  0.19106058986E+02  0.51100000000E-03 0.  1.
         12    1    3    3    0    0  0.10320788850E+02  0.14991343245E+02 -0.16168232136E+02  0.24344830769E+02  0.00000000000E+00 0. -1.
</event>
<event>
 7    1  0.2442667E-009  0.4778727E+02  0.7816164E-02  0.1312668E+00
        -11   -1    0    0    0    0  0.00000000000E+00  0.00000000000E+00  0.45593999997E+02  0.45594000000E+02  0.51100000000E-03 0.  1.
         11   -1    0    0    0    0 -0.00000000000E+00 -0.00000000000E+00 -0.45593999997E+02  0.45594000000E+02  0.51100000000E-03 0. -1.
    9900012    2    1    2    0    0 -0.15816619196E+02 -0.39445598668E+01 -0.40223106083E+02  0.47787271224E+02  0.20000000818E+02 0.  0.
        -12    1    1    2    0    0  0.15816619196E+02  0.39445598668E+01  0.40223106083E+02  0.43400728776E+02  0.00000000000E+00 0.  1.
         11    1    3    3    0    0  0.28250219098E+01 -0.17944910202E+01 -0.17364345151E+02  0.17683931395E+02  0.51100000000E-03 0. -1.
        -11    1    3    3    0    0 -0.13233698004E+02 -0.32007074073E+01 -0.19010925297E+02  0.23383553444E+02  0.51100000000E-03 0.  1.
         12    1    3    3    0    0 -0.54079431020E+01  0.10506385607E+01 -0.38478356353E+01  0.67197863847E+01  0.00000000000E+00 0. -1.
</event>
<event>
 7    1  0.2442667E-009  0.4778727E+02  0.7816164E-02  0.1312668E+00
        -11   -1    0    0    0    0  0.00000000000E+00  0.00000000000E+00  0.45593999997E+02  0.45594000000E+02  0.51100000000E-03 0. -1.
         11   -1    0    0    0    0 -0.00000000000E+00 -0.00000000000E+00 -0.45593999997E+02  0.45594000000E+02  0.51100000000E-03 0.  1.
    9900012    2    1    2    0    0 -0.41236528470E+02  0.35997513986E+01  0.13046596483E+02  0.47787272239E+02  0.20000005445E+02 0.  0.
        -12    1    1    2    0    0  0.41236528470E+02 -0.35997513986E+01 -0.13046596483E+02  0.43400727761E+02  0.00000000000E+00 0.  1.
         11    1    3    3    0    0 -0.21900999995E+02  0.38209035590E+01  0.88355827632E+01  0.23923223608E+02  0.51100000000E-03 0. -1.
        -11    1    3    3    0    0 -0.13371639147E+01  0.45247731329E+01 -0.24486020746E+00  0.47245672840E+01  0.51100000000E-03 0.  1.
        -12    1    3    3    0    0 -0.17998364561E+02 -0.47459252932E+01  0.44558739272E+01  0.19139481347E+02  0.00000000000E+00 0.  1.
</event>
<event>
 7    1  0.2442667E-009  0.4778727E+02  0.7816164E-02  0.1312668E+00
        -11   -1    0    0    0    0  0.00000000000E+00  0.00000000000E+00  0.45593999997E+02  0.45594000000E+02  0.51100000000E-03 0.  1.
         11   -1    0    0    0    0 -0.00000000000E+00 -0.00000000000E+00 -0.45593999997E+02  0.45594000000E+02  0.51100000000E-03 0. -1.
    9900012    2    1    2    0    0  0.18333553461E+02  0.21530466268E+02 -0.32923293242E+02  0.47787269613E+02  0.19999993473E+02 0.  0.
        -12    1    1    2    0    0 -0.18333553461E+02 -0.21530466268E+02  0.32923293242E+02  0.43400730387E+02  0.00000000000E+00 0.  1.
         11    1    3    3    0    0  0.15591782450E+02  0.18815022576E+02 -0.26600783974E+02  0.36120776055E+02  0.51100000000E-03 0. -1.
        -11    1    3    3    0    0  0.11054223123E+01 -0.30191267893E+01 -0.43006390736E+01  0.53695979142E+01  0.51100000000E-03 0.  1.
        -12    1    3    3    0    0  0.16363486980E+01  0.57345704815E+01 -0.20218701950E+01  0.62968956442E+01  0.00000000000E+00 0.  1.
</event>
<event>
 7    1  0.2442667E-009  0.4778727E+02  0.7816164E-02  0.1312668E+00
        -11   -1    0    0    0    0  0.00000000000E+00  0.00000000000E+00  0.45593999997E+02  0.45594000000E+02  0.51100000000E-03 0. -1.
         11   -1    0    0    0    0 -0.00000000000E+00 -0.00000000000E+00 -0.45593999997E+02  0.45594000000E+02  0.51100000000E-03 0.  1.
    9900012    2    1    2    0    0 -0.31684831533E+02  0.26955814389E+02  0.12372492506E+02  0.47787273630E+02  0.20000011789E+02 0.  0.
        -12    1    1    2    0    0  0.31684831533E+02 -0.26955814389E+02 -0.12372492506E+02  0.43400726370E+02  0.00000000000E+00 0.  1.
         11    1    3    3    0    0 -0.99974473924E+01  0.93193388257E+01 -0.29883587291E+00  0.13670710795E+02  0.51100000000E-03 0. -1.
        -11    1    3    3    0    0  0.22346072321E+01  0.10367939913E+01  0.30534153845E+00  0.24822660975E+01  0.51100000000E-03 0.  1.
        -12    1    3    3    0    0 -0.23921991372E+02  0.16599681572E+02  0.12365986840E+02  0.31634296737E+02  0.00000000000E+00 0.  1.
</event>
<event>
 7    1  0.2442667E-009  0.4778727E+02  0.7816164E-02  0.1312668E+00
        -11   -1    0    0    0    0  0.00000000000E+00  0.00000000000E+00  0.45593999997E+02  0.45594000000E+02  0.51100000000E-03 0.  1.
         11   -1    0    0    0    0 -0.00000000000E+00 -0.00000000000E+00 -0.45593999997E+02  0.45594000000E+02  0.51100000000E-03 0. -1.
    9900012    2    1    2    0    0  0.62695517535E+01 -0.37311603160E+02 -0.21264062208E+02  0.47787270155E+02  0.19999995942E+02 0.  0.
        -12    1    1    2    0    0 -0.62695517535E+01  0.37311603160E+02  0.21264062208E+02  0.43400729845E+02  0.00000000000E+00 0.  1.
         11    1    3    3    0    0 -0.49843347891E+00 -0.27140102848E+02 -0.81204826396E+01  0.28333299439E+02  0.51100000000E-03 0. -1.
        -11    1    3    3    0    0  0.79472653415E+01 -0.10221762623E+02 -0.10925450722E+02  0.16941337942E+02  0.51100000000E-03 0.  1.
         12    1    3    3    0    0 -0.11792801091E+01  0.50262311218E-01 -0.22181288462E+01  0.25126327734E+01  0.00000000000E+00 0. -1.
</event>
<event>
 7    1  0.2442667E-009  0.4778727E+02  0.7816164E-02  0.1312668E+00
        -11   -1    0    0    0    0  0.00000000000E+00  0.00000000000E+00  0.45593999997E+02  0.45594000000E+02  0.51100000000E-03 0.  1.
         11   -1    0    0    0    0 -0.00000000000E+00 -0.00000000000E+00 -0.45593999997E+02  0.45594000000E+02  0.51100000000E-03 0. -1.
    9900012    2    1    2    0    0  0.36338876297E+02 -0.60291355169E+01 -0.22951229122E+02  0.47787270469E+02  0.19999997377E+02 0.  0.
        -12    1    1    2    0    0 -0.36338876297E+02  0.60291355169E+01  0.22951229122E+02  0.43400729531E+02  0.00000000000E+00 0.  1.
         11    1    3    3    0    0  0.14114089713E+02 -0.11250544162E+00 -0.17400944540E+02  0.22405647883E+02  0.51100000000E-03 0. -1.
        -11    1    3    3    0    0  0.11993880507E+02  0.38382314387E+00 -0.58770458807E+01  0.13361892020E+02  0.51100000000E-03 0.  1.
         12    1    3    3    0    0  0.10230906077E+02 -0.63004532192E+01  0.32676129926E+00  0.12019730566E+02  0.00000000000E+00 0. -1.
</event>
<event>
 7    1  0.2442667E-009  0.4778727E+02  0.7816164E-02  0.1312668E+00
        -11   -1    0    0    0    0  0.00000000000E+00  0.00000000000E+00  0.45593999997E+02  0.45594000000E+02  0.51100000000E-03 0.  1.
         11   -1    0    0    0    0 -0.00000000000E+00 -0.00000000000E+00 -0.45593999997E+02  0.45594000000E+02  0.51100000000E-03 0. -1.
    9900012    2    1    2    0    0  0.10980102327E+02  0.39483093150E+02 -0.14287965546E+02  0.47787271305E+02  0.20000001189E+02 0.  0.
        -12    1    1    2    0    0 -0.10980102327E+02 -0.39483093150E+02  0.14287965546E+02  0.43400728695E+02  0.00000000000E+00 0.  1.
         11    1    3    3    0    0  0.73886044646E+01  0.29975652409E+02 -0.99620815441E+01  0.32440318775E+02  0.51100000000E-03 0. -1.
        -11    1    3    3    0    0 -0.37913359552E+01  0.32818290756E+01 -0.86686453158E+00  0.50888195865E+01  0.51100000000E-03 0.  1.
         12    1    3    3    0    0  0.73828338181E+01  0.62256116652E+01 -0.34590194707E+01  0.10258132944E+02  0.00000000000E+00 0. -1.
</event>
<event>
 7    1  0.2442667E-009  0.4778727E+02  0.7816164E-02  0.1312668E+00
        -11   -1    0    0    0    0  0.00000000000E+00  0.00000000000E+00  0.45593999997E+02  0.45594000000E+02  0.51100000000E-03 0.  1.
         11   -1    0    0    0    0 -0.00000000000E+00 -0.00000000000E+00 -0.45593999997E+02  0.45594000000E+02  0.51100000000E-03 0. -1.
    9900012    2    1    2    0    0  0.20939954953E+02  0.27060417363E+02 -0.26699723560E+02  0.47787272593E+02  0.20000007059E+02 0.  0.
        -12    1    1    2    0    0 -0.20939954953E+02 -0.27060417363E+02  0.26699723560E+02  0.43400727407E+02  0.00000000000E+00 0.  1.
         11    1    3    3    0    0  0.23306057035E+01  0.10971748375E+02 -0.76875427498E+01  0.13598135870E+02  0.51100000000E-03 0. -1.
        -11    1    3    3    0    0  0.17248238673E+02  0.15644572908E+02 -0.10477022758E+02  0.25534729388E+02  0.51100000000E-03 0.  1.
        -12    1    3    3    0    0  0.13611105762E+01  0.44409607994E+00 -0.85351580525E+01  0.86544073344E+01  0.00000000000E+00 0.  1.
</event>
<event>
 7    1  0.2442667E-009  0.4778727E+02  0.7816164E-02  0.1312668E+00
        -11   -1    0    0    0    0  0.00000000000E+00  0.00000000000E+00  0.45593999997E+02  0.45594000000E+02  0.51100000000E-03 0.  1.
         11   -1    0    0    0    0 -0.00000000000E+00 -0.00000000000E+00 -0.45593999997E+02  0.45594000000E+02  0.51100000000E-03 0. -1.
    9900012    2    1    2    0    0 -0.29128801291E+02  0.31733636056E+02 -0.53021271404E+01  0.47787271041E+02  0.19999999984E+02 0.  0.
        -12    1    1    2    0    0  0.29128801291E+02 -0.31733636056E+02  0.53021271404E+01  0.43400728959E+02  0.00000000000E+00 0.  1.
         11    1    3    3    0    0  0.11597158424E+01  0.46513775694E+01  0.17862186627E+01  0.51157434944E+01  0.51100000000E-03 0.  1.
        -11    1    3    3    0    0 -0.20492095358E+02  0.12859522192E+02 -0.77057879923E+01  0.25390400785E+02  0.51100000000E-03 0. -1.
         12    1    3    3    0    0 -0.97964217750E+01  0.14222736294E+02  0.61744218918E+00  0.17281126761E+02  0.00000000000E+00 0. -1.
</event>
<event>
 7    1  0.2442667E-009  0.4778727E+02  0.7816164E-02  0.1312668E+00
        -11   -1    0    0    0    0  0.00000000000E+00  0.00000000000E+00  0.45593999997E+02  0.45594000000E+02  0.51100000000E-03 0. -1.
         11   -1    0    0    0    0 -0.00000000000E+00 -0.00000000000E+00 -0.45593999997E+02  0.45594000000E+02  0.51100000000E-03 0.  1.
    9900012    2    1    2    0    0  0.34884276889E+01  0.38321056207E+02  0.20073638970E+02  0.47787268923E+02  0.19999990327E+02 0.  0.
        -12    1    1    2    0    0 -0.34884276889E+01 -0.38321056207E+02 -0.20073638970E+02  0.43400731077E+02  0.00000000000E+00 0.  1.
         11    1    3    3    0    0  0.21070055079E+01  0.64919505837E+01  0.11050416239E+02  0.12988325293E+02  0.51100000000E-03 0. -1.
        -11    1    3    3    0    0  0.49020925361E+01  0.27272564718E+02  0.62408288656E+01  0.28403718819E+02  0.51100000000E-03 0.  1.
        -12    1    3    3    0    0 -0.35206703551E+01  0.45565409045E+01  0.27823938652E+01  0.63952248111E+01  0.00000000000E+00 0.  1.
</event>
<event>
 7    1  0.2442667E-009  0.4778727E+02  0.7816164E-02  0.1312668E+00
        -11   -1    0    0    0    0  0.00000000000E+00  0.00000000000E+00  0.45593999997E+02  0.45594000000E+02  0.51100000000E-03 0.  1.
         11   -1    0    0    0    0 -0.00000000000E+00 -0.00000000000E+00 -0.45593999997E+02  0.45594000000E+02  0.51100000000E-03 0. -1.
    9900012    2    1    2    0    0 -0.41776789924E+02  0.31987070801E+01  0.11317750470E+02  0.47787269833E+02  0.19999994477E+02 0.  0.
        -12    1    1    2    0    0  0.41776789924E+02 -0.31987070801E+01 -0.11317750470E+02  0.43400730167E+02  0.00000000000E+00 0.  1.
         11    1    3    3    0    0 -0.12582699915E+02  0.38307888064E+01  0.11316331270E+02  0.17351041285E+02  0.51100000000E-03 0.  1.
        -11    1    3    3    0    0 -0.20751122738E+02  0.13093920871E+01  0.35152125166E+01  0.21087444649E+02  0.51100000000E-03 0. -1.
         12    1    3    3    0    0 -0.84429672709E+01 -0.19414738134E+01 -0.35137933165E+01  0.93487838983E+01  0.00000000000E+00 0. -1.
</event>
<event>
 7    1  0.2442667E-009  0.4778727E+02  0.7816164E-02  0.1312668E+00
        -11   -1    0    0    0    0  0.00000000000E+00  0.00000000000E+00  0.45593999997E+02  0.45594000000E+02  0.51100000000E-03 0.  1.
         11   -1    0    0    0    0 -0.00000000000E+00 -0.00000000000E+00 -0.45593999997E+02  0.45594000000E+02  0.51100000000E-03 0. -1.
    9900012    2    1    2    0    0 -0.27536777584E+00  0.26545251140E+02 -0.34335072261E+02  0.47787269906E+02  0.19999994811E+02 0.  0.
        -12    1    1    2    0    0  0.27536777584E+00 -0.26545251140E+02  0.34335072261E+02  0.43400730094E+02  0.00000000000E+00 0.  1.
         11    1    3    3    0    0 -0.44040356914E+01  0.19690380366E+02 -0.26445792803E+02  0.33263892835E+02  0.51100000000E-03 0. -1.
        -11    1    3    3    0    0  0.42871949928E+01 -0.92314602244E+00 -0.33272096781E+01  0.55047764703E+01  0.51100000000E-03 0.  1.
         12    1    3    3    0    0 -0.15852707729E+00  0.77780167964E+01 -0.45620697802E+01  0.90186006009E+01  0.00000000000E+00 0. -1.
</event>
<event>
 7    1  0.2442667E-009  0.4778731E+02  0.7816164E-02  0.1312668E+00
        -11   -1    0    0    0    0  0.00000000000E+00  0.00000000000E+00  0.45593999997E+02  0.45594000000E+02  0.51100000000E-03 0.  1.
         11   -1    0    0    0    0 -0.00000000000E+00 -0.00000000000E+00 -0.45593999997E+02  0.45594000000E+02  0.51100000000E-03 0. -1.
    9900012    2    1    2    0    0  0.27888609169E+02 -0.19805657352E+01 -0.33195225358E+02  0.47787307049E+02  0.20000164160E+02 0.  0.
        -12    1    1    2    0    0 -0.27888609169E+02  0.19805657352E+01  0.33195225358E+02  0.43400692951E+02  0.00000000000E+00 0.  1.
         11    1    3    3    0    0  0.18517548148E+02 -0.12080543431E+01 -0.22713597460E+02  0.29330299940E+02  0.51100000000E-03 0. -1.
        -11    1    3    3    0    0 -0.13638365844E+01 -0.84026592951E+00 -0.69856864251E+01  0.71670016152E+01  0.51100000000E-03 0.  1.
        -12    1    3    3    0    0  0.10734897606E+02  0.67754537416E-01 -0.34959414728E+01  0.11290005494E+02  0.00000000000E+00 0.  1.
</event>
<event>
 7    1  0.2442667E-009  0.4778727E+02  0.7816164E-02  0.1312668E+00
        -11   -1    0    0    0    0  0.00000000000E+00  0.00000000000E+00  0.45593999997E+02  0.45594000000E+02  0.51100000000E-03 0.  1.
         11   -1    0    0    0    0 -0.00000000000E+00 -0.00000000000E+00 -0.45593999997E+02  0.45594000000E+02  0.51100000000E-03 0. -1.
    9900012    2    1    2    0    0  0.27007451844E+02  0.32514896295E+02 -0.98489796161E+01  0.47787270333E+02  0.19999996754E+02 0.  0.
        -12    1    1    2    0    0 -0.27007451844E+02 -0.32514896295E+02  0.98489796161E+01  0.43400729667E+02  0.00000000000E+00 0.  1.
         11    1    3    3    0    0  0.27766320233E+01  0.59493839909E+01 -0.41006080070E+01  0.77407907576E+01  0.51100000000E-03 0. -1.
        -11    1    3    3    0    0  0.15166086226E+02  0.20990136546E+02 -0.11052414438E+02  0.28155849637E+02  0.51100000000E-03 0.  1.
        -12    1    3    3    0    0  0.90647335948E+01  0.55753757583E+01  0.53040428285E+01  0.11890629938E+02  0.00000000000E+00 0.  1.
</event>
<event>
 7    1  0.2442667E-009  0.4778728E+02  0.7816164E-02  0.1312668E+00
        -11   -1    0    0    0    0  0.00000000000E+00  0.00000000000E+00  0.45593999997E+02  0.45594000000E+02  0.51100000000E-03 0.  1.
         11   -1    0    0    0    0 -0.00000000000E+00 -0.00000000000E+00 -0.45593999997E+02  0.45594000000E+02  0.51100000000E-03 0. -1.
    9900012    2    1    2    0    0  0.40617688810E+02 -0.99118386296E+01 -0.11643932188E+02  0.47787281733E+02  0.20000048733E+02 0.  0.
        -12    1    1    2    0    0 -0.40617688810E+02  0.99118386296E+01  0.11643932188E+02  0.43400718267E+02  0.00000000000E+00 0.  1.
         11    1    3    3    0    0  0.29136163866E+02  0.15129069505E+01 -0.35356697771E+01  0.29388873631E+02  0.51100000000E-03 0. -1.
        -11    1    3    3    0    0  0.63900819888E+01 -0.59630801592E+01 -0.61250491183E+01  0.10672755023E+02  0.51100000000E-03 0.  1.
         12    1    3    3    0    0  0.50914429549E+01 -0.54616654209E+01 -0.19832132931E+01  0.77256530791E+01  0.00000000000E+00 0. -1.
</event>
<event>
 7    1  0.2442667E-009  0.4778724E+02  0.7816164E-02  0.1312668E+00
        -11   -1    0    0    0    0  0.00000000000E+00  0.00000000000E+00  0.45593999997E+02  0.45594000000E+02  0.51100000000E-03 0. -1.
         11   -1    0    0    0    0 -0.00000000000E+00 -0.00000000000E+00 -0.45593999997E+02  0.45594000000E+02  0.51100000000E-03 0.  1.
    9900012    2    1    2    0    0  0.22698508082E+02 -0.26305977270E+02  0.26007669514E+02  0.47787244444E+02  0.19999878719E+02 0.  0.
        -12    1    1    2    0    0 -0.22698508082E+02  0.26305977270E+02 -0.26007669514E+02  0.43400755556E+02  0.00000000000E+00 0.  1.
         11    1    3    3    0    0  0.14623890704E+02 -0.24653422195E+02  0.23275484384E+02  0.36924213990E+02  0.51100000000E-03 0. -1.
        -11    1    3    3    0    0  0.42045868067E+01 -0.10157268418E+01 -0.19588606582E+01  0.47484088463E+01  0.51100000000E-03 0.  1.
         12    1    3    3    0    0  0.38700305713E+01 -0.63682823323E+00  0.46910457881E+01  0.61146216079E+01  0.00000000000E+00 0. -1.
</event>
<event>
 7    1  0.2442667E-009  0.4778727E+02  0.7816164E-02  0.1312668E+00
        -11   -1    0    0    0    0  0.00000000000E+00  0.00000000000E+00  0.45593999997E+02  0.45594000000E+02  0.51100000000E-03 0. -1.
         11   -1    0    0    0    0 -0.00000000000E+00 -0.00000000000E+00 -0.45593999997E+02  0.45594000000E+02  0.51100000000E-03 0.  1.
    9900012    2    1    2    0    0  0.39171047485E+02  0.13907274898E+02 -0.12483584157E+02  0.47787272707E+02  0.20000007578E+02 0.  0.
        -12    1    1    2    0    0 -0.39171047485E+02 -0.13907274898E+02  0.12483584157E+02  0.43400727293E+02  0.00000000000E+00 0.  1.
         11    1    3    3    0    0  0.24694743026E+02  0.21089256909E+01 -0.92245264415E+01  0.26445600561E+02  0.51100000000E-03 0. -1.
        -11    1    3    3    0    0  0.12497764671E+01  0.66695658113E+01  0.16638381779E-02  0.67856504742E+01  0.51100000000E-03 0.  1.
         12    1    3    3    0    0  0.13226527992E+02  0.51287833959E+01 -0.32607215536E+01  0.14556021671E+02  0.00000000000E+00 0. -1.
</event>
<event>
 7    1  0.2442667E-009  0.4778727E+02  0.7816164E-02  0.1312668E+00
        -11   -1    0    0    0    0  0.00000000000E+00  0.00000000000E+00  0.45593999997E+02  0.45594000000E+02  0.51100000000E-03 0.  1.
         11   -1    0    0    0    0 -0.00000000000E+00 -0.00000000000E+00 -0.45593999997E+02  0.45594000000E+02  0.51100000000E-03 0. -1.
    9900012    2    1    2    0    0  0.40645749288E+02 -0.31912225838E+01 -0.14878248059E+02  0.47787273024E+02  0.20000009026E+02 0.  0.
        -12    1    1    2    0    0 -0.40645749288E+02  0.31912225838E+01  0.14878248059E+02  0.43400726976E+02  0.00000000000E+00 0.  1.
         11    1    3    3    0    0  0.21079891413E+02 -0.17018226482E+01 -0.15034983580E+02  0.25948193653E+02  0.51100000000E-03 0. -1.
        -11    1    3    3    0    0  0.15713473443E+01 -0.31179958522E+01 -0.12686049766E+01  0.37148875432E+01  0.51100000000E-03 0.  1.
         12    1    3    3    0    0  0.17994510530E+02  0.16285959166E+01  0.14253404981E+01  0.18124191828E+02  0.00000000000E+00 0. -1.
</event>
<event>
 7    1  0.2479737E-009  0.4778727E+02  0.7816164E-02  0.1312668E+00
        -11   -1    0    0    0    0  0.00000000000E+00  0.00000000000E+00  0.45593999997E+02  0.45594000000E+02  0.51100000000E-03 0. -1.
         11   -1    0    0    0    0 -0.00000000000E+00 -0.00000000000E+00 -0.45593999997E+02  0.45594000000E+02  0.51100000000E-03 0.  1.
    9900012    2    1    2    0    0  0.48533679594E+01  0.21855652732E+02  0.37180618571E+02  0.47787272653E+02  0.20000007334E+02 0.  0.
        -12    1    1    2    0    0 -0.48533679594E+01 -0.21855652732E+02 -0.37180618571E+02  0.43400727347E+02  0.00000000000E+00 0.  1.
         11    1    3    3    0    0  0.60906068360E+01  0.16939265607E+02  0.27067378405E+02  0.32506571411E+02  0.51100000000E-03 0. -1.
        -11    1    3    3    0    0 -0.36088406301E+01  0.19614360931E+01 -0.37939497427E+00  0.41249124898E+01  0.51100000000E-03 0.  1.
        -12    1    3    3    0    0  0.23716017535E+01  0.29549510317E+01  0.10492635141E+02  0.11155788752E+02  0.00000000000E+00 0.  1.
</event>
<event>
 7    1  0.2442667E-009  0.4778727E+02  0.7816164E-02  0.1312668E+00
        -11   -1    0    0    0    0  0.00000000000E+00  0.00000000000E+00  0.45593999997E+02  0.45594000000E+02  0.51100000000E-03 0.  1.
         11   -1    0    0    0    0 -0.00000000000E+00 -0.00000000000E+00 -0.45593999997E+02  0.45594000000E+02  0.51100000000E-03 0. -1.
    9900012    2    1    2    0    0 -0.10374420050E+02 -0.12201341778E+01 -0.42124884830E+02  0.47787271426E+02  0.20000001740E+02 0.  0.
        -12    1    1    2    0    0  0.10374420050E+02  0.12201341778E+01  0.42124884830E+02  0.43400728574E+02  0.00000000000E+00 0.  1.
         11    1    3    3    0    0  0.30323542257E+00  0.42932752491E+01 -0.73930586043E+00  0.43670055533E+01  0.51100000000E-03 0. -1.
        -11    1    3    3    0    0 -0.11232543153E+02 -0.53821098794E+01 -0.38062162812E+02  0.40048287986E+02  0.51100000000E-03 0.  1.
        -12    1    3    3    0    0  0.55488768018E+00 -0.13129954749E+00 -0.33234161577E+01  0.33719778864E+01  0.00000000000E+00 0.  1.
</event>
<event>
 7    1  0.2442667E-009  0.4778727E+02  0.7816164E-02  0.1312668E+00
        -11   -1    0    0    0    0  0.00000000000E+00  0.00000000000E+00  0.45593999997E+02  0.45594000000E+02  0.51100000000E-03 0. -1.
         11   -1    0    0    0    0 -0.00000000000E+00 -0.00000000000E+00 -0.45593999997E+02  0.45594000000E+02  0.51100000000E-03 0.  1.
    9900012    2    1    2    0    0  0.40651720767E+02  0.15180117590E+02 -0.79071145872E+00  0.47787267334E+02  0.19999983083E+02 0.  0.
        -12    1    1    2    0    0 -0.40651720767E+02 -0.15180117590E+02  0.79071145872E+00  0.43400732666E+02  0.00000000000E+00 0.  1.
         11    1    3    3    0    0  0.31246138471E+02  0.86881478098E+01 -0.49010498393E+01  0.32799777003E+02  0.51100000000E-03 0. -1.
        -11    1    3    3    0    0  0.32166284400E+01 -0.15461020338E+01  0.32149007512E+01  0.48034068244E+01  0.51100000000E-03 0.  1.
         12    1    3    3    0    0  0.61889538563E+01  0.80380718135E+01  0.89543762930E+00  0.10184083506E+02  0.00000000000E+00 0. -1.
</event>
<event>
 7    1  0.2442667E-009  0.4778727E+02  0.7816164E-02  0.1312668E+00
        -11   -1    0    0    0    0  0.00000000000E+00  0.00000000000E+00  0.45593999997E+02  0.45594000000E+02  0.51100000000E-03 0. -1.
         11   -1    0    0    0    0 -0.00000000000E+00 -0.00000000000E+00 -0.45593999997E+02  0.45594000000E+02  0.51100000000E-03 0.  1.
    9900012    2    1    2    0    0 -0.21311977611E+02 -0.23572731579E+02  0.29559248180E+02  0.47787271702E+02  0.20000002997E+02 0.  0.
        -12    1    1    2    0    0  0.21311977611E+02  0.23572731579E+02 -0.29559248180E+02  0.43400728298E+02  0.00000000000E+00 0.  1.
         11    1    3    3    0    0 -0.15019372120E+02 -0.17081363890E+02  0.11270680600E+02  0.25384695639E+02  0.51100000000E-03 0. -1.
        -11    1    3    3    0    0  0.97769478255E+00 -0.41308195270E+01  0.26727669762E+01  0.50162975014E+01  0.51100000000E-03 0.  1.
         12    1    3    3    0    0 -0.72703002741E+01 -0.23605481621E+01  0.15615800604E+02  0.17386278561E+02  0.00000000000E+00 0. -1.
</event>
<event>
 7    1  0.2442667E-009  0.4778726E+02  0.7816164E-02  0.1312668E+00
        -11   -1    0    0    0    0  0.00000000000E+00  0.00000000000E+00  0.45593999997E+02  0.45594000000E+02  0.51100000000E-03 0. -1.
         11   -1    0    0    0    0 -0.00000000000E+00 -0.00000000000E+00 -0.45593999997E+02  0.45594000000E+02  0.51100000000E-03 0.  1.
    9900012    2    1    2    0    0 -0.17565245209E+02  0.28193131334E+02  0.27932660887E+02  0.47787262242E+02  0.19999959868E+02 0.  0.
        -12    1    1    2    0    0  0.17565245209E+02 -0.28193131334E+02 -0.27932660887E+02  0.43400737758E+02  0.00000000000E+00 0.  1.
         11    1    3    3    0    0 -0.33634139577E+01  0.95811095469E+01  0.16025345246E+02  0.18971607842E+02  0.51100000000E-03 0. -1.
        -11    1    3    3    0    0 -0.78767034976E+01  0.11300839911E+02  0.39247076797E+00  0.13780619516E+02  0.51100000000E-03 0.  1.
         12    1    3    3    0    0 -0.63251277532E+01  0.73111818767E+01  0.11514844873E+02  0.15035034885E+02  0.00000000000E+00 0. -1.
</event>
<event>
 7    1  0.2442667E-009  0.4778727E+02  0.7816164E-02  0.1312668E+00
        -11   -1    0    0    0    0  0.00000000000E+00  0.00000000000E+00  0.45593999997E+02  0.45594000000E+02  0.51100000000E-03 0.  1.
         11   -1    0    0    0    0 -0.00000000000E+00 -0.00000000000E+00 -0.45593999997E+02  0.45594000000E+02  0.51100000000E-03 0. -1.
    9900012    2    1    2    0    0 -0.20722541533E+02 -0.31856265098E+02 -0.20961346625E+02  0.47787269523E+02  0.19999993065E+02 0.  0.
        -12    1    1    2    0    0  0.20722541533E+02  0.31856265098E+02  0.20961346625E+02  0.43400730477E+02  0.00000000000E+00 0.  1.
         11    1    3    3    0    0 -0.49297703298E+01 -0.77459193341E+01 -0.63800634355E+01  0.11180657921E+02  0.51100000000E-03 0. -1.
        -11    1    3    3    0    0 -0.65681291851E+01 -0.16316438062E+02  0.10968336903E+00  0.17589158670E+02  0.51100000000E-03 0.  1.
        -12    1    3    3    0    0 -0.92246420184E+01 -0.77939077018E+01 -0.14690966558E+02  0.19017452933E+02  0.00000000000E+00 0.  1.
</event>
<event>
 7    1  0.2442667E-009  0.4778726E+02  0.7816164E-02  0.1312668E+00
        -11   -1    0    0    0    0  0.00000000000E+00  0.00000000000E+00  0.45593999997E+02  0.45594000000E+02  0.51100000000E-03 0. -1.
         11   -1    0    0    0    0 -0.00000000000E+00 -0.00000000000E+00 -0.45593999997E+02  0.45594000000E+02  0.51100000000E-03 0.  1.
    9900012    2    1    2    0    0  0.14936673760E+01 -0.86123504387E+01  0.42511419108E+02  0.47787258338E+02  0.19999942064E+02 0.  0.
        -12    1    1    2    0    0 -0.14936673760E+01  0.86123504387E+01 -0.42511419108E+02  0.43400741662E+02  0.00000000000E+00 0.  1.
         11    1    3    3    0    0  0.84578911362E+01 -0.26696371744E+01  0.25296279442E+02  0.26806056014E+02  0.51100000000E-03 0. -1.
        -11    1    3    3    0    0 -0.45927111616E+01 -0.10245757766E+01  0.13704647012E+02  0.14490000045E+02  0.51100000000E-03 0.  1.
         12    1    3    3    0    0 -0.23715125986E+01 -0.49181374876E+01  0.35104926535E+01  0.64912022787E+01  0.00000000000E+00 0. -1.
</event>
<event>
 7    1  0.2442667E-009  0.4778727E+02  0.7816164E-02  0.1312668E+00
        -11   -1    0    0    0    0  0.00000000000E+00  0.00000000000E+00  0.45593999997E+02  0.45594000000E+02  0.51100000000E-03 0. -1.
         11   -1    0    0    0    0 -0.00000000000E+00 -0.00000000000E+00 -0.45593999997E+02  0.45594000000E+02  0.51100000000E-03 0.  1.
    9900012    2    1    2    0    0 -0.37453168426E+02 -0.19753753439E+02 -0.95222197002E+01  0.47787271111E+02  0.20000000304E+02 0.  0.
        -12    1    1    2    0    0  0.37453168426E+02  0.19753753439E+02  0.95222197002E+01  0.43400728889E+02  0.00000000000E+00 0.  1.
         11    1    3    3    0    0 -0.35884165517E+02 -0.15600783669E+02 -0.47302444365E+01  0.39413614382E+02  0.51100000000E-03 0. -1.
        -11    1    3    3    0    0 -0.19692748128E+00 -0.39807889645E+01 -0.69010006909E+00  0.40449597748E+01  0.51100000000E-03 0.  1.
         12    1    3    3    0    0 -0.13720754273E+01 -0.17218080504E+00 -0.41018751945E+01  0.43286969540E+01  0.00000000000E+00 0. -1.
</event>
<event>
 7    1  0.2686242E-009  0.4778727E+02  0.7816164E-02  0.1312668E+00
        -11   -1    0    0    0    0  0.00000000000E+00  0.00000000000E+00  0.45593999997E+02  0.45594000000E+02  0.51100000000E-03 0. -1.
         11   -1    0    0    0    0 -0.00000000000E+00 -0.00000000000E+00 -0.45593999997E+02  0.45594000000E+02  0.51100000000E-03 0.  1.
    9900012    2    1    2    0    0 -0.34916206157E+02 -0.54333060483E+01  0.25198439117E+02  0.47787267276E+02  0.19999982818E+02 0.  0.
        -12    1    1    2    0    0  0.34916206157E+02  0.54333060483E+01 -0.25198439117E+02  0.43400732724E+02  0.00000000000E+00 0.  1.
         11    1    3    3    0    0 -0.20231502920E+02 -0.37678873611E+01  0.21001142479E+02  0.29403378569E+02  0.51100000000E-03 0. -1.
        -11    1    3    3    0    0 -0.21613890301E+00 -0.30385853137E+01 -0.54816217790E+00  0.30951896175E+01  0.51100000000E-03 0.  1.
         12    1    3    3    0    0 -0.14468564334E+02  0.13731666266E+01  0.47454588165E+01  0.15288699090E+02  0.00000000000E+00 0. -1.
</event>
<event>
 7    1  0.2442667E-009  0.4778728E+02  0.7816164E-02  0.1312668E+00
        -11   -1    0    0    0    0  0.00000000000E+00  0.00000000000E+00  0.45593999997E+02  0.45594000000E+02  0.51100000000E-03 0.  1.
         11   -1    0    0    0    0 -0.00000000000E+00 -0.00000000000E+00 -0.45593999997E+02  0.45594000000E+02  0.51100000000E-03 0. -1.
    9900012    2    1    2    0    0  0.73551730719E+01  0.21027591499E+02 -0.37247344741E+02  0.47787275750E+02  0.20000021454E+02 0.  0.
        -12    1    1    2    0    0 -0.73551730719E+01 -0.21027591499E+02  0.37247344741E+02  0.43400724250E+02  0.00000000000E+00 0.  1.
         11    1    3    3    0    0  0.35462799987E+00 -0.50692962279E+00 -0.16144737454E+02  0.16156586471E+02  0.51100000000E-03 0. -1.
        -11    1    3    3    0    0  0.10010386966E+01  0.13324361833E+02 -0.12792371124E+02  0.18498255485E+02  0.51100000000E-03 0.  1.
         12    1    3    3    0    0  0.59995063755E+01  0.82101592879E+01 -0.83102361635E+01  0.13132433795E+02  0.00000000000E+00 0. -1.
</event>
<event>
 7    1  0.2442667E-009  0.4778727E+02  0.7816164E-02  0.1312668E+00
        -11   -1    0    0    0    0  0.00000000000E+00  0.00000000000E+00  0.45593999997E+02  0.45594000000E+02  0.51100000000E-03 0.  1.
         11   -1    0    0    0    0 -0.00000000000E+00 -0.00000000000E+00 -0.45593999997E+02  0.45594000000E+02  0.51100000000E-03 0. -1.
    9900012    2    1    2    0    0 -0.26865373313E+02 -0.88923377170E+00 -0.34074686494E+02  0.47787270979E+02  0.19999999701E+02 0.  0.
        -12    1    1    2    0    0  0.26865373313E+02  0.88923377170E+00  0.34074686494E+02  0.43400729021E+02  0.00000000000E+00 0.  1.
         11    1    3    3    0    0 -0.79701713358E+01 -0.23703252264E+01 -0.25452745464E+02  0.26776562975E+02  0.51100000000E-03 0. -1.
        -11    1    3    3    0    0 -0.14424432662E+02  0.64656895917E+00 -0.53090232037E+01  0.15384018873E+02  0.51100000000E-03 0.  1.
         12    1    3    3    0    0 -0.44707693149E+01  0.83452249552E+00 -0.33129178257E+01  0.56266891315E+01  0.00000000000E+00 0. -1.
</event>
<event>
 7    1  0.2442667E-009  0.4778726E+02  0.7816164E-02  0.1312668E+00
        -11   -1    0    0    0    0  0.00000000000E+00  0.00000000000E+00  0.45593999997E+02  0.45594000000E+02  0.51100000000E-03 0. -1.
         11   -1    0    0    0    0 -0.00000000000E+00 -0.00000000000E+00 -0.45593999997E+02  0.45594000000E+02  0.51100000000E-03 0.  1.
    9900012    2    1    2    0    0  0.69721825441E+01  0.41513106692E+02 -0.10567621404E+02  0.47787262924E+02  0.19999962974E+02 0.  0.
        -12    1    1    2    0    0 -0.69721825441E+01 -0.41513106692E+02  0.10567621404E+02  0.43400737076E+02  0.00000000000E+00 0.  1.
         11    1    3    3    0    0  0.38409765372E+00  0.10127207801E+02 -0.40892955894E+01  0.10928412855E+02  0.51100000000E-03 0. -1.
        -11    1    3    3    0    0  0.58578319149E+01  0.27981561585E+02  0.10043455581E+01  0.28605780775E+02  0.51100000000E-03 0.  1.
        -12    1    3    3    0    0  0.73025297547E+00  0.34043373061E+01 -0.74826713722E+01  0.82530692937E+01  0.00000000000E+00 0.  1.
</event>
<event>
 7    1  0.2442667E-009  0.4778727E+02  0.7816164E-02  0.1312668E+00
        -11   -1    0    0    0    0  0.00000000000E+00  0.00000000000E+00  0.45593999997E+02  0.45594000000E+02  0.51100000000E-03 0.  1.
         11   -1    0    0    0    0 -0.00000000000E+00 -0.00000000000E+00 -0.45593999997E+02  0.45594000000E+02  0.51100000000E-03 0. -1.
    9900012    2    1    2    0    0  0.42274650841E+02  0.71544368421E+01 -0.67298746799E+01  0.47787270934E+02  0.19999999497E+02 0.  0.
        -12    1    1    2    0    0 -0.42274650841E+02 -0.71544368421E+01  0.67298746799E+01  0.43400729066E+02  0.00000000000E+00 0.  1.
         11    1    3    3    0    0  0.15690010530E+02 -0.23876641587E+01  0.37769950809E+01  0.16313891708E+02  0.51100000000E-03 0. -1.
        -11    1    3    3    0    0  0.34604412033E+01  0.50247479923E+01 -0.19179970124E+01  0.63954248106E+01  0.51100000000E-03 0.  1.
         12    1    3    3    0    0  0.23124199108E+02  0.45173530085E+01 -0.85888727484E+01  0.25077954416E+02  0.00000000000E+00 0. -1.
</event>
<event>
 7    1  0.2442667E-009  0.4778727E+02  0.7816164E-02  0.1312668E+00
        -11   -1    0    0    0    0  0.00000000000E+00  0.00000000000E+00  0.45593999997E+02  0.45594000000E+02  0.51100000000E-03 0.  1.
         11   -1    0    0    0    0 -0.00000000000E+00 -0.00000000000E+00 -0.45593999997E+02  0.45594000000E+02  0.51100000000E-03 0. -1.
    9900012    2    1    2    0    0  0.27227239950E+02 -0.44273312769E+01 -0.33506704334E+02  0.47787273130E+02  0.20000009508E+02 0.  0.
        -12    1    1    2    0    0 -0.27227239950E+02  0.44273312769E+01  0.33506704334E+02  0.43400726870E+02  0.00000000000E+00 0.  1.
         11    1    3    3    0    0  0.19657853060E+02 -0.78273052686E+01 -0.20455713060E+02  0.29430156163E+02  0.51100000000E-03 0. -1.
        -11    1    3    3    0    0  0.27622107153E+00  0.53366605347E+01 -0.59144703289E+01  0.79710227245E+01  0.51100000000E-03 0.  1.
        -12    1    3    3    0    0  0.72931658187E+01 -0.19366865429E+01 -0.71365209445E+01  0.10386094243E+02  0.00000000000E+00 0.  1.
</event>
<event>
 7    1  0.2442667E-009  0.4778728E+02  0.7816164E-02  0.1312668E+00
        -11   -1    0    0    0    0  0.00000000000E+00  0.00000000000E+00  0.45593999997E+02  0.45594000000E+02  0.51100000000E-03 0. -1.
         11   -1    0    0    0    0 -0.00000000000E+00 -0.00000000000E+00 -0.45593999997E+02  0.45594000000E+02  0.51100000000E-03 0.  1.
    9900012    2    1    2    0    0 -0.10467698344E+02  0.37880150724E+02  0.18415872218E+02  0.47787275616E+02  0.20000020843E+02 0.  0.
        -12    1    1    2    0    0  0.10467698344E+02 -0.37880150724E+02 -0.18415872218E+02  0.43400724384E+02  0.00000000000E+00 0.  1.
         11    1    3    3    0    0 -0.90895164450E+01  0.24301448561E+02  0.11297197979E+02  0.28298522820E+02  0.51100000000E-03 0. -1.
        -11    1    3    3    0    0 -0.25027557074E+01  0.12512316959E+02  0.58476397831E+00  0.12773559057E+02  0.51100000000E-03 0.  1.
         12    1    3    3    0    0  0.11245738086E+01  0.10663852042E+01  0.65339102604E+01  0.67151937385E+01  0.00000000000E+00 0. -1.
</event>
<event>
 7    1  0.2442667E-009  0.4778727E+02  0.7816164E-02  0.1312668E+00
        -11   -1    0    0    0    0  0.00000000000E+00  0.00000000000E+00  0.45593999997E+02  0.45594000000E+02  0.51100000000E-03 0.  1.
         11   -1    0    0    0    0 -0.00000000000E+00 -0.00000000000E+00 -0.45593999997E+02  0.45594000000E+02  0.51100000000E-03 0. -1.
    9900012    2    1    2    0    0  0.20240522113E+02  0.14704431270E+02 -0.35464408183E+02  0.47787270949E+02  0.19999999565E+02 0.  0.
        -12    1    1    2    0    0 -0.20240522113E+02 -0.14704431270E+02  0.35464408183E+02  0.43400729051E+02  0.00000000000E+00 0.  1.
         11    1    3    3    0    0 -0.21100446066E+01  0.66517515100E+01 -0.47655938512E+01  0.84503829149E+01  0.51100000000E-03 0. -1.
        -11    1    3    3    0    0  0.13087404776E+02  0.49208689548E+01 -0.12874104340E+02  0.19006253651E+02  0.51100000000E-03 0.  1.
         12    1    3    3    0    0  0.92631619440E+01  0.31318108053E+01 -0.17824709992E+02  0.20330634383E+02  0.00000000000E+00 0. -1.
</event>
<event>
 7    1  0.2442667E-009  0.4778727E+02  0.7816164E-02  0.1312668E+00
        -11   -1    0    0    0    0  0.00000000000E+00  0.00000000000E+00  0.45593999997E+02  0.45594000000E+02  0.51100000000E-03 0.  1.
         11   -1    0    0    0    0 -0.00000000000E+00 -0.00000000000E+00 -0.45593999997E+02  0.45594000000E+02  0.51100000000E-03 0. -1.
    9900012    2    1    2    0    0 -0.18496292790E+02  0.36669480270E+02 -0.14030673610E+02  0.47787269220E+02  0.19999991684E+02 0.  0.
        -12    1    1    2    0    0  0.18496292790E+02 -0.36669480270E+02  0.14030673610E+02  0.43400730780E+02  0.00000000000E+00 0.  1.
         11    1    3    3    0    0 -0.96311148195E+00  0.17894921582E+02 -0.41420721756E+01  0.18393274975E+02  0.51100000000E-03 0. -1.
        -11    1    3    3    0    0 -0.17486241145E+02  0.19934699620E+02 -0.95514550176E+01  0.28184945831E+02  0.51100000000E-03 0.  1.
        -12    1    3    3    0    0 -0.46940162945E-01 -0.11601409315E+01 -0.33714641728E+00  0.12090484137E+01  0.00000000000E+00 0.  1.
</event>
<event>
 7    1  0.2442667E-009  0.4778727E+02  0.7816164E-02  0.1312668E+00
        -11   -1    0    0    0    0  0.00000000000E+00  0.00000000000E+00  0.45593999997E+02  0.45594000000E+02  0.51100000000E-03 0.  1.
         11   -1    0    0    0    0 -0.00000000000E+00 -0.00000000000E+00 -0.45593999997E+02  0.45594000000E+02  0.51100000000E-03 0. -1.
    9900012    2    1    2    0    0 -0.39877082189E+02  0.10214266190E+02 -0.13751750055E+02  0.47787267894E+02  0.19999985638E+02 0.  0.
        -12    1    1    2    0    0  0.39877082189E+02 -0.10214266190E+02  0.13751750055E+02  0.43400732106E+02  0.00000000000E+00 0.  1.
         11    1    3    3    0    0 -0.51334883758E+01  0.19778123404E+01  0.12882567437E+01  0.56501371892E+01  0.51100000000E-03 0. -1.
        -11    1    3    3    0    0  0.11062639850E+01  0.28489431296E+01 -0.59913452195E+00  0.31143634015E+01  0.51100000000E-03 0.  1.
        -12    1    3    3    0    0 -0.35849857798E+02  0.53875107203E+01 -0.14440872277E+02  0.39022767304E+02  0.00000000000E+00 0.  1.
</event>
<event>
 7    1  0.2442667E-009  0.4778727E+02  0.7816164E-02  0.1312668E+00
        -11   -1    0    0    0    0  0.00000000000E+00  0.00000000000E+00  0.45593999997E+02  0.45594000000E+02  0.51100000000E-03 0. -1.
         11   -1    0    0    0    0 -0.00000000000E+00 -0.00000000000E+00 -0.45593999997E+02  0.45594000000E+02  0.51100000000E-03 0.  1.
    9900012    2    1    2    0    0 -0.34051817175E+02  0.22635271251E+02  0.14551344301E+02  0.47787269839E+02  0.19999994506E+02 0.  0.
        -12    1    1    2    0    0  0.34051817175E+02 -0.22635271251E+02 -0.14551344301E+02  0.43400730161E+02  0.00000000000E+00 0.  1.
         11    1    3    3    0    0 -0.19515936960E+02  0.63475343631E+01  0.10214853434E+02  0.22923922414E+02  0.51100000000E-03 0.  1.
        -11    1    3    3    0    0 -0.41211989704E+01  0.11314904479E+02 -0.11265707069E+01  0.12094647830E+02  0.51100000000E-03 0. -1.
         12    1    3    3    0    0 -0.10414681245E+02  0.49728324096E+01  0.54630615734E+01  0.12768699595E+02  0.00000000000E+00 0. -1.
</event>
<event>
 7    1  0.2442667E-009  0.4778727E+02  0.7816164E-02  0.1312668E+00
        -11   -1    0    0    0    0  0.00000000000E+00  0.00000000000E+00  0.45593999997E+02  0.45594000000E+02  0.51100000000E-03 0.  1.
         11   -1    0    0    0    0 -0.00000000000E+00 -0.00000000000E+00 -0.45593999997E+02  0.45594000000E+02  0.51100000000E-03 0. -1.
    9900012    2    1    2    0    0 -0.28009150230E+02 -0.25289020659E+02 -0.21437730365E+02  0.47787270217E+02  0.19999996226E+02 0.  0.
        -12    1    1    2    0    0  0.28009150230E+02  0.25289020659E+02  0.21437730365E+02  0.43400729783E+02  0.00000000000E+00 0.  1.
         11    1    3    3    0    0 -0.12182117789E+02 -0.18321067231E+02 -0.59415481177E+01  0.22789635640E+02  0.51100000000E-03 0. -1.
        -11    1    3    3    0    0 -0.47007335924E+01  0.21510906764E+01 -0.32584863279E+01  0.61107954322E+01  0.51100000000E-03 0.  1.
        -12    1    3    3    0    0 -0.11126298849E+02 -0.91190441045E+01 -0.12237695919E+02  0.18886839144E+02  0.00000000000E+00 0.  1.
</event>
<event>
 7    1  0.2442667E-009  0.4778727E+02  0.7816164E-02  0.1312668E+00
        -11   -1    0    0    0    0  0.00000000000E+00  0.00000000000E+00  0.45593999997E+02  0.45594000000E+02  0.51100000000E-03 0.  1.
         11   -1    0    0    0    0 -0.00000000000E+00 -0.00000000000E+00 -0.45593999997E+02  0.45594000000E+02  0.51100000000E-03 0. -1.
    9900012    2    1    2    0    0  0.38802884726E+02 -0.63482519126E+01 -0.18375494151E+02  0.47787274767E+02  0.20000016975E+02 0.  0.
        -12    1    1    2    0    0 -0.38802884726E+02  0.63482519126E+01  0.18375494151E+02  0.43400725233E+02  0.00000000000E+00 0.  1.
         11    1    3    3    0    0  0.14946330295E+02 -0.10557687258E+02 -0.71737574577E+01  0.19655033601E+02  0.51100000000E-03 0. -1.
        -11    1    3    3    0    0  0.58336750717E+01  0.49797859622E+01 -0.44715424553E+01  0.88783289680E+01  0.51100000000E-03 0.  1.
         12    1    3    3    0    0  0.18022879359E+02 -0.77035061678E+00 -0.67301942382E+01  0.19253912199E+02  0.00000000000E+00 0. -1.
</event>
<event>
 7    1  0.2442667E-009  0.4778727E+02  0.7816164E-02  0.1312668E+00
        -11   -1    0    0    0    0  0.00000000000E+00  0.00000000000E+00  0.45593999997E+02  0.45594000000E+02  0.51100000000E-03 0.  1.
         11   -1    0    0    0    0 -0.00000000000E+00 -0.00000000000E+00 -0.45593999997E+02  0.45594000000E+02  0.51100000000E-03 0. -1.
    9900012    2    1    2    0    0 -0.28232892540E+02  0.31768856817E+02 -0.87901423656E+01  0.47787273193E+02  0.20000009795E+02 0.  0.
        -12    1    1    2    0    0  0.28232892540E+02 -0.31768856817E+02  0.87901423656E+01  0.43400726807E+02  0.00000000000E+00 0.  1.
         11    1    3    3    0    0 -0.49352001910E+01  0.99197039223E+01 -0.10574979403E+02  0.15316230491E+02  0.51100000000E-03 0. -1.
        -11    1    3    3    0    0 -0.10625692249E+02  0.13189412435E+02  0.24225320719E+01  0.17109488538E+02  0.51100000000E-03 0.  1.
        -12    1    3    3    0    0 -0.12672000100E+02  0.86597404595E+01 -0.63769503500E+00  0.15361554163E+02  0.00000000000E+00 0.  1.
</event>
<event>
 7    1  0.2442667E-009  0.4778727E+02  0.7816164E-02  0.1312668E+00
        -11   -1    0    0    0    0  0.00000000000E+00  0.00000000000E+00  0.45593999997E+02  0.45594000000E+02  0.51100000000E-03 0. -1.
         11   -1    0    0    0    0 -0.00000000000E+00 -0.00000000000E+00 -0.45593999997E+02  0.45594000000E+02  0.51100000000E-03 0.  1.
    9900012    2    1    2    0    0  0.19492241178E+02  0.28875002516E+02  0.25882620108E+02  0.47787271204E+02  0.20000000726E+02 0.  0.
        -12    1    1    2    0    0 -0.19492241178E+02 -0.28875002516E+02 -0.25882620108E+02  0.43400728796E+02  0.00000000000E+00 0.  1.
         11    1    3    3    0    0  0.11823601271E+02  0.90507425533E+01  0.13215900037E+02  0.19909131117E+02  0.51100000000E-03 0. -1.
        -11    1    3    3    0    0 -0.64723143608E+00  0.14999116364E+02  0.94514021798E+01  0.17740389050E+02  0.51100000000E-03 0.  1.
        -12    1    3    3    0    0  0.83158713425E+01  0.48251435982E+01  0.32153178908E+01  0.10137751036E+02  0.00000000000E+00 0.  1.
</event>
<event>
 7    1  0.2442667E-009  0.4778727E+02  0.7816164E-02  0.1312668E+00
        -11   -1    0    0    0    0  0.00000000000E+00  0.00000000000E+00  0.45593999997E+02  0.45594000000E+02  0.51100000000E-03 0. -1.
         11   -1    0    0    0    0 -0.00000000000E+00 -0.00000000000E+00 -0.45593999997E+02  0.45594000000E+02  0.51100000000E-03 0.  1.
    9900012    2    1    2    0    0  0.10368732492E+02  0.37958598216E+02  0.18310046165E+02  0.47787267488E+02  0.19999983783E+02 0.  0.
        -12    1    1    2    0    0 -0.10368732492E+02 -0.37958598216E+02 -0.18310046165E+02  0.43400732512E+02  0.00000000000E+00 0.  1.
         11    1    3    3    0    0  0.12348714250E+01  0.17395689643E+02  0.65793415495E+01  0.18639277376E+02  0.51100000000E-03 0. -1.
        -11    1    3    3    0    0  0.59244444399E+01  0.40374699869E+01 -0.19789538580E+01  0.74375039126E+01  0.51100000000E-03 0.  1.
        -12    1    3    3    0    0  0.32094166272E+01  0.16525438586E+02  0.13709658474E+02  0.21710486199E+02  0.00000000000E+00 0.  1.
</event>
<event>
 7    1  0.2442667E-009  0.4778727E+02  0.7816164E-02  0.1312668E+00
        -11   -1    0    0    0    0  0.00000000000E+00  0.00000000000E+00  0.45593999997E+02  0.45594000000E+02  0.51100000000E-03 0.  1.
         11   -1    0    0    0    0 -0.00000000000E+00 -0.00000000000E+00 -0.45593999997E+02  0.45594000000E+02  0.51100000000E-03 0. -1.
    9900012    2    1    2    0    0 -0.30810498247E+02  0.78047577363E+01 -0.29553715981E+02  0.47787272197E+02  0.20000005257E+02 0.  0.
        -12    1    1    2    0    0  0.30810498247E+02 -0.78047577363E+01  0.29553715981E+02  0.43400727803E+02  0.00000000000E+00 0.  1.
         11    1    3    3    0    0  0.25700773275E+01  0.10713731312E+01 -0.27487779219E+01  0.39126612658E+01  0.51100000000E-03 0. -1.
        -11    1    3    3    0    0 -0.16567823194E+02  0.55874546619E+01 -0.10333089973E+02  0.20309730762E+02  0.51100000000E-03 0.  1.
         12    1    3    3    0    0 -0.16812752381E+02  0.11459299431E+01 -0.16471848085E+02  0.23564880169E+02  0.00000000000E+00 0. -1.
</event>
<event>
 7    1  0.2442667E-009  0.4778726E+02  0.7816164E-02  0.1312668E+00
        -11   -1    0    0    0    0  0.00000000000E+00  0.00000000000E+00  0.45593999997E+02  0.45594000000E+02  0.51100000000E-03 0.  1.
         11   -1    0    0    0    0 -0.00000000000E+00 -0.00000000000E+00 -0.45593999997E+02  0.45594000000E+02  0.51100000000E-03 0. -1.
    9900012    2    1    2    0    0  0.27840924415E+01 -0.83501373134E+00 -0.43303296985E+02  0.47787263273E+02  0.19999964568E+02 0.  0.
        -12    1    1    2    0    0 -0.27840924415E+01  0.83501373134E+00  0.43303296985E+02  0.43400736727E+02  0.00000000000E+00 0.  1.
         11    1    3    3    0    0  0.20482682385E+01 -0.57601360782E+01 -0.32423221708E+02  0.32994543134E+02  0.51100000000E-03 0. -1.
        -11    1    3    3    0    0 -0.28936760971E+01  0.55710608446E+01 -0.76067441487E+01  0.98626891411E+01  0.51100000000E-03 0.  1.
        -12    1    3    3    0    0  0.36295003001E+01 -0.64593849773E+00 -0.32733311282E+01  0.49300309985E+01  0.00000000000E+00 0.  1.
</event>
<event>
 7    1  0.2442667E-009  0.4778727E+02  0.7816164E-02  0.1312668E+00
        -11   -1    0    0    0    0  0.00000000000E+00  0.00000000000E+00  0.45593999997E+02  0.45594000000E+02  0.51100000000E-03 0.  1.
         11   -1    0    0    0    0 -0.00000000000E+00 -0.00000000000E+00 -0.45593999997E+02  0.45594000000E+02  0.51100000000E-03 0. -1.
    9900012    2    1    2    0    0  0.47382596781E+01  0.43139198887E+02  0.42595311160E+00  0.47787273952E+02  0.20000013258E+02 0.  0.
        -12    1    1    2    0    0 -0.47382596781E+01 -0.43139198887E+02 -0.42595311160E+00  0.43400726048E+02  0.00000000000E+00 0.  1.
         11    1    3    3    0    0  0.19235215252E+01  0.25388250821E+02  0.84547614341E+01  0.26828086141E+02  0.51100000000E-03 0. -1.
        -11    1    3    3    0    0  0.22941201753E+01  0.81723905137E+01 -0.75408484288E+01  0.11354089544E+02  0.51100000000E-03 0.  1.
         12    1    3    3    0    0  0.52061797752E+00  0.95785575525E+01 -0.48795989370E+00  0.96050982672E+01  0.00000000000E+00 0. -1.
</event>
<event>
 7    1  0.2442667E-009  0.4778727E+02  0.7816164E-02  0.1312668E+00
        -11   -1    0    0    0    0  0.00000000000E+00  0.00000000000E+00  0.45593999997E+02  0.45594000000E+02  0.51100000000E-03 0.  1.
         11   -1    0    0    0    0 -0.00000000000E+00 -0.00000000000E+00 -0.45593999997E+02  0.45594000000E+02  0.51100000000E-03 0. -1.
    9900012    2    1    2    0    0 -0.25202704335E+02  0.91836479655E+01 -0.34119017635E+02  0.47787273507E+02  0.20000011226E+02 0.  0.
        -12    1    1    2    0    0  0.25202704335E+02 -0.91836479655E+01  0.34119017635E+02  0.43400726493E+02  0.00000000000E+00 0.  1.
         11    1    3    3    0    0 -0.14087069468E+02 -0.85718261647E-01 -0.18707290253E+02  0.23418274545E+02  0.51100000000E-03 0. -1.
        -11    1    3    3    0    0 -0.59816083718E+01 -0.21466054748E+01 -0.49477817339E+01  0.80540733871E+01  0.51100000000E-03 0.  1.
         12    1    3    3    0    0 -0.51340264962E+01  0.11415971702E+02 -0.10463945649E+02  0.16314925575E+02  0.00000000000E+00 0. -1.
</event>
<event>
 7    1  0.2442667E-009  0.4778727E+02  0.7816164E-02  0.1312668E+00
        -11   -1    0    0    0    0  0.00000000000E+00  0.00000000000E+00  0.45593999997E+02  0.45594000000E+02  0.51100000000E-03 0.  1.
         11   -1    0    0    0    0 -0.00000000000E+00 -0.00000000000E+00 -0.45593999997E+02  0.45594000000E+02  0.51100000000E-03 0. -1.
    9900012    2    1    2    0    0  0.16903471835E+02  0.27199057818E+02 -0.29293474544E+02  0.47787265477E+02  0.19999974617E+02 0.  0.
        -12    1    1    2    0    0 -0.16903471835E+02 -0.27199057818E+02  0.29293474544E+02  0.43400734523E+02  0.00000000000E+00 0.  1.
         11    1    3    3    0    0  0.17461409718E+02  0.15140797677E+02 -0.12519530860E+02  0.26284657822E+02  0.51100000000E-03 0.  1.
        -11    1    3    3    0    0 -0.23695859643E+01  0.10000133560E+02 -0.15178184871E+02  0.18330163805E+02  0.51100000000E-03 0. -1.
         12    1    3    3    0    0  0.18116480808E+01  0.20581265812E+01 -0.15957588130E+01  0.31724438502E+01  0.00000000000E+00 0. -1.
</event>
<event>
 7    1  0.2442667E-009  0.4778727E+02  0.7816164E-02  0.1312668E+00
        -11   -1    0    0    0    0  0.00000000000E+00  0.00000000000E+00  0.45593999997E+02  0.45594000000E+02  0.51100000000E-03 0.  1.
         11   -1    0    0    0    0 -0.00000000000E+00 -0.00000000000E+00 -0.45593999997E+02  0.45594000000E+02  0.51100000000E-03 0. -1.
    9900012    2    1    2    0    0  0.18447974676E+02  0.34042705840E+02 -0.19605859492E+02  0.47787270548E+02  0.19999997738E+02 0.  0.
        -12    1    1    2    0    0 -0.18447974676E+02 -0.34042705840E+02  0.19605859492E+02  0.43400729452E+02  0.00000000000E+00 0.  1.
         11    1    3    3    0    0  0.19143103789E+02  0.21546012274E+02 -0.15760326103E+02  0.32849306640E+02  0.51100000000E-03 0. -1.
        -11    1    3    3    0    0 -0.33251292257E+01  0.79625866540E+01 -0.43657959977E+01  0.96705452558E+01  0.51100000000E-03 0.  1.
         12    1    3    3    0    0  0.26300001124E+01  0.45341069112E+01  0.52026260897E+00  0.52674186521E+01  0.00000000000E+00 0. -1.
</event>
<event>
 7    1  0.2442667E-009  0.4778725E+02  0.7816164E-02  0.1312668E+00
        -11   -1    0    0    0    0  0.00000000000E+00  0.00000000000E+00  0.45593999997E+02  0.45594000000E+02  0.51100000000E-03 0.  1.
         11   -1    0    0    0    0 -0.00000000000E+00 -0.00000000000E+00 -0.45593999997E+02  0.45594000000E+02  0.51100000000E-03 0. -1.
    9900012    2    1    2    0    0  0.29641706550E+02  0.51722585845E+01 -0.31276855210E+02  0.47787254639E+02  0.19999925201E+02 0.  0.
        -12    1    1    2    0    0 -0.29641706550E+02 -0.51722585845E+01  0.31276855210E+02  0.43400745361E+02  0.00000000000E+00 0.  1.
         11    1    3    3    0    0  0.73770476857E+01 -0.14275228614E+01  0.41083408657E+00  0.75251205296E+01  0.51100000000E-03 0.  1.
        -11    1    3    3    0    0  0.19250705603E+02  0.21009396546E+01 -0.25858579441E+02  0.32305877864E+02  0.51100000000E-03 0. -1.
         12    1    3    3    0    0  0.30139532616E+01  0.44988417913E+01 -0.58291098558E+01  0.79562562451E+01  0.00000000000E+00 0. -1.
</event>
<event>
 7    1  0.2442667E-009  0.4778727E+02  0.7816164E-02  0.1312668E+00
        -11   -1    0    0    0    0  0.00000000000E+00  0.00000000000E+00  0.45593999997E+02  0.45594000000E+02  0.51100000000E-03 0. -1.
         11   -1    0    0    0    0 -0.00000000000E+00 -0.00000000000E+00 -0.45593999997E+02  0.45594000000E+02  0.51100000000E-03 0.  1.
    9900012    2    1    2    0    0 -0.25466008143E+02  0.22126806237E+02 -0.27304033569E+02  0.47787269890E+02  0.19999994734E+02 0.  0.
        -12    1    1    2    0    0  0.25466008143E+02 -0.22126806237E+02  0.27304033569E+02  0.43400730110E+02  0.00000000000E+00 0.  1.
         11    1    3    3    0    0 -0.12145030087E+02  0.17226696960E+02 -0.77684549302E+01  0.22463520121E+02  0.51100000000E-03 0. -1.
        -11    1    3    3    0    0 -0.88388241629E+00 -0.77632936336E+00  0.31778767709E+00  0.12185748541E+01  0.51100000000E-03 0.  1.
         12    1    3    3    0    0 -0.12437095640E+02  0.56764386406E+01 -0.19853366315E+02  0.24105174914E+02  0.00000000000E+00 0. -1.
</event>
<event>
 7    1  0.2442667E-009  0.4778728E+02  0.7816164E-02  0.1312668E+00
        -11   -1    0    0    0    0  0.00000000000E+00  0.00000000000E+00  0.45593999997E+02  0.45594000000E+02  0.51100000000E-03 0.  1.
         11   -1    0    0    0    0 -0.00000000000E+00 -0.00000000000E+00 -0.45593999997E+02  0.45594000000E+02  0.51100000000E-03 0. -1.
    9900012    2    1    2    0    0  0.20640193037E+02 -0.35265458217E+02 -0.14627125787E+02  0.47787275114E+02  0.20000018553E+02 0.  0.
        -12    1    1    2    0    0 -0.20640193037E+02  0.35265458217E+02  0.14627125787E+02  0.43400724886E+02  0.00000000000E+00 0.  1.
         11    1    3    3    0    0  0.18380631522E+02 -0.27751241380E+02 -0.54283133245E+01  0.33726037406E+02  0.51100000000E-03 0. -1.
        -11    1    3    3    0    0  0.88633845535E+00  0.33292813742E+00  0.82604939571E+00  0.12565010415E+01  0.51100000000E-03 0.  1.
         12    1    3    3    0    0  0.13732230600E+01 -0.78471449742E+01 -0.10024861858E+02  0.12804736666E+02  0.00000000000E+00 0. -1.
</event>
<event>
 7    1  0.2442667E-009  0.4778727E+02  0.7816164E-02  0.1312668E+00
        -11   -1    0    0    0    0  0.00000000000E+00  0.00000000000E+00  0.45593999997E+02  0.45594000000E+02  0.51100000000E-03 0. -1.
         11   -1    0    0    0    0 -0.00000000000E+00 -0.00000000000E+00 -0.45593999997E+02  0.45594000000E+02  0.51100000000E-03 0.  1.
    9900012    2    1    2    0    0  0.19639389341E+02 -0.14557502815E+02  0.35860798441E+02  0.47787269975E+02  0.19999995124E+02 0.  0.
        -12    1    1    2    0    0 -0.19639389341E+02  0.14557502815E+02 -0.35860798441E+02  0.43400730025E+02  0.00000000000E+00 0.  1.
         11    1    3    3    0    0  0.13977550929E+02 -0.12039235790E+02  0.20657083448E+02  0.27695310528E+02  0.51100000000E-03 0. -1.
        -11    1    3    3    0    0  0.53727947732E+00  0.41235654558E+01  0.24497594443E+01  0.48263633204E+01  0.51100000000E-03 0.  1.
        -12    1    3    3    0    0  0.51245589344E+01 -0.66418324806E+01  0.12753955548E+02  0.15265596127E+02  0.00000000000E+00 0.  1.
</event>
<event>
 7    1  0.2442667E-009  0.4778727E+02  0.7816164E-02  0.1312668E+00
        -11   -1    0    0    0    0  0.00000000000E+00  0.00000000000E+00  0.45593999997E+02  0.45594000000E+02  0.51100000000E-03 0. -1.
         11   -1    0    0    0    0 -0.00000000000E+00 -0.00000000000E+00 -0.45593999997E+02  0.45594000000E+02  0.51100000000E-03 0.  1.
    9900012    2    1    2    0    0  0.61467322215E+01 -0.92567574818E+01  0.41954179189E+02  0.47787273882E+02  0.20000012939E+02 0.  0.
        -12    1    1    2    0    0 -0.61467322215E+01  0.92567574818E+01 -0.41954179189E+02  0.43400726118E+02  0.00000000000E+00 0.  1.
         11    1    3    3    0    0  0.23293875729E+00 -0.64583917008E+01  0.34529805835E+02  0.35129369124E+02  0.51100000000E-03 0. -1.
        -11    1    3    3    0    0  0.27117729812E+00 -0.10603660581E+01 -0.15609049099E+01  0.19063939003E+01  0.51100000000E-03 0.  1.
         12    1    3    3    0    0  0.56426161661E+01 -0.17379997229E+01  0.89852782645E+01  0.10751510858E+02  0.00000000000E+00 0. -1.
</event>
<event>
 7    1  0.2442667E-009  0.4778726E+02  0.7816164E-02  0.1312668E+00
        -11   -1    0    0    0    0  0.00000000000E+00  0.00000000000E+00  0.45593999997E+02  0.45594000000E+02  0.51100000000E-03 0.  1.
         11   -1    0    0    0    0 -0.00000000000E+00 -0.00000000000E+00 -0.45593999997E+02  0.45594000000E+02  0.51100000000E-03 0. -1.
    9900012    2    1    2    0    0  0.19775090052E+02 -0.25141978808E+02 -0.29333441818E+02  0.47787261598E+02  0.19999956931E+02 0.  0.
        -12    1    1    2    0    0 -0.19775090052E+02  0.25141978808E+02  0.29333441818E+02  0.43400738402E+02  0.00000000000E+00 0.  1.
         11    1    3    3    0    0  0.16433074984E+02 -0.20860762271E+02 -0.14499845037E+02  0.30256616835E+02  0.51100000000E-03 0. -1.
        -11    1    3    3    0    0 -0.22208664061E+01 -0.11484819659E+01 -0.20186799561E+01  0.32134603538E+01  0.51100000000E-03 0.  1.
         12    1    3    3    0    0  0.55628814739E+01 -0.31327345713E+01 -0.12814916825E+02  0.14317184409E+02  0.00000000000E+00 0. -1.
</event>
<event>
 7    1  0.2442667E-009  0.4778727E+02  0.7816164E-02  0.1312668E+00
        -11   -1    0    0    0    0  0.00000000000E+00  0.00000000000E+00  0.45593999997E+02  0.45594000000E+02  0.51100000000E-03 0.  1.
         11   -1    0    0    0    0 -0.00000000000E+00 -0.00000000000E+00 -0.45593999997E+02  0.45594000000E+02  0.51100000000E-03 0. -1.
    9900012    2    1    2    0    0 -0.75778772972E+01 -0.18031815981E+02 -0.38743421551E+02  0.47787270451E+02  0.19999997293E+02 0.  0.
        -12    1    1    2    0    0  0.75778772972E+01  0.18031815981E+02  0.38743421551E+02  0.43400729549E+02  0.00000000000E+00 0.  1.
         11    1    3    3    0    0 -0.12607983443E+02 -0.85987830428E+01 -0.21926121467E+02  0.26714324232E+02  0.51100000000E-03 0. -1.
        -11    1    3    3    0    0  0.11560896916E+01 -0.68656762572E+01 -0.56134957383E+01  0.89434550655E+01  0.51100000000E-03 0.  1.
         12    1    3    3    0    0  0.38740164547E+01 -0.25673566815E+01 -0.11203804346E+02  0.12129491153E+02  0.00000000000E+00 0. -1.
</event>
<event>
 7    1  0.2442667E-009  0.4778727E+02  0.7816164E-02  0.1312668E+00
        -11   -1    0    0    0    0  0.00000000000E+00  0.00000000000E+00  0.45593999997E+02  0.45594000000E+02  0.51100000000E-03 0. -1.
         11   -1    0    0    0    0 -0.00000000000E+00 -0.00000000000E+00 -0.45593999997E+02  0.45594000000E+02  0.51100000000E-03 0.  1.
    9900012    2    1    2    0    0 -0.16901367182E+02 -0.16087995543E+02  0.36594306509E+02  0.47787273254E+02  0.20000010073E+02 0.  0.
        -12    1    1    2    0    0  0.16901367182E+02  0.16087995543E+02 -0.36594306509E+02  0.43400726746E+02  0.00000000000E+00 0.  1.
         11    1    3    3    0    0 -0.93478014894E+00 -0.35327995199E+00  0.50228659180E+01  0.51213087139E+01  0.51100000000E-03 0. -1.
        -11    1    3    3    0    0 -0.64349386883E+01 -0.20562521723E+01  0.22896224865E+02  0.23872028029E+02  0.51100000000E-03 0.  1.
        -12    1    3    3    0    0 -0.95316483451E+01 -0.13678463418E+02  0.86752157263E+01  0.18793936510E+02  0.00000000000E+00 0.  1.
</event>
<event>
 7    1  0.2442667E-009  0.4778727E+02  0.7816164E-02  0.1312668E+00
        -11   -1    0    0    0    0  0.00000000000E+00  0.00000000000E+00  0.45593999997E+02  0.45594000000E+02  0.51100000000E-03 0.  1.
         11   -1    0    0    0    0 -0.00000000000E+00 -0.00000000000E+00 -0.45593999997E+02  0.45594000000E+02  0.51100000000E-03 0. -1.
    9900012    2    1    2    0    0 -0.39543027880E+02 -0.95686409763E+00 -0.17862158129E+02  0.47787270331E+02  0.19999996745E+02 0.  0.
        -12    1    1    2    0    0  0.39543027880E+02  0.95686409763E+00  0.17862158129E+02  0.43400729669E+02  0.00000000000E+00 0.  1.
         11    1    3    3    0    0 -0.60747598932E+01 -0.51176771788E+01  0.21035468419E+01  0.82169481588E+01  0.51100000000E-03 0. -1.
        -11    1    3    3    0    0 -0.13210614072E+02  0.40700821017E+01 -0.94591742509E+01  0.16749981202E+02  0.51100000000E-03 0.  1.
         12    1    3    3    0    0 -0.20257653914E+02  0.90730979483E-01 -0.10506530720E+02  0.22820340970E+02  0.00000000000E+00 0. -1.
</event>
<event>
 7    1  0.2442667E-009  0.4778727E+02  0.7816164E-02  0.1312668E+00
        -11   -1    0    0    0    0  0.00000000000E+00  0.00000000000E+00  0.45593999997E+02  0.45594000000E+02  0.51100000000E-03 0.  1.
         11   -1    0    0    0    0 -0.00000000000E+00 -0.00000000000E+00 -0.45593999997E+02  0.45594000000E+02  0.51100000000E-03 0. -1.
    9900012    2    1    2    0    0  0.15253466106E+02 -0.17931267869E+02 -0.36461272700E+02  0.47787274171E+02  0.20000014253E+02 0.  0.
        -12    1    1    2    0    0 -0.15253466106E+02  0.17931267869E+02  0.36461272700E+02  0.43400725829E+02  0.00000000000E+00 0.  1.
         11    1    3    3    0    0  0.74316105698E+01 -0.42508286322E+01 -0.19107458176E+02  0.20937844634E+02  0.51100000000E-03 0. -1.
        -11    1    3    3    0    0  0.61897138026E+01 -0.18749702209E+00 -0.89036833538E+01  0.10845427129E+02  0.51100000000E-03 0.  1.
        -12    1    3    3    0    0  0.16321417335E+01 -0.13492942215E+02 -0.84501311698E+01  0.16004002407E+02  0.00000000000E+00 0.  1.
</event>
<event>
 7    1  0.2442667E-009  0.4778728E+02  0.7816164E-02  0.1312668E+00
        -11   -1    0    0    0    0  0.00000000000E+00  0.00000000000E+00  0.45593999997E+02  0.45594000000E+02  0.51100000000E-03 0. -1.
         11   -1    0    0    0    0 -0.00000000000E+00 -0.00000000000E+00 -0.45593999997E+02  0.45594000000E+02  0.51100000000E-03 0.  1.
    9900012    2    1    2    0    0 -0.31938491881E+02 -0.20896053640E+02  0.20661808606E+02  0.47787278160E+02  0.20000032444E+02 0.  0.
        -12    1    1    2    0    0  0.31938491881E+02  0.20896053640E+02 -0.20661808606E+02  0.43400721840E+02  0.00000000000E+00 0.  1.
         11    1    3    3    0    0 -0.11064374182E+02 -0.13864218663E+02  0.96599984228E+01  0.20197834165E+02  0.51100000000E-03 0. -1.
        -11    1    3    3    0    0 -0.82433635801E+01  0.75945453085E+00  0.96098618768E+01  0.12683818820E+02  0.51100000000E-03 0.  1.
        -12    1    3    3    0    0 -0.12630754118E+02 -0.77912895078E+01  0.13919483068E+01  0.14905625175E+02  0.00000000000E+00 0.  1.
</event>
<event>
 7    1  0.2442667E-009  0.4778727E+02  0.7816164E-02  0.1312668E+00
        -11   -1    0    0    0    0  0.00000000000E+00  0.00000000000E+00  0.45593999997E+02  0.45594000000E+02  0.51100000000E-03 0.  1.
         11   -1    0    0    0    0 -0.00000000000E+00 -0.00000000000E+00 -0.45593999997E+02  0.45594000000E+02  0.51100000000E-03 0. -1.
    9900012    2    1    2    0    0  0.27057051614E+02 -0.15797095477E+02 -0.30033164752E+02  0.47787271290E+02  0.20000001119E+02 0.  0.
        -12    1    1    2    0    0 -0.27057051614E+02  0.15797095477E+02  0.30033164752E+02  0.43400728710E+02  0.00000000000E+00 0.  1.
         11    1    3    3    0    0  0.44237270377E+01 -0.87345538823E+01 -0.11127445399E+02  0.14821667713E+02  0.51100000000E-03 0. -1.
        -11    1    3    3    0    0  0.22990965359E+02 -0.75820883137E+01 -0.13890553888E+02  0.27910930456E+02  0.51100000000E-03 0.  1.
        -12    1    3    3    0    0 -0.35764078266E+00  0.51954671884E+00 -0.50151654645E+01  0.50546731209E+01  0.00000000000E+00 0.  1.
</event>
<event>
 7    1  0.2442667E-009  0.4778728E+02  0.7816164E-02  0.1312668E+00
        -11   -1    0    0    0    0  0.00000000000E+00  0.00000000000E+00  0.45593999997E+02  0.45594000000E+02  0.51100000000E-03 0.  1.
         11   -1    0    0    0    0 -0.00000000000E+00 -0.00000000000E+00 -0.45593999997E+02  0.45594000000E+02  0.51100000000E-03 0. -1.
    9900012    2    1    2    0    0  0.69971456401E+00  0.92481907150E+01 -0.42398162119E+02  0.47787276699E+02  0.20000025780E+02 0.  0.
        -12    1    1    2    0    0 -0.69971456401E+00 -0.92481907150E+01  0.42398162119E+02  0.43400723301E+02  0.00000000000E+00 0.  1.
         11    1    3    3    0    0  0.61503260677E+01  0.28606112886E+01 -0.19865624833E+02  0.20991728322E+02  0.51100000000E-03 0. -1.
        -11    1    3    3    0    0 -0.52535340289E+01  0.11211194947E+01 -0.22234361406E+01  0.58137937052E+01  0.51100000000E-03 0.  1.
         12    1    3    3    0    0 -0.19707747476E+00  0.52664599317E+01 -0.20309101146E+02  0.20981754671E+02  0.00000000000E+00 0. -1.
</event>
<event>
 7    1  0.2442667E-009  0.4778727E+02  0.7816164E-02  0.1312668E+00
        -11   -1    0    0    0    0  0.00000000000E+00  0.00000000000E+00  0.45593999997E+02  0.45594000000E+02  0.51100000000E-03 0. -1.
         11   -1    0    0    0    0 -0.00000000000E+00 -0.00000000000E+00 -0.45593999997E+02  0.45594000000E+02  0.51100000000E-03 0.  1.
    9900012    2    1    2    0    0 -0.29155790275E+02  0.61273106122E+01  0.31559773924E+02  0.47787269914E+02  0.19999994845E+02 0.  0.
        -12    1    1    2    0    0  0.29155790275E+02 -0.61273106122E+01 -0.31559773924E+02  0.43400730086E+02  0.00000000000E+00 0.  1.
         11    1    3    3    0    0 -0.17714273408E+02  0.82682337654E+01  0.14873174404E+02  0.24563600898E+02  0.51100000000E-03 0. -1.
        -11    1    3    3    0    0 -0.31018899417E+00 -0.39302080138E+01  0.13051968180E+01  0.41528654250E+01  0.51100000000E-03 0.  1.
        -12    1    3    3    0    0 -0.11131327873E+02  0.17892848605E+01  0.15381402702E+02  0.19070803591E+02  0.00000000000E+00 0.  1.
</event>
<event>
 7    1  0.2442667E-009  0.4778727E+02  0.7816164E-02  0.1312668E+00
        -11   -1    0    0    0    0  0.00000000000E+00  0.00000000000E+00  0.45593999997E+02  0.45594000000E+02  0.51100000000E-03 0.  1.
         11   -1    0    0    0    0 -0.00000000000E+00 -0.00000000000E+00 -0.45593999997E+02  0.45594000000E+02  0.51100000000E-03 0. -1.
    9900012    2    1    2    0    0 -0.34648511488E+02 -0.73496430388E+01 -0.25081596395E+02  0.47787273292E+02  0.20000010246E+02 0.  0.
        -12    1    1    2    0    0  0.34648511488E+02  0.73496430388E+01  0.25081596395E+02  0.43400726708E+02  0.00000000000E+00 0.  1.
         11    1    3    3    0    0 -0.95779076676E+01 -0.63158453924E+00 -0.86201378519E+01  0.12901239908E+02  0.51100000000E-03 0. -1.
        -11    1    3    3    0    0 -0.21154129477E+02 -0.11134803456E+02 -0.16386041506E+02  0.28982467087E+02  0.51100000000E-03 0.  1.
        -12    1    3    3    0    0 -0.39164743430E+01  0.44167449567E+01 -0.75417037061E-01  0.59035662968E+01  0.00000000000E+00 0.  1.
</event>
<event>
 7    1  0.2442667E-009  0.4778727E+02  0.7816164E-02  0.1312668E+00
        -11   -1    0    0    0    0  0.00000000000E+00  0.00000000000E+00  0.45593999997E+02  0.45594000000E+02  0.51100000000E-03 0.  1.
         11   -1    0    0    0    0 -0.00000000000E+00 -0.00000000000E+00 -0.45593999997E+02  0.45594000000E+02  0.51100000000E-03 0. -1.
    9900012    2    1    2    0    0 -0.29365160528E+02 -0.81783904242E+00 -0.31947482822E+02  0.47787272216E+02  0.20000005341E+02 0.  0.
        -12    1    1    2    0    0  0.29365160528E+02  0.81783904242E+00  0.31947482822E+02  0.43400727784E+02  0.00000000000E+00 0.  1.
         11    1    3    3    0    0 -0.37573418519E+01 -0.13743126616E+01 -0.97263235107E+01  0.10517020604E+02  0.51100000000E-03 0. -1.
        -11    1    3    3    0    0 -0.29269310122E+01 -0.56876415003E+01 -0.47026518149E+01  0.79392144032E+01  0.51100000000E-03 0.  1.
        -12    1    3    3    0    0 -0.22680887664E+02  0.62441151195E+01 -0.17518507496E+02  0.29331037209E+02  0.00000000000E+00 0.  1.
</event>
<event>
 7    1  0.2442667E-009  0.4778726E+02  0.7816164E-02  0.1312668E+00
        -11   -1    0    0    0    0  0.00000000000E+00  0.00000000000E+00  0.45593999997E+02  0.45594000000E+02  0.51100000000E-03 0.  1.
         11   -1    0    0    0    0 -0.00000000000E+00 -0.00000000000E+00 -0.45593999997E+02  0.45594000000E+02  0.51100000000E-03 0. -1.
    9900012    2    1    2    0    0 -0.30215130923E+02 -0.19847009688E+02 -0.24015953950E+02  0.47787262974E+02  0.19999963204E+02 0.  0.
        -12    1    1    2    0    0  0.30215130923E+02  0.19847009688E+02  0.24015953950E+02  0.43400737026E+02  0.00000000000E+00 0.  1.
         11    1    3    3    0    0 -0.13501219457E+02 -0.67552916627E+01  0.13291195674E+00  0.15097501718E+02  0.51100000000E-03 0. -1.
        -11    1    3    3    0    0 -0.13156294209E+02 -0.12787200230E+02 -0.18888586893E+02  0.26332096045E+02  0.51100000000E-03 0.  1.
         12    1    3    3    0    0 -0.35576172573E+01 -0.30451779526E+00 -0.52602790141E+01  0.63576652116E+01  0.00000000000E+00 0. -1.
</event>
<event>
 7    1  0.2442667E-009  0.4778727E+02  0.7816164E-02  0.1312668E+00
        -11   -1    0    0    0    0  0.00000000000E+00  0.00000000000E+00  0.45593999997E+02  0.45594000000E+02  0.51100000000E-03 0.  1.
         11   -1    0    0    0    0 -0.00000000000E+00 -0.00000000000E+00 -0.45593999997E+02  0.45594000000E+02  0.51100000000E-03 0. -1.
    9900012    2    1    2    0    0  0.13079201523E+02 -0.13963077655E+02 -0.38956261294E+02  0.47787270236E+02  0.19999996314E+02 0.  0.
        -12    1    1    2    0    0 -0.13079201523E+02  0.13963077655E+02  0.38956261294E+02  0.43400729764E+02  0.00000000000E+00 0.  1.
         11    1    3    3    0    0  0.10913083698E+02 -0.65338348103E+01 -0.14474944792E+02  0.19269416704E+02  0.51100000000E-03 0. -1.
        -11    1    3    3    0    0 -0.31070712780E+01 -0.69622973286E+01 -0.73608747516E+01  0.10597639048E+02  0.51100000000E-03 0.  1.
        -12    1    3    3    0    0  0.52731891026E+01 -0.46694551655E+00 -0.17120441750E+02  0.17920214484E+02  0.00000000000E+00 0.  1.
</event>
<event>
 7    1  0.2442667E-009  0.4778727E+02  0.7816164E-02  0.1312668E+00
        -11   -1    0    0    0    0  0.00000000000E+00  0.00000000000E+00  0.45593999997E+02  0.45594000000E+02  0.51100000000E-03 0.  1.
         11   -1    0    0    0    0 -0.00000000000E+00 -0.00000000000E+00 -0.45593999997E+02  0.45594000000E+02  0.51100000000E-03 0. -1.
    9900012    2    1    2    0    0  0.98468805379E+01  0.41855198940E+02  0.58995416977E+01  0.47787270434E+02  0.19999997217E+02 0.  0.
        -12    1    1    2    0    0 -0.98468805379E+01 -0.41855198940E+02 -0.58995416977E+01  0.43400729566E+02  0.00000000000E+00 0.  1.
         11    1    3    3    0    0  0.47352650436E+01  0.36055856142E+02  0.81715145219E+01  0.37272257069E+02  0.51100000000E-03 0. -1.
        -11    1    3    3    0    0  0.23810056633E+01 -0.67567537490E+00  0.11144741012E+01  0.27143651125E+01  0.51100000000E-03 0.  1.
         12    1    3    3    0    0  0.27306098310E+01  0.64750181729E+01 -0.33864469253E+01  0.78006482530E+01  0.00000000000E+00 0. -1.
</event>
<event>
 7    1  0.2442667E-009  0.4778728E+02  0.7816164E-02  0.1312668E+00
        -11   -1    0    0    0    0  0.00000000000E+00  0.00000000000E+00  0.45593999997E+02  0.45594000000E+02  0.51100000000E-03 0.  1.
         11   -1    0    0    0    0 -0.00000000000E+00 -0.00000000000E+00 -0.45593999997E+02  0.45594000000E+02  0.51100000000E-03 0. -1.
    9900012    2    1    2    0    0 -0.12868327352E+02  0.14560356601E+02 -0.38807537145E+02  0.47787276821E+02  0.20000026338E+02 0.  0.
        -12    1    1    2    0    0  0.12868327352E+02 -0.14560356601E+02  0.38807537145E+02  0.43400723179E+02  0.00000000000E+00 0.  1.
         11    1    3    3    0    0 -0.30418913353E+01  0.90846446183E+01 -0.29009420621E+02  0.30550455901E+02  0.51100000000E-03 0. -1.
        -11    1    3    3    0    0 -0.10570197335E+02  0.35791958832E+01 -0.54164450458E+01  0.12404740710E+02  0.51100000000E-03 0.  1.
        -12    1    3    3    0    0  0.74376131883E+00  0.18965160996E+01 -0.43816714779E+01  0.48320802100E+01  0.00000000000E+00 0.  1.
</event>
<event>
 7    1  0.2442667E-009  0.4778728E+02  0.7816164E-02  0.1312668E+00
        -11   -1    0    0    0    0  0.00000000000E+00  0.00000000000E+00  0.45593999997E+02  0.45594000000E+02  0.51100000000E-03 0.  1.
         11   -1    0    0    0    0 -0.00000000000E+00 -0.00000000000E+00 -0.45593999997E+02  0.45594000000E+02  0.51100000000E-03 0. -1.
    9900012    2    1    2    0    0 -0.20744663966E+02  0.36720376736E+02 -0.10241849037E+02  0.47787278550E+02  0.20000034220E+02 0.  0.
        -12    1    1    2    0    0  0.20744663966E+02 -0.36720376736E+02  0.10241849037E+02  0.43400721450E+02  0.00000000000E+00 0.  1.
         11    1    3    3    0    0 -0.16746847032E+01  0.13510334694E+02 -0.95724436705E+01  0.16642277203E+02  0.51100000000E-03 0. -1.
        -11    1    3    3    0    0 -0.80799380290E+01  0.77227758160E+01 -0.39871591723E+01  0.11866933192E+02  0.51100000000E-03 0.  1.
         12    1    3    3    0    0 -0.10990041233E+02  0.15487266226E+02  0.33177538059E+01  0.19278068155E+02  0.00000000000E+00 0. -1.
</event>
<event>
 7    1  0.2442667E-009  0.4778730E+02  0.7816164E-02  0.1312668E+00
        -11   -1    0    0    0    0  0.00000000000E+00  0.00000000000E+00  0.45593999997E+02  0.45594000000E+02  0.51100000000E-03 0. -1.
         11   -1    0    0    0    0 -0.00000000000E+00 -0.00000000000E+00 -0.45593999997E+02  0.45594000000E+02  0.51100000000E-03 0.  1.
    9900012    2    1    2    0    0 -0.29511988313E+02 -0.27102910372E+02  0.16676200817E+02  0.47787298640E+02  0.20000125820E+02 0.  0.
        -12    1    1    2    0    0  0.29511988313E+02  0.27102910372E+02 -0.16676200817E+02  0.43400701360E+02  0.00000000000E+00 0.  1.
         11    1    3    3    0    0 -0.12933832892E+02 -0.18355010311E+02  0.21249024726E+01  0.22554503931E+02  0.51100000000E-03 0. -1.
        -11    1    3    3    0    0 -0.15002967738E+00 -0.28763040612E+01  0.71883033693E+00  0.29685604711E+01  0.51100000000E-03 0.  1.
         12    1    3    3    0    0 -0.16428125744E+02 -0.58715960004E+01  0.13832468007E+02  0.22264234238E+02  0.00000000000E+00 0. -1.
</event>
<event>
 7    1  0.2442667E-009  0.4778727E+02  0.7816164E-02  0.1312668E+00
        -11   -1    0    0    0    0  0.00000000000E+00  0.00000000000E+00  0.45593999997E+02  0.45594000000E+02  0.51100000000E-03 0. -1.
         11   -1    0    0    0    0 -0.00000000000E+00 -0.00000000000E+00 -0.45593999997E+02  0.45594000000E+02  0.51100000000E-03 0.  1.
    9900012    2    1    2    0    0 -0.40207477987E+02  0.11154344056E+01  0.16301462840E+02  0.47787272233E+02  0.20000005419E+02 0.  0.
        -12    1    1    2    0    0  0.40207477987E+02 -0.11154344056E+01 -0.16301462840E+02  0.43400727767E+02  0.00000000000E+00 0.  1.
         11    1    3    3    0    0 -0.18816858968E+02  0.52755709961E+01  0.10019982780E+02  0.21961463656E+02  0.51100000000E-03 0. -1.
        -11    1    3    3    0    0 -0.11756220374E+02 -0.73461606755E+01 -0.54192722005E-01  0.13862818302E+02  0.51100000000E-03 0.  1.
        -12    1    3    3    0    0 -0.96343986451E+01  0.31860240851E+01  0.63356727818E+01  0.11962990275E+02  0.00000000000E+00 0.  1.
</event>
<event>
 7    1  0.2442667E-009  0.4778728E+02  0.7816164E-02  0.1312668E+00
        -11   -1    0    0    0    0  0.00000000000E+00  0.00000000000E+00  0.45593999997E+02  0.45594000000E+02  0.51100000000E-03 0.  1.
         11   -1    0    0    0    0 -0.00000000000E+00 -0.00000000000E+00 -0.45593999997E+02  0.45594000000E+02  0.51100000000E-03 0. -1.
    9900012    2    1    2    0    0 -0.13210072450E+02 -0.17801910054E+02 -0.37312315367E+02  0.47787275424E+02  0.20000019966E+02 0.  0.
        -12    1    1    2    0    0  0.13210072450E+02  0.17801910054E+02  0.37312315367E+02  0.43400724576E+02  0.00000000000E+00 0.  1.
         11    1    3    3    0    0 -0.81098909002E+01 -0.10157073697E+02 -0.21109048332E+02  0.24789683303E+02  0.51100000000E-03 0. -1.
        -11    1    3    3    0    0 -0.13204696293E+01  0.21938307004E+01  0.10599339065E+01  0.27712800890E+01  0.51100000000E-03 0.  1.
        -12    1    3    3    0    0 -0.37797119206E+01 -0.98386670575E+01 -0.17263200941E+02  0.20226312032E+02  0.00000000000E+00 0.  1.
</event>
<event>
 7    1  0.2442667E-009  0.4778727E+02  0.7816164E-02  0.1312668E+00
        -11   -1    0    0    0    0  0.00000000000E+00  0.00000000000E+00  0.45593999997E+02  0.45594000000E+02  0.51100000000E-03 0.  1.
         11   -1    0    0    0    0 -0.00000000000E+00 -0.00000000000E+00 -0.45593999997E+02  0.45594000000E+02  0.51100000000E-03 0. -1.
    9900012    2    1    2    0    0  0.21164606182E+02 -0.36679379778E+02 -0.95029384277E+01  0.47787270807E+02  0.19999998918E+02 0.  0.
        -12    1    1    2    0    0 -0.21164606182E+02  0.36679379778E+02  0.95029384277E+01  0.43400729193E+02  0.00000000000E+00 0.  1.
         11    1    3    3    0    0  0.12060296371E+02 -0.17093217596E+02 -0.10941738942E+02  0.23608271595E+02  0.51100000000E-03 0. -1.
        -11    1    3    3    0    0  0.76839945453E+01 -0.16357377337E+02  0.54126700154E+01  0.18865433005E+02  0.51100000000E-03 0.  1.
        -12    1    3    3    0    0  0.14203152649E+01 -0.32287848452E+01 -0.39738695010E+01  0.53135662073E+01  0.00000000000E+00 0.  1.
</event>
<event>
 7    1  0.2442667E-009  0.4778727E+02  0.7816164E-02  0.1312668E+00
        -11   -1    0    0    0    0  0.00000000000E+00  0.00000000000E+00  0.45593999997E+02  0.45594000000E+02  0.51100000000E-03 0. -1.
         11   -1    0    0    0    0 -0.00000000000E+00 -0.00000000000E+00 -0.45593999997E+02  0.45594000000E+02  0.51100000000E-03 0.  1.
    9900012    2    1    2    0    0 -0.37793355636E+02 -0.15383015380E+02  0.14786775667E+02  0.47787266976E+02  0.19999981448E+02 0.  0.
        -12    1    1    2    0    0  0.37793355636E+02  0.15383015380E+02 -0.14786775667E+02  0.43400733024E+02  0.00000000000E+00 0.  1.
         11    1    3    3    0    0 -0.19225776666E+02 -0.10024853364E+02  0.61456459518E+01  0.22536573337E+02  0.51100000000E-03 0. -1.
        -11    1    3    3    0    0  0.19611704933E+01  0.33347833178E+00  0.22633496392E+01  0.30133286166E+01  0.51100000000E-03 0.  1.
        -12    1    3    3    0    0 -0.20528749464E+02 -0.56916403470E+01  0.63777800764E+01  0.22237365022E+02  0.00000000000E+00 0.  1.
</event>
<event>
 7    1  0.2442667E-009  0.4778727E+02  0.7816164E-02  0.1312668E+00
        -11   -1    0    0    0    0  0.00000000000E+00  0.00000000000E+00  0.45593999997E+02  0.45594000000E+02  0.51100000000E-03 0.  1.
         11   -1    0    0    0    0 -0.00000000000E+00 -0.00000000000E+00 -0.45593999997E+02  0.45594000000E+02  0.51100000000E-03 0. -1.
    9900012    2    1    2    0    0  0.28334731768E+02  0.10451988982E+02 -0.31169249351E+02  0.47787271859E+02  0.20000003715E+02 0.  0.
        -12    1    1    2    0    0 -0.28334731768E+02 -0.10451988982E+02  0.31169249351E+02  0.43400728141E+02  0.00000000000E+00 0.  1.
         11    1    3    3    0    0  0.15599186187E+02 -0.11883184223E+01 -0.16121205518E+02  0.22464193241E+02  0.51100000000E-03 0. -1.
        -11    1    3    3    0    0  0.26306564442E+00  0.49265777025E+01 -0.82475705278E+01  0.96105562411E+01  0.51100000000E-03 0.  1.
        -12    1    3    3    0    0  0.12472479936E+02  0.67137297022E+01 -0.68004733058E+01  0.15712522377E+02  0.00000000000E+00 0.  1.
</event>
<event>
 7    1  0.2442667E-009  0.4778728E+02  0.7816164E-02  0.1312668E+00
        -11   -1    0    0    0    0  0.00000000000E+00  0.00000000000E+00  0.45593999997E+02  0.45594000000E+02  0.51100000000E-03 0.  1.
         11   -1    0    0    0    0 -0.00000000000E+00 -0.00000000000E+00 -0.45593999997E+02  0.45594000000E+02  0.51100000000E-03 0. -1.
    9900012    2    1    2    0    0 -0.36308381238E+02  0.59809488450E+01 -0.23012002945E+02  0.47787279076E+02  0.20000036618E+02 0.  0.
        -12    1    1    2    0    0  0.36308381238E+02 -0.59809488450E+01  0.23012002945E+02  0.43400720924E+02  0.00000000000E+00 0.  1.
         11    1    3    3    0    0 -0.20783730926E+02 -0.24112469175E+00 -0.55375021981E+01  0.21510126527E+02  0.51100000000E-03 0.  1.
        -11    1    3    3    0    0 -0.11076944955E+01 -0.10078273047E+01  0.96340956158E+00  0.17806912186E+01  0.51100000000E-03 0. -1.
         12    1    3    3    0    0 -0.14416955816E+02  0.72299008415E+01 -0.18437910308E+02  0.24496461330E+02  0.00000000000E+00 0. -1.
</event>
<event>
 7    1  0.2442667E-009  0.4778725E+02  0.7816164E-02  0.1312668E+00
        -11   -1    0    0    0    0  0.00000000000E+00  0.00000000000E+00  0.45593999997E+02  0.45594000000E+02  0.51100000000E-03 0.  1.
         11   -1    0    0    0    0 -0.00000000000E+00 -0.00000000000E+00 -0.45593999997E+02  0.45594000000E+02  0.51100000000E-03 0. -1.
    9900012    2    1    2    0    0 -0.14595374832E+02  0.35642738041E+02 -0.20004874068E+02  0.47787254292E+02  0.19999923617E+02 0.  0.
        -12    1    1    2    0    0  0.14595374832E+02 -0.35642738041E+02  0.20004874068E+02  0.43400745708E+02  0.00000000000E+00 0.  1.
         11    1    3    3    0    0 -0.38338297589E+01  0.28485196796E+02 -0.11125562469E+02  0.30820169170E+02  0.51100000000E-03 0. -1.
        -11    1    3    3    0    0 -0.60121824241E+01  0.25769850475E+01 -0.79634166405E+01  0.10305493403E+02  0.51100000000E-03 0.  1.
         12    1    3    3    0    0 -0.47493626491E+01  0.45805561970E+01 -0.91589495912E+00  0.66615917184E+01  0.00000000000E+00 0. -1.
</event>
<event>
 7    1  0.2442667E-009  0.4778727E+02  0.7816164E-02  0.1312668E+00
        -11   -1    0    0    0    0  0.00000000000E+00  0.00000000000E+00  0.45593999997E+02  0.45594000000E+02  0.51100000000E-03 0. -1.
         11   -1    0    0    0    0 -0.00000000000E+00 -0.00000000000E+00 -0.45593999997E+02  0.45594000000E+02  0.51100000000E-03 0.  1.
    9900012    2    1    2    0    0 -0.31616611891E+02  0.47815083143E+01  0.29345366456E+02  0.47787268420E+02  0.19999988036E+02 0.  0.
        -12    1    1    2    0    0  0.31616611891E+02 -0.47815083143E+01 -0.29345366456E+02  0.43400731580E+02  0.00000000000E+00 0.  1.
         11    1    3    3    0    0 -0.16221886967E+02 -0.41894789514E+01  0.14758642125E+02  0.22327536099E+02  0.51100000000E-03 0.  1.
        -11    1    3    3    0    0 -0.29195714916E+01  0.74535462414E+01  0.78019646473E+01  0.11178099207E+02  0.51100000000E-03 0. -1.
         12    1    3    3    0    0 -0.12475153432E+02  0.15174410244E+01  0.67847596841E+01  0.14281633114E+02  0.00000000000E+00 0. -1.
</event>
<event>
 7    1  0.2442667E-009  0.4778727E+02  0.7816164E-02  0.1312668E+00
        -11   -1    0    0    0    0  0.00000000000E+00  0.00000000000E+00  0.45593999997E+02  0.45594000000E+02  0.51100000000E-03 0. -1.
         11   -1    0    0    0    0 -0.00000000000E+00 -0.00000000000E+00 -0.45593999997E+02  0.45594000000E+02  0.51100000000E-03 0.  1.
    9900012    2    1    2    0    0 -0.34867923946E+02 -0.15418563046E+02  0.20739316704E+02  0.47787268853E+02  0.19999990010E+02 0.  0.
        -12    1    1    2    0    0  0.34867923946E+02  0.15418563046E+02 -0.20739316704E+02  0.43400731147E+02  0.00000000000E+00 0.  1.
         11    1    3    3    0    0 -0.57571497316E+01 -0.14985922454E+01  0.37770306649E+01  0.70467377314E+01  0.51100000000E-03 0. -1.
        -11    1    3    3    0    0 -0.45475882346E+01  0.44243221519E+01  0.36308758673E+01  0.73101604005E+01  0.51100000000E-03 0.  1.
        -12    1    3    3    0    0 -0.24563185980E+02 -0.18344292952E+02  0.13331410172E+02  0.33430370721E+02  0.00000000000E+00 0.  1.
</event>
<event>
 7    1  0.2442667E-009  0.4778727E+02  0.7816164E-02  0.1312668E+00
        -11   -1    0    0    0    0  0.00000000000E+00  0.00000000000E+00  0.45593999997E+02  0.45594000000E+02  0.51100000000E-03 0.  1.
         11   -1    0    0    0    0 -0.00000000000E+00 -0.00000000000E+00 -0.45593999997E+02  0.45594000000E+02  0.51100000000E-03 0. -1.
    9900012    2    1    2    0    0 -0.14790268180E+02 -0.96179953820E+01 -0.39653061587E+02  0.47787272342E+02  0.20000005915E+02 0.  0.
        -12    1    1    2    0    0  0.14790268180E+02  0.96179953820E+01  0.39653061587E+02  0.43400727658E+02  0.00000000000E+00 0.  1.
         11    1    3    3    0    0 -0.42274314925E+01 -0.67764263197E+01 -0.33317466327E+01  0.86539971445E+01  0.51100000000E-03 0. -1.
        -11    1    3    3    0    0 -0.69057557316E+01  0.28587216893E+01 -0.14944476059E+02  0.16709252433E+02  0.51100000000E-03 0.  1.
         12    1    3    3    0    0 -0.36570809561E+01 -0.57002907516E+01 -0.21376838895E+02  0.22424022764E+02  0.00000000000E+00 0. -1.
</event>
<event>
 7    1  0.2442667E-009  0.4778727E+02  0.7816164E-02  0.1312668E+00
        -11   -1    0    0    0    0  0.00000000000E+00  0.00000000000E+00  0.45593999997E+02  0.45594000000E+02  0.51100000000E-03 0.  1.
         11   -1    0    0    0    0 -0.00000000000E+00 -0.00000000000E+00 -0.45593999997E+02  0.45594000000E+02  0.51100000000E-03 0. -1.
    9900012    2    1    2    0    0 -0.31616635765E+02  0.29061972699E+02  0.62780097115E+01  0.47787270511E+02  0.19999997567E+02 0.  0.
        -12    1    1    2    0    0  0.31616635765E+02 -0.29061972699E+02 -0.62780097115E+01  0.43400729489E+02  0.00000000000E+00 0.  1.
         11    1    3    3    0    0 -0.33064747625E+02  0.30175421993E+02  0.55077140094E+01  0.45101757636E+02  0.51100000000E-03 0. -1.
        -11    1    3    3    0    0  0.66673242254E+00 -0.14825422506E+01  0.81850287748E+00  0.18200029862E+01  0.51100000000E-03 0.  1.
         12    1    3    3    0    0  0.78137943748E+00  0.36909295701E+00 -0.48207175401E-01  0.86550988902E+00  0.00000000000E+00 0. -1.
</event>
<event>
 7    1  0.2442667E-009  0.4778727E+02  0.7816164E-02  0.1312668E+00
        -11   -1    0    0    0    0  0.00000000000E+00  0.00000000000E+00  0.45593999997E+02  0.45594000000E+02  0.51100000000E-03 0. -1.
         11   -1    0    0    0    0 -0.00000000000E+00 -0.00000000000E+00 -0.45593999997E+02  0.45594000000E+02  0.51100000000E-03 0.  1.
    9900012    2    1    2    0    0 -0.37752648929E+02 -0.21352123967E+01 -0.21302625504E+02  0.47787268595E+02  0.19999988832E+02 0.  0.
        -12    1    1    2    0    0  0.37752648929E+02  0.21352123967E+01  0.21302625504E+02  0.43400731405E+02  0.00000000000E+00 0.  1.
         11    1    3    3    0    0 -0.14902102813E+01  0.20836440513E+01 -0.20814357237E+01  0.33007081283E+01  0.51100000000E-03 0.  1.
        -11    1    3    3    0    0  0.17809287866E+01  0.20738640937E+00 -0.12088096036E+01  0.21623915891E+01  0.51100000000E-03 0. -1.
         12    1    3    3    0    0 -0.38043367434E+02 -0.44262428574E+01 -0.18012380177E+02  0.42324168878E+02  0.00000000000E+00 0. -1.
</event>
<event>
 7    1  0.2442667E-009  0.4778728E+02  0.7816164E-02  0.1312668E+00
        -11   -1    0    0    0    0  0.00000000000E+00  0.00000000000E+00  0.45593999997E+02  0.45594000000E+02  0.51100000000E-03 0.  1.
         11   -1    0    0    0    0 -0.00000000000E+00 -0.00000000000E+00 -0.45593999997E+02  0.45594000000E+02  0.51100000000E-03 0. -1.
    9900012    2    1    2    0    0  0.25175424480E+01  0.39463689339E+02 -0.17885806135E+02  0.47787275843E+02  0.20000021879E+02 0.  0.
        -12    1    1    2    0    0 -0.25175424480E+01 -0.39463689339E+02  0.17885806135E+02  0.43400724157E+02  0.00000000000E+00 0.  1.
         11    1    3    3    0    0  0.11067086937E+01  0.31505384968E+02 -0.81275095025E+01  0.32555652306E+02  0.51100000000E-03 0. -1.
        -11    1    3    3    0    0  0.41917547511E+01  0.15689988680E+01 -0.53954479326E+01  0.70102370855E+01  0.51100000000E-03 0.  1.
         12    1    3    3    0    0 -0.27809209968E+01  0.63893055035E+01 -0.43628486996E+01  0.82213864514E+01  0.00000000000E+00 0. -1.
</event>
<event>
 7    1  0.2442667E-009  0.4778727E+02  0.7816164E-02  0.1312668E+00
        -11   -1    0    0    0    0  0.00000000000E+00  0.00000000000E+00  0.45593999997E+02  0.45594000000E+02  0.51100000000E-03 0. -1.
         11   -1    0    0    0    0 -0.00000000000E+00 -0.00000000000E+00 -0.45593999997E+02  0.45594000000E+02  0.51100000000E-03 0.  1.
    9900012    2    1    2    0    0  0.14642729705E+02 -0.16066779656E+02  0.37564242609E+02  0.47787271152E+02  0.20000000492E+02 0.  0.
        -12    1    1    2    0    0 -0.14642729705E+02  0.16066779656E+02 -0.37564242609E+02  0.43400728848E+02  0.00000000000E+00 0.  1.
         11    1    3    3    0    0  0.16585254520E+00 -0.36527976357E+01  0.54610963945E+01  0.65722151308E+01  0.51100000000E-03 0. -1.
        -11    1    3    3    0    0  0.34505955670E+01 -0.10272520003E+02  0.51155886176E+01  0.11983343613E+02  0.51100000000E-03 0.  1.
        -12    1    3    3    0    0  0.11026281593E+02 -0.21414620179E+01  0.26987557597E+02  0.29231712409E+02  0.00000000000E+00 0.  1.
</event>
<event>
 7    1  0.2442667E-009  0.4778725E+02  0.7816164E-02  0.1312668E+00
        -11   -1    0    0    0    0  0.00000000000E+00  0.00000000000E+00  0.45593999997E+02  0.45594000000E+02  0.51100000000E-03 0.  1.
         11   -1    0    0    0    0 -0.00000000000E+00 -0.00000000000E+00 -0.45593999997E+02  0.45594000000E+02  0.51100000000E-03 0. -1.
    9900012    2    1    2    0    0  0.14590581666E+02  0.29160939092E+02 -0.28642269300E+02  0.47787250781E+02  0.19999907612E+02 0.  0.
        -12    1    1    2    0    0 -0.14590581666E+02 -0.29160939092E+02  0.28642269300E+02  0.43400749219E+02  0.00000000000E+00 0.  1.
         11    1    3    3    0    0  0.16179081753E+02  0.13668251257E+02 -0.18526829518E+02  0.28139424142E+02  0.51100000000E-03 0. -1.
        -11    1    3    3    0    0 -0.18262867885E+01  0.10888176004E+02 -0.34953434295E+01  0.11580376767E+02  0.51100000000E-03 0.  1.
        -12    1    3    3    0    0  0.23778670164E+00  0.46045118313E+01 -0.66200963524E+01  0.80674498719E+01  0.00000000000E+00 0.  1.
</event>
<event>
 7    1  0.2442667E-009  0.4778727E+02  0.7816164E-02  0.1312668E+00
        -11   -1    0    0    0    0  0.00000000000E+00  0.00000000000E+00  0.45593999997E+02  0.45594000000E+02  0.51100000000E-03 0. -1.
         11   -1    0    0    0    0 -0.00000000000E+00 -0.00000000000E+00 -0.45593999997E+02  0.45594000000E+02  0.51100000000E-03 0.  1.
    9900012    2    1    2    0    0  0.23251634418E+02 -0.19515925725E+02  0.31017952200E+02  0.47787271680E+02  0.20000002896E+02 0.  0.
        -12    1    1    2    0    0 -0.23251634418E+02  0.19515925725E+02 -0.31017952200E+02  0.43400728320E+02  0.00000000000E+00 0.  1.
         11    1    3    3    0    0  0.80578186523E+01 -0.38566776887E+01  0.18988976925E+02  0.20985319849E+02  0.51100000000E-03 0. -1.
        -11    1    3    3    0    0  0.79319685233E+01 -0.14457138212E+02  0.71657353905E+01  0.17979786814E+02  0.51100000000E-03 0.  1.
        -12    1    3    3    0    0  0.72618472427E+01 -0.12021098246E+01  0.48632398842E+01  0.88221650165E+01  0.00000000000E+00 0.  1.
</event>
<event>
 7    1  0.2442667E-009  0.4778728E+02  0.7816164E-02  0.1312668E+00
        -11   -1    0    0    0    0  0.00000000000E+00  0.00000000000E+00  0.45593999997E+02  0.45594000000E+02  0.51100000000E-03 0. -1.
         11   -1    0    0    0    0 -0.00000000000E+00 -0.00000000000E+00 -0.45593999997E+02  0.45594000000E+02  0.51100000000E-03 0.  1.
    9900012    2    1    2    0    0 -0.65492931473E+01 -0.21777715763E+02  0.36965668133E+02  0.47787276906E+02  0.20000026725E+02 0.  0.
        -12    1    1    2    0    0  0.65492931473E+01  0.21777715763E+02 -0.36965668133E+02  0.43400723094E+02  0.00000000000E+00 0.  1.
         11    1    3    3    0    0 -0.73033433433E+01 -0.14800681996E+02  0.14712077159E+02  0.22109821937E+02  0.51100000000E-03 0. -1.
        -11    1    3    3    0    0  0.36332685177E+01  0.72307312683E+00  0.30866247113E+01  0.48219007910E+01  0.51100000000E-03 0.  1.
        -12    1    3    3    0    0 -0.28792183217E+01 -0.77001068943E+01  0.19166966263E+02  0.20855554177E+02  0.00000000000E+00 0.  1.
</event>
<event>
 7    1  0.2442667E-009  0.4778727E+02  0.7816164E-02  0.1312668E+00
        -11   -1    0    0    0    0  0.00000000000E+00  0.00000000000E+00  0.45593999997E+02  0.45594000000E+02  0.51100000000E-03 0.  1.
         11   -1    0    0    0    0 -0.00000000000E+00 -0.00000000000E+00 -0.45593999997E+02  0.45594000000E+02  0.51100000000E-03 0. -1.
    9900012    2    1    2    0    0 -0.23775762205E+02  0.16916288636E+02 -0.32127487470E+02  0.47787272578E+02  0.20000006990E+02 0.  0.
        -12    1    1    2    0    0  0.23775762205E+02 -0.16916288636E+02  0.32127487470E+02  0.43400727422E+02  0.00000000000E+00 0.  1.
         11    1    3    3    0    0 -0.26138279361E+01 -0.15544511732E+01 -0.73110850896E+01  0.79183571767E+01  0.51100000000E-03 0. -1.
        -11    1    3    3    0    0 -0.14871101702E+02  0.19471083133E+02 -0.21906332053E+02  0.32865789637E+02  0.51100000000E-03 0.  1.
        -12    1    3    3    0    0 -0.62908325669E+01 -0.10003433238E+01 -0.29100703278E+01  0.70031257637E+01  0.00000000000E+00 0.  1.
</event>
<event>
 7    1  0.2442667E-009  0.4778728E+02  0.7816164E-02  0.1312668E+00
        -11   -1    0    0    0    0  0.00000000000E+00  0.00000000000E+00  0.45593999997E+02  0.45594000000E+02  0.51100000000E-03 0. -1.
         11   -1    0    0    0    0 -0.00000000000E+00 -0.00000000000E+00 -0.45593999997E+02  0.45594000000E+02  0.51100000000E-03 0.  1.
    9900012    2    1    2    0    0 -0.11834244591E+02 -0.38306648310E+02 -0.16618483502E+02  0.47787278304E+02  0.20000033100E+02 0.  0.
        -12    1    1    2    0    0  0.11834244591E+02  0.38306648310E+02  0.16618483502E+02  0.43400721696E+02  0.00000000000E+00 0.  1.
         11    1    3    3    0    0 -0.20924003997E+01 -0.33015225203E+00  0.12630972198E+01  0.24662835988E+01  0.51100000000E-03 0. -1.
        -11    1    3    3    0    0 -0.32799049889E+01 -0.33079292217E+02 -0.12152733405E+02  0.35393308404E+02  0.51100000000E-03 0.  1.
        -12    1    3    3    0    0 -0.64619392021E+01 -0.48972038410E+01 -0.57288473167E+01  0.99276863010E+01  0.00000000000E+00 0.  1.
</event>
<event>
 7    1  0.2442667E-009  0.4778727E+02  0.7816164E-02  0.1312668E+00
        -11   -1    0    0    0    0  0.00000000000E+00  0.00000000000E+00  0.45593999997E+02  0.45594000000E+02  0.51100000000E-03 0. -1.
         11   -1    0    0    0    0 -0.00000000000E+00 -0.00000000000E+00 -0.45593999997E+02  0.45594000000E+02  0.51100000000E-03 0.  1.
    9900012    2    1    2    0    0  0.23418537370E+02  0.96057680072E+01  0.35255131194E+02  0.47787274810E+02  0.20000017168E+02 0.  0.
        -12    1    1    2    0    0 -0.23418537370E+02 -0.96057680072E+01 -0.35255131194E+02  0.43400725190E+02  0.00000000000E+00 0.  1.
         11    1    3    3    0    0  0.56874686806E+00  0.26198113024E+01  0.11609656060E+02  0.11915158344E+02  0.51100000000E-03 0. -1.
        -11    1    3    3    0    0  0.10013938254E+02 -0.28696627936E+01  0.64162578197E+01  0.12234471323E+02  0.51100000000E-03 0.  1.
        -12    1    3    3    0    0  0.12835852248E+02  0.98556194985E+01  0.17229217314E+02  0.23637645142E+02  0.00000000000E+00 0.  1.
</event>
<event>
 7    1  0.2442667E-009  0.4778727E+02  0.7816164E-02  0.1312668E+00
        -11   -1    0    0    0    0  0.00000000000E+00  0.00000000000E+00  0.45593999997E+02  0.45594000000E+02  0.51100000000E-03 0.  1.
         11   -1    0    0    0    0 -0.00000000000E+00 -0.00000000000E+00 -0.45593999997E+02  0.45594000000E+02  0.51100000000E-03 0. -1.
    9900012    2    1    2    0    0  0.66808256488E+01 -0.32024890027E+02 -0.28520101728E+02  0.47787271721E+02  0.20000003084E+02 0.  0.
        -12    1    1    2    0    0 -0.66808256488E+01  0.32024890027E+02  0.28520101728E+02  0.43400728279E+02  0.00000000000E+00 0.  1.
         11    1    3    3    0    0  0.49051078178E+01 -0.98516698454E+01 -0.17053139897E+02  0.20295937082E+02  0.51100000000E-03 0. -1.
        -11    1    3    3    0    0 -0.32119060136E+01 -0.19523438658E+01 -0.90448689355E-01  0.37598095745E+01  0.51100000000E-03 0.  1.
        -12    1    3    3    0    0  0.49876238445E+01 -0.20220876316E+02 -0.11376513142E+02  0.23731525064E+02  0.00000000000E+00 0.  1.
</event>
<event>
 7    1  0.2442667E-009  0.4778726E+02  0.7816164E-02  0.1312668E+00
        -11   -1    0    0    0    0  0.00000000000E+00  0.00000000000E+00  0.45593999997E+02  0.45594000000E+02  0.51100000000E-03 0. -1.
         11   -1    0    0    0    0 -0.00000000000E+00 -0.00000000000E+00 -0.45593999997E+02  0.45594000000E+02  0.51100000000E-03 0.  1.
    9900012    2    1    2    0    0 -0.38313722813E+02 -0.18940161202E+02  0.75467174936E+01  0.47787262598E+02  0.19999961487E+02 0.  0.
        -12    1    1    2    0    0  0.38313722813E+02  0.18940161202E+02 -0.75467174936E+01  0.43400737402E+02  0.00000000000E+00 0.  1.
         11    1    3    3    0    0 -0.10956487597E+02  0.26833783568E+00  0.51113229742E+01  0.12093066131E+02  0.51100000000E-03 0. -1.
        -11    1    3    3    0    0 -0.27547219032E+02 -0.15207084025E+02  0.11493905371E+01  0.31486914422E+02  0.51100000000E-03 0.  1.
        -12    1    3    3    0    0  0.18998381599E+00 -0.40014150133E+01  0.12860039822E+01  0.42072820444E+01  0.00000000000E+00 0.  1.
</event>
<event>
 7    1  0.2442667E-009  0.4778727E+02  0.7816164E-02  0.1312668E+00
        -11   -1    0    0    0    0  0.00000000000E+00  0.00000000000E+00  0.45593999997E+02  0.45594000000E+02  0.51100000000E-03 0.  1.
         11   -1    0    0    0    0 -0.00000000000E+00 -0.00000000000E+00 -0.45593999997E+02  0.45594000000E+02  0.51100000000E-03 0. -1.
    9900012    2    1    2    0    0 -0.42509925838E+02  0.67512491334E+01 -0.55633280132E+01  0.47787265234E+02  0.19999973509E+02 0.  0.
        -12    1    1    2    0    0  0.42509925838E+02 -0.67512491334E+01  0.55633280132E+01  0.43400734766E+02  0.00000000000E+00 0.  1.
         11    1    3    3    0    0 -0.14344224004E+02 -0.38283464798E+01 -0.20120035877E+01  0.14982027824E+02  0.51100000000E-03 0. -1.
        -11    1    3    3    0    0 -0.20630874464E+02  0.91836949943E+01 -0.79841317792E+01  0.23952444457E+02  0.51100000000E-03 0.  1.
        -12    1    3    3    0    0 -0.75348273701E+01  0.13959006189E+01  0.44328073537E+01  0.88527929531E+01  0.00000000000E+00 0.  1.
</event>
<event>
 7    1  0.2442667E-009  0.4778727E+02  0.7816164E-02  0.1312668E+00
        -11   -1    0    0    0    0  0.00000000000E+00  0.00000000000E+00  0.45593999997E+02  0.45594000000E+02  0.51100000000E-03 0.  1.
         11   -1    0    0    0    0 -0.00000000000E+00 -0.00000000000E+00 -0.45593999997E+02  0.45594000000E+02  0.51100000000E-03 0. -1.
    9900012    2    1    2    0    0  0.90931877614E+01 -0.20169451890E+02 -0.37338057741E+02  0.47787269487E+02  0.19999992898E+02 0.  0.
        -12    1    1    2    0    0 -0.90931877614E+01  0.20169451890E+02  0.37338057741E+02  0.43400730513E+02  0.00000000000E+00 0.  1.
         11    1    3    3    0    0  0.19847010903E+01 -0.14781700467E+02 -0.11194074994E+02  0.18647922735E+02  0.51100000000E-03 0. -1.
        -11    1    3    3    0    0  0.25764037917E+01 -0.18116274723E+01 -0.94613222655E+00  0.32886193224E+01  0.51100000000E-03 0.  1.
         12    1    3    3    0    0  0.45320828794E+01 -0.35761239506E+01 -0.25197850521E+02  0.25850727429E+02  0.00000000000E+00 0. -1.
</event>
<event>
 7    1  0.2442667E-009  0.4778727E+02  0.7816164E-02  0.1312668E+00
        -11   -1    0    0    0    0  0.00000000000E+00  0.00000000000E+00  0.45593999997E+02  0.45594000000E+02  0.51100000000E-03 0.  1.
         11   -1    0    0    0    0 -0.00000000000E+00 -0.00000000000E+00 -0.45593999997E+02  0.45594000000E+02  0.51100000000E-03 0. -1.
    9900012    2    1    2    0    0 -0.54869852624E+01 -0.41244361230E+02 -0.12345819199E+02  0.47787267377E+02  0.19999983279E+02 0.  0.
        -12    1    1    2    0    0  0.54869852624E+01  0.41244361230E+02  0.12345819199E+02  0.43400732623E+02  0.00000000000E+00 0.  1.
         11    1    3    3    0    0 -0.13288035187E+01 -0.77086421557E+01 -0.17165621609E+01  0.80084623112E+01  0.51100000000E-03 0. -1.
        -11    1    3    3    0    0 -0.12164045915E+01 -0.27160444621E+02 -0.17823812314E+00  0.27188254104E+02  0.51100000000E-03 0.  1.
        -12    1    3    3    0    0 -0.29417771522E+01 -0.63752744528E+01 -0.10451018915E+02  0.12590550962E+02  0.00000000000E+00 0.  1.
</event>
<event>
 7    1  0.2442667E-009  0.4778727E+02  0.7816164E-02  0.1312668E+00
        -11   -1    0    0    0    0  0.00000000000E+00  0.00000000000E+00  0.45593999997E+02  0.45594000000E+02  0.51100000000E-03 0.  1.
         11   -1    0    0    0    0 -0.00000000000E+00 -0.00000000000E+00 -0.45593999997E+02  0.45594000000E+02  0.51100000000E-03 0. -1.
    9900012    2    1    2    0    0 -0.11309033575E+01  0.14671480615E+02 -0.40830039251E+02  0.47787269695E+02  0.19999993846E+02 0.  0.
        -12    1    1    2    0    0  0.11309033575E+01 -0.14671480615E+02  0.40830039251E+02  0.43400730305E+02  0.00000000000E+00 0.  1.
         11    1    3    3    0    0  0.36172493159E+01  0.57541742446E+01 -0.10519949295E+02  0.12524549784E+02  0.51100000000E-03 0. -1.
        -11    1    3    3    0    0 -0.10168754858E+02  0.56138735745E+01 -0.20918782841E+02  0.23927277899E+02  0.51100000000E-03 0.  1.
        -12    1    3    3    0    0  0.54206021843E+01  0.33034327956E+01 -0.93913071150E+01  0.11335442012E+02  0.00000000000E+00 0.  1.
</event>
<event>
 7    1  0.2442667E-009  0.4778727E+02  0.7816164E-02  0.1312668E+00
        -11   -1    0    0    0    0  0.00000000000E+00  0.00000000000E+00  0.45593999997E+02  0.45594000000E+02  0.51100000000E-03 0.  1.
         11   -1    0    0    0    0 -0.00000000000E+00 -0.00000000000E+00 -0.45593999997E+02  0.45594000000E+02  0.51100000000E-03 0. -1.
    9900012    2    1    2    0    0 -0.11357096000E+02  0.41397231176E+02  0.63959956948E+01  0.47787272592E+02  0.20000007056E+02 0.  0.
        -12    1    1    2    0    0  0.11357096000E+02 -0.41397231176E+02 -0.63959956948E+01  0.43400727408E+02  0.00000000000E+00 0.  1.
         11    1    3    3    0    0 -0.39005596589E+01  0.14253676480E+02 -0.26593035768E+00  0.14780134576E+02  0.51100000000E-03 0. -1.
        -11    1    3    3    0    0 -0.56448978165E+01  0.11277923226E+02 -0.46457662583E+01  0.13440222024E+02  0.51100000000E-03 0.  1.
        -12    1    3    3    0    0 -0.18116385244E+01  0.15865631470E+02  0.11307692311E+02  0.19566915993E+02  0.00000000000E+00 0.  1.
</event>
<event>
 7    1  0.2442667E-009  0.4778727E+02  0.7816164E-02  0.1312668E+00
        -11   -1    0    0    0    0  0.00000000000E+00  0.00000000000E+00  0.45593999997E+02  0.45594000000E+02  0.51100000000E-03 0.  1.
         11   -1    0    0    0    0 -0.00000000000E+00 -0.00000000000E+00 -0.45593999997E+02  0.45594000000E+02  0.51100000000E-03 0. -1.
    9900012    2    1    2    0    0 -0.40405030764E+02 -0.48977271226E+01 -0.15068810402E+02  0.47787270870E+02  0.19999999206E+02 0.  0.
        -12    1    1    2    0    0  0.40405030764E+02  0.48977271226E+01  0.15068810402E+02  0.43400729130E+02  0.00000000000E+00 0.  1.
         11    1    3    3    0    0 -0.18696610934E+02 -0.69894727956E+01 -0.16043499357E+02  0.25608784865E+02  0.51100000000E-03 0. -1.
        -11    1    3    3    0    0 -0.15579625856E+02  0.88654855118E+00  0.23552469125E+01  0.15781568313E+02  0.51100000000E-03 0.  1.
        -12    1    3    3    0    0 -0.61287939745E+01  0.12051971218E+01 -0.13805579578E+01  0.63969176921E+01  0.00000000000E+00 0.  1.
</event>
<event>
 7    1  0.2442667E-009  0.4778727E+02  0.7816164E-02  0.1312668E+00
        -11   -1    0    0    0    0  0.00000000000E+00  0.00000000000E+00  0.45593999997E+02  0.45594000000E+02  0.51100000000E-03 0.  1.
         11   -1    0    0    0    0 -0.00000000000E+00 -0.00000000000E+00 -0.45593999997E+02  0.45594000000E+02  0.51100000000E-03 0. -1.
    9900012    2    1    2    0    0 -0.98904864596E+01  0.28979940204E+02  0.30756536843E+02  0.47787271720E+02  0.20000003081E+02 0.  0.
        -12    1    1    2    0    0  0.98904864596E+01 -0.28979940204E+02 -0.30756536843E+02  0.43400728280E+02  0.00000000000E+00 0.  1.
         11    1    3    3    0    0  0.53917289373E+00  0.21443952190E+02  0.21396122758E+02  0.30297324342E+02  0.51100000000E-03 0. -1.
        -11    1    3    3    0    0 -0.41149129157E+01 -0.17005750809E+00  0.53466423526E+01  0.67489267715E+01  0.51100000000E-03 0.  1.
         12    1    3    3    0    0 -0.63147464377E+01  0.77060455221E+01  0.40137717327E+01  0.10741020607E+02  0.00000000000E+00 0. -1.
</event>
<event>
 7    1  0.2442667E-009  0.4778727E+02  0.7816164E-02  0.1312668E+00
        -11   -1    0    0    0    0  0.00000000000E+00  0.00000000000E+00  0.45593999997E+02  0.45594000000E+02  0.51100000000E-03 0.  1.
         11   -1    0    0    0    0 -0.00000000000E+00 -0.00000000000E+00 -0.45593999997E+02  0.45594000000E+02  0.51100000000E-03 0. -1.
    9900012    2    1    2    0    0  0.29157228574E+01  0.98989032864E+01 -0.42156065561E+02  0.47787267407E+02  0.19999983416E+02 0.  0.
        -12    1    1    2    0    0 -0.29157228574E+01 -0.98989032864E+01  0.42156065561E+02  0.43400732593E+02  0.00000000000E+00 0.  1.
         11    1    3    3    0    0 -0.98200921790E+00  0.20534312857E+01 -0.35855788105E+01  0.42470340022E+01  0.51100000000E-03 0. -1.
        -11    1    3    3    0    0 -0.61323882367E+01  0.10990255417E+01 -0.22997216529E+02  0.23826162322E+02  0.51100000000E-03 0.  1.
        -12    1    3    3    0    0  0.10030120312E+02  0.67464464591E+01 -0.15573270221E+02  0.19714071083E+02  0.00000000000E+00 0.  1.
</event>
<event>
 7    1  0.2442667E-009  0.4778727E+02  0.7816164E-02  0.1312668E+00
        -11   -1    0    0    0    0  0.00000000000E+00  0.00000000000E+00  0.45593999997E+02  0.45594000000E+02  0.51100000000E-03 0.  1.
         11   -1    0    0    0    0 -0.00000000000E+00 -0.00000000000E+00 -0.45593999997E+02  0.45594000000E+02  0.51100000000E-03 0. -1.
    9900012    2    1    2    0    0 -0.27345356885E+01 -0.27516165336E+02 -0.33451548067E+02  0.47787272951E+02  0.20000008694E+02 0.  0.
        -12    1    1    2    0    0  0.27345356885E+01  0.27516165336E+02  0.33451548067E+02  0.43400727049E+02  0.00000000000E+00 0.  1.
         11    1    3    3    0    0  0.17694024816E+01 -0.12658177420E+02 -0.24079479194E+02  0.27261356519E+02  0.51100000000E-03 0. -1.
        -11    1    3    3    0    0 -0.29614258274E+00 -0.79971569895E+00  0.18600140299E+01  0.20461911154E+01  0.51100000000E-03 0.  1.
         12    1    3    3    0    0 -0.42077955874E+01 -0.14058272218E+02 -0.11232082903E+02  0.18479725317E+02  0.00000000000E+00 0. -1.
</event>
<event>
 7    1  0.2442667E-009  0.4778727E+02  0.7816164E-02  0.1312668E+00
        -11   -1    0    0    0    0  0.00000000000E+00  0.00000000000E+00  0.45593999997E+02  0.45594000000E+02  0.51100000000E-03 0. -1.
         11   -1    0    0    0    0 -0.00000000000E+00 -0.00000000000E+00 -0.45593999997E+02  0.45594000000E+02  0.51100000000E-03 0.  1.
    9900012    2    1    2    0    0 -0.38324882499E+02  0.16717676907E+02 -0.11633821864E+02  0.47787272462E+02  0.20000006462E+02 0.  0.
        -12    1    1    2    0    0  0.38324882499E+02 -0.16717676907E+02  0.11633821864E+02  0.43400727538E+02  0.00000000000E+00 0.  1.
         11    1    3    3    0    0 -0.46684278141E+01  0.89112987944E+01 -0.17227019367E+00  0.10061567559E+02  0.51100000000E-03 0. -1.
        -11    1    3    3    0    0 -0.26021012934E+02  0.29678451176E+01 -0.51247872531E+01  0.26686413461E+02  0.51100000000E-03 0.  1.
         12    1    3    3    0    0 -0.76354417507E+01  0.48385329949E+01 -0.63367644171E+01  0.11039291442E+02  0.00000000000E+00 0. -1.
</event>
<event>
 7    1  0.2442667E-009  0.4778727E+02  0.7816164E-02  0.1312668E+00
        -11   -1    0    0    0    0  0.00000000000E+00  0.00000000000E+00  0.45593999997E+02  0.45594000000E+02  0.51100000000E-03 0.  1.
         11   -1    0    0    0    0 -0.00000000000E+00 -0.00000000000E+00 -0.45593999997E+02  0.45594000000E+02  0.51100000000E-03 0. -1.
    9900012    2    1    2    0    0 -0.14349375852E+01 -0.41565268025E+02 -0.12405369198E+02  0.47787265711E+02  0.19999975683E+02 0.  0.
        -12    1    1    2    0    0  0.14349375852E+01  0.41565268025E+02  0.12405369198E+02  0.43400734289E+02  0.00000000000E+00 0.  1.
         11    1    3    3    0    0 -0.30545788669E+01 -0.39455973836E+02 -0.11121329247E+02  0.41107034531E+02  0.51100000000E-03 0. -1.
        -11    1    3    3    0    0  0.38901791443E+01 -0.14973297120E+01 -0.48446134038E+00  0.41964500584E+01  0.51100000000E-03 0.  1.
        -12    1    3    3    0    0 -0.22705378626E+01 -0.61196447686E+00 -0.79957861065E+00  0.24837811218E+01  0.00000000000E+00 0.  1.
</event>
<event>
 7    1  0.2442667E-009  0.4778727E+02  0.7816164E-02  0.1312668E+00
        -11   -1    0    0    0    0  0.00000000000E+00  0.00000000000E+00  0.45593999997E+02  0.45594000000E+02  0.51100000000E-03 0. -1.
         11   -1    0    0    0    0 -0.00000000000E+00 -0.00000000000E+00 -0.45593999997E+02  0.45594000000E+02  0.51100000000E-03 0.  1.
    9900012    2    1    2    0    0  0.33983216616E+02 -0.20018978224E+02  0.18110905986E+02  0.47787269403E+02  0.19999992517E+02 0.  0.
        -12    1    1    2    0    0 -0.33983216616E+02  0.20018978224E+02 -0.18110905986E+02  0.43400730597E+02  0.00000000000E+00 0.  1.
         11    1    3    3    0    0  0.14976473394E+02 -0.59586993133E+01  0.36282816796E+01  0.16521660965E+02  0.51100000000E-03 0. -1.
        -11    1    3    3    0    0  0.72339557561E+01 -0.12581672700E+02  0.12664522762E+02  0.19261846767E+02  0.51100000000E-03 0.  1.
        -12    1    3    3    0    0  0.11772787466E+02 -0.14786062105E+01  0.18181015443E+01  0.12003761672E+02  0.00000000000E+00 0.  1.
</event>
<event>
 7    1  0.2442667E-009  0.4778721E+02  0.7816164E-02  0.1312668E+00
        -11   -1    0    0    0    0  0.00000000000E+00  0.00000000000E+00  0.45593999997E+02  0.45594000000E+02  0.51100000000E-03 0.  1.
         11   -1    0    0    0    0 -0.00000000000E+00 -0.00000000000E+00 -0.45593999997E+02  0.45594000000E+02  0.51100000000E-03 0. -1.
    9900012    2    1    2    0    0  0.35899936937E+02 -0.72794149981E+01 -0.23277318190E+02  0.47787206264E+02  0.19999704637E+02 0.  0.
        -12    1    1    2    0    0 -0.35899936937E+02  0.72794149981E+01  0.23277318190E+02  0.43400793736E+02  0.00000000000E+00 0.  1.
         11    1    3    3    0    0  0.12223228642E+02  0.91188429275E+00 -0.32502879001E+01  0.12680821073E+02  0.51100000000E-03 0. -1.
        -11    1    3    3    0    0  0.69231562421E+01 -0.67770887090E+00 -0.14250875808E+02  0.15858021416E+02  0.51100000000E-03 0.  1.
        -12    1    3    3    0    0  0.16753552054E+02 -0.75135904199E+01 -0.57761544815E+01  0.19248363775E+02  0.00000000000E+00 0.  1.
</event>
<event>
 7    1  0.2442667E-009  0.4778727E+02  0.7816164E-02  0.1312668E+00
        -11   -1    0    0    0    0  0.00000000000E+00  0.00000000000E+00  0.45593999997E+02  0.45594000000E+02  0.51100000000E-03 0.  1.
         11   -1    0    0    0    0 -0.00000000000E+00 -0.00000000000E+00 -0.45593999997E+02  0.45594000000E+02  0.51100000000E-03 0. -1.
    9900012    2    1    2    0    0 -0.30061553107E+02  0.37613751746E+01 -0.31076971421E+02  0.47787273380E+02  0.20000010649E+02 0.  0.
        -12    1    1    2    0    0  0.30061553107E+02 -0.37613751746E+01  0.31076971421E+02  0.43400726620E+02  0.00000000000E+00 0.  1.
         11    1    3    3    0    0 -0.69092440084E+01  0.78972849510E+01 -0.64397301616E+01  0.12311575333E+02  0.51100000000E-03 0. -1.
        -11    1    3    3    0    0 -0.16968191563E+02 -0.66001623211E+01 -0.21325844018E+02  0.28040565096E+02  0.51100000000E-03 0.  1.
        -12    1    3    3    0    0 -0.61841175363E+01  0.24642525447E+01 -0.33113972415E+01  0.74351329509E+01  0.00000000000E+00 0.  1.
</event>
<event>
 7    1  0.2442667E-009  0.4778726E+02  0.7816164E-02  0.1312668E+00
        -11   -1    0    0    0    0  0.00000000000E+00  0.00000000000E+00  0.45593999997E+02  0.45594000000E+02  0.51100000000E-03 0.  1.
         11   -1    0    0    0    0 -0.00000000000E+00 -0.00000000000E+00 -0.45593999997E+02  0.45594000000E+02  0.51100000000E-03 0. -1.
    9900012    2    1    2    0    0 -0.98350173850E+01  0.33801177202E+02 -0.25384583390E+02  0.47787260132E+02  0.19999950245E+02 0.  0.
        -12    1    1    2    0    0  0.98350173850E+01 -0.33801177202E+02  0.25384583390E+02  0.43400739868E+02  0.00000000000E+00 0.  1.
         11    1    3    3    0    0 -0.20117225974E+01  0.73099224672E+01 -0.23959924416E+00  0.75854731127E+01  0.51100000000E-03 0. -1.
        -11    1    3    3    0    0 -0.21965692836E+00  0.22999023631E+02 -0.18401225449E+02  0.29455193692E+02  0.51100000000E-03 0.  1.
        -12    1    3    3    0    0 -0.76036378592E+01  0.34922311038E+01 -0.67437586967E+01  0.10746593327E+02  0.00000000000E+00 0.  1.
</event>
<event>
 7    1  0.2442667E-009  0.4778727E+02  0.7816164E-02  0.1312668E+00
        -11   -1    0    0    0    0  0.00000000000E+00  0.00000000000E+00  0.45593999997E+02  0.45594000000E+02  0.51100000000E-03 0.  1.
         11   -1    0    0    0    0 -0.00000000000E+00 -0.00000000000E+00 -0.45593999997E+02  0.45594000000E+02  0.51100000000E-03 0. -1.
    9900012    2    1    2    0    0 -0.18607963401E+02 -0.23022081641E+02 -0.31738792716E+02  0.47787268346E+02  0.19999987698E+02 0.  0.
        -12    1    1    2    0    0  0.18607963401E+02  0.23022081641E+02  0.31738792716E+02  0.43400731654E+02  0.00000000000E+00 0.  1.
         11    1    3    3    0    0 -0.74839963651E+01 -0.12063735825E+02 -0.31524816807E+01  0.14542422929E+02  0.51100000000E-03 0. -1.
        -11    1    3    3    0    0 -0.72457278069E+01 -0.36390262981E+01 -0.18460003967E+02  0.20162212939E+02  0.51100000000E-03 0.  1.
         12    1    3    3    0    0 -0.38782392286E+01 -0.73193195180E+01 -0.10126307068E+02  0.13082632478E+02  0.00000000000E+00 0. -1.
</event>
<event>
 7    1  0.2442667E-009  0.4778727E+02  0.7816164E-02  0.1312668E+00
        -11   -1    0    0    0    0  0.00000000000E+00  0.00000000000E+00  0.45593999997E+02  0.45594000000E+02  0.51100000000E-03 0.  1.
         11   -1    0    0    0    0 -0.00000000000E+00 -0.00000000000E+00 -0.45593999997E+02  0.45594000000E+02  0.51100000000E-03 0. -1.
    9900012    2    1    2    0    0 -0.28507315165E+02  0.12885474587E+02 -0.30081901858E+02  0.47787270828E+02  0.19999999015E+02 0.  0.
        -12    1    1    2    0    0  0.28507315165E+02 -0.12885474587E+02  0.30081901858E+02  0.43400729172E+02  0.00000000000E+00 0.  1.
         11    1    3    3    0    0 -0.21578606154E+02  0.37548087352E+01 -0.12060980584E+02  0.25004041375E+02  0.51100000000E-03 0. -1.
        -11    1    3    3    0    0 -0.84991666588E+00  0.38869010089E+01 -0.12294201067E+02  0.12921986609E+02  0.51100000000E-03 0.  1.
        -12    1    3    3    0    0 -0.60787923450E+01  0.52437648427E+01 -0.57267202064E+01  0.98612428437E+01  0.00000000000E+00 0.  1.
</event>
<event>
 7    1  0.2442667E-009  0.4778727E+02  0.7816164E-02  0.1312668E+00
        -11   -1    0    0    0    0  0.00000000000E+00  0.00000000000E+00  0.45593999997E+02  0.45594000000E+02  0.51100000000E-03 0.  1.
         11   -1    0    0    0    0 -0.00000000000E+00 -0.00000000000E+00 -0.45593999997E+02  0.45594000000E+02  0.51100000000E-03 0. -1.
    9900012    2    1    2    0    0  0.12773447901E+02 -0.35267124562E+02 -0.21833279444E+02  0.47787272617E+02  0.20000007168E+02 0.  0.
        -12    1    1    2    0    0 -0.12773447901E+02  0.35267124562E+02  0.21833279444E+02  0.43400727383E+02  0.00000000000E+00 0.  1.
         11    1    3    3    0    0  0.16221532908E+01 -0.14292873634E+02 -0.32056081613E+01  0.14737487641E+02  0.51100000000E-03 0. -1.
        -11    1    3    3    0    0  0.20178434939E+01 -0.83241528054E+00 -0.84081449140E+01  0.86868583919E+01  0.51100000000E-03 0.  1.
        -12    1    3    3    0    0  0.91334511161E+01 -0.20141835647E+02 -0.10219526369E+02  0.24362926584E+02  0.00000000000E+00 0.  1.
</event>
<event>
 7    1  0.2442667E-009  0.4778728E+02  0.7816164E-02  0.1312668E+00
        -11   -1    0    0    0    0  0.00000000000E+00  0.00000000000E+00  0.45593999997E+02  0.45594000000E+02  0.51100000000E-03 0. -1.
         11   -1    0    0    0    0 -0.00000000000E+00 -0.00000000000E+00 -0.45593999997E+02  0.45594000000E+02  0.51100000000E-03 0.  1.
    9900012    2    1    2    0    0  0.20050928149E+02 -0.19351183292E+02  0.33273335905E+02  0.47787275390E+02  0.20000019811E+02 0.  0.
        -12    1    1    2    0    0 -0.20050928149E+02  0.19351183292E+02 -0.33273335905E+02  0.43400724610E+02  0.00000000000E+00 0.  1.
         11    1    3    3    0    0  0.14506291914E+02 -0.20193393939E+02  0.19901522957E+02  0.31847704472E+02  0.51100000000E-03 0. -1.
        -11    1    3    3    0    0  0.68487305530E+01  0.15396825828E+01  0.12101179088E+02  0.13989791572E+02  0.51100000000E-03 0.  1.
         12    1    3    3    0    0 -0.13040943175E+01 -0.69747193580E+00  0.12706338600E+01  0.19497793455E+01  0.00000000000E+00 0. -1.
</event>
<event>
 7    1  0.2442667E-009  0.4778727E+02  0.7816164E-02  0.1312668E+00
        -11   -1    0    0    0    0  0.00000000000E+00  0.00000000000E+00  0.45593999997E+02  0.45594000000E+02  0.51100000000E-03 0.  1.
         11   -1    0    0    0    0 -0.00000000000E+00 -0.00000000000E+00 -0.45593999997E+02  0.45594000000E+02  0.51100000000E-03 0. -1.
    9900012    2    1    2    0    0  0.33279396196E+02  0.25474102870E+02  0.11277213458E+02  0.47787266463E+02  0.19999979111E+02 0.  0.
        -12    1    1    2    0    0 -0.33279396196E+02 -0.25474102870E+02 -0.11277213458E+02  0.43400733537E+02  0.00000000000E+00 0.  1.
         11    1    3    3    0    0  0.20768650495E+02  0.11173668383E+02  0.92668813478E+00  0.23601831701E+02  0.51100000000E-03 0. -1.
        -11    1    3    3    0    0  0.53558650797E+01  0.96231111638E+01  0.11059811536E+02  0.15607978431E+02  0.51100000000E-03 0.  1.
        -12    1    3    3    0    0  0.71548806216E+01  0.46773233232E+01 -0.70928621295E+00  0.85774563311E+01  0.00000000000E+00 0.  1.
</event>
<event>
 7    1  0.2442667E-009  0.4778727E+02  0.7816164E-02  0.1312668E+00
        -11   -1    0    0    0    0  0.00000000000E+00  0.00000000000E+00  0.45593999997E+02  0.45594000000E+02  0.51100000000E-03 0. -1.
         11   -1    0    0    0    0 -0.00000000000E+00 -0.00000000000E+00 -0.45593999997E+02  0.45594000000E+02  0.51100000000E-03 0.  1.
    9900012    2    1    2    0    0 -0.12483876886E+02 -0.40612357072E+02  0.88550931573E+01  0.47787269547E+02  0.19999993172E+02 0.  0.
        -12    1    1    2    0    0  0.12483876886E+02  0.40612357072E+02 -0.88550931573E+01  0.43400730453E+02  0.00000000000E+00 0.  1.
         11    1    3    3    0    0 -0.32977019903E+00 -0.24855050553E+02 -0.13640591960E+01  0.24894636855E+02  0.51100000000E-03 0. -1.
        -11    1    3    3    0    0 -0.92656925057E+01 -0.81809657070E+01  0.57210784080E+01  0.13620278849E+02  0.51100000000E-03 0.  1.
        -12    1    3    3    0    0 -0.28884141815E+01 -0.75763408116E+01  0.44980739453E+01  0.92723538433E+01  0.00000000000E+00 0.  1.
</event>
<event>
 7    1  0.2442667E-009  0.4778727E+02  0.7816164E-02  0.1312668E+00
        -11   -1    0    0    0    0  0.00000000000E+00  0.00000000000E+00  0.45593999997E+02  0.45594000000E+02  0.51100000000E-03 0.  1.
         11   -1    0    0    0    0 -0.00000000000E+00 -0.00000000000E+00 -0.45593999997E+02  0.45594000000E+02  0.51100000000E-03 0. -1.
    9900012    2    1    2    0    0 -0.87711330951E+01 -0.35514027302E+02 -0.23354761052E+02  0.47787265274E+02  0.19999973689E+02 0.  0.
        -12    1    1    2    0    0  0.87711330951E+01  0.35514027302E+02  0.23354761052E+02  0.43400734726E+02  0.00000000000E+00 0.  1.
         11    1    3    3    0    0 -0.94027428063E+01 -0.24685157620E+02 -0.23594527087E+02  0.35418502054E+02  0.51100000000E-03 0. -1.
        -11    1    3    3    0    0 -0.15810173717E+01 -0.95880599639E+01 -0.48756510943E+00  0.97297600073E+01  0.51100000000E-03 0.  1.
         12    1    3    3    0    0  0.22126270828E+01 -0.12408097181E+01  0.72733114396E+00  0.26390032128E+01  0.00000000000E+00 0. -1.
</event>
<event>
 7    1  0.2442667E-009  0.4778728E+02  0.7816164E-02  0.1312668E+00
        -11   -1    0    0    0    0  0.00000000000E+00  0.00000000000E+00  0.45593999997E+02  0.45594000000E+02  0.51100000000E-03 0.  1.
         11   -1    0    0    0    0 -0.00000000000E+00 -0.00000000000E+00 -0.45593999997E+02  0.45594000000E+02  0.51100000000E-03 0. -1.
    9900012    2    1    2    0    0 -0.40899779695E+01 -0.38222125762E+02 -0.20148548173E+02  0.47787276376E+02  0.20000024310E+02 0.  0.
        -12    1    1    2    0    0  0.40899779695E+01  0.38222125762E+02  0.20148548173E+02  0.43400723624E+02  0.00000000000E+00 0.  1.
         11    1    3    3    0    0 -0.49452300547E+01 -0.35778005350E+02 -0.19622685642E+02  0.41104388564E+02  0.51100000000E-03 0. -1.
        -11    1    3    3    0    0  0.33312209728E+01 -0.23566962155E+01  0.24584844757E+00  0.40879691709E+01  0.51100000000E-03 0.  1.
        -12    1    3    3    0    0 -0.24759688876E+01 -0.87424196348E-01 -0.77171097903E+00  0.25949186418E+01  0.00000000000E+00 0.  1.
</event>
<event>
 7    1  0.2442667E-009  0.4778726E+02  0.7816164E-02  0.1312668E+00
        -11   -1    0    0    0    0  0.00000000000E+00  0.00000000000E+00  0.45593999997E+02  0.45594000000E+02  0.51100000000E-03 0.  1.
         11   -1    0    0    0    0 -0.00000000000E+00 -0.00000000000E+00 -0.45593999997E+02  0.45594000000E+02  0.51100000000E-03 0. -1.
    9900012    2    1    2    0    0  0.25382494699E+02 -0.30394054233E+00 -0.35203132431E+02  0.47787263255E+02  0.19999964486E+02 0.  0.
        -12    1    1    2    0    0 -0.25382494699E+02  0.30394054233E+00  0.35203132431E+02  0.43400736745E+02  0.00000000000E+00 0.  1.
         11    1    3    3    0    0  0.15114156392E+02 -0.30916119995E+01 -0.83775904992E+01  0.17555050869E+02  0.51100000000E-03 0. -1.
        -11    1    3    3    0    0  0.18899447231E+01  0.22603983458E+01 -0.17241134001E+02  0.17491083261E+02  0.51100000000E-03 0.  1.
         12    1    3    3    0    0  0.83783935846E+01  0.52727311146E+00 -0.95844079308E+01  0.12741129125E+02  0.00000000000E+00 0. -1.
</event>
<event>
 7    1  0.2442667E-009  0.4778727E+02  0.7816164E-02  0.1312668E+00
        -11   -1    0    0    0    0  0.00000000000E+00  0.00000000000E+00  0.45593999997E+02  0.45594000000E+02  0.51100000000E-03 0.  1.
         11   -1    0    0    0    0 -0.00000000000E+00 -0.00000000000E+00 -0.45593999997E+02  0.45594000000E+02  0.51100000000E-03 0. -1.
    9900012    2    1    2    0    0 -0.25258309849E+02 -0.23053913248E+02 -0.26723736828E+02  0.47787271406E+02  0.20000001648E+02 0.  0.
        -12    1    1    2    0    0  0.25258309849E+02  0.23053913248E+02  0.26723736828E+02  0.43400728594E+02  0.00000000000E+00 0.  1.
         11    1    3    3    0    0 -0.22330376478E+02 -0.17060107385E+02 -0.21706176552E+02  0.35508464884E+02  0.51100000000E-03 0. -1.
        -11    1    3    3    0    0 -0.40155946473E+00 -0.79575824138E+01 -0.40372019096E+01  0.89321535699E+01  0.51100000000E-03 0.  1.
         12    1    3    3    0    0 -0.25263739055E+01  0.19637765510E+01 -0.98035836635E+00  0.33466529517E+01  0.00000000000E+00 0. -1.
</event>
<event>
 7    1  0.2442667E-009  0.4778727E+02  0.7816164E-02  0.1312668E+00
        -11   -1    0    0    0    0  0.00000000000E+00  0.00000000000E+00  0.45593999997E+02  0.45594000000E+02  0.51100000000E-03 0. -1.
         11   -1    0    0    0    0 -0.00000000000E+00 -0.00000000000E+00 -0.45593999997E+02  0.45594000000E+02  0.51100000000E-03 0.  1.
    9900012    2    1    2    0    0  0.13875444746E+02 -0.39727087566E+02 -0.10623260644E+02  0.47787272816E+02  0.20000008078E+02 0.  0.
        -12    1    1    2    0    0 -0.13875444746E+02  0.39727087566E+02  0.10623260644E+02  0.43400727184E+02  0.00000000000E+00 0.  1.
         11    1    3    3    0    0  0.65690256897E+01 -0.19468971010E+01 -0.78701256920E+00  0.68965133132E+01  0.51100000000E-03 0. -1.
        -11    1    3    3    0    0  0.25574391073E+01 -0.19711037467E+02 -0.99056622190E+01  0.22207828283E+02  0.51100000000E-03 0.  1.
         12    1    3    3    0    0  0.47489799485E+01 -0.18069152999E+02  0.69414143836E-01  0.18682931220E+02  0.00000000000E+00 0. -1.
</event>
<event>
 7    1  0.2442667E-009  0.4778727E+02  0.7816164E-02  0.1312668E+00
        -11   -1    0    0    0    0  0.00000000000E+00  0.00000000000E+00  0.45593999997E+02  0.45594000000E+02  0.51100000000E-03 0.  1.
         11   -1    0    0    0    0 -0.00000000000E+00 -0.00000000000E+00 -0.45593999997E+02  0.45594000000E+02  0.51100000000E-03 0. -1.
    9900012    2    1    2    0    0 -0.38970521401E+02  0.14306935056E+02  0.12658335608E+02  0.47787269715E+02  0.19999993936E+02 0.  0.
        -12    1    1    2    0    0  0.38970521401E+02 -0.14306935056E+02 -0.12658335608E+02  0.43400730285E+02  0.00000000000E+00 0.  1.
         11    1    3    3    0    0 -0.22650149681E+02  0.10401334824E+02  0.58868485107E+01  0.25609998679E+02  0.51100000000E-03 0. -1.
        -11    1    3    3    0    0 -0.44178279880E+01 -0.43425771222E+01  0.85616862565E-02  0.61947763283E+01  0.51100000000E-03 0.  1.
        -12    1    3    3    0    0 -0.11902543732E+02  0.82481773535E+01  0.67629254110E+01  0.15982494707E+02  0.00000000000E+00 0.  1.
</event>
<event>
 7    1  0.2442667E-009  0.4778727E+02  0.7816164E-02  0.1312668E+00
        -11   -1    0    0    0    0  0.00000000000E+00  0.00000000000E+00  0.45593999997E+02  0.45594000000E+02  0.51100000000E-03 0.  1.
         11   -1    0    0    0    0 -0.00000000000E+00 -0.00000000000E+00 -0.45593999997E+02  0.45594000000E+02  0.51100000000E-03 0. -1.
    9900012    2    1    2    0    0 -0.42834628555E+02 -0.55140443613E+01 -0.42910512962E+01  0.47787271781E+02  0.20000003359E+02 0.  0.
        -12    1    1    2    0    0  0.42834628555E+02  0.55140443613E+01  0.42910512962E+01  0.43400728219E+02  0.00000000000E+00 0.  1.
         11    1    3    3    0    0 -0.58754613992E+01 -0.70386369629E+01  0.21126778944E+01  0.94088716165E+01  0.51100000000E-03 0. -1.
        -11    1    3    3    0    0 -0.33313169344E+02 -0.10776898398E+01 -0.61384268183E+01  0.33891133814E+02  0.51100000000E-03 0.  1.
        -12    1    3    3    0    0 -0.36459978119E+01  0.26022824414E+01 -0.26530237233E+00  0.44872663502E+01  0.00000000000E+00 0.  1.
</event>
<event>
 7    1  0.2442667E-009  0.4778727E+02  0.7816164E-02  0.1312668E+00
        -11   -1    0    0    0    0  0.00000000000E+00  0.00000000000E+00  0.45593999997E+02  0.45594000000E+02  0.51100000000E-03 0.  1.
         11   -1    0    0    0    0 -0.00000000000E+00 -0.00000000000E+00 -0.45593999997E+02  0.45594000000E+02  0.51100000000E-03 0. -1.
    9900012    2    1    2    0    0  0.21344894018E+02  0.52830123104E+00 -0.37785446947E+02  0.47787267244E+02  0.19999982671E+02 0.  0.
        -12    1    1    2    0    0 -0.21344894018E+02 -0.52830123104E+00  0.37785446947E+02  0.43400732756E+02  0.00000000000E+00 0.  1.
         11    1    3    3    0    0  0.18015319120E+01 -0.42691394104E+01 -0.13623735981E+02  0.14390178973E+02  0.51100000000E-03 0. -1.
        -11    1    3    3    0    0  0.11108263464E+02  0.82328821900E+01 -0.12864286731E+02  0.18885543140E+02  0.51100000000E-03 0.  1.
         12    1    3    3    0    0  0.84350986424E+01 -0.34354415486E+01 -0.11297424234E+02  0.14511545130E+02  0.00000000000E+00 0. -1.
</event>
<event>
 7    1  0.2442667E-009  0.4778727E+02  0.7816164E-02  0.1312668E+00
        -11   -1    0    0    0    0  0.00000000000E+00  0.00000000000E+00  0.45593999997E+02  0.45594000000E+02  0.51100000000E-03 0.  1.
         11   -1    0    0    0    0 -0.00000000000E+00 -0.00000000000E+00 -0.45593999997E+02  0.45594000000E+02  0.51100000000E-03 0. -1.
    9900012    2    1    2    0    0 -0.92295598181E-02 -0.38336770961E+02 -0.20344905491E+02  0.47787271062E+02  0.20000000081E+02 0.  0.
        -12    1    1    2    0    0  0.92295598181E-02  0.38336770961E+02  0.20344905491E+02  0.43400728938E+02  0.00000000000E+00 0.  1.
         11    1    3    3    0    0 -0.14577527460E+01 -0.75752369453E+01 -0.20839513162E+01  0.79907516039E+01  0.51100000000E-03 0. -1.
        -11    1    3    3    0    0 -0.67517540590E+01 -0.10299098319E+02 -0.21712775630E+01  0.12504881270E+02  0.51100000000E-03 0.  1.
        -12    1    3    3    0    0  0.82002772452E+01 -0.20462435697E+02 -0.16089676612E+02  0.27291638188E+02  0.00000000000E+00 0.  1.
</event>
<event>
 7    1  0.2442667E-009  0.4778727E+02  0.7816164E-02  0.1312668E+00
        -11   -1    0    0    0    0  0.00000000000E+00  0.00000000000E+00  0.45593999997E+02  0.45594000000E+02  0.51100000000E-03 0. -1.
         11   -1    0    0    0    0 -0.00000000000E+00 -0.00000000000E+00 -0.45593999997E+02  0.45594000000E+02  0.51100000000E-03 0.  1.
    9900012    2    1    2    0    0  0.25370833617E+02  0.26599106871E+02  0.23074479956E+02  0.47787270629E+02  0.19999998105E+02 0.  0.
        -12    1    1    2    0    0 -0.25370833617E+02 -0.26599106871E+02 -0.23074479956E+02  0.43400729371E+02  0.00000000000E+00 0.  1.
         11    1    3    3    0    0  0.19198426743E+02  0.11052243400E+02  0.14816036139E+02  0.26650452167E+02  0.51100000000E-03 0. -1.
        -11    1    3    3    0    0 -0.51242728143E+00  0.82713407436E+01  0.75838160287E+01  0.11233517937E+02  0.51100000000E-03 0.  1.
         12    1    3    3    0    0  0.66848341553E+01  0.72755227270E+01  0.67462778753E+00  0.99033005249E+01  0.00000000000E+00 0. -1.
</event>
<event>
 7    1  0.2442667E-009  0.4778728E+02  0.7816164E-02  0.1312668E+00
        -11   -1    0    0    0    0  0.00000000000E+00  0.00000000000E+00  0.45593999997E+02  0.45594000000E+02  0.51100000000E-03 0.  1.
         11   -1    0    0    0    0 -0.00000000000E+00 -0.00000000000E+00 -0.45593999997E+02  0.45594000000E+02  0.51100000000E-03 0. -1.
    9900012    2    1    2    0    0  0.41777738258E+02 -0.11227225658E+02  0.34917885253E+01  0.47787278842E+02  0.20000035553E+02 0.  0.
        -12    1    1    2    0    0 -0.41777738258E+02  0.11227225658E+02 -0.34917885253E+01  0.43400721158E+02  0.00000000000E+00 0.  1.
         11    1    3    3    0    0  0.12728958672E+02 -0.12441647144E+01 -0.47661608881E+01  0.13648832353E+02  0.51100000000E-03 0. -1.
        -11    1    3    3    0    0  0.10848524077E+02  0.50114394192E+00  0.73525632223E+01  0.13114945906E+02  0.51100000000E-03 0.  1.
        -12    1    3    3    0    0  0.18200255508E+02 -0.10484204886E+02  0.90538619103E+00  0.21023500584E+02  0.00000000000E+00 0.  1.
</event>
<event>
 7    1  0.2442667E-009  0.4778727E+02  0.7816164E-02  0.1312668E+00
        -11   -1    0    0    0    0  0.00000000000E+00  0.00000000000E+00  0.45593999997E+02  0.45594000000E+02  0.51100000000E-03 0. -1.
         11   -1    0    0    0    0 -0.00000000000E+00 -0.00000000000E+00 -0.45593999997E+02  0.45594000000E+02  0.51100000000E-03 0.  1.
    9900012    2    1    2    0    0 -0.24589393737E+02  0.15389352395E+02  0.32282388938E+02  0.47787273197E+02  0.20000009813E+02 0.  0.
        -12    1    1    2    0    0  0.24589393737E+02 -0.15389352395E+02 -0.32282388938E+02  0.43400726803E+02  0.00000000000E+00 0.  1.
         11    1    3    3    0    0 -0.79415700629E+01 -0.12473409236E+01  0.11212079487E+02  0.13796199518E+02  0.51100000000E-03 0.  1.
        -11    1    3    3    0    0 -0.14887378054E+02  0.16101983598E+02  0.12534211484E+02  0.25258946116E+02  0.51100000000E-03 0. -1.
         12    1    3    3    0    0 -0.17604456205E+01  0.53470972010E+00  0.85360979670E+01  0.87321275626E+01  0.00000000000E+00 0. -1.
</event>
<event>
 7    1  0.2442667E-009  0.4778727E+02  0.7816164E-02  0.1312668E+00
        -11   -1    0    0    0    0  0.00000000000E+00  0.00000000000E+00  0.45593999997E+02  0.45594000000E+02  0.51100000000E-03 0.  1.
         11   -1    0    0    0    0 -0.00000000000E+00 -0.00000000000E+00 -0.45593999997E+02  0.45594000000E+02  0.51100000000E-03 0. -1.
    9900012    2    1    2    0    0 -0.19633165076E+02 -0.11724716196E+02 -0.36887575320E+02  0.47787270124E+02  0.19999995805E+02 0.  0.
        -12    1    1    2    0    0  0.19633165076E+02  0.11724716196E+02  0.36887575320E+02  0.43400729876E+02  0.00000000000E+00 0.  1.
         11    1    3    3    0    0 -0.19766719747E+02 -0.14077034188E+02 -0.31955650282E+02  0.40125424438E+02  0.51100000000E-03 0. -1.
        -11    1    3    3    0    0 -0.30433151983E-01  0.50205425271E+00  0.11752904439E+01  0.12783945158E+01  0.51100000000E-03 0.  1.
         12    1    3    3    0    0  0.16398782338E+00  0.18502637397E+01 -0.61072154815E+01  0.63834511708E+01  0.00000000000E+00 0. -1.
</event>
<event>
 7    1  0.2442667E-009  0.4778727E+02  0.7816164E-02  0.1312668E+00
        -11   -1    0    0    0    0  0.00000000000E+00  0.00000000000E+00  0.45593999997E+02  0.45594000000E+02  0.51100000000E-03 0.  1.
         11   -1    0    0    0    0 -0.00000000000E+00 -0.00000000000E+00 -0.45593999997E+02  0.45594000000E+02  0.51100000000E-03 0. -1.
    9900012    2    1    2    0    0  0.36896357913E+02 -0.16722878003E+02 -0.15576492300E+02  0.47787274334E+02  0.20000014998E+02 0.  0.
        -12    1    1    2    0    0 -0.36896357913E+02  0.16722878003E+02  0.15576492300E+02  0.43400725666E+02  0.00000000000E+00 0.  1.
         11    1    3    3    0    0  0.19870143409E+02  0.10989992549E+01 -0.37198573526E+01  0.20245190477E+02  0.51100000000E-03 0. -1.
        -11    1    3    3    0    0  0.15060341339E+02 -0.15208445728E+02 -0.11369136366E+02  0.24235675454E+02  0.51100000000E-03 0.  1.
         12    1    3    3    0    0  0.19658731647E+01 -0.26134315301E+01 -0.48749858173E+00  0.33064084033E+01  0.00000000000E+00 0. -1.
</event>
<event>
 7    1  0.2442667E-009  0.4778727E+02  0.7816164E-02  0.1312668E+00
        -11   -1    0    0    0    0  0.00000000000E+00  0.00000000000E+00  0.45593999997E+02  0.45594000000E+02  0.51100000000E-03 0.  1.
         11   -1    0    0    0    0 -0.00000000000E+00 -0.00000000000E+00 -0.45593999997E+02  0.45594000000E+02  0.51100000000E-03 0. -1.
    9900012    2    1    2    0    0 -0.35813696002E+02 -0.23363239440E+02 -0.74271010320E+01  0.47787267193E+02  0.19999982439E+02 0.  0.
        -12    1    1    2    0    0  0.35813696002E+02  0.23363239440E+02  0.74271010320E+01  0.43400732807E+02  0.00000000000E+00 0.  1.
         11    1    3    3    0    0 -0.30423654505E+01 -0.47459535960E+01 -0.53434139469E+00  0.56626481487E+01  0.51100000000E-03 0. -1.
        -11    1    3    3    0    0 -0.72643093046E+01 -0.13244122436E+02  0.21161792078E+00  0.15107010001E+02  0.51100000000E-03 0.  1.
        -12    1    3    3    0    0 -0.25507021247E+02 -0.53731634084E+01 -0.71043775581E+01  0.27017609043E+02  0.00000000000E+00 0.  1.
</event>
<event>
 7    1  0.2442667E-009  0.4778727E+02  0.7816164E-02  0.1312668E+00
        -11   -1    0    0    0    0  0.00000000000E+00  0.00000000000E+00  0.45593999997E+02  0.45594000000E+02  0.51100000000E-03 0.  1.
         11   -1    0    0    0    0 -0.00000000000E+00 -0.00000000000E+00 -0.45593999997E+02  0.45594000000E+02  0.51100000000E-03 0. -1.
    9900012    2    1    2    0    0  0.36877939272E+02  0.22859498845E+02  0.10412845650E+01  0.47787269984E+02  0.19999995166E+02 0.  0.
        -12    1    1    2    0    0 -0.36877939272E+02 -0.22859498845E+02 -0.10412845650E+01  0.43400730016E+02  0.00000000000E+00 0.  1.
         11    1    3    3    0    0  0.27536003061E+01  0.48392420094E+00 -0.42394042887E+01  0.50782916676E+01  0.51100000000E-03 0. -1.
        -11    1    3    3    0    0  0.21929531758E+02  0.14842499914E+02  0.88809974595E+01  0.27929845739E+02  0.51100000000E-03 0.  1.
         12    1    3    3    0    0  0.12194807207E+02  0.75330747296E+01 -0.36003086058E+01  0.14779132578E+02  0.00000000000E+00 0. -1.
</event>
<event>
 7    1  0.2442667E-009  0.4778728E+02  0.7816164E-02  0.1312668E+00
        -11   -1    0    0    0    0  0.00000000000E+00  0.00000000000E+00  0.45593999997E+02  0.45594000000E+02  0.51100000000E-03 0.  1.
         11   -1    0    0    0    0 -0.00000000000E+00 -0.00000000000E+00 -0.45593999997E+02  0.45594000000E+02  0.51100000000E-03 0. -1.
    9900012    2    1    2    0    0 -0.31752460573E+02  0.24944271658E+02 -0.15911865519E+02  0.47787275291E+02  0.20000019361E+02 0.  0.
        -12    1    1    2    0    0  0.31752460573E+02 -0.24944271658E+02  0.15911865519E+02  0.43400724709E+02  0.00000000000E+00 0.  1.
         11    1    3    3    0    0 -0.22193524733E+02  0.10871574279E+02 -0.14145418699E+02  0.28475191621E+02  0.51100000000E-03 0. -1.
        -11    1    3    3    0    0 -0.39577180702E-01  0.25788654386E+01  0.27001227477E+01  0.37340027340E+01  0.51100000000E-03 0.  1.
        -12    1    3    3    0    0 -0.95193586591E+01  0.11493831940E+02 -0.44665695669E+01  0.15578080936E+02  0.00000000000E+00 0.  1.
</event>
<event>
 7    1  0.2442667E-009  0.4778725E+02  0.7816164E-02  0.1312668E+00
        -11   -1    0    0    0    0  0.00000000000E+00  0.00000000000E+00  0.45593999997E+02  0.45594000000E+02  0.51100000000E-03 0.  1.
         11   -1    0    0    0    0 -0.00000000000E+00 -0.00000000000E+00 -0.45593999997E+02  0.45594000000E+02  0.51100000000E-03 0. -1.
    9900012    2    1    2    0    0 -0.28868799441E+02 -0.25725525144E+02 -0.19708241906E+02  0.47787250881E+02  0.19999908065E+02 0.  0.
        -12    1    1    2    0    0  0.28868799441E+02  0.25725525144E+02  0.19708241906E+02  0.43400749119E+02  0.00000000000E+00 0.  1.
         11    1    3    3    0    0 -0.78097767085E+01 -0.11151840849E+02 -0.14411994120E+02  0.19825784760E+02  0.51100000000E-03 0. -1.
        -11    1    3    3    0    0 -0.15439499177E+02 -0.13961282477E+02 -0.96144900910E+00  0.20837944421E+02  0.51100000000E-03 0.  1.
        -12    1    3    3    0    0 -0.56195235556E+01 -0.61240181804E+00 -0.43347987766E+01  0.71235217002E+01  0.00000000000E+00 0.  1.
</event>
<event>
 7    1  0.2442667E-009  0.4778727E+02  0.7816164E-02  0.1312668E+00
        -11   -1    0    0    0    0  0.00000000000E+00  0.00000000000E+00  0.45593999997E+02  0.45594000000E+02  0.51100000000E-03 0. -1.
         11   -1    0    0    0    0 -0.00000000000E+00 -0.00000000000E+00 -0.45593999997E+02  0.45594000000E+02  0.51100000000E-03 0.  1.
    9900012    2    1    2    0    0 -0.39342375333E+02 -0.11913274977E+02  0.13923896378E+02  0.47787268349E+02  0.19999987709E+02 0.  0.
        -12    1    1    2    0    0  0.39342375333E+02  0.11913274977E+02 -0.13923896378E+02  0.43400731651E+02  0.00000000000E+00 0.  1.
         11    1    3    3    0    0 -0.31384756129E+02 -0.97376701040E+01  0.10474466785E+02  0.34489702681E+02  0.51100000000E-03 0. -1.
        -11    1    3    3    0    0  0.18378037395E+01 -0.21949957371E+01 -0.13738585138E+00  0.28660781574E+01  0.51100000000E-03 0.  1.
        -12    1    3    3    0    0 -0.97954229438E+01  0.19390864096E-01  0.35868154447E+01  0.10431487511E+02  0.00000000000E+00 0.  1.
</event>
<event>
 7    1  0.2442667E-009  0.4778727E+02  0.7816164E-02  0.1312668E+00
        -11   -1    0    0    0    0  0.00000000000E+00  0.00000000000E+00  0.45593999997E+02  0.45594000000E+02  0.51100000000E-03 0. -1.
         11   -1    0    0    0    0 -0.00000000000E+00 -0.00000000000E+00 -0.45593999997E+02  0.45594000000E+02  0.51100000000E-03 0.  1.
    9900012    2    1    2    0    0  0.20844081651E+02 -0.20136569043E+02  0.32305821494E+02  0.47787271261E+02  0.20000000988E+02 0.  0.
        -12    1    1    2    0    0 -0.20844081651E+02  0.20136569043E+02 -0.32305821494E+02  0.43400728739E+02  0.00000000000E+00 0.  1.
         11    1    3    3    0    0  0.31439474582E+01  0.35696241894E+00  0.12302786652E+02  0.12703164467E+02  0.51100000000E-03 0. -1.
        -11    1    3    3    0    0  0.15981881111E+02 -0.12615441926E+02  0.11579513656E+02  0.23423386510E+02  0.51100000000E-03 0.  1.
        -12    1    3    3    0    0  0.17182530816E+01 -0.78780895359E+01  0.84235211859E+01  0.11660720285E+02  0.00000000000E+00 0.  1.
</event>
<event>
 7    1  0.2442667E-009  0.4778727E+02  0.7816164E-02  0.1312668E+00
        -11   -1    0    0    0    0  0.00000000000E+00  0.00000000000E+00  0.45593999997E+02  0.45594000000E+02  0.51100000000E-03 0.  1.
         11   -1    0    0    0    0 -0.00000000000E+00 -0.00000000000E+00 -0.45593999997E+02  0.45594000000E+02  0.51100000000E-03 0. -1.
    9900012    2    1    2    0    0  0.37148648432E+02  0.13970396605E+02 -0.17562150992E+02  0.47787271791E+02  0.20000003403E+02 0.  0.
        -12    1    1    2    0    0 -0.37148648432E+02 -0.13970396605E+02  0.17562150992E+02  0.43400728209E+02  0.00000000000E+00 0.  1.
         11    1    3    3    0    0  0.22209948212E+02  0.13737525364E+02 -0.55447746049E+01  0.26697301894E+02  0.51100000000E-03 0. -1.
        -11    1    3    3    0    0  0.48513882469E+01  0.35046344818E+01 -0.74169678702E+01  0.95304692131E+01  0.51100000000E-03 0.  1.
         12    1    3    3    0    0  0.10087311973E+02 -0.32717632407E+01 -0.46004085169E+01  0.11559500684E+02  0.00000000000E+00 0. -1.
</event>
<event>
 7    1  0.2442667E-009  0.4778727E+02  0.7816164E-02  0.1312668E+00
        -11   -1    0    0    0    0  0.00000000000E+00  0.00000000000E+00  0.45593999997E+02  0.45594000000E+02  0.51100000000E-03 0.  1.
         11   -1    0    0    0    0 -0.00000000000E+00 -0.00000000000E+00 -0.45593999997E+02  0.45594000000E+02  0.51100000000E-03 0. -1.
    9900012    2    1    2    0    0 -0.48258257077E+01  0.17232857387E+02 -0.39539395320E+02  0.47787265562E+02  0.19999975004E+02 0.  0.
        -12    1    1    2    0    0  0.48258257077E+01 -0.17232857387E+02  0.39539395320E+02  0.43400734438E+02  0.00000000000E+00 0.  1.
         11    1    3    3    0    0 -0.28441218892E+01 -0.14708958018E+01 -0.14299498980E+02  0.14653608263E+02  0.51100000000E-03 0.  1.
        -11    1    3    3    0    0 -0.47386807388E+01  0.11262041125E+02 -0.93962183788E+01  0.15413552009E+02  0.51100000000E-03 0. -1.
         12    1    3    3    0    0  0.27569769203E+01  0.74417120640E+01 -0.15843677961E+02  0.17720105291E+02  0.00000000000E+00 0. -1.
</event>
<event>
 7    1  0.2442667E-009  0.4778727E+02  0.7816164E-02  0.1312668E+00
        -11   -1    0    0    0    0  0.00000000000E+00  0.00000000000E+00  0.45593999997E+02  0.45594000000E+02  0.51100000000E-03 0.  1.
         11   -1    0    0    0    0 -0.00000000000E+00 -0.00000000000E+00 -0.45593999997E+02  0.45594000000E+02  0.51100000000E-03 0. -1.
    9900012    2    1    2    0    0 -0.95365704375E+01  0.28319653235E+02 -0.31474985266E+02  0.47787266912E+02  0.19999981157E+02 0.  0.
        -12    1    1    2    0    0  0.95365704375E+01 -0.28319653235E+02  0.31474985266E+02  0.43400733088E+02  0.00000000000E+00 0.  1.
         11    1    3    3    0    0  0.17367892378E+01  0.77569996375E+01 -0.16972873338E+02  0.18742089260E+02  0.51100000000E-03 0. -1.
        -11    1    3    3    0    0  0.73224901171E+00  0.75835405301E-01  0.56055158220E+00  0.92528804233E+00  0.51100000000E-03 0.  1.
         12    1    3    3    0    0 -0.12005608687E+02  0.20486818193E+02 -0.15062663511E+02  0.28119889609E+02  0.00000000000E+00 0. -1.
</event>
<event>
 7    1  0.2442667E-009  0.4778727E+02  0.7816164E-02  0.1312668E+00
        -11   -1    0    0    0    0  0.00000000000E+00  0.00000000000E+00  0.45593999997E+02  0.45594000000E+02  0.51100000000E-03 0.  1.
         11   -1    0    0    0    0 -0.00000000000E+00 -0.00000000000E+00 -0.45593999997E+02  0.45594000000E+02  0.51100000000E-03 0. -1.
    9900012    2    1    2    0    0  0.66993362238E+01 -0.27268600692E+02 -0.33093284814E+02  0.47787272018E+02  0.20000004441E+02 0.  0.
        -12    1    1    2    0    0 -0.66993362238E+01  0.27268600692E+02  0.33093284814E+02  0.43400727982E+02  0.00000000000E+00 0.  1.
         11    1    3    3    0    0 -0.12074799086E+01 -0.72980573006E+01 -0.40476710750E+00  0.74083388668E+01  0.51100000000E-03 0. -1.
        -11    1    3    3    0    0  0.72311856812E+01 -0.65160479948E+01 -0.97504467308E+01  0.13777522983E+02  0.51100000000E-03 0.  1.
         12    1    3    3    0    0  0.67563045119E+00 -0.13454495397E+02 -0.22938070976E+02  0.26601410169E+02  0.00000000000E+00 0. -1.
</event>
<event>
 7    1  0.2442667E-009  0.4778727E+02  0.7816164E-02  0.1312668E+00
        -11   -1    0    0    0    0  0.00000000000E+00  0.00000000000E+00  0.45593999997E+02  0.45594000000E+02  0.51100000000E-03 0. -1.
         11   -1    0    0    0    0 -0.00000000000E+00 -0.00000000000E+00 -0.45593999997E+02  0.45594000000E+02  0.51100000000E-03 0.  1.
    9900012    2    1    2    0    0  0.38969445717E+02  0.14738938916E+02  0.12156047946E+02  0.47787268191E+02  0.19999986992E+02 0.  0.
        -12    1    1    2    0    0 -0.38969445717E+02 -0.14738938916E+02 -0.12156047946E+02  0.43400731809E+02  0.00000000000E+00 0.  1.
         11    1    3    3    0    0 -0.10004210186E+00 -0.27477988052E+01  0.14787592501E+00  0.27535929703E+01  0.51100000000E-03 0. -1.
        -11    1    3    3    0    0  0.10562136895E+02  0.69012182229E+01  0.86292655359E+00  0.12646350907E+02  0.51100000000E-03 0.  1.
         12    1    3    3    0    0  0.28507350924E+02  0.10585519498E+02  0.11145245468E+02  0.32387324315E+02  0.00000000000E+00 0. -1.
</event>
<event>
 7    1  0.2442667E-009  0.4778727E+02  0.7816164E-02  0.1312668E+00
        -11   -1    0    0    0    0  0.00000000000E+00  0.00000000000E+00  0.45593999997E+02  0.45594000000E+02  0.51100000000E-03 0. -1.
         11   -1    0    0    0    0 -0.00000000000E+00 -0.00000000000E+00 -0.45593999997E+02  0.45594000000E+02  0.51100000000E-03 0.  1.
    9900012    2    1    2    0    0  0.19965870634E+02  0.37862292996E+02  0.71717672964E+01  0.47787268816E+02  0.19999989842E+02 0.  0.
        -12    1    1    2    0    0 -0.19965870634E+02 -0.37862292996E+02 -0.71717672964E+01  0.43400731184E+02  0.00000000000E+00 0.  1.
         11    1    3    3    0    0  0.48708928161E+01  0.33345905473E+01  0.51155954429E+00  0.59250978365E+01  0.51100000000E-03 0. -1.
        -11    1    3    3    0    0  0.61092962166E+01  0.78165585606E+01 -0.52993927253E+01  0.11247473117E+02  0.51100000000E-03 0.  1.
        -12    1    3    3    0    0  0.89856816011E+01  0.26711143889E+02  0.11959600477E+02  0.30614697863E+02  0.00000000000E+00 0.  1.
</event>
<event>
 7    1  0.2442667E-009  0.4778727E+02  0.7816164E-02  0.1312668E+00
        -11   -1    0    0    0    0  0.00000000000E+00  0.00000000000E+00  0.45593999997E+02  0.45594000000E+02  0.51100000000E-03 0.  1.
         11   -1    0    0    0    0 -0.00000000000E+00 -0.00000000000E+00 -0.45593999997E+02  0.45594000000E+02  0.51100000000E-03 0. -1.
    9900012    2    1    2    0    0  0.72416112849E+01 -0.37943513417E+02 -0.19785654823E+02  0.47787270960E+02  0.19999999616E+02 0.  0.
        -12    1    1    2    0    0 -0.72416112849E+01  0.37943513417E+02  0.19785654823E+02  0.43400729040E+02  0.00000000000E+00 0.  1.
         11    1    3    3    0    0  0.21053366010E+01 -0.40887852338E+01 -0.61013164678E+01  0.76404626688E+01  0.51100000000E-03 0. -1.
        -11    1    3    3    0    0  0.43948277694E+01 -0.24210105112E+02 -0.17015662510E+02  0.29916157367E+02  0.51100000000E-03 0.  1.
        -12    1    3    3    0    0  0.74144691451E+00 -0.96446230714E+01  0.33313241556E+01  0.10230650925E+02  0.00000000000E+00 0.  1.
</event>
<event>
 7    1  0.2442667E-009  0.4778727E+02  0.7816164E-02  0.1312668E+00
        -11   -1    0    0    0    0  0.00000000000E+00  0.00000000000E+00  0.45593999997E+02  0.45594000000E+02  0.51100000000E-03 0. -1.
         11   -1    0    0    0    0 -0.00000000000E+00 -0.00000000000E+00 -0.45593999997E+02  0.45594000000E+02  0.51100000000E-03 0.  1.
    9900012    2    1    2    0    0 -0.14106902552E+02 -0.39899210989E+02  0.96266149286E+01  0.47787268991E+02  0.19999990636E+02 0.  0.
        -12    1    1    2    0    0  0.14106902552E+02  0.39899210989E+02 -0.96266149286E+01  0.43400731009E+02  0.00000000000E+00 0.  1.
         11    1    3    3    0    0  0.40996177988E+01 -0.12694789072E+02  0.38653804415E+01  0.13889049712E+02  0.51100000000E-03 0. -1.
        -11    1    3    3    0    0 -0.16860706050E+02 -0.25639099597E+02  0.70218610548E+01  0.31479411837E+02  0.51100000000E-03 0.  1.
         12    1    3    3    0    0 -0.13458143008E+01 -0.15653223193E+01 -0.12606265677E+01  0.24188074414E+01  0.00000000000E+00 0. -1.
</event>
<event>
 7    1  0.2442667E-009  0.4778727E+02  0.7816164E-02  0.1312668E+00
        -11   -1    0    0    0    0  0.00000000000E+00  0.00000000000E+00  0.45593999997E+02  0.45594000000E+02  0.51100000000E-03 0.  1.
         11   -1    0    0    0    0 -0.00000000000E+00 -0.00000000000E+00 -0.45593999997E+02  0.45594000000E+02  0.51100000000E-03 0. -1.
    9900012    2    1    2    0    0 -0.42009040728E+02  0.10889748477E+02 -0.52651272164E+00  0.47787270278E+02  0.19999996504E+02 0.  0.
        -12    1    1    2    0    0  0.42009040728E+02 -0.10889748477E+02  0.52651272164E+00  0.43400729722E+02  0.00000000000E+00 0.  1.
         11    1    3    3    0    0 -0.23072752545E+01 -0.21265846181E+01 -0.69612887569E-01  0.31385868561E+01  0.51100000000E-03 0. -1.
        -11    1    3    3    0    0  0.65045133593E+00  0.26439954467E+01  0.11453373724E+01  0.29539121213E+01  0.51100000000E-03 0.  1.
        -12    1    3    3    0    0 -0.40352216809E+02  0.10372337648E+02 -0.16022372065E+01  0.41694771300E+02  0.00000000000E+00 0.  1.
</event>
<event>
 7    1  0.2442667E-009  0.4778729E+02  0.7816164E-02  0.1312668E+00
        -11   -1    0    0    0    0  0.00000000000E+00  0.00000000000E+00  0.45593999997E+02  0.45594000000E+02  0.51100000000E-03 0.  1.
         11   -1    0    0    0    0 -0.00000000000E+00 -0.00000000000E+00 -0.45593999997E+02  0.45594000000E+02  0.51100000000E-03 0. -1.
    9900012    2    1    2    0    0  0.17362897861E+02 -0.28224802282E+02 -0.28026987691E+02  0.47787288888E+02  0.20000081355E+02 0.  0.
        -12    1    1    2    0    0 -0.17362897861E+02  0.28224802282E+02  0.28026987691E+02  0.43400711112E+02  0.00000000000E+00 0.  1.
         11    1    3    3    0    0  0.17627102749E+02 -0.17389247867E+02 -0.25847574253E+02  0.35793823318E+02  0.51100000000E-03 0. -1.
        -11    1    3    3    0    0 -0.22761083770E+01 -0.56267550726E+01 -0.20553609001E+01  0.64082408414E+01  0.51100000000E-03 0.  1.
         12    1    3    3    0    0  0.20119034890E+01 -0.52087993422E+01 -0.12405253890E+00  0.55852247286E+01  0.00000000000E+00 0. -1.
</event>
<event>
 7    1  0.2442667E-009  0.4778727E+02  0.7816164E-02  0.1312668E+00
        -11   -1    0    0    0    0  0.00000000000E+00  0.00000000000E+00  0.45593999997E+02  0.45594000000E+02  0.51100000000E-03 0. -1.
         11   -1    0    0    0    0 -0.00000000000E+00 -0.00000000000E+00 -0.45593999997E+02  0.45594000000E+02  0.51100000000E-03 0.  1.
    9900012    2    1    2    0    0  0.46873721465E+01  0.19294406169E+02  0.38592457009E+02  0.47787270686E+02  0.19999998364E+02 0.  0.
        -12    1    1    2    0    0 -0.46873721465E+01 -0.19294406169E+02 -0.38592457009E+02  0.43400729314E+02  0.00000000000E+00 0.  1.
         11    1    3    3    0    0  0.37175348864E+01  0.54568864695E+01  0.23974383685E+02  0.24867021312E+02  0.51100000000E-03 0. -1.
        -11    1    3    3    0    0 -0.23126613421E+01  0.99301311837E+01  0.36612802928E+01  0.10833322734E+02  0.51100000000E-03 0.  1.
        -12    1    3    3    0    0  0.32824986022E+01  0.39073885154E+01  0.10956793031E+02  0.12086926640E+02  0.00000000000E+00 0.  1.
</event>
<event>
 7    1  0.2442667E-009  0.4778727E+02  0.7816164E-02  0.1312668E+00
        -11   -1    0    0    0    0  0.00000000000E+00  0.00000000000E+00  0.45593999997E+02  0.45594000000E+02  0.51100000000E-03 0. -1.
         11   -1    0    0    0    0 -0.00000000000E+00 -0.00000000000E+00 -0.45593999997E+02  0.45594000000E+02  0.51100000000E-03 0.  1.
    9900012    2    1    2    0    0  0.20207859161E+02  0.18167340260E+02  0.33841001175E+02  0.47787272074E+02  0.20000004693E+02 0.  0.
        -12    1    1    2    0    0 -0.20207859161E+02 -0.18167340260E+02 -0.33841001175E+02  0.43400727926E+02  0.00000000000E+00 0.  1.
         11    1    3    3    0    0  0.14391889029E+01  0.45036498699E+01  0.12127980404E+02  0.13016990274E+02  0.51100000000E-03 0. -1.
        -11    1    3    3    0    0  0.10453321703E+02  0.12453137891E+02  0.67401737206E+01  0.17600639761E+02  0.51100000000E-03 0.  1.
        -12    1    3    3    0    0  0.83153485550E+01  0.12105524995E+01  0.14972847050E+02  0.17169642039E+02  0.00000000000E+00 0.  1.
</event>
<event>
 7    1  0.2442667E-009  0.4778727E+02  0.7816164E-02  0.1312668E+00
        -11   -1    0    0    0    0  0.00000000000E+00  0.00000000000E+00  0.45593999997E+02  0.45594000000E+02  0.51100000000E-03 0.  1.
         11   -1    0    0    0    0 -0.00000000000E+00 -0.00000000000E+00 -0.45593999997E+02  0.45594000000E+02  0.51100000000E-03 0. -1.
    9900012    2    1    2    0    0  0.19405975127E+02 -0.25416032158E+02 -0.29343771697E+02  0.47787268454E+02  0.19999988188E+02 0.  0.
        -12    1    1    2    0    0 -0.19405975127E+02  0.25416032158E+02  0.29343771697E+02  0.43400731546E+02  0.00000000000E+00 0.  1.
         11    1    3    3    0    0  0.10477166724E+02 -0.17986585478E+02 -0.18203905303E+02  0.27652675246E+02  0.51100000000E-03 0. -1.
        -11    1    3    3    0    0  0.59751563038E+01  0.22063659984E+01 -0.62834774638E+01  0.89472137045E+01  0.51100000000E-03 0.  1.
         12    1    3    3    0    0  0.29536520993E+01 -0.96358126789E+01 -0.48563889304E+01  0.11187379503E+02  0.00000000000E+00 0. -1.
</event>
<event>
 7    1  0.2442667E-009  0.4778727E+02  0.7816164E-02  0.1312668E+00
        -11   -1    0    0    0    0  0.00000000000E+00  0.00000000000E+00  0.45593999997E+02  0.45594000000E+02  0.51100000000E-03 0.  1.
         11   -1    0    0    0    0 -0.00000000000E+00 -0.00000000000E+00 -0.45593999997E+02  0.45594000000E+02  0.51100000000E-03 0. -1.
    9900012    2    1    2    0    0 -0.39056902184E+02 -0.56188263736E+01 -0.18072375517E+02  0.47787267577E+02  0.19999984191E+02 0.  0.
        -12    1    1    2    0    0  0.39056902184E+02  0.56188263736E+01  0.18072375517E+02  0.43400732423E+02  0.00000000000E+00 0.  1.
         11    1    3    3    0    0 -0.20835348765E+02 -0.94205844417E+01 -0.16715979197E+02  0.28324602913E+02  0.51100000000E-03 0. -1.
        -11    1    3    3    0    0 -0.17537957711E+02  0.23750233537E+01 -0.59777905871E+00  0.17708134760E+02  0.51100000000E-03 0.  1.
         12    1    3    3    0    0 -0.68359570747E+00  0.14267347144E+01 -0.75861726133E+00  0.17545299045E+01  0.00000000000E+00 0. -1.
</event>
<event>
 7    1  0.2442667E-009  0.4778727E+02  0.7816164E-02  0.1312668E+00
        -11   -1    0    0    0    0  0.00000000000E+00  0.00000000000E+00  0.45593999997E+02  0.45594000000E+02  0.51100000000E-03 0.  1.
         11   -1    0    0    0    0 -0.00000000000E+00 -0.00000000000E+00 -0.45593999997E+02  0.45594000000E+02  0.51100000000E-03 0. -1.
    9900012    2    1    2    0    0 -0.61164331308E+01  0.22686352844E+01 -0.42907642783E+02  0.47787271095E+02  0.20000000231E+02 0.  0.
        -12    1    1    2    0    0  0.61164331308E+01 -0.22686352844E+01  0.42907642783E+02  0.43400728905E+02  0.00000000000E+00 0.  1.
         11    1    3    3    0    0 -0.35492086944E+01 -0.66129926434E+01 -0.20216517904E+02  0.21564696856E+02  0.51100000000E-03 0. -1.
        -11    1    3    3    0    0  0.18362868522E+01  0.34215865754E+01 -0.19861019422E+01  0.43616287419E+01  0.51100000000E-03 0.  1.
         12    1    3    3    0    0 -0.44035112886E+01  0.54600413524E+01 -0.20705022936E+02  0.21860945497E+02  0.00000000000E+00 0. -1.
</event>
<event>
 7    1  0.2442667E-009  0.4778727E+02  0.7816164E-02  0.1312668E+00
        -11   -1    0    0    0    0  0.00000000000E+00  0.00000000000E+00  0.45593999997E+02  0.45594000000E+02  0.51100000000E-03 0.  1.
         11   -1    0    0    0    0 -0.00000000000E+00 -0.00000000000E+00 -0.45593999997E+02  0.45594000000E+02  0.51100000000E-03 0. -1.
    9900012    2    1    2    0    0  0.87453305248E+01  0.39011643518E+02 -0.16888881726E+02  0.47787268878E+02  0.19999990122E+02 0.  0.
        -12    1    1    2    0    0 -0.87453305248E+01 -0.39011643518E+02  0.16888881726E+02  0.43400731122E+02  0.00000000000E+00 0.  1.
         11    1    3    3    0    0 -0.50455959242E+00  0.10836193561E+01 -0.22171686618E+01  0.25188585564E+01  0.51100000000E-03 0. -1.
        -11    1    3    3    0    0  0.61865313997E+01  0.13809184800E+02 -0.14496646600E+02  0.20955178799E+02  0.51100000000E-03 0.  1.
        -12    1    3    3    0    0  0.30633587175E+01  0.24118839362E+02 -0.17506646431E+00  0.24313231522E+02  0.00000000000E+00 0.  1.
</event>
<event>
 7    1  0.2442667E-009  0.4778727E+02  0.7816164E-02  0.1312668E+00
        -11   -1    0    0    0    0  0.00000000000E+00  0.00000000000E+00  0.45593999997E+02  0.45594000000E+02  0.51100000000E-03 0.  1.
         11   -1    0    0    0    0 -0.00000000000E+00 -0.00000000000E+00 -0.45593999997E+02  0.45594000000E+02  0.51100000000E-03 0. -1.
    9900012    2    1    2    0    0 -0.19828967980E+02  0.73179011905E+01 -0.37906246358E+02  0.47787272334E+02  0.20000005881E+02 0.  0.
        -12    1    1    2    0    0  0.19828967980E+02 -0.73179011905E+01  0.37906246358E+02  0.43400727666E+02  0.00000000000E+00 0.  1.
         11    1    3    3    0    0  0.98922581278E+00  0.14861865704E+00 -0.16998497014E+02  0.17027905221E+02  0.51100000000E-03 0. -1.
        -11    1    3    3    0    0 -0.15435640460E+02  0.59772524713E+01 -0.12660823120E+02  0.20839457427E+02  0.51100000000E-03 0.  1.
         12    1    3    3    0    0 -0.53825533328E+01  0.11920300622E+01 -0.82469262242E+01  0.99199096869E+01  0.00000000000E+00 0. -1.
</event>
<event>
 7    1  0.2442667E-009  0.4778727E+02  0.7816164E-02  0.1312668E+00
        -11   -1    0    0    0    0  0.00000000000E+00  0.00000000000E+00  0.45593999997E+02  0.45594000000E+02  0.51100000000E-03 0.  1.
         11   -1    0    0    0    0 -0.00000000000E+00 -0.00000000000E+00 -0.45593999997E+02  0.45594000000E+02  0.51100000000E-03 0. -1.
    9900012    2    1    2    0    0 -0.16297284355E+02 -0.19411371824E+02 -0.35230960497E+02  0.47787269464E+02  0.19999992796E+02 0.  0.
        -12    1    1    2    0    0  0.16297284355E+02  0.19411371824E+02  0.35230960497E+02  0.43400730536E+02  0.00000000000E+00 0.  1.
         11    1    3    3    0    0 -0.11407813089E+02 -0.77441260134E+01 -0.30437211342E+02  0.33414570500E+02  0.51100000000E-03 0.  1.
        -11    1    3    3    0    0 -0.55689065671E+01 -0.11342965365E+02 -0.39441253414E+01  0.13237511420E+02  0.51100000000E-03 0. -1.
        -12    1    3    3    0    0  0.67943530048E+00 -0.32428044521E+00 -0.84962381444E+00  0.11351875443E+01  0.00000000000E+00 0.  1.
</event>
<event>
 7    1  0.2442667E-009  0.4778727E+02  0.7816164E-02  0.1312668E+00
        -11   -1    0    0    0    0  0.00000000000E+00  0.00000000000E+00  0.45593999997E+02  0.45594000000E+02  0.51100000000E-03 0. -1.
         11   -1    0    0    0    0 -0.00000000000E+00 -0.00000000000E+00 -0.45593999997E+02  0.45594000000E+02  0.51100000000E-03 0.  1.
    9900012    2    1    2    0    0 -0.29931077076E+02 -0.20734967911E+02  0.23618106526E+02  0.47787271607E+02  0.20000002565E+02 0.  0.
        -12    1    1    2    0    0  0.29931077076E+02  0.20734967911E+02 -0.23618106526E+02  0.43400728393E+02  0.00000000000E+00 0.  1.
         11    1    3    3    0    0 -0.98407130093E+01  0.15821325753E+01  0.38149455718E+01  0.10672234349E+02  0.51100000000E-03 0. -1.
        -11    1    3    3    0    0 -0.12536594049E+02 -0.15600651349E+02  0.79438402076E+01  0.21532559309E+02  0.51100000000E-03 0.  1.
         12    1    3    3    0    0 -0.75537700175E+01 -0.67164491371E+01  0.11859320746E+02  0.15582477950E+02  0.00000000000E+00 0. -1.
</event>
<event>
 7    1  0.2442667E-009  0.4778727E+02  0.7816164E-02  0.1312668E+00
        -11   -1    0    0    0    0  0.00000000000E+00  0.00000000000E+00  0.45593999997E+02  0.45594000000E+02  0.51100000000E-03 0. -1.
         11   -1    0    0    0    0 -0.00000000000E+00 -0.00000000000E+00 -0.45593999997E+02  0.45594000000E+02  0.51100000000E-03 0.  1.
    9900012    2    1    2    0    0  0.34673462783E+02 -0.15856107457E+02 -0.20735430755E+02  0.47787271277E+02  0.20000001061E+02 0.  0.
        -12    1    1    2    0    0 -0.34673462783E+02  0.15856107457E+02  0.20735430755E+02  0.43400728723E+02  0.00000000000E+00 0.  1.
         11    1    3    3    0    0  0.11411970470E+02 -0.57311610020E+01 -0.31935509985E+01  0.13163511867E+02  0.51100000000E-03 0. -1.
        -11    1    3    3    0    0  0.35758528746E+01  0.17476258374E+01  0.19973995180E+01  0.44531477568E+01  0.51100000000E-03 0.  1.
        -12    1    3    3    0    0  0.19685639439E+02 -0.11872572293E+02 -0.19539279275E+02  0.30170611653E+02  0.00000000000E+00 0.  1.
</event>
<event>
 7    1  0.2442667E-009  0.4778727E+02  0.7816164E-02  0.1312668E+00
        -11   -1    0    0    0    0  0.00000000000E+00  0.00000000000E+00  0.45593999997E+02  0.45594000000E+02  0.51100000000E-03 0.  1.
         11   -1    0    0    0    0 -0.00000000000E+00 -0.00000000000E+00 -0.45593999997E+02  0.45594000000E+02  0.51100000000E-03 0. -1.
    9900012    2    1    2    0    0 -0.26983153846E+02 -0.29590813237E+02 -0.16730706485E+02  0.47787270064E+02  0.19999995531E+02 0.  0.
        -12    1    1    2    0    0  0.26983153846E+02  0.29590813237E+02  0.16730706485E+02  0.43400729936E+02  0.00000000000E+00 0.  1.
         11    1    3    3    0    0 -0.45666653685E+01 -0.49005791973E+01  0.44561367569E+01  0.80453256065E+01  0.51100000000E-03 0. -1.
        -11    1    3    3    0    0 -0.94356514282E+01 -0.11175083502E+02 -0.11747709705E+02  0.18759602681E+02  0.51100000000E-03 0.  1.
         12    1    3    3    0    0 -0.12980837049E+02 -0.13515150537E+02 -0.94391335361E+01  0.20982341777E+02  0.00000000000E+00 0. -1.
</event>
<event>
 7    1  0.2442667E-009  0.4778728E+02  0.7816164E-02  0.1312668E+00
        -11   -1    0    0    0    0  0.00000000000E+00  0.00000000000E+00  0.45593999997E+02  0.45594000000E+02  0.51100000000E-03 0. -1.
         11   -1    0    0    0    0 -0.00000000000E+00 -0.00000000000E+00 -0.45593999997E+02  0.45594000000E+02  0.51100000000E-03 0.  1.
    9900012    2    1    2    0    0  0.21517535779E+02 -0.24866818351E+01  0.37608973945E+02  0.47787275884E+02  0.20000022068E+02 0.  0.
        -12    1    1    2    0    0 -0.21517535779E+02  0.24866818351E+01 -0.37608973945E+02  0.43400724116E+02  0.00000000000E+00 0.  1.
         11    1    3    3    0    0  0.36045267315E+01 -0.11554034986E+01  0.20248626348E+02  0.20599379589E+02  0.51100000000E-03 0. -1.
        -11    1    3    3    0    0  0.17548009406E+02  0.17454160093E+01  0.13338125403E+02  0.22110737226E+02  0.51100000000E-03 0.  1.
        -12    1    3    3    0    0  0.36499964113E+00 -0.30766943458E+01  0.40222221944E+01  0.50771590694E+01  0.00000000000E+00 0.  1.
</event>
<event>
 7    1  0.2442667E-009  0.4778727E+02  0.7816164E-02  0.1312668E+00
        -11   -1    0    0    0    0  0.00000000000E+00  0.00000000000E+00  0.45593999997E+02  0.45594000000E+02  0.51100000000E-03 0.  1.
         11   -1    0    0    0    0 -0.00000000000E+00 -0.00000000000E+00 -0.45593999997E+02  0.45594000000E+02  0.51100000000E-03 0. -1.
    9900012    2    1    2    0    0  0.22339979345E+02 -0.36512860846E+02 -0.71665610944E+01  0.47787270948E+02  0.19999999563E+02 0.  0.
        -12    1    1    2    0    0 -0.22339979345E+02  0.36512860846E+02  0.71665610944E+01  0.43400729052E+02  0.00000000000E+00 0.  1.
         11    1    3    3    0    0  0.43517443658E+00 -0.57757537362E+01 -0.11531465774E-01  0.57921361558E+01  0.51100000000E-03 0. -1.
        -11    1    3    3    0    0  0.31362304720E+01 -0.10891188704E+02  0.46339766245E+01  0.12244495603E+02  0.51100000000E-03 0.  1.
        -12    1    3    3    0    0  0.18768574437E+02 -0.19845918405E+02 -0.11789006253E+02  0.29750639189E+02  0.00000000000E+00 0.  1.
</event>
<event>
 7    1  0.2442667E-009  0.4778727E+02  0.7816164E-02  0.1312668E+00
        -11   -1    0    0    0    0  0.00000000000E+00  0.00000000000E+00  0.45593999997E+02  0.45594000000E+02  0.51100000000E-03 0. -1.
         11   -1    0    0    0    0 -0.00000000000E+00 -0.00000000000E+00 -0.45593999997E+02  0.45594000000E+02  0.51100000000E-03 0.  1.
    9900012    2    1    2    0    0  0.57702862200E+01 -0.39318689646E+02  0.17446134123E+02  0.47787272421E+02  0.20000006276E+02 0.  0.
        -12    1    1    2    0    0 -0.57702862200E+01  0.39318689646E+02 -0.17446134123E+02  0.43400727579E+02  0.00000000000E+00 0.  1.
         11    1    3    3    0    0  0.11735132229E+01 -0.22324047003E+02  0.86106865501E+01  0.23955878841E+02  0.51100000000E-03 0. -1.
        -11    1    3    3    0    0  0.42930025567E+01 -0.58024126665E+01  0.10260255427E+02  0.12544748120E+02  0.51100000000E-03 0.  1.
        -12    1    3    3    0    0  0.30377044038E+00 -0.11192229976E+02 -0.14248078546E+01  0.11286645460E+02  0.00000000000E+00 0.  1.
</event>
<event>
 7    1  0.2442667E-009  0.4778727E+02  0.7816164E-02  0.1312668E+00
        -11   -1    0    0    0    0  0.00000000000E+00  0.00000000000E+00  0.45593999997E+02  0.45594000000E+02  0.51100000000E-03 0. -1.
         11   -1    0    0    0    0 -0.00000000000E+00 -0.00000000000E+00 -0.45593999997E+02  0.45594000000E+02  0.51100000000E-03 0.  1.
    9900012    2    1    2    0    0 -0.17130052177E+00 -0.35452866827E+02  0.25033737432E+02  0.47787272818E+02  0.20000008085E+02 0.  0.
        -12    1    1    2    0    0  0.17130052177E+00  0.35452866827E+02 -0.25033737432E+02  0.43400727182E+02  0.00000000000E+00 0.  1.
         11    1    3    3    0    0 -0.69657820218E+01 -0.21156401291E+02  0.16453316306E+02  0.27691642286E+02  0.51100000000E-03 0. -1.
        -11    1    3    3    0    0  0.46849835861E+01 -0.14090106897E+02  0.45301081082E+01  0.15524241151E+02  0.51100000000E-03 0.  1.
        -12    1    3    3    0    0  0.21094979139E+01 -0.20635863952E+00  0.40503130176E+01  0.45713893815E+01  0.00000000000E+00 0.  1.
</event>
<event>
 7    1  0.2442667E-009  0.4778727E+02  0.7816164E-02  0.1312668E+00
        -11   -1    0    0    0    0  0.00000000000E+00  0.00000000000E+00  0.45593999997E+02  0.45594000000E+02  0.51100000000E-03 0. -1.
         11   -1    0    0    0    0 -0.00000000000E+00 -0.00000000000E+00 -0.45593999997E+02  0.45594000000E+02  0.51100000000E-03 0.  1.
    9900012    2    1    2    0    0 -0.25580380025E+01  0.28380096489E+02  0.32736066671E+02  0.47787268483E+02  0.19999988319E+02 0.  0.
        -12    1    1    2    0    0  0.25580380025E+01 -0.28380096489E+02 -0.32736066671E+02  0.43400731517E+02  0.00000000000E+00 0.  1.
         11    1    3    3    0    0  0.33967179680E+01  0.24547507613E+02  0.29565788065E+02  0.38577890652E+02  0.51100000000E-03 0. -1.
        -11    1    3    3    0    0 -0.41225419803E+01  0.24213187253E+00  0.80403227340E-01  0.41304291742E+01  0.51100000000E-03 0.  1.
         12    1    3    3    0    0 -0.18322139901E+01  0.35904570032E+01  0.30898753787E+01  0.50789486563E+01  0.00000000000E+00 0. -1.
</event>
<event>
 7    1  0.2442667E-009  0.4778728E+02  0.7816164E-02  0.1312668E+00
        -11   -1    0    0    0    0  0.00000000000E+00  0.00000000000E+00  0.45593999997E+02  0.45594000000E+02  0.51100000000E-03 0. -1.
         11   -1    0    0    0    0 -0.00000000000E+00 -0.00000000000E+00 -0.45593999997E+02  0.45594000000E+02  0.51100000000E-03 0.  1.
    9900012    2    1    2    0    0  0.44522245074E+01 -0.14698199294E+02  0.40592651248E+02  0.47787277645E+02  0.20000030096E+02 0.  0.
        -12    1    1    2    0    0 -0.44522245074E+01  0.14698199294E+02 -0.40592651248E+02  0.43400722355E+02  0.00000000000E+00 0.  1.
         11    1    3    3    0    0  0.53374260413E+01 -0.10878002168E+02  0.38028438051E+02  0.39912167929E+02  0.51100000000E-03 0. -1.
        -11    1    3    3    0    0  0.11514028659E+01 -0.93289795814E+00  0.38419719038E+01  0.41178605526E+01  0.51100000000E-03 0.  1.
         12    1    3    3    0    0 -0.20366043998E+01 -0.28872991685E+01 -0.12777587066E+01  0.37572491642E+01  0.00000000000E+00 0. -1.
</event>
<event>
 7    1  0.2442667E-009  0.4778727E+02  0.7816164E-02  0.1312668E+00
        -11   -1    0    0    0    0  0.00000000000E+00  0.00000000000E+00  0.45593999997E+02  0.45594000000E+02  0.51100000000E-03 0.  1.
         11   -1    0    0    0    0 -0.00000000000E+00 -0.00000000000E+00 -0.45593999997E+02  0.45594000000E+02  0.51100000000E-03 0. -1.
    9900012    2    1    2    0    0 -0.42589937450E+02  0.26123378952E+01 -0.79307016493E+01  0.47787272934E+02  0.20000008614E+02 0.  0.
        -12    1    1    2    0    0  0.42589937450E+02 -0.26123378952E+01  0.79307016493E+01  0.43400727066E+02  0.00000000000E+00 0.  1.
         11    1    3    3    0    0 -0.28104127713E+02  0.92150929708E+01 -0.51604928459E+01  0.30023168049E+02  0.51100000000E-03 0. -1.
        -11    1    3    3    0    0 -0.32096079792E+01 -0.29471728579E+01 -0.39112569294E+01  0.58553686701E+01  0.51100000000E-03 0.  1.
         12    1    3    3    0    0 -0.11276201757E+02 -0.36555822177E+01  0.11410481260E+01  0.11908736215E+02  0.00000000000E+00 0. -1.
</event>
<event>
 7    1  0.2442667E-009  0.4778727E+02  0.7816164E-02  0.1312668E+00
        -11   -1    0    0    0    0  0.00000000000E+00  0.00000000000E+00  0.45593999997E+02  0.45594000000E+02  0.51100000000E-03 0.  1.
         11   -1    0    0    0    0 -0.00000000000E+00 -0.00000000000E+00 -0.45593999997E+02  0.45594000000E+02  0.51100000000E-03 0. -1.
    9900012    2    1    2    0    0 -0.23665750917E+02  0.13845855725E+01 -0.36354345622E+02  0.47787270867E+02  0.19999999191E+02 0.  0.
        -12    1    1    2    0    0  0.23665750917E+02 -0.13845855725E+01  0.36354345622E+02  0.43400729133E+02  0.00000000000E+00 0.  1.
         11    1    3    3    0    0 -0.14488415830E+02  0.37030699213E+01 -0.26264268057E+02  0.30223148362E+02  0.51100000000E-03 0. -1.
        -11    1    3    3    0    0 -0.94311811830E+01 -0.76842780415E+00 -0.24640183055E+01  0.97779878435E+01  0.51100000000E-03 0.  1.
         12    1    3    3    0    0  0.25384609555E+00 -0.15500565447E+01 -0.76260592596E+01  0.77861346612E+01  0.00000000000E+00 0. -1.
</event>
<event>
 7    1  0.2442667E-009  0.4778727E+02  0.7816164E-02  0.1312668E+00
        -11   -1    0    0    0    0  0.00000000000E+00  0.00000000000E+00  0.45593999997E+02  0.45594000000E+02  0.51100000000E-03 0.  1.
         11   -1    0    0    0    0 -0.00000000000E+00 -0.00000000000E+00 -0.45593999997E+02  0.45594000000E+02  0.51100000000E-03 0. -1.
    9900012    2    1    2    0    0  0.37123317138E+02 -0.12773463269E+02 -0.18501925470E+02  0.47787270912E+02  0.19999999398E+02 0.  0.
        -12    1    1    2    0    0 -0.37123317138E+02  0.12773463269E+02  0.18501925470E+02  0.43400729088E+02  0.00000000000E+00 0.  1.
         11    1    3    3    0    0  0.87902212907E+01 -0.96700444913E+01 -0.22819508526E+01  0.13265935729E+02  0.51100000000E-03 0. -1.
        -11    1    3    3    0    0  0.84784188373E+01  0.17975468473E+01 -0.98090761992E+01  0.13089413157E+02  0.51100000000E-03 0.  1.
        -12    1    3    3    0    0  0.19854677010E+02 -0.49009656245E+01 -0.64108984185E+01  0.21431922027E+02  0.00000000000E+00 0.  1.
</event>
<event>
 7    1  0.2442667E-009  0.4778728E+02  0.7816164E-02  0.1312668E+00
        -11   -1    0    0    0    0  0.00000000000E+00  0.00000000000E+00  0.45593999997E+02  0.45594000000E+02  0.51100000000E-03 0. -1.
         11   -1    0    0    0    0 -0.00000000000E+00 -0.00000000000E+00 -0.45593999997E+02  0.45594000000E+02  0.51100000000E-03 0.  1.
    9900012    2    1    2    0    0  0.33192724542E+02  0.95674820461E+01 -0.26274115932E+02  0.47787276005E+02  0.20000022618E+02 0.  0.
        -12    1    1    2    0    0 -0.33192724542E+02 -0.95674820461E+01  0.26274115932E+02  0.43400723995E+02  0.00000000000E+00 0.  1.
         11    1    3    3    0    0  0.18934471646E+02  0.47560851088E+01 -0.23154926789E+02  0.30286716510E+02  0.51100000000E-03 0. -1.
        -11    1    3    3    0    0  0.65206409728E+01 -0.10309948020E+01  0.14860814368E+01  0.67668417504E+01  0.51100000000E-03 0.  1.
         12    1    3    3    0    0  0.77376119239E+01  0.58423917393E+01 -0.46052705800E+01  0.10733717745E+02  0.00000000000E+00 0. -1.
</event>
<event>
 7    1  0.2442667E-009  0.4778727E+02  0.7816164E-02  0.1312668E+00
        -11   -1    0    0    0    0  0.00000000000E+00  0.00000000000E+00  0.45593999997E+02  0.45594000000E+02  0.51100000000E-03 0.  1.
         11   -1    0    0    0    0 -0.00000000000E+00 -0.00000000000E+00 -0.45593999997E+02  0.45594000000E+02  0.51100000000E-03 0. -1.
    9900012    2    1    2    0    0  0.10840610269E+02  0.49054377113E+01 -0.41737763641E+02  0.47787273464E+02  0.20000011032E+02 0.  0.
        -12    1    1    2    0    0 -0.10840610269E+02 -0.49054377113E+01  0.41737763641E+02  0.43400726536E+02  0.00000000000E+00 0.  1.
         11    1    3    3    0    0 -0.37965425514E+01  0.28277848001E+01 -0.21992273463E+01  0.52198374881E+01  0.51100000000E-03 0. -1.
        -11    1    3    3    0    0  0.13380887577E+02  0.11533209301E+00 -0.32264809021E+02  0.34929634342E+02  0.51100000000E-03 0.  1.
         12    1    3    3    0    0  0.12562652428E+01  0.19623208182E+01 -0.72737272733E+01  0.76378016340E+01  0.00000000000E+00 0. -1.
</event>
<event>
 7    1  0.2442667E-009  0.4778727E+02  0.7816164E-02  0.1312668E+00
        -11   -1    0    0    0    0  0.00000000000E+00  0.00000000000E+00  0.45593999997E+02  0.45594000000E+02  0.51100000000E-03 0.  1.
         11   -1    0    0    0    0 -0.00000000000E+00 -0.00000000000E+00 -0.45593999997E+02  0.45594000000E+02  0.51100000000E-03 0. -1.
    9900012    2    1    2    0    0 -0.27741866677E+02 -0.37158245829E-01 -0.33376806953E+02  0.47787265100E+02  0.19999972897E+02 0.  0.
        -12    1    1    2    0    0  0.27741866677E+02  0.37158245829E-01  0.33376806953E+02  0.43400734900E+02  0.00000000000E+00 0.  1.
         11    1    3    3    0    0 -0.74381255053E+01 -0.56008051946E+01 -0.54198497081E+01  0.10773555633E+02  0.51100000000E-03 0. -1.
        -11    1    3    3    0    0 -0.17325273450E+02  0.89911665753E+01 -0.20687234292E+02  0.28442359948E+02  0.51100000000E-03 0.  1.
        -12    1    3    3    0    0 -0.29784677216E+01 -0.34275196265E+01 -0.72697229534E+01  0.85713495191E+01  0.00000000000E+00 0.  1.
</event>
<event>
 7    1  0.2442667E-009  0.4778727E+02  0.7816164E-02  0.1312668E+00
        -11   -1    0    0    0    0  0.00000000000E+00  0.00000000000E+00  0.45593999997E+02  0.45594000000E+02  0.51100000000E-03 0.  1.
         11   -1    0    0    0    0 -0.00000000000E+00 -0.00000000000E+00 -0.45593999997E+02  0.45594000000E+02  0.51100000000E-03 0. -1.
    9900012    2    1    2    0    0  0.32832912481E+02 -0.28132754286E+02 -0.37644837105E+01  0.47787270245E+02  0.19999996353E+02 0.  0.
        -12    1    1    2    0    0 -0.32832912481E+02  0.28132754286E+02  0.37644837105E+01  0.43400729755E+02  0.00000000000E+00 0.  1.
         11    1    3    3    0    0  0.50681327385E+01 -0.36280354579E+01 -0.30879249091E+01  0.69558530206E+01  0.51100000000E-03 0. -1.
        -11    1    3    3    0    0  0.44928180910E+00 -0.72760034747E+01 -0.40861578163E+01  0.83569591760E+01  0.51100000000E-03 0.  1.
        -12    1    3    3    0    0  0.27315497934E+02 -0.17228715353E+02  0.34095990149E+01  0.32474458048E+02  0.00000000000E+00 0.  1.
</event>
<event>
 7    1  0.2442667E-009  0.4778728E+02  0.7816164E-02  0.1312668E+00
        -11   -1    0    0    0    0  0.00000000000E+00  0.00000000000E+00  0.45593999997E+02  0.45594000000E+02  0.51100000000E-03 0. -1.
         11   -1    0    0    0    0 -0.00000000000E+00 -0.00000000000E+00 -0.45593999997E+02  0.45594000000E+02  0.51100000000E-03 0.  1.
    9900012    2    1    2    0    0 -0.24561957547E+01 -0.34644475782E+02  0.26025954303E+02  0.47787275384E+02  0.20000019788E+02 0.  0.
        -12    1    1    2    0    0  0.24561957547E+01  0.34644475782E+02 -0.26025954303E+02  0.43400724616E+02  0.00000000000E+00 0.  1.
         11    1    3    3    0    0 -0.88507683186E+01 -0.78812845575E+01  0.40716707724E+01  0.12531131204E+02  0.51100000000E-03 0. -1.
        -11    1    3    3    0    0  0.31454447591E+01 -0.13153861165E+02  0.12044776981E+02  0.18110619511E+02  0.51100000000E-03 0.  1.
         12    1    3    3    0    0  0.32491278047E+01 -0.13609330059E+02  0.99095065493E+01  0.17145524670E+02  0.00000000000E+00 0. -1.
</event>
<event>
 7    1  0.2442667E-009  0.4778727E+02  0.7816164E-02  0.1312668E+00
        -11   -1    0    0    0    0  0.00000000000E+00  0.00000000000E+00  0.45593999997E+02  0.45594000000E+02  0.51100000000E-03 0.  1.
         11   -1    0    0    0    0 -0.00000000000E+00 -0.00000000000E+00 -0.45593999997E+02  0.45594000000E+02  0.51100000000E-03 0. -1.
    9900012    2    1    2    0    0  0.25699476262E+02  0.10399811060E+02 -0.33391679806E+02  0.47787269240E+02  0.19999991774E+02 0.  0.
        -12    1    1    2    0    0 -0.25699476262E+02 -0.10399811060E+02  0.33391679806E+02  0.43400730760E+02  0.00000000000E+00 0.  1.
         11    1    3    3    0    0  0.68330656909E+01 -0.25902602021E+00 -0.21495411241E+02  0.22556830138E+02  0.51100000000E-03 0. -1.
        -11    1    3    3    0    0  0.67560404565E+01  0.65112344094E+01 -0.40783789410E+01  0.10231003432E+02  0.51100000000E-03 0.  1.
         12    1    3    3    0    0  0.12110370115E+02  0.41476026707E+01 -0.78178896240E+01  0.14999435670E+02  0.00000000000E+00 0. -1.
</event>
<event>
 7    1  0.2442667E-009  0.4778730E+02  0.7816164E-02  0.1312668E+00
        -11   -1    0    0    0    0  0.00000000000E+00  0.00000000000E+00  0.45593999997E+02  0.45594000000E+02  0.51100000000E-03 0.  1.
         11   -1    0    0    0    0 -0.00000000000E+00 -0.00000000000E+00 -0.45593999997E+02  0.45594000000E+02  0.51100000000E-03 0. -1.
    9900012    2    1    2    0    0  0.47070543355E+01  0.17207312591E+02 -0.39564788646E+02  0.47787303373E+02  0.20000147397E+02 0.  0.
        -12    1    1    2    0    0 -0.47070543355E+01 -0.17207312591E+02  0.39564788646E+02  0.43400696627E+02  0.00000000000E+00 0.  1.
         11    1    3    3    0    0  0.34650070274E+01  0.13971368201E+02 -0.33023149685E+02  0.36024072764E+02  0.51100000000E-03 0. -1.
        -11    1    3    3    0    0  0.31141625683E+01  0.32218726350E+01  0.47043851785E+00  0.45055282085E+01  0.51100000000E-03 0.  1.
        -12    1    3    3    0    0 -0.18721152602E+01  0.14071754535E-01 -0.70120774791E+01  0.72577024005E+01  0.00000000000E+00 0.  1.
</event>
<event>
 7    1  0.2442667E-009  0.4778727E+02  0.7816164E-02  0.1312668E+00
        -11   -1    0    0    0    0  0.00000000000E+00  0.00000000000E+00  0.45593999997E+02  0.45594000000E+02  0.51100000000E-03 0.  1.
         11   -1    0    0    0    0 -0.00000000000E+00 -0.00000000000E+00 -0.45593999997E+02  0.45594000000E+02  0.51100000000E-03 0. -1.
    9900012    2    1    2    0    0  0.91524766827E+01  0.41855891223E+02 -0.69238558484E+01  0.47787271442E+02  0.20000001815E+02 0.  0.
        -12    1    1    2    0    0 -0.91524766827E+01 -0.41855891223E+02  0.69238558484E+01  0.43400728558E+02  0.00000000000E+00 0.  1.
         11    1    3    3    0    0  0.45222022048E+00 -0.15372332955E+01 -0.19000191361E+01  0.24854903563E+01  0.51100000000E-03 0. -1.
        -11    1    3    3    0    0  0.34120829718E+00  0.12855590348E+02  0.15881216556E+01  0.12957806796E+02  0.51100000000E-03 0.  1.
         12    1    3    3    0    0  0.83590481650E+01  0.30537534170E+02 -0.66119583680E+01  0.32343974290E+02  0.00000000000E+00 0. -1.
</event>
<event>
 7    1  0.2442667E-009  0.4778728E+02  0.7816164E-02  0.1312668E+00
        -11   -1    0    0    0    0  0.00000000000E+00  0.00000000000E+00  0.45593999997E+02  0.45594000000E+02  0.51100000000E-03 0.  1.
         11   -1    0    0    0    0 -0.00000000000E+00 -0.00000000000E+00 -0.45593999997E+02  0.45594000000E+02  0.51100000000E-03 0. -1.
    9900012    2    1    2    0    0 -0.14905159822E+02 -0.25960044365E+02 -0.31425072868E+02  0.47787275381E+02  0.20000019771E+02 0.  0.
        -12    1    1    2    0    0  0.14905159822E+02  0.25960044365E+02  0.31425072868E+02  0.43400724619E+02  0.00000000000E+00 0.  1.
         11    1    3    3    0    0 -0.82685157527E+01 -0.92688743814E+01 -0.17948445609E+02  0.21827209742E+02  0.51100000000E-03 0. -1.
        -11    1    3    3    0    0  0.27853840847E+01 -0.66880381159E+01 -0.84369980320E+00  0.72938362991E+01  0.51100000000E-03 0.  1.
        -12    1    3    3    0    0 -0.94220281540E+01 -0.10003131867E+02 -0.12632927455E+02  0.18666229340E+02  0.00000000000E+00 0.  1.
</event>
<event>
 7    1  0.2442667E-009  0.4778727E+02  0.7816164E-02  0.1312668E+00
        -11   -1    0    0    0    0  0.00000000000E+00  0.00000000000E+00  0.45593999997E+02  0.45594000000E+02  0.51100000000E-03 0.  1.
         11   -1    0    0    0    0 -0.00000000000E+00 -0.00000000000E+00 -0.45593999997E+02  0.45594000000E+02  0.51100000000E-03 0. -1.
    9900012    2    1    2    0    0  0.73911246413E+01 -0.40560937105E+02 -0.13557468936E+02  0.47787270672E+02  0.19999998301E+02 0.  0.
        -12    1    1    2    0    0 -0.73911246413E+01  0.40560937105E+02  0.13557468936E+02  0.43400729328E+02  0.00000000000E+00 0.  1.
         11    1    3    3    0    0  0.10202192926E+02 -0.14508014003E+02 -0.25393936660E+01  0.17916911879E+02  0.51100000000E-03 0.  1.
        -11    1    3    3    0    0 -0.45184588198E+01 -0.15610576981E+02 -0.28407769377E+01  0.16497775536E+02  0.51100000000E-03 0. -1.
         12    1    3    3    0    0  0.17073905348E+01 -0.10442346121E+02 -0.81772983323E+01  0.13372583257E+02  0.00000000000E+00 0. -1.
</event>
<event>
 7    1  0.2442667E-009  0.4778727E+02  0.7816164E-02  0.1312668E+00
        -11   -1    0    0    0    0  0.00000000000E+00  0.00000000000E+00  0.45593999997E+02  0.45594000000E+02  0.51100000000E-03 0. -1.
         11   -1    0    0    0    0 -0.00000000000E+00 -0.00000000000E+00 -0.45593999997E+02  0.45594000000E+02  0.51100000000E-03 0.  1.
    9900012    2    1    2    0    0 -0.40536984052E+02 -0.48928388750E+01 -0.14711773033E+02  0.47787271733E+02  0.20000003141E+02 0.  0.
        -12    1    1    2    0    0  0.40536984052E+02  0.48928388750E+01  0.14711773033E+02  0.43400728267E+02  0.00000000000E+00 0.  1.
         11    1    3    3    0    0 -0.21326682452E+02  0.45718190483E+01 -0.10708760194E+02  0.24298280988E+02  0.51100000000E-03 0. -1.
        -11    1    3    3    0    0 -0.13727027474E+02 -0.62897997863E+01  0.13970521046E+01  0.15163924936E+02  0.51100000000E-03 0.  1.
        -12    1    3    3    0    0 -0.54832741266E+01 -0.31748581371E+01 -0.54000649433E+01  0.83250658093E+01  0.00000000000E+00 0.  1.
</event>
<event>
 7    1  0.2442667E-009  0.4778727E+02  0.7816164E-02  0.1312668E+00
        -11   -1    0    0    0    0  0.00000000000E+00  0.00000000000E+00  0.45593999997E+02  0.45594000000E+02  0.51100000000E-03 0.  1.
         11   -1    0    0    0    0 -0.00000000000E+00 -0.00000000000E+00 -0.45593999997E+02  0.45594000000E+02  0.51100000000E-03 0. -1.
    9900012    2    1    2    0    0 -0.18658719567E+02 -0.29308920166E+02 -0.26008894687E+02  0.47787271665E+02  0.20000002830E+02 0.  0.
        -12    1    1    2    0    0  0.18658719567E+02  0.29308920166E+02  0.26008894687E+02  0.43400728335E+02  0.00000000000E+00 0.  1.
         11    1    3    3    0    0 -0.13620254275E+02 -0.52753124448E+01 -0.66729829978E+01  0.16058298486E+02  0.51100000000E-03 0. -1.
        -11    1    3    3    0    0 -0.39879604941E+00 -0.11075342659E+02 -0.61808369835E+01  0.12689562616E+02  0.51100000000E-03 0.  1.
         12    1    3    3    0    0 -0.46396692422E+01 -0.12958265062E+02 -0.13155074706E+02  0.19039410564E+02  0.00000000000E+00 0. -1.
</event>
<event>
 7    1  0.2442667E-009  0.4778727E+02  0.7816164E-02  0.1312668E+00
        -11   -1    0    0    0    0  0.00000000000E+00  0.00000000000E+00  0.45593999997E+02  0.45594000000E+02  0.51100000000E-03 0. -1.
         11   -1    0    0    0    0 -0.00000000000E+00 -0.00000000000E+00 -0.45593999997E+02  0.45594000000E+02  0.51100000000E-03 0.  1.
    9900012    2    1    2    0    0 -0.55727924123E+00 -0.15443656080E+02  0.40556213319E+02  0.47787268300E+02  0.19999987488E+02 0.  0.
        -12    1    1    2    0    0  0.55727924123E+00  0.15443656080E+02 -0.40556213319E+02  0.43400731700E+02  0.00000000000E+00 0.  1.
         11    1    3    3    0    0 -0.25261806444E+01 -0.49772428527E+01  0.20845602787E+02  0.21579937230E+02  0.51100000000E-03 0. -1.
        -11    1    3    3    0    0  0.27453444437E+01 -0.51735647421E+01  0.76335999745E-01  0.58573471556E+01  0.51100000000E-03 0.  1.
        -12    1    3    3    0    0 -0.77644304055E+00 -0.52928484847E+01  0.19634274533E+02  0.20349983914E+02  0.00000000000E+00 0.  1.
</event>
<event>
 7    1  0.2442667E-009  0.4778727E+02  0.7816164E-02  0.1312668E+00
        -11   -1    0    0    0    0  0.00000000000E+00  0.00000000000E+00  0.45593999997E+02  0.45594000000E+02  0.51100000000E-03 0. -1.
         11   -1    0    0    0    0 -0.00000000000E+00 -0.00000000000E+00 -0.45593999997E+02  0.45594000000E+02  0.51100000000E-03 0.  1.
    9900012    2    1    2    0    0 -0.28410156527E+02 -0.30674108394E+02  0.11644134309E+02  0.47787265174E+02  0.19999973233E+02 0.  0.
        -12    1    1    2    0    0  0.28410156527E+02  0.30674108394E+02 -0.11644134309E+02  0.43400734826E+02  0.00000000000E+00 0.  1.
         11    1    3    3    0    0 -0.18519482614E+02 -0.13280978923E+02 -0.19024138346E+01  0.22868642638E+02  0.51100000000E-03 0. -1.
        -11    1    3    3    0    0 -0.16711858085E+01 -0.89545468617E+01  0.52983065621E+01  0.10537970592E+02  0.51100000000E-03 0.  1.
         12    1    3    3    0    0 -0.82194881046E+01 -0.84385826097E+01  0.82482415811E+01  0.14380651944E+02  0.00000000000E+00 0. -1.
</event>
<event>
 7    1  0.2442667E-009  0.4778727E+02  0.7816164E-02  0.1312668E+00
        -11   -1    0    0    0    0  0.00000000000E+00  0.00000000000E+00  0.45593999997E+02  0.45594000000E+02  0.51100000000E-03 0.  1.
         11   -1    0    0    0    0 -0.00000000000E+00 -0.00000000000E+00 -0.45593999997E+02  0.45594000000E+02  0.51100000000E-03 0. -1.
    9900012    2    1    2    0    0  0.31713419749E+02 -0.29598116237E+02 -0.13541906477E+01  0.47787270637E+02  0.19999998142E+02 0.  0.
        -12    1    1    2    0    0 -0.31713419749E+02  0.29598116237E+02  0.13541906477E+01  0.43400729363E+02  0.00000000000E+00 0.  1.
         11    1    3    3    0    0  0.10399898874E+02 -0.12367527153E+02  0.74266667645E+01  0.17783953552E+02  0.51100000000E-03 0.  1.
        -11    1    3    3    0    0  0.12946980165E+02 -0.15388581301E+02 -0.65569610762E+01  0.21152457745E+02  0.51100000000E-03 0. -1.
         12    1    3    3    0    0  0.83665407107E+01 -0.18420077828E+01 -0.22238963360E+01  0.88508593396E+01  0.00000000000E+00 0. -1.
</event>
<event>
 7    1  0.2442667E-009  0.4778727E+02  0.7816164E-02  0.1312668E+00
        -11   -1    0    0    0    0  0.00000000000E+00  0.00000000000E+00  0.45593999997E+02  0.45594000000E+02  0.51100000000E-03 0.  1.
         11   -1    0    0    0    0 -0.00000000000E+00 -0.00000000000E+00 -0.45593999997E+02  0.45594000000E+02  0.51100000000E-03 0. -1.
    9900012    2    1    2    0    0 -0.26444666972E+02 -0.31803293356E+02 -0.13147378967E+02  0.47787268978E+02  0.19999990580E+02 0.  0.
        -12    1    1    2    0    0  0.26444666972E+02  0.31803293356E+02  0.13147378967E+02  0.43400731022E+02  0.00000000000E+00 0.  1.
         11    1    3    3    0    0 -0.64602254148E+01 -0.11649206682E+02 -0.25936117490E+01  0.13570753512E+02  0.51100000000E-03 0. -1.
        -11    1    3    3    0    0 -0.84905817910E+01 -0.14483355550E+02 -0.12918438697E+02  0.21183569713E+02  0.51100000000E-03 0.  1.
        -12    1    3    3    0    0 -0.11493859766E+02 -0.56707311239E+01  0.23646714794E+01  0.13032945753E+02  0.00000000000E+00 0.  1.
</event>
<event>
 7    1  0.2442667E-009  0.4778727E+02  0.7816164E-02  0.1312668E+00
        -11   -1    0    0    0    0  0.00000000000E+00  0.00000000000E+00  0.45593999997E+02  0.45594000000E+02  0.51100000000E-03 0.  1.
         11   -1    0    0    0    0 -0.00000000000E+00 -0.00000000000E+00 -0.45593999997E+02  0.45594000000E+02  0.51100000000E-03 0. -1.
    9900012    2    1    2    0    0  0.25186994637E+02  0.16364809416E+02 -0.31327814104E+02  0.47787267026E+02  0.19999981680E+02 0.  0.
        -12    1    1    2    0    0 -0.25186994637E+02 -0.16364809416E+02  0.31327814104E+02  0.43400732974E+02  0.00000000000E+00 0.  1.
         11    1    3    3    0    0  0.22894064024E+02  0.55851864024E+01 -0.18499324232E+02  0.29959263542E+02  0.51100000000E-03 0. -1.
        -11    1    3    3    0    0 -0.73428550700E+00  0.66640878342E+01 -0.45590962977E+01  0.81076877826E+01  0.51100000000E-03 0.  1.
         12    1    3    3    0    0  0.30272161205E+01  0.41155351793E+01 -0.82693935743E+01  0.97203157016E+01  0.00000000000E+00 0. -1.
</event>
<event>
 7    1  0.2442667E-009  0.4778727E+02  0.7816164E-02  0.1312668E+00
        -11   -1    0    0    0    0  0.00000000000E+00  0.00000000000E+00  0.45593999997E+02  0.45594000000E+02  0.51100000000E-03 0.  1.
         11   -1    0    0    0    0 -0.00000000000E+00 -0.00000000000E+00 -0.45593999997E+02  0.45594000000E+02  0.51100000000E-03 0. -1.
    9900012    2    1    2    0    0  0.38806869953E+02 -0.17204179247E+02  0.90369427746E+01  0.47787271045E+02  0.20000000003E+02 0.  0.
        -12    1    1    2    0    0 -0.38806869953E+02  0.17204179247E+02 -0.90369427746E+01  0.43400728955E+02  0.00000000000E+00 0.  1.
         11    1    3    3    0    0  0.14847889512E+02 -0.11146350894E+02  0.58282591718E+01  0.19459433868E+02  0.51100000000E-03 0. -1.
        -11    1    3    3    0    0  0.22055015560E+02 -0.12263683744E+01  0.53220831764E+01  0.22721185276E+02  0.51100000000E-03 0.  1.
        -12    1    3    3    0    0  0.19039648810E+01 -0.48314599784E+01 -0.21133995736E+01  0.56066519019E+01  0.00000000000E+00 0.  1.
</event>
<event>
 7    1  0.2442667E-009  0.4778727E+02  0.7816164E-02  0.1312668E+00
        -11   -1    0    0    0    0  0.00000000000E+00  0.00000000000E+00  0.45593999997E+02  0.45594000000E+02  0.51100000000E-03 0.  1.
         11   -1    0    0    0    0 -0.00000000000E+00 -0.00000000000E+00 -0.45593999997E+02  0.45594000000E+02  0.51100000000E-03 0. -1.
    9900012    2    1    2    0    0  0.25988204135E+02  0.29731141993E+02 -0.18008216650E+02  0.47787269300E+02  0.19999992046E+02 0.  0.
        -12    1    1    2    0    0 -0.25988204135E+02 -0.29731141993E+02  0.18008216650E+02  0.43400730700E+02  0.00000000000E+00 0.  1.
         11    1    3    3    0    0  0.26433025821E+02  0.29580715581E+02 -0.19676712746E+02  0.44282012297E+02  0.51100000000E-03 0. -1.
        -11    1    3    3    0    0  0.76125928846E+00  0.12319727576E+01  0.95748238364E+00  0.17361006180E+01  0.51100000000E-03 0.  1.
         12    1    3    3    0    0 -0.12060809745E+01 -0.10815463453E+01  0.71101371227E+00  0.17691563846E+01  0.00000000000E+00 0. -1.
</event>
<event>
 7    1  0.2442667E-009  0.4778727E+02  0.7816164E-02  0.1312668E+00
        -11   -1    0    0    0    0  0.00000000000E+00  0.00000000000E+00  0.45593999997E+02  0.45594000000E+02  0.51100000000E-03 0.  1.
         11   -1    0    0    0    0 -0.00000000000E+00 -0.00000000000E+00 -0.45593999997E+02  0.45594000000E+02  0.51100000000E-03 0. -1.
    9900012    2    1    2    0    0  0.55871422222E+01  0.19110878933E+02 -0.38563992776E+02  0.47787269699E+02  0.19999993868E+02 0.  0.
        -12    1    1    2    0    0 -0.55871422222E+01 -0.19110878933E+02  0.38563992776E+02  0.43400730301E+02  0.00000000000E+00 0.  1.
         11    1    3    3    0    0  0.18358883132E+01 -0.13083364767E+01 -0.12745229907E+02  0.12943072119E+02  0.51100000000E-03 0. -1.
        -11    1    3    3    0    0 -0.21301633993E+01  0.15649115010E+02 -0.16574460444E+02  0.22894216213E+02  0.51100000000E-03 0.  1.
        -12    1    3    3    0    0  0.58814173083E+01  0.47701004000E+01 -0.92443024247E+01  0.11949981368E+02  0.00000000000E+00 0.  1.
</event>
<event>
 7    1  0.2442667E-009  0.4778727E+02  0.7816164E-02  0.1312668E+00
        -11   -1    0    0    0    0  0.00000000000E+00  0.00000000000E+00  0.45593999997E+02  0.45594000000E+02  0.51100000000E-03 0. -1.
         11   -1    0    0    0    0 -0.00000000000E+00 -0.00000000000E+00 -0.45593999997E+02  0.45594000000E+02  0.51100000000E-03 0.  1.
    9900012    2    1    2    0    0 -0.34037636793E+02  0.20471571680E+02  0.17492210669E+02  0.47787269596E+02  0.19999993397E+02 0.  0.
        -12    1    1    2    0    0  0.34037636793E+02 -0.20471571680E+02 -0.17492210669E+02  0.43400730404E+02  0.00000000000E+00 0.  1.
         11    1    3    3    0    0 -0.44986454224E+01 -0.14480109682E+01 -0.16919120859E+01  0.50196726156E+01  0.51100000000E-03 0. -1.
        -11    1    3    3    0    0 -0.92585506250E+00 -0.98992903975E+00 -0.82511023719E-01  0.13579305692E+01  0.51100000000E-03 0.  1.
         12    1    3    3    0    0 -0.28613136308E+02  0.22909511687E+02  0.19266633778E+02  0.41409666411E+02  0.00000000000E+00 0. -1.
</event>
<event>
 7    1  0.2442667E-009  0.4778727E+02  0.7816164E-02  0.1312668E+00
        -11   -1    0    0    0    0  0.00000000000E+00  0.00000000000E+00  0.45593999997E+02  0.45594000000E+02  0.51100000000E-03 0. -1.
         11   -1    0    0    0    0 -0.00000000000E+00 -0.00000000000E+00 -0.45593999997E+02  0.45594000000E+02  0.51100000000E-03 0.  1.
    9900012    2    1    2    0    0 -0.35111581694E+02 -0.25509048380E+02 -0.29747233499E+00  0.47787271802E+02  0.20000003455E+02 0.  0.
        -12    1    1    2    0    0  0.35111581694E+02  0.25509048380E+02  0.29747233499E+00  0.43400728198E+02  0.00000000000E+00 0.  1.
         11    1    3    3    0    0 -0.21220402947E+02 -0.21071053465E+02  0.69177531796E+01  0.30694463746E+02  0.51100000000E-03 0. -1.
        -11    1    3    3    0    0 -0.14147215944E+02 -0.37206727000E+01 -0.72581182093E+01  0.16329954210E+02  0.51100000000E-03 0.  1.
        -12    1    3    3    0    0  0.25603719699E+00 -0.71732221533E+00  0.42892694642E-01  0.76285384584E+00  0.00000000000E+00 0.  1.
</event>
<event>
 7    1  0.2442667E-009  0.4778727E+02  0.7816164E-02  0.1312668E+00
        -11   -1    0    0    0    0  0.00000000000E+00  0.00000000000E+00  0.45593999997E+02  0.45594000000E+02  0.51100000000E-03 0. -1.
         11   -1    0    0    0    0 -0.00000000000E+00 -0.00000000000E+00 -0.45593999997E+02  0.45594000000E+02  0.51100000000E-03 0.  1.
    9900012    2    1    2    0    0 -0.24244863570E+02 -0.33953559577E+02  0.11956838743E+02  0.47787267170E+02  0.19999982334E+02 0.  0.
        -12    1    1    2    0    0  0.24244863570E+02  0.33953559577E+02 -0.11956838743E+02  0.43400732830E+02  0.00000000000E+00 0.  1.
         11    1    3    3    0    0 -0.12770406631E+01 -0.24413871209E+01  0.47841176829E+01  0.55207776802E+01  0.51100000000E-03 0. -1.
        -11    1    3    3    0    0 -0.22563838364E+02 -0.31963238767E+02  0.43346152684E+01  0.39364505890E+02  0.51100000000E-03 0.  1.
        -12    1    3    3    0    0 -0.40398454301E+00  0.45106631074E+00  0.28381057919E+01  0.29019835999E+01  0.00000000000E+00 0.  1.
</event>
<event>
 7    1  0.2442667E-009  0.4778727E+02  0.7816164E-02  0.1312668E+00
        -11   -1    0    0    0    0  0.00000000000E+00  0.00000000000E+00  0.45593999997E+02  0.45594000000E+02  0.51100000000E-03 0. -1.
         11   -1    0    0    0    0 -0.00000000000E+00 -0.00000000000E+00 -0.45593999997E+02  0.45594000000E+02  0.51100000000E-03 0.  1.
    9900012    2    1    2    0    0 -0.39210300462E+02  0.12839626085E+02  0.13465496570E+02  0.47787271225E+02  0.20000000822E+02 0.  0.
        -12    1    1    2    0    0  0.39210300462E+02 -0.12839626085E+02 -0.13465496570E+02  0.43400728775E+02  0.00000000000E+00 0.  1.
         11    1    3    3    0    0 -0.22452062024E+02  0.13257689286E+02  0.15461607893E+02  0.30313738358E+02  0.51100000000E-03 0. -1.
        -11    1    3    3    0    0  0.67163203011E-01  0.71215697401E-01  0.45328887584E+00  0.46373875994E+00  0.51100000000E-03 0.  1.
         12    1    3    3    0    0 -0.16825401641E+02 -0.48927889881E+00 -0.24494001981E+01  0.17009794107E+02  0.00000000000E+00 0. -1.
</event>
<event>
 7    1  0.2442667E-009  0.4778727E+02  0.7816164E-02  0.1312668E+00
        -11   -1    0    0    0    0  0.00000000000E+00  0.00000000000E+00  0.45593999997E+02  0.45594000000E+02  0.51100000000E-03 0.  1.
         11   -1    0    0    0    0 -0.00000000000E+00 -0.00000000000E+00 -0.45593999997E+02  0.45594000000E+02  0.51100000000E-03 0. -1.
    9900012    2    1    2    0    0  0.26157141283E+02 -0.18473850396E+01 -0.34583442356E+02  0.47787270090E+02  0.19999995647E+02 0.  0.
        -12    1    1    2    0    0 -0.26157141283E+02  0.18473850396E+01  0.34583442356E+02  0.43400729910E+02  0.00000000000E+00 0.  1.
         11    1    3    3    0    0  0.54927275705E+01  0.11108839215E+01 -0.18448295489E+02  0.19280656782E+02  0.51100000000E-03 0. -1.
        -11    1    3    3    0    0  0.14177035364E+02  0.24657290965E+01 -0.68150369392E+01  0.15922087817E+02  0.51100000000E-03 0.  1.
         12    1    3    3    0    0  0.64873783483E+01 -0.54239980577E+01 -0.93201099277E+01  0.12584525491E+02  0.00000000000E+00 0. -1.
</event>
<event>
 7    1  0.2442667E-009  0.4778727E+02  0.7816164E-02  0.1312668E+00
        -11   -1    0    0    0    0  0.00000000000E+00  0.00000000000E+00  0.45593999997E+02  0.45594000000E+02  0.51100000000E-03 0. -1.
         11   -1    0    0    0    0 -0.00000000000E+00 -0.00000000000E+00 -0.45593999997E+02  0.45594000000E+02  0.51100000000E-03 0.  1.
    9900012    2    1    2    0    0 -0.22881313517E+02 -0.63910181262E+00  0.36873569459E+02  0.47787273232E+02  0.20000009974E+02 0.  0.
        -12    1    1    2    0    0  0.22881313517E+02  0.63910181262E+00 -0.36873569459E+02  0.43400726768E+02  0.00000000000E+00 0.  1.
         11    1    3    3    0    0 -0.39004261051E+01  0.47016589368E+01  0.11848588915E+02  0.13330715664E+02  0.51100000000E-03 0. -1.
        -11    1    3    3    0    0 -0.17715570533E+01  0.37288863363E+01  0.32215416728E+01  0.52365388104E+01  0.51100000000E-03 0.  1.
         12    1    3    3    0    0 -0.17209330358E+02 -0.90696470857E+01  0.21803438871E+02  0.29220018758E+02  0.00000000000E+00 0. -1.
</event>
<event>
 7    1  0.2442667E-009  0.4778727E+02  0.7816164E-02  0.1312668E+00
        -11   -1    0    0    0    0  0.00000000000E+00  0.00000000000E+00  0.45593999997E+02  0.45594000000E+02  0.51100000000E-03 0. -1.
         11   -1    0    0    0    0 -0.00000000000E+00 -0.00000000000E+00 -0.45593999997E+02  0.45594000000E+02  0.51100000000E-03 0.  1.
    9900012    2    1    2    0    0  0.40733149908E+02  0.93755955459E+01  0.11684711355E+02  0.47787265297E+02  0.19999973797E+02 0.  0.
        -12    1    1    2    0    0 -0.40733149908E+02 -0.93755955459E+01 -0.11684711355E+02  0.43400734703E+02  0.00000000000E+00 0.  1.
         11    1    3    3    0    0  0.14858542731E+01 -0.12997247277E+01  0.29323177095E+01  0.35349023606E+01  0.51100000000E-03 0.  1.
        -11    1    3    3    0    0  0.12877982997E+02 -0.32970743046E+00  0.89360826998E+01  0.15678160840E+02  0.51100000000E-03 0. -1.
         12    1    3    3    0    0  0.26369312638E+02  0.11005027704E+02 -0.18368905434E+00  0.28574202096E+02  0.00000000000E+00 0. -1.
</event>
<event>
 7    1  0.2442667E-009  0.4778727E+02  0.7816164E-02  0.1312668E+00
        -11   -1    0    0    0    0  0.00000000000E+00  0.00000000000E+00  0.45593999997E+02  0.45594000000E+02  0.51100000000E-03 0. -1.
         11   -1    0    0    0    0 -0.00000000000E+00 -0.00000000000E+00 -0.45593999997E+02  0.45594000000E+02  0.51100000000E-03 0.  1.
    9900012    2    1    2    0    0 -0.27569473976E+02  0.27376583665E+02  0.19340892163E+02  0.47787270304E+02  0.19999996623E+02 0.  0.
        -12    1    1    2    0    0  0.27569473976E+02 -0.27376583665E+02 -0.19340892163E+02  0.43400729696E+02  0.00000000000E+00 0.  1.
         11    1    3    3    0    0 -0.12352648868E+02  0.21163312531E+02  0.12649157905E+02  0.27576709871E+02  0.51100000000E-03 0. -1.
        -11    1    3    3    0    0 -0.10665826565E+02 -0.68549730335E+00  0.26545974032E+01  0.11012567843E+02  0.51100000000E-03 0.  1.
        -12    1    3    3    0    0 -0.45509985433E+01  0.68987684372E+01  0.40371368551E+01  0.91979925896E+01  0.00000000000E+00 0.  1.
</event>
<event>
 7    1  0.2442667E-009  0.4778727E+02  0.7816164E-02  0.1312668E+00
        -11   -1    0    0    0    0  0.00000000000E+00  0.00000000000E+00  0.45593999997E+02  0.45594000000E+02  0.51100000000E-03 0.  1.
         11   -1    0    0    0    0 -0.00000000000E+00 -0.00000000000E+00 -0.45593999997E+02  0.45594000000E+02  0.51100000000E-03 0. -1.
    9900012    2    1    2    0    0  0.30406779745E+02  0.25948161277E+02 -0.16903971725E+02  0.47787267423E+02  0.19999983489E+02 0.  0.
        -12    1    1    2    0    0 -0.30406779745E+02 -0.25948161277E+02  0.16903971725E+02  0.43400732577E+02  0.00000000000E+00 0.  1.
         11    1    3    3    0    0  0.17310665964E+02  0.26359425825E+02 -0.11079026871E+02  0.33424890765E+02  0.51100000000E-03 0. -1.
        -11    1    3    3    0    0  0.55195727030E+01 -0.41470697253E+00 -0.21050217025E+01  0.59218900130E+01  0.51100000000E-03 0.  1.
         12    1    3    3    0    0  0.75765410782E+01  0.34424239915E-02 -0.37199231515E+01  0.84404866455E+01  0.00000000000E+00 0. -1.
</event>
<event>
 7    1  0.2442667E-009  0.4778727E+02  0.7816164E-02  0.1312668E+00
        -11   -1    0    0    0    0  0.00000000000E+00  0.00000000000E+00  0.45593999997E+02  0.45594000000E+02  0.51100000000E-03 0. -1.
         11   -1    0    0    0    0 -0.00000000000E+00 -0.00000000000E+00 -0.45593999997E+02  0.45594000000E+02  0.51100000000E-03 0.  1.
    9900012    2    1    2    0    0  0.31022892461E+02 -0.29879181639E+02  0.53326903023E+01  0.47787274915E+02  0.20000017649E+02 0.  0.
        -12    1    1    2    0    0 -0.31022892461E+02  0.29879181639E+02 -0.53326903023E+01  0.43400725085E+02  0.00000000000E+00 0.  1.
         11    1    3    3    0    0  0.23006520209E+02 -0.28161141012E+02  0.17757582483E+01  0.36407460127E+02  0.51100000000E-03 0. -1.
        -11    1    3    3    0    0  0.28731364892E+01 -0.23338700346E+01 -0.16342365611E+01  0.40463059725E+01  0.51100000000E-03 0.  1.
         12    1    3    3    0    0  0.51432357621E+01  0.61582940845E+00  0.51911686152E+01  0.73335088161E+01  0.00000000000E+00 0. -1.
</event>
<event>
 7    1  0.2442667E-009  0.4778726E+02  0.7816164E-02  0.1312668E+00
        -11   -1    0    0    0    0  0.00000000000E+00  0.00000000000E+00  0.45593999997E+02  0.45594000000E+02  0.51100000000E-03 0.  1.
         11   -1    0    0    0    0 -0.00000000000E+00 -0.00000000000E+00 -0.45593999997E+02  0.45594000000E+02  0.51100000000E-03 0. -1.
    9900012    2    1    2    0    0 -0.29979173317E+02 -0.30069125001E+02 -0.89844924390E+01  0.47787260197E+02  0.19999950541E+02 0.  0.
        -12    1    1    2    0    0  0.29979173317E+02  0.30069125001E+02  0.89844924390E+01  0.43400739803E+02  0.00000000000E+00 0.  1.
         11    1    3    3    0    0 -0.94727897100E+01 -0.15154349088E+02 -0.76409065486E+01  0.19436344675E+02  0.51100000000E-03 0. -1.
        -11    1    3    3    0    0 -0.14394200721E+01 -0.41772731663E+01  0.38501962266E+01  0.58605078700E+01  0.51100000000E-03 0.  1.
        -12    1    3    3    0    0 -0.19066963535E+02 -0.10737502747E+02 -0.51937821171E+01  0.22490407652E+02  0.00000000000E+00 0.  1.
</event>
<event>
 7    1  0.2442667E-009  0.4778727E+02  0.7816164E-02  0.1312668E+00
        -11   -1    0    0    0    0  0.00000000000E+00  0.00000000000E+00  0.45593999997E+02  0.45594000000E+02  0.51100000000E-03 0.  1.
         11   -1    0    0    0    0 -0.00000000000E+00 -0.00000000000E+00 -0.45593999997E+02  0.45594000000E+02  0.51100000000E-03 0. -1.
    9900012    2    1    2    0    0  0.65258429305E+01  0.39893326246E+02 -0.15797439206E+02  0.47787272006E+02  0.20000004386E+02 0.  0.
        -12    1    1    2    0    0 -0.65258429305E+01 -0.39893326246E+02  0.15797439206E+02  0.43400727994E+02  0.00000000000E+00 0.  1.
         11    1    3    3    0    0 -0.27841899064E+01  0.61215687017E+01 -0.72166494235E+01  0.98643472144E+01  0.51100000000E-03 0.  1.
        -11    1    3    3    0    0  0.88387651565E+01  0.24292881669E+02 -0.11623523114E+01  0.25876996202E+02  0.51100000000E-03 0. -1.
         12    1    3    3    0    0  0.47126768042E+00  0.94788758750E+01 -0.74184374712E+01  0.12045928590E+02  0.00000000000E+00 0. -1.
</event>
<event>
 7    1  0.2442667E-009  0.4778727E+02  0.7816164E-02  0.1312668E+00
        -11   -1    0    0    0    0  0.00000000000E+00  0.00000000000E+00  0.45593999997E+02  0.45594000000E+02  0.51100000000E-03 0.  1.
         11   -1    0    0    0    0 -0.00000000000E+00 -0.00000000000E+00 -0.45593999997E+02  0.45594000000E+02  0.51100000000E-03 0. -1.
    9900012    2    1    2    0    0 -0.23270646742E+02  0.42620583323E+01 -0.36385918182E+02  0.47787272092E+02  0.20000004774E+02 0.  0.
        -12    1    1    2    0    0  0.23270646742E+02 -0.42620583323E+01  0.36385918182E+02  0.43400727908E+02  0.00000000000E+00 0.  1.
         11    1    3    3    0    0 -0.73215649638E+01 -0.45121043401E+01 -0.20267551391E+02  0.22016767218E+02  0.51100000000E-03 0. -1.
        -11    1    3    3    0    0 -0.90582128626E+01  0.50061042073E+01 -0.35335740144E+01  0.10936107405E+02  0.51100000000E-03 0.  1.
         12    1    3    3    0    0 -0.68908689154E+01  0.37680584651E+01 -0.12584792777E+02  0.14834397468E+02  0.00000000000E+00 0. -1.
</event>
<event>
 7    1  0.2442667E-009  0.4778727E+02  0.7816164E-02  0.1312668E+00
        -11   -1    0    0    0    0  0.00000000000E+00  0.00000000000E+00  0.45593999997E+02  0.45594000000E+02  0.51100000000E-03 0.  1.
         11   -1    0    0    0    0 -0.00000000000E+00 -0.00000000000E+00 -0.45593999997E+02  0.45594000000E+02  0.51100000000E-03 0. -1.
    9900012    2    1    2    0    0 -0.46651453916E+00  0.29821704341E+02 -0.31528902943E+02  0.47787269518E+02  0.19999993041E+02 0.  0.
        -12    1    1    2    0    0  0.46651453916E+00 -0.29821704341E+02  0.31528902943E+02  0.43400730482E+02  0.00000000000E+00 0.  1.
         11    1    3    3    0    0 -0.75649491518E+01  0.10864468063E+02 -0.19560184703E+02  0.23619186011E+02  0.51100000000E-03 0. -1.
        -11    1    3    3    0    0  0.65415262431E+01  0.99522585398E+01 -0.77425119793E+01  0.14205122585E+02  0.51100000000E-03 0.  1.
         12    1    3    3    0    0  0.55690836958E+00  0.90049777373E+01 -0.42262062609E+01  0.99629609223E+01  0.00000000000E+00 0. -1.
</event>
<event>
 7    1  0.2442667E-009  0.4778727E+02  0.7816164E-02  0.1312668E+00
        -11   -1    0    0    0    0  0.00000000000E+00  0.00000000000E+00  0.45593999997E+02  0.45594000000E+02  0.51100000000E-03 0.  1.
         11   -1    0    0    0    0 -0.00000000000E+00 -0.00000000000E+00 -0.45593999997E+02  0.45594000000E+02  0.51100000000E-03 0. -1.
    9900012    2    1    2    0    0 -0.76226990415E+01 -0.42107791095E+02 -0.72423491118E+01  0.47787271524E+02  0.20000002188E+02 0.  0.
        -12    1    1    2    0    0  0.76226990415E+01  0.42107791095E+02  0.72423491118E+01  0.43400728476E+02  0.00000000000E+00 0.  1.
         11    1    3    3    0    0 -0.95742794392E+01 -0.88136510899E+01 -0.56537173474E+01  0.14188438689E+02  0.51100000000E-03 0. -1.
        -11    1    3    3    0    0  0.15546786188E+01 -0.12502231055E+02  0.10220110455E+01  0.12639909564E+02  0.51100000000E-03 0.  1.
         12    1    3    3    0    0  0.39690177896E+00 -0.20791908950E+02 -0.26106428099E+01  0.20958923271E+02  0.00000000000E+00 0. -1.
</event>
<event>
 7    1  0.2442667E-009  0.4778727E+02  0.7816164E-02  0.1312668E+00
        -11   -1    0    0    0    0  0.00000000000E+00  0.00000000000E+00  0.45593999997E+02  0.45594000000E+02  0.51100000000E-03 0. -1.
         11   -1    0    0    0    0 -0.00000000000E+00 -0.00000000000E+00 -0.45593999997E+02  0.45594000000E+02  0.51100000000E-03 0.  1.
    9900012    2    1    2    0    0 -0.37560377265E+02  0.78363703642E+01  0.20283805466E+02  0.47787269534E+02  0.19999993113E+02 0.  0.
        -12    1    1    2    0    0  0.37560377265E+02 -0.78363703642E+01 -0.20283805466E+02  0.43400730466E+02  0.00000000000E+00 0.  1.
         11    1    3    3    0    0 -0.22137375478E+02  0.31491302108E+01  0.16018512855E+02  0.27505875163E+02  0.51100000000E-03 0. -1.
        -11    1    3    3    0    0 -0.10195951424E+02 -0.59854974477E+00 -0.21787893309E+01  0.10443314150E+02  0.51100000000E-03 0.  1.
        -12    1    3    3    0    0 -0.52270503635E+01  0.52857898982E+01  0.64440819421E+01  0.98380802206E+01  0.00000000000E+00 0.  1.
</event>
<event>
 7    1  0.2442667E-009  0.4778727E+02  0.7816164E-02  0.1312668E+00
        -11   -1    0    0    0    0  0.00000000000E+00  0.00000000000E+00  0.45593999997E+02  0.45594000000E+02  0.51100000000E-03 0.  1.
         11   -1    0    0    0    0 -0.00000000000E+00 -0.00000000000E+00 -0.45593999997E+02  0.45594000000E+02  0.51100000000E-03 0. -1.
    9900012    2    1    2    0    0 -0.30498240952E+02 -0.18199543714E+01 -0.30824798707E+02  0.47787272467E+02  0.20000006486E+02 0.  0.
        -12    1    1    2    0    0  0.30498240952E+02  0.18199543714E+01  0.30824798707E+02  0.43400727533E+02  0.00000000000E+00 0.  1.
         11    1    3    3    0    0 -0.15432440770E+02 -0.70776594377E+01 -0.21453667276E+02  0.27358971674E+02  0.51100000000E-03 0. -1.
        -11    1    3    3    0    0  0.89353857049E-01  0.90034368736E+00  0.11561632863E+01  0.14680996808E+01  0.51100000000E-03 0.  1.
         12    1    3    3    0    0 -0.15155154039E+02  0.43573613789E+01 -0.10527294717E+02  0.18960201112E+02  0.00000000000E+00 0. -1.
</event>
<event>
 7    1  0.2442667E-009  0.4778727E+02  0.7816164E-02  0.1312668E+00
        -11   -1    0    0    0    0  0.00000000000E+00  0.00000000000E+00  0.45593999997E+02  0.45594000000E+02  0.51100000000E-03 0.  1.
         11   -1    0    0    0    0 -0.00000000000E+00 -0.00000000000E+00 -0.45593999997E+02  0.45594000000E+02  0.51100000000E-03 0. -1.
    9900012    2    1    2    0    0 -0.20361818104E+02  0.30527790720E+02 -0.23174845984E+02  0.47787272712E+02  0.20000007602E+02 0.  0.
        -12    1    1    2    0    0  0.20361818104E+02 -0.30527790720E+02  0.23174845984E+02  0.43400727288E+02  0.00000000000E+00 0.  1.
         11    1    3    3    0    0 -0.16442847150E+02  0.11375421881E+02 -0.14860228951E+02  0.24911721139E+02  0.51100000000E-03 0. -1.
        -11    1    3    3    0    0 -0.13899217590E+01 -0.27710158744E+00 -0.16604913176E+01  0.21830940115E+01  0.51100000000E-03 0.  1.
         12    1    3    3    0    0 -0.25290491950E+01  0.19429470426E+02 -0.66541257161E+01  0.20692457561E+02  0.00000000000E+00 0. -1.
</event>
<event>
 7    1  0.2442667E-009  0.4778727E+02  0.7816164E-02  0.1312668E+00
        -11   -1    0    0    0    0  0.00000000000E+00  0.00000000000E+00  0.45593999997E+02  0.45594000000E+02  0.51100000000E-03 0.  1.
         11   -1    0    0    0    0 -0.00000000000E+00 -0.00000000000E+00 -0.45593999997E+02  0.45594000000E+02  0.51100000000E-03 0. -1.
    9900012    2    1    2    0    0  0.67738065627E+01  0.36798021273E+02 -0.21991922710E+02  0.47787268561E+02  0.19999988676E+02 0.  0.
        -12    1    1    2    0    0 -0.67738065627E+01 -0.36798021273E+02  0.21991922710E+02  0.43400731439E+02  0.00000000000E+00 0.  1.
         11    1    3    3    0    0 -0.90354165852E+00  0.12171123722E+02 -0.11169916308E+02  0.16544475537E+02  0.51100000000E-03 0. -1.
        -11    1    3    3    0    0  0.68813868386E+01  0.44597190328E+01 -0.68230714216E+01  0.10667562166E+02  0.51100000000E-03 0.  1.
        -12    1    3    3    0    0  0.79596138264E+00  0.20167178518E+02 -0.39989349808E+01  0.20575230859E+02  0.00000000000E+00 0.  1.
</event>
<event>
 7    1  0.2442667E-009  0.4778728E+02  0.7816164E-02  0.1312668E+00
        -11   -1    0    0    0    0  0.00000000000E+00  0.00000000000E+00  0.45593999997E+02  0.45594000000E+02  0.51100000000E-03 0.  1.
         11   -1    0    0    0    0 -0.00000000000E+00 -0.00000000000E+00 -0.45593999997E+02  0.45594000000E+02  0.51100000000E-03 0. -1.
    9900012    2    1    2    0    0 -0.49605530759E+01  0.35620474624E+02 -0.24293979280E+02  0.47787277328E+02  0.20000028649E+02 0.  0.
        -12    1    1    2    0    0  0.49605530759E+01 -0.35620474624E+02  0.24293979280E+02  0.43400722672E+02  0.00000000000E+00 0.  1.
         11    1    3    3    0    0  0.49675983084E+01  0.90043889122E+01 -0.96240093679E+01  0.14084658647E+02  0.51100000000E-03 0. -1.
        -11    1    3    3    0    0 -0.87529013625E+01  0.27377070062E+02 -0.14738595340E+02  0.32300827239E+02  0.51100000000E-03 0.  1.
        -12    1    3    3    0    0 -0.11752500218E+01 -0.76098435087E+00  0.68625428769E-01  0.14017914415E+01  0.00000000000E+00 0.  1.
</event>
<event>
 7    1  0.2442667E-009  0.4778727E+02  0.7816164E-02  0.1312668E+00
        -11   -1    0    0    0    0  0.00000000000E+00  0.00000000000E+00  0.45593999997E+02  0.45594000000E+02  0.51100000000E-03 0.  1.
         11   -1    0    0    0    0 -0.00000000000E+00 -0.00000000000E+00 -0.45593999997E+02  0.45594000000E+02  0.51100000000E-03 0. -1.
    9900012    2    1    2    0    0  0.33830294730E+01  0.35278834602E+02 -0.25051594122E+02  0.47787269276E+02  0.19999991937E+02 0.  0.
        -12    1    1    2    0    0 -0.33830294730E+01 -0.35278834602E+02  0.25051594122E+02  0.43400730724E+02  0.00000000000E+00 0.  1.
         11    1    3    3    0    0 -0.63229186493E+01  0.18447184307E+02 -0.14683547581E+02  0.24410745153E+02  0.51100000000E-03 0. -1.
        -11    1    3    3    0    0  0.46458202919E+01  0.79807808862E+01 -0.59502290957E+00  0.92536783098E+01  0.51100000000E-03 0.  1.
         12    1    3    3    0    0  0.50601278304E+01  0.88508694091E+01 -0.97730236317E+01  0.14122845813E+02  0.00000000000E+00 0. -1.
</event>
<event>
 7    1  0.2442667E-009  0.4778727E+02  0.7816164E-02  0.1312668E+00
        -11   -1    0    0    0    0  0.00000000000E+00  0.00000000000E+00  0.45593999997E+02  0.45594000000E+02  0.51100000000E-03 0.  1.
         11   -1    0    0    0    0 -0.00000000000E+00 -0.00000000000E+00 -0.45593999997E+02  0.45594000000E+02  0.51100000000E-03 0. -1.
    9900012    2    1    2    0    0  0.12241258753E+02  0.98526220520E+01 -0.40456162421E+02  0.47787266654E+02  0.19999979982E+02 0.  0.
        -12    1    1    2    0    0 -0.12241258753E+02 -0.98526220520E+01  0.40456162421E+02  0.43400733346E+02  0.00000000000E+00 0.  1.
         11    1    3    3    0    0  0.84733681721E+01  0.14527108633E+02 -0.33778734874E+02  0.37733775101E+02  0.51100000000E-03 0. -1.
        -11    1    3    3    0    0 -0.78678416494E+00 -0.21351088179E+01 -0.16571522285E+01  0.28149374338E+01  0.51100000000E-03 0.  1.
         12    1    3    3    0    0  0.45546747461E+01 -0.25393777632E+01 -0.50202753186E+01  0.72385541196E+01  0.00000000000E+00 0. -1.
</event>
<event>
 7    1  0.2442667E-009  0.4778727E+02  0.7816164E-02  0.1312668E+00
        -11   -1    0    0    0    0  0.00000000000E+00  0.00000000000E+00  0.45593999997E+02  0.45594000000E+02  0.51100000000E-03 0. -1.
         11   -1    0    0    0    0 -0.00000000000E+00 -0.00000000000E+00 -0.45593999997E+02  0.45594000000E+02  0.51100000000E-03 0.  1.
    9900012    2    1    2    0    0  0.25383783131E+02 -0.31377576750E+02  0.15960394224E+02  0.47787274747E+02  0.20000016879E+02 0.  0.
        -12    1    1    2    0    0 -0.25383783131E+02  0.31377576750E+02 -0.15960394224E+02  0.43400725253E+02  0.00000000000E+00 0.  1.
         11    1    3    3    0    0  0.38826212938E+01 -0.48587844733E+01 -0.33720060203E+01  0.70748116251E+01  0.51100000000E-03 0. -1.
        -11    1    3    3    0    0 -0.11549019141E+01 -0.95305436808E+00  0.17163827826E+01  0.22777359762E+01  0.51100000000E-03 0.  1.
         12    1    3    3    0    0  0.22656063751E+02 -0.25565737909E+02  0.17616017461E+02  0.38434727145E+02  0.00000000000E+00 0. -1.
</event>
<event>
 7    1  0.2442667E-009  0.4778726E+02  0.7816164E-02  0.1312668E+00
        -11   -1    0    0    0    0  0.00000000000E+00  0.00000000000E+00  0.45593999997E+02  0.45594000000E+02  0.51100000000E-03 0.  1.
         11   -1    0    0    0    0 -0.00000000000E+00 -0.00000000000E+00 -0.45593999997E+02  0.45594000000E+02  0.51100000000E-03 0. -1.
    9900012    2    1    2    0    0 -0.21660275657E+02  0.53529130806E+01 -0.37226371676E+02  0.47787263046E+02  0.19999963533E+02 0.  0.
        -12    1    1    2    0    0  0.21660275657E+02 -0.53529130806E+01  0.37226371676E+02  0.43400736954E+02  0.00000000000E+00 0.  1.
         11    1    3    3    0    0 -0.11220054299E+02 -0.37169457774E+00 -0.28814515509E+02  0.30924166596E+02  0.51100000000E-03 0. -1.
        -11    1    3    3    0    0 -0.54251283928E+01 -0.12349397826E+01 -0.12844822295E+01  0.57102529895E+01  0.51100000000E-03 0.  1.
         12    1    3    3    0    0 -0.50150929651E+01  0.69595474409E+01 -0.71273739371E+01  0.11152843461E+02  0.00000000000E+00 0. -1.
</event>
<event>
 7    1  0.2442667E-009  0.4778727E+02  0.7816164E-02  0.1312668E+00
        -11   -1    0    0    0    0  0.00000000000E+00  0.00000000000E+00  0.45593999997E+02  0.45594000000E+02  0.51100000000E-03 0.  1.
         11   -1    0    0    0    0 -0.00000000000E+00 -0.00000000000E+00 -0.45593999997E+02  0.45594000000E+02  0.51100000000E-03 0. -1.
    9900012    2    1    2    0    0 -0.23935219250E+02  0.34406041019E+02 -0.11267324501E+02  0.47787274424E+02  0.20000015408E+02 0.  0.
        -12    1    1    2    0    0  0.23935219250E+02 -0.34406041019E+02  0.11267324501E+02  0.43400725576E+02  0.00000000000E+00 0.  1.
         11    1    3    3    0    0 -0.22901730156E+02  0.31057095500E+02 -0.14567575213E+02  0.41246171614E+02  0.51100000000E-03 0. -1.
        -11    1    3    3    0    0 -0.87263442706E+00  0.79166045197E+00  0.37578448369E+01  0.39382248786E+01  0.51100000000E-03 0.  1.
         12    1    3    3    0    0 -0.16085466685E+00  0.25572850674E+01 -0.45759412511E+00  0.26028779309E+01  0.00000000000E+00 0. -1.
</event>
<event>
 7    1  0.2442667E-009  0.4778727E+02  0.7816164E-02  0.1312668E+00
        -11   -1    0    0    0    0  0.00000000000E+00  0.00000000000E+00  0.45593999997E+02  0.45594000000E+02  0.51100000000E-03 0.  1.
         11   -1    0    0    0    0 -0.00000000000E+00 -0.00000000000E+00 -0.45593999997E+02  0.45594000000E+02  0.51100000000E-03 0. -1.
    9900012    2    1    2    0    0 -0.42627934919E+02  0.29885745094E+01 -0.75862302524E+01  0.47787270715E+02  0.19999998498E+02 0.  0.
        -12    1    1    2    0    0  0.42627934919E+02 -0.29885745094E+01  0.75862302524E+01  0.43400729285E+02  0.00000000000E+00 0.  1.
         11    1    3    3    0    0 -0.16830673901E+02  0.53454737194E+01 -0.97744028827E+01  0.20183771333E+02  0.51100000000E-03 0. -1.
        -11    1    3    3    0    0 -0.20027402755E+02 -0.54559396977E+01  0.19751610035E+00  0.20758206859E+02  0.51100000000E-03 0.  1.
        -12    1    3    3    0    0 -0.57698582619E+01  0.30990404877E+01  0.19906565299E+01  0.68452925231E+01  0.00000000000E+00 0.  1.
</event>
<event>
 7    1  0.2442667E-009  0.4778730E+02  0.7816164E-02  0.1312668E+00
        -11   -1    0    0    0    0  0.00000000000E+00  0.00000000000E+00  0.45593999997E+02  0.45594000000E+02  0.51100000000E-03 0.  1.
         11   -1    0    0    0    0 -0.00000000000E+00 -0.00000000000E+00 -0.45593999997E+02  0.45594000000E+02  0.51100000000E-03 0. -1.
    9900012    2    1    2    0    0  0.17370330809E+02  0.24175184316E+02 -0.31582483273E+02  0.47787295181E+02  0.20000110047E+02 0.  0.
        -12    1    1    2    0    0 -0.17370330809E+02 -0.24175184316E+02  0.31582483273E+02  0.43400704819E+02  0.00000000000E+00 0.  1.
         11    1    3    3    0    0  0.12368808899E+02  0.94838858435E+01 -0.16179998166E+02  0.22466060295E+02  0.51100000000E-03 0. -1.
        -11    1    3    3    0    0 -0.40352527161E+01  0.64616151788E+01 -0.79251156575E+01  0.10992870128E+02  0.51100000000E-03 0.  1.
        -12    1    3    3    0    0  0.90367746261E+01  0.82296832936E+01 -0.74773694497E+01  0.14328364758E+02  0.00000000000E+00 0.  1.
</event>
<event>
 7    1  0.2442667E-009  0.4778728E+02  0.7816164E-02  0.1312668E+00
        -11   -1    0    0    0    0  0.00000000000E+00  0.00000000000E+00  0.45593999997E+02  0.45594000000E+02  0.51100000000E-03 0.  1.
         11   -1    0    0    0    0 -0.00000000000E+00 -0.00000000000E+00 -0.45593999997E+02  0.45594000000E+02  0.51100000000E-03 0. -1.
    9900012    2    1    2    0    0  0.25554584387E+01 -0.19893668643E+02 -0.38488102587E+02  0.47787280413E+02  0.20000042714E+02 0.  0.
        -12    1    1    2    0    0 -0.25554584387E+01  0.19893668643E+02  0.38488102587E+02  0.43400719587E+02  0.00000000000E+00 0.  1.
         11    1    3    3    0    0  0.96889075076E+01 -0.11111891373E+02 -0.14994793232E+02  0.21028382794E+02  0.51100000000E-03 0. -1.
        -11    1    3    3    0    0 -0.49491436370E+01 -0.63342780616E+01 -0.97846353958E+01  0.12663182514E+02  0.51100000000E-03 0.  1.
         12    1    3    3    0    0 -0.21843054319E+01 -0.24474992084E+01 -0.13708673959E+02  0.14095715105E+02  0.00000000000E+00 0. -1.
</event>
<event>
 7    1  0.2442667E-009  0.4778727E+02  0.7816164E-02  0.1312668E+00
        -11   -1    0    0    0    0  0.00000000000E+00  0.00000000000E+00  0.45593999997E+02  0.45594000000E+02  0.51100000000E-03 0.  1.
         11   -1    0    0    0    0 -0.00000000000E+00 -0.00000000000E+00 -0.45593999997E+02  0.45594000000E+02  0.51100000000E-03 0. -1.
    9900012    2    1    2    0    0  0.37042728207E+01  0.42569933676E+02 -0.75962020092E+01  0.47787272181E+02  0.20000005181E+02 0.  0.
        -12    1    1    2    0    0 -0.37042728207E+01 -0.42569933676E+02  0.75962020092E+01  0.43400727819E+02  0.00000000000E+00 0.  1.
         11    1    3    3    0    0  0.62525341879E+01  0.24582336552E+02  0.89428541131E+00  0.25380803785E+02  0.51100000000E-03 0. -1.
        -11    1    3    3    0    0  0.27325642560E+01  0.40995188358E+01  0.63837962122E+00  0.49679463463E+01  0.51100000000E-03 0.  1.
         12    1    3    3    0    0 -0.52808256231E+01  0.13888078288E+02 -0.91288670417E+01  0.17438522049E+02  0.00000000000E+00 0. -1.
</event>
<event>
 7    1  0.2442667E-009  0.4778726E+02  0.7816164E-02  0.1312668E+00
        -11   -1    0    0    0    0  0.00000000000E+00  0.00000000000E+00  0.45593999997E+02  0.45594000000E+02  0.51100000000E-03 0. -1.
         11   -1    0    0    0    0 -0.00000000000E+00 -0.00000000000E+00 -0.45593999997E+02  0.45594000000E+02  0.51100000000E-03 0.  1.
    9900012    2    1    2    0    0  0.21354097321E+02  0.22293921356E+02  0.30505858607E+02  0.47787264855E+02  0.19999971778E+02 0.  0.
        -12    1    1    2    0    0 -0.21354097321E+02 -0.22293921356E+02 -0.30505858607E+02  0.43400735145E+02  0.00000000000E+00 0.  1.
         11    1    3    3    0    0  0.20076069749E+01  0.87653033046E+01  0.17912031269E+02  0.20042502145E+02  0.51100000000E-03 0. -1.
        -11    1    3    3    0    0  0.19579147775E+02  0.12786078416E+02  0.13112331134E+02  0.26809700798E+02  0.51100000000E-03 0.  1.
        -12    1    3    3    0    0 -0.23265742958E+00  0.74253963589E+00 -0.51850379643E+00  0.93506191095E+00  0.00000000000E+00 0.  1.
</event>
<event>
 7    1  0.2442667E-009  0.4778733E+02  0.7816164E-02  0.1312667E+00
        -11   -1    0    0    0    0  0.00000000000E+00  0.00000000000E+00  0.45593999997E+02  0.45594000000E+02  0.51100000000E-03 0.  1.
         11   -1    0    0    0    0 -0.00000000000E+00 -0.00000000000E+00 -0.45593999997E+02  0.45594000000E+02  0.51100000000E-03 0. -1.
    9900012    2    1    2    0    0  0.15385725443E+02  0.38999231727E+02 -0.11223073722E+02  0.47787331728E+02  0.20000276679E+02 0.  0.
        -12    1    1    2    0    0 -0.15385725443E+02 -0.38999231727E+02  0.11223073722E+02  0.43400668272E+02  0.00000000000E+00 0.  1.
         11    1    3    3    0    0  0.77762596196E+01  0.34144097334E+01 -0.55824773593E+01  0.10163289882E+02  0.51100000000E-03 0. -1.
        -11    1    3    3    0    0  0.26889610758E+01  0.53607145239E+01  0.14966986558E+01  0.61812522196E+01  0.51100000000E-03 0.  1.
         12    1    3    3    0    0  0.49205047472E+01  0.30224107470E+02 -0.71372950188E+01  0.31442789626E+02  0.00000000000E+00 0. -1.
</event>
<event>
 7    1  0.2442667E-009  0.4778727E+02  0.7816164E-02  0.1312668E+00
        -11   -1    0    0    0    0  0.00000000000E+00  0.00000000000E+00  0.45593999997E+02  0.45594000000E+02  0.51100000000E-03 0.  1.
         11   -1    0    0    0    0 -0.00000000000E+00 -0.00000000000E+00 -0.45593999997E+02  0.45594000000E+02  0.51100000000E-03 0. -1.
    9900012    2    1    2    0    0  0.26726166483E+01 -0.16878222216E+02 -0.39894936051E+02  0.47787272041E+02  0.20000004542E+02 0.  0.
        -12    1    1    2    0    0 -0.26726166483E+01  0.16878222216E+02  0.39894936051E+02  0.43400727959E+02  0.00000000000E+00 0.  1.
         11    1    3    3    0    0  0.70805080691E+00 -0.30118814663E+01 -0.15537640640E+02  0.15842696830E+02  0.51100000000E-03 0. -1.
        -11    1    3    3    0    0  0.11308921847E+01 -0.17128338751E+02 -0.18895115498E+02  0.25528107949E+02  0.51100000000E-03 0.  1.
        -12    1    3    3    0    0  0.83367365672E+00  0.32619980015E+01 -0.54621799123E+01  0.64164672618E+01  0.00000000000E+00 0.  1.
</event>
<event>
 7    1  0.2442667E-009  0.4778727E+02  0.7816164E-02  0.1312668E+00
        -11   -1    0    0    0    0  0.00000000000E+00  0.00000000000E+00  0.45593999997E+02  0.45594000000E+02  0.51100000000E-03 0.  1.
         11   -1    0    0    0    0 -0.00000000000E+00 -0.00000000000E+00 -0.45593999997E+02  0.45594000000E+02  0.51100000000E-03 0. -1.
    9900012    2    1    2    0    0 -0.20226038012E+02 -0.33278017239E+02  0.19159967076E+02  0.47787269783E+02  0.19999994250E+02 0.  0.
        -12    1    1    2    0    0  0.20226038012E+02  0.33278017239E+02 -0.19159967076E+02  0.43400730217E+02  0.00000000000E+00 0.  1.
         11    1    3    3    0    0  0.10052786774E+01 -0.11835190467E+01 -0.17081768219E+01  0.23084997009E+01  0.51100000000E-03 0.  1.
        -11    1    3    3    0    0 -0.16562283017E+02 -0.29668068525E+02  0.13815054462E+02  0.36679139014E+02  0.51100000000E-03 0. -1.
         12    1    3    3    0    0 -0.46690336716E+01 -0.24264296667E+01  0.70530894350E+01  0.87996310680E+01  0.00000000000E+00 0. -1.
</event>
<event>
 7    1  0.2442667E-009  0.4778727E+02  0.7816164E-02  0.1312668E+00
        -11   -1    0    0    0    0  0.00000000000E+00  0.00000000000E+00  0.45593999997E+02  0.45594000000E+02  0.51100000000E-03 0.  1.
         11   -1    0    0    0    0 -0.00000000000E+00 -0.00000000000E+00 -0.45593999997E+02  0.45594000000E+02  0.51100000000E-03 0. -1.
    9900012    2    1    2    0    0 -0.38184559864E+02  0.63389331675E+01 -0.19631117626E+02  0.47787268843E+02  0.19999989961E+02 0.  0.
        -12    1    1    2    0    0  0.38184559864E+02 -0.63389331675E+01  0.19631117626E+02  0.43400731157E+02  0.00000000000E+00 0.  1.
         11    1    3    3    0    0 -0.14710067433E+02  0.16593631917E+01 -0.10719863404E+01  0.14842126703E+02  0.51100000000E-03 0.  1.
        -11    1    3    3    0    0 -0.19696123281E+02  0.88384904993E+01 -0.15132315380E+02  0.26363671134E+02  0.51100000000E-03 0. -1.
        -12    1    3    3    0    0 -0.37783691502E+01 -0.41589205235E+01 -0.34268159056E+01  0.65814710063E+01  0.00000000000E+00 0.  1.
</event>
<event>
 7    1  0.2442667E-009  0.4778727E+02  0.7816164E-02  0.1312668E+00
        -11   -1    0    0    0    0  0.00000000000E+00  0.00000000000E+00  0.45593999997E+02  0.45594000000E+02  0.51100000000E-03 0. -1.
         11   -1    0    0    0    0 -0.00000000000E+00 -0.00000000000E+00 -0.45593999997E+02  0.45594000000E+02  0.51100000000E-03 0.  1.
    9900012    2    1    2    0    0  0.38699722352E+02 -0.10909165478E+02  0.16338456272E+02  0.47787267807E+02  0.19999985238E+02 0.  0.
        -12    1    1    2    0    0 -0.38699722352E+02  0.10909165478E+02 -0.16338456272E+02  0.43400732193E+02  0.00000000000E+00 0.  1.
         11    1    3    3    0    0  0.82292197249E+01 -0.74200844540E+01  0.82320532660E+01  0.13803782519E+02  0.51100000000E-03 0. -1.
        -11    1    3    3    0    0  0.88378205470E+01  0.44955253907E+01  0.30797944348E+01  0.10382772009E+02  0.51100000000E-03 0.  1.
        -12    1    3    3    0    0  0.21632682080E+02 -0.79846064142E+01  0.50266085715E+01  0.23600713280E+02  0.00000000000E+00 0.  1.
</event>
<event>
 7    1  0.2442667E-009  0.4778727E+02  0.7816164E-02  0.1312668E+00
        -11   -1    0    0    0    0  0.00000000000E+00  0.00000000000E+00  0.45593999997E+02  0.45594000000E+02  0.51100000000E-03 0. -1.
         11   -1    0    0    0    0 -0.00000000000E+00 -0.00000000000E+00 -0.45593999997E+02  0.45594000000E+02  0.51100000000E-03 0.  1.
    9900012    2    1    2    0    0  0.11312747162E+02  0.10249268166E+02  0.40627547876E+02  0.47787269675E+02  0.19999993758E+02 0.  0.
        -12    1    1    2    0    0 -0.11312747162E+02 -0.10249268166E+02 -0.40627547876E+02  0.43400730325E+02  0.00000000000E+00 0.  1.
         11    1    3    3    0    0  0.64731376199E+01  0.11154730073E+02  0.38464470090E+02  0.40569014941E+02  0.51100000000E-03 0. -1.
        -11    1    3    3    0    0  0.20860641047E+00 -0.96980829140E+00 -0.11537831923E+01  0.15215980654E+01  0.51100000000E-03 0.  1.
         12    1    3    3    0    0  0.46310031316E+01  0.64346384515E-01  0.33168609780E+01  0.56966566694E+01  0.00000000000E+00 0. -1.
</event>
<event>
 7    1  0.2442667E-009  0.4778727E+02  0.7816164E-02  0.1312668E+00
        -11   -1    0    0    0    0  0.00000000000E+00  0.00000000000E+00  0.45593999997E+02  0.45594000000E+02  0.51100000000E-03 0.  1.
         11   -1    0    0    0    0 -0.00000000000E+00 -0.00000000000E+00 -0.45593999997E+02  0.45594000000E+02  0.51100000000E-03 0. -1.
    9900012    2    1    2    0    0 -0.48066105267E+01 -0.30690716391E+02 -0.30308408962E+02  0.47787271537E+02  0.20000002246E+02 0.  0.
        -12    1    1    2    0    0  0.48066105267E+01  0.30690716391E+02  0.30308408962E+02  0.43400728463E+02  0.00000000000E+00 0.  1.
         11    1    3    3    0    0 -0.68504804107E+01 -0.17022798684E+02 -0.23053918128E+02  0.29465028393E+02  0.51100000000E-03 0. -1.
        -11    1    3    3    0    0  0.44479089102E+01 -0.12832386791E+02 -0.39361563715E+01  0.14140274809E+02  0.51100000000E-03 0.  1.
        -12    1    3    3    0    0 -0.24040390262E+01 -0.83553091528E+00 -0.33183344618E+01  0.41819683345E+01  0.00000000000E+00 0.  1.
</event>
<event>
 7    1  0.2442667E-009  0.4778729E+02  0.7816164E-02  0.1312668E+00
        -11   -1    0    0    0    0  0.00000000000E+00  0.00000000000E+00  0.45593999997E+02  0.45594000000E+02  0.51100000000E-03 0.  1.
         11   -1    0    0    0    0 -0.00000000000E+00 -0.00000000000E+00 -0.45593999997E+02  0.45594000000E+02  0.51100000000E-03 0. -1.
    9900012    2    1    2    0    0  0.25936130052E+02  0.33780515410E+02 -0.83555660383E+01  0.47787290936E+02  0.20000090695E+02 0.  0.
        -12    1    1    2    0    0 -0.25936130052E+02 -0.33780515410E+02  0.83555660383E+01  0.43400709064E+02  0.00000000000E+00 0.  1.
         11    1    3    3    0    0  0.20735471932E+02  0.24590077985E+02 -0.96489907914E+01  0.33581762240E+02  0.51100000000E-03 0. -1.
        -11    1    3    3    0    0  0.36477410500E+01  0.29921177683E+01  0.49542230014E+01  0.68412798010E+01  0.51100000000E-03 0.  1.
        -12    1    3    3    0    0  0.15529170697E+01  0.61983196560E+01 -0.36607982483E+01  0.73642488957E+01  0.00000000000E+00 0.  1.
</event>
<event>
 7    1  0.2442667E-009  0.4778727E+02  0.7816164E-02  0.1312668E+00
        -11   -1    0    0    0    0  0.00000000000E+00  0.00000000000E+00  0.45593999997E+02  0.45594000000E+02  0.51100000000E-03 0.  1.
         11   -1    0    0    0    0 -0.00000000000E+00 -0.00000000000E+00 -0.45593999997E+02  0.45594000000E+02  0.51100000000E-03 0. -1.
    9900012    2    1    2    0    0  0.30487577811E+02 -0.21918618294E+02 -0.21764767865E+02  0.47787270180E+02  0.19999996059E+02 0.  0.
        -12    1    1    2    0    0 -0.30487577811E+02  0.21918618294E+02  0.21764767865E+02  0.43400729820E+02  0.00000000000E+00 0.  1.
         11    1    3    3    0    0  0.11664913197E+01 -0.42250759949E+01 -0.93923377252E+01  0.10364746855E+02  0.51100000000E-03 0. -1.
        -11    1    3    3    0    0  0.67212781709E+01 -0.31159235668E+01  0.84521168575E+00  0.74564698738E+01  0.51100000000E-03 0.  1.
         12    1    3    3    0    0  0.22599808321E+02 -0.14577618732E+02 -0.13217641825E+02  0.29966053451E+02  0.00000000000E+00 0. -1.
</event>
<event>
 7    1  0.2442667E-009  0.4778727E+02  0.7816164E-02  0.1312668E+00
        -11   -1    0    0    0    0  0.00000000000E+00  0.00000000000E+00  0.45593999997E+02  0.45594000000E+02  0.51100000000E-03 0. -1.
         11   -1    0    0    0    0 -0.00000000000E+00 -0.00000000000E+00 -0.45593999997E+02  0.45594000000E+02  0.51100000000E-03 0.  1.
    9900012    2    1    2    0    0 -0.31265854970E+02  0.23112024840E+02 -0.19284822636E+02  0.47787265406E+02  0.19999974291E+02 0.  0.
        -12    1    1    2    0    0  0.31265854970E+02 -0.23112024840E+02  0.19284822636E+02  0.43400734594E+02  0.00000000000E+00 0.  1.
         11    1    3    3    0    0 -0.29528941165E+02  0.19928283221E+02 -0.21610511357E+02  0.41666641812E+02  0.51100000000E-03 0. -1.
        -11    1    3    3    0    0 -0.25774401245E+01  0.24512053450E+01  0.31363017175E+01  0.47421507740E+01  0.51100000000E-03 0.  1.
         12    1    3    3    0    0  0.84052631932E+00  0.73253627361E+00 -0.81061299642E+00  0.13784728200E+01  0.00000000000E+00 0. -1.
</event>
<event>
 7    1  0.2442667E-009  0.4778727E+02  0.7816164E-02  0.1312668E+00
        -11   -1    0    0    0    0  0.00000000000E+00  0.00000000000E+00  0.45593999997E+02  0.45594000000E+02  0.51100000000E-03 0. -1.
         11   -1    0    0    0    0 -0.00000000000E+00 -0.00000000000E+00 -0.45593999997E+02  0.45594000000E+02  0.51100000000E-03 0.  1.
    9900012    2    1    2    0    0 -0.88749193732E+01  0.35085691981E+01  0.42338504394E+02  0.47787271826E+02  0.20000003562E+02 0.  0.
        -12    1    1    2    0    0  0.88749193732E+01 -0.35085691981E+01 -0.42338504394E+02  0.43400728174E+02  0.00000000000E+00 0.  1.
         11    1    3    3    0    0 -0.10215933270E+01  0.29108133436E+01  0.57453810211E+00  0.31379263119E+01  0.51100000000E-03 0.  1.
        -11    1    3    3    0    0 -0.68987470573E+00 -0.29044666437E+01  0.31552811833E+02  0.31693718438E+02  0.51100000000E-03 0. -1.
        -12    1    3    3    0    0 -0.71634513404E+01  0.35022224981E+01  0.10211154459E+02  0.12955627076E+02  0.00000000000E+00 0.  1.
</event>
<event>
 7    1  0.2442667E-009  0.4778727E+02  0.7816164E-02  0.1312668E+00
        -11   -1    0    0    0    0  0.00000000000E+00  0.00000000000E+00  0.45593999997E+02  0.45594000000E+02  0.51100000000E-03 0.  1.
         11   -1    0    0    0    0 -0.00000000000E+00 -0.00000000000E+00 -0.45593999997E+02  0.45594000000E+02  0.51100000000E-03 0. -1.
    9900012    2    1    2    0    0 -0.36022336045E+02  0.16497376689E+02 -0.17715854488E+02  0.47787266918E+02  0.19999981188E+02 0.  0.
        -12    1    1    2    0    0  0.36022336045E+02 -0.16497376689E+02  0.17715854488E+02  0.43400733082E+02  0.00000000000E+00 0.  1.
         11    1    3    3    0    0 -0.26757093480E+01  0.92695717109E+01 -0.17151707487E+01  0.97992954429E+01  0.51100000000E-03 0. -1.
        -11    1    3    3    0    0 -0.31511953871E+02  0.74497505789E+01 -0.16048292019E+02  0.36139309587E+02  0.51100000000E-03 0.  1.
         12    1    3    3    0    0 -0.18346728262E+01 -0.22194560053E+00  0.47608280211E-01  0.18486618883E+01  0.00000000000E+00 0. -1.
</event>
<event>
 7    1  0.2442667E-009  0.4778729E+02  0.7816164E-02  0.1312668E+00
        -11   -1    0    0    0    0  0.00000000000E+00  0.00000000000E+00  0.45593999997E+02  0.45594000000E+02  0.51100000000E-03 0.  1.
         11   -1    0    0    0    0 -0.00000000000E+00 -0.00000000000E+00 -0.45593999997E+02  0.45594000000E+02  0.51100000000E-03 0. -1.
    9900012    2    1    2    0    0  0.35550606464E+02  0.20935630815E+02 -0.13471271898E+02  0.47787292354E+02  0.20000097161E+02 0.  0.
        -12    1    1    2    0    0 -0.35550606464E+02 -0.20935630815E+02  0.13471271898E+02  0.43400707646E+02  0.00000000000E+00 0.  1.
         11    1    3    3    0    0  0.97425066496E+01  0.56128524608E+01 -0.10352331350E+02  0.15283694357E+02  0.51100000000E-03 0. -1.
        -11    1    3    3    0    0  0.24081947215E+02  0.89017893028E+01 -0.30426114599E+01  0.25854197323E+02  0.51100000000E-03 0.  1.
        -12    1    3    3    0    0  0.17261525988E+01  0.64209890515E+01 -0.76329088793E-01  0.66494006740E+01  0.00000000000E+00 0.  1.
</event>
<event>
 7    1  0.2442667E-009  0.4778727E+02  0.7816164E-02  0.1312668E+00
        -11   -1    0    0    0    0  0.00000000000E+00  0.00000000000E+00  0.45593999997E+02  0.45594000000E+02  0.51100000000E-03 0. -1.
         11   -1    0    0    0    0 -0.00000000000E+00 -0.00000000000E+00 -0.45593999997E+02  0.45594000000E+02  0.51100000000E-03 0.  1.
    9900012    2    1    2    0    0 -0.24114218075E+02 -0.33340306212E+02  0.13804047727E+02  0.47787271143E+02  0.20000000450E+02 0.  0.
        -12    1    1    2    0    0  0.24114218075E+02  0.33340306212E+02 -0.13804047727E+02  0.43400728857E+02  0.00000000000E+00 0.  1.
         11    1    3    3    0    0 -0.18803164282E+02 -0.23295991681E+02  0.16172389751E+02  0.34026583813E+02  0.51100000000E-03 0. -1.
        -11    1    3    3    0    0 -0.52464497518E+01 -0.86823938897E+01 -0.46054046509E+01  0.11140868499E+02  0.51100000000E-03 0.  1.
        -12    1    3    3    0    0 -0.64604040478E-01 -0.13619206416E+01  0.22370626263E+01  0.26198188315E+01  0.00000000000E+00 0.  1.
</event>
<event>
 7    1  0.2442667E-009  0.4778725E+02  0.7816164E-02  0.1312668E+00
        -11   -1    0    0    0    0  0.00000000000E+00  0.00000000000E+00  0.45593999997E+02  0.45594000000E+02  0.51100000000E-03 0.  1.
         11   -1    0    0    0    0 -0.00000000000E+00 -0.00000000000E+00 -0.45593999997E+02  0.45594000000E+02  0.51100000000E-03 0. -1.
    9900012    2    1    2    0    0 -0.14103503166E+02 -0.40733435924E+02  0.50500817611E+01  0.47787251971E+02  0.19999913035E+02 0.  0.
        -12    1    1    2    0    0  0.14103503166E+02  0.40733435924E+02 -0.50500817611E+01  0.43400748029E+02  0.00000000000E+00 0.  1.
         11    1    3    3    0    0 -0.32782782672E+01 -0.18130724073E+02 -0.17944052379E+01  0.18511892238E+02  0.51100000000E-03 0. -1.
        -11    1    3    3    0    0  0.18581170041E+01 -0.47187622066E+01  0.52392918499E+01  0.72917415556E+01  0.51100000000E-03 0.  1.
        -12    1    3    3    0    0 -0.12683341903E+02 -0.17883949644E+02  0.16051951492E+01  0.21983618177E+02  0.00000000000E+00 0.  1.
</event>
<event>
 7    1  0.2442667E-009  0.4778727E+02  0.7816164E-02  0.1312668E+00
        -11   -1    0    0    0    0  0.00000000000E+00  0.00000000000E+00  0.45593999997E+02  0.45594000000E+02  0.51100000000E-03 0. -1.
         11   -1    0    0    0    0 -0.00000000000E+00 -0.00000000000E+00 -0.45593999997E+02  0.45594000000E+02  0.51100000000E-03 0.  1.
    9900012    2    1    2    0    0  0.33828217553E+02  0.26348382539E+02 -0.67110236100E+01  0.47787269556E+02  0.19999993213E+02 0.  0.
        -12    1    1    2    0    0 -0.33828217553E+02 -0.26348382539E+02  0.67110236100E+01  0.43400730444E+02  0.00000000000E+00 0.  1.
         11    1    3    3    0    0  0.97036919573E+01  0.18176324577E+02 -0.41048958572E+01  0.21009297537E+02  0.51100000000E-03 0. -1.
        -11    1    3    3    0    0  0.17969011586E+02  0.76125707294E+01 -0.50070693241E+01  0.20147142576E+02  0.51100000000E-03 0.  1.
         12    1    3    3    0    0  0.61555140088E+01  0.55948723252E+00  0.24009415714E+01  0.66308294433E+01  0.00000000000E+00 0. -1.
</event>
<event>
 7    1  0.2442667E-009  0.4778727E+02  0.7816164E-02  0.1312668E+00
        -11   -1    0    0    0    0  0.00000000000E+00  0.00000000000E+00  0.45593999997E+02  0.45594000000E+02  0.51100000000E-03 0.  1.
         11   -1    0    0    0    0 -0.00000000000E+00 -0.00000000000E+00 -0.45593999997E+02  0.45594000000E+02  0.51100000000E-03 0. -1.
    9900012    2    1    2    0    0  0.59345178604E+01  0.39005444585E+02 -0.18082593193E+02  0.47787269751E+02  0.19999994103E+02 0.  0.
        -12    1    1    2    0    0 -0.59345178604E+01 -0.39005444585E+02  0.18082593193E+02  0.43400730249E+02  0.00000000000E+00 0.  1.
         11    1    3    3    0    0  0.24511852340E+01 -0.30379727827E+00 -0.45769354583E+01  0.52008595720E+01  0.51100000000E-03 0.  1.
        -11    1    3    3    0    0 -0.70373970080E+00  0.21769704805E+02 -0.38069834317E+01  0.22111273594E+02  0.51100000000E-03 0. -1.
        -12    1    3    3    0    0  0.41870723272E+01  0.17539537059E+02 -0.96986743034E+01  0.20475136585E+02  0.00000000000E+00 0.  1.
</event>
<event>
 7    1  0.2442667E-009  0.4778728E+02  0.7816164E-02  0.1312668E+00
        -11   -1    0    0    0    0  0.00000000000E+00  0.00000000000E+00  0.45593999997E+02  0.45594000000E+02  0.51100000000E-03 0. -1.
         11   -1    0    0    0    0 -0.00000000000E+00 -0.00000000000E+00 -0.45593999997E+02  0.45594000000E+02  0.51100000000E-03 0.  1.
    9900012    2    1    2    0    0 -0.43006805769E+02  0.57891057812E+01  0.72346514389E+00  0.47787280075E+02  0.20000041176E+02 0.  0.
        -12    1    1    2    0    0  0.43006805769E+02 -0.57891057812E+01 -0.72346514389E+00  0.43400719925E+02  0.00000000000E+00 0.  1.
         11    1    3    3    0    0 -0.20735892731E+02  0.10751484442E+02  0.76633104618E+00  0.23370043402E+02  0.51100000000E-03 0. -1.
        -11    1    3    3    0    0 -0.20136162824E+02 -0.25886722326E+01  0.23361676796E+01  0.20435849796E+02  0.51100000000E-03 0.  1.
        -12    1    3    3    0    0 -0.21347502130E+01 -0.23737064285E+01 -0.23790335819E+01  0.39813868770E+01  0.00000000000E+00 0.  1.
</event>
<event>
 7    1  0.2442667E-009  0.4778727E+02  0.7816164E-02  0.1312668E+00
        -11   -1    0    0    0    0  0.00000000000E+00  0.00000000000E+00  0.45593999997E+02  0.45594000000E+02  0.51100000000E-03 0.  1.
         11   -1    0    0    0    0 -0.00000000000E+00 -0.00000000000E+00 -0.45593999997E+02  0.45594000000E+02  0.51100000000E-03 0. -1.
    9900012    2    1    2    0    0  0.22827441833E+01 -0.11220064525E+02 -0.41863140998E+02  0.47787270246E+02  0.19999996359E+02 0.  0.
        -12    1    1    2    0    0 -0.22827441833E+01  0.11220064525E+02  0.41863140998E+02  0.43400729754E+02  0.00000000000E+00 0.  1.
         11    1    3    3    0    0  0.67069867790E+01 -0.74763662768E+01 -0.18709662311E+02  0.21235140414E+02  0.51100000000E-03 0.  1.
        -11    1    3    3    0    0 -0.58170478001E+01 -0.71389151244E+01 -0.18085230450E+02  0.20294770631E+02  0.51100000000E-03 0. -1.
         12    1    3    3    0    0  0.13928052045E+01  0.33952168764E+01 -0.50682482373E+01  0.62573592010E+01  0.00000000000E+00 0. -1.
</event>
<event>
 7    1  0.2442667E-009  0.4778727E+02  0.7816164E-02  0.1312668E+00
        -11   -1    0    0    0    0  0.00000000000E+00  0.00000000000E+00  0.45593999997E+02  0.45594000000E+02  0.51100000000E-03 0.  1.
         11   -1    0    0    0    0 -0.00000000000E+00 -0.00000000000E+00 -0.45593999997E+02  0.45594000000E+02  0.51100000000E-03 0. -1.
    9900012    2    1    2    0    0  0.77416411001E-01  0.30135618235E+02 -0.31232384184E+02  0.47787270726E+02  0.19999998550E+02 0.  0.
        -12    1    1    2    0    0 -0.77416411001E-01 -0.30135618235E+02  0.31232384184E+02  0.43400729274E+02  0.00000000000E+00 0.  1.
         11    1    3    3    0    0  0.27790326030E+01  0.12595724166E+02 -0.99701760123E+01  0.16302751285E+02  0.51100000000E-03 0. -1.
        -11    1    3    3    0    0  0.45386775758E+01  0.10753300414E+02 -0.17144442161E+02  0.20740418539E+02  0.51100000000E-03 0.  1.
        -12    1    3    3    0    0 -0.72402937678E+01  0.67865936547E+01 -0.41177660110E+01  0.10744100902E+02  0.00000000000E+00 0.  1.
</event>
<event>
 7    1  0.2442667E-009  0.4778730E+02  0.7816164E-02  0.1312668E+00
        -11   -1    0    0    0    0  0.00000000000E+00  0.00000000000E+00  0.45593999997E+02  0.45594000000E+02  0.51100000000E-03 0.  1.
         11   -1    0    0    0    0 -0.00000000000E+00 -0.00000000000E+00 -0.45593999997E+02  0.45594000000E+02  0.51100000000E-03 0. -1.
    9900012    2    1    2    0    0 -0.31699044976E+01 -0.37981899516E+02 -0.20759290609E+02  0.47787295720E+02  0.20000112508E+02 0.  0.
        -12    1    1    2    0    0  0.31699044976E+01  0.37981899516E+02  0.20759290609E+02  0.43400704280E+02  0.00000000000E+00 0.  1.
         11    1    3    3    0    0  0.22893672118E+01 -0.17649520309E+00 -0.39789233147E+01  0.45939290148E+01  0.51100000000E-03 0. -1.
        -11    1    3    3    0    0 -0.52773661688E+01 -0.29937552763E+02 -0.80654893436E+01  0.31450910603E+02  0.51100000000E-03 0.  1.
         12    1    3    3    0    0 -0.18190554057E+00 -0.78678515497E+01 -0.87148779504E+01  0.11742456103E+02  0.00000000000E+00 0. -1.
</event>
<event>
 7    1  0.2442667E-009  0.4778727E+02  0.7816164E-02  0.1312668E+00
        -11   -1    0    0    0    0  0.00000000000E+00  0.00000000000E+00  0.45593999997E+02  0.45594000000E+02  0.51100000000E-03 0.  1.
         11   -1    0    0    0    0 -0.00000000000E+00 -0.00000000000E+00 -0.45593999997E+02  0.45594000000E+02  0.51100000000E-03 0. -1.
    9900012    2    1    2    0    0 -0.20581818308E+02  0.93642420135E+01 -0.37044875317E+02  0.47787273501E+02  0.20000011202E+02 0.  0.
        -12    1    1    2    0    0  0.20581818308E+02 -0.93642420135E+01  0.37044875317E+02  0.43400726499E+02  0.00000000000E+00 0.  1.
         11    1    3    3    0    0 -0.23587706342E+01  0.32499141116E+00 -0.18110478860E+02  0.18266331408E+02  0.51100000000E-03 0. -1.
        -11    1    3    3    0    0 -0.28965209282E+01  0.16470083680E+01 -0.94935514704E+01  0.10061311536E+02  0.51100000000E-03 0.  1.
         12    1    3    3    0    0 -0.15326526746E+02  0.73922422343E+01 -0.94408449867E+01  0.19459630557E+02  0.00000000000E+00 0. -1.
</event>
<event>
 7    1  0.2442667E-009  0.4778727E+02  0.7816164E-02  0.1312668E+00
        -11   -1    0    0    0    0  0.00000000000E+00  0.00000000000E+00  0.45593999997E+02  0.45594000000E+02  0.51100000000E-03 0.  1.
         11   -1    0    0    0    0 -0.00000000000E+00 -0.00000000000E+00 -0.45593999997E+02  0.45594000000E+02  0.51100000000E-03 0. -1.
    9900012    2    1    2    0    0  0.54443290320E+01 -0.38382230932E+02 -0.19513759363E+02  0.47787272190E+02  0.20000005222E+02 0.  0.
        -12    1    1    2    0    0 -0.54443290320E+01  0.38382230932E+02  0.19513759363E+02  0.43400727810E+02  0.00000000000E+00 0.  1.
         11    1    3    3    0    0  0.72693311089E+01 -0.25092510658E+02 -0.20433038299E+02  0.33166041673E+02  0.51100000000E-03 0. -1.
        -11    1    3    3    0    0 -0.14687073773E+01 -0.12605334413E+02  0.24334439861E+01  0.12921811286E+02  0.51100000000E-03 0.  1.
         12    1    3    3    0    0 -0.35629469958E+00 -0.68438586179E+00 -0.15141650505E+01  0.16994192305E+01  0.00000000000E+00 0. -1.
</event>
<event>
 7    1  0.2442667E-009  0.4778727E+02  0.7816164E-02  0.1312668E+00
        -11   -1    0    0    0    0  0.00000000000E+00  0.00000000000E+00  0.45593999997E+02  0.45594000000E+02  0.51100000000E-03 0. -1.
         11   -1    0    0    0    0 -0.00000000000E+00 -0.00000000000E+00 -0.45593999997E+02  0.45594000000E+02  0.51100000000E-03 0.  1.
    9900012    2    1    2    0    0  0.41232464938E+02  0.97972360525E+01 -0.93552742801E+01  0.47787272402E+02  0.20000006192E+02 0.  0.
        -12    1    1    2    0    0 -0.41232464938E+02 -0.97972360525E+01  0.93552742801E+01  0.43400727598E+02  0.00000000000E+00 0.  1.
         11    1    3    3    0    0  0.19554180497E+02  0.12288514574E+02 -0.45076741447E+01  0.23530675549E+02  0.51100000000E-03 0. -1.
        -11    1    3    3    0    0  0.34538433718E+01 -0.82031425427E-01 -0.47497692026E+01  0.58733355882E+01  0.51100000000E-03 0.  1.
         12    1    3    3    0    0  0.18224441070E+02 -0.24092470956E+01 -0.97830932757E-01  0.18383261266E+02  0.00000000000E+00 0. -1.
</event>
<event>
 7    1  0.2442667E-009  0.4778729E+02  0.7816164E-02  0.1312668E+00
        -11   -1    0    0    0    0  0.00000000000E+00  0.00000000000E+00  0.45593999997E+02  0.45594000000E+02  0.51100000000E-03 0.  1.
         11   -1    0    0    0    0 -0.00000000000E+00 -0.00000000000E+00 -0.45593999997E+02  0.45594000000E+02  0.51100000000E-03 0. -1.
    9900012    2    1    2    0    0 -0.34427322409E+02  0.60936959519E+01 -0.25714738044E+02  0.47787292502E+02  0.20000097834E+02 0.  0.
        -12    1    1    2    0    0  0.34427322409E+02 -0.60936959519E+01  0.25714738044E+02  0.43400707498E+02  0.00000000000E+00 0.  1.
         11    1    3    3    0    0 -0.18727605240E+02  0.54945321772E+01 -0.16465294842E+02  0.25534663036E+02  0.51100000000E-03 0. -1.
        -11    1    3    3    0    0  0.17193105940E+01  0.12623381126E+01 -0.31105342321E+01  0.37715977913E+01  0.51100000000E-03 0.  1.
        -12    1    3    3    0    0 -0.17419027763E+02 -0.66317433783E+00 -0.61389089698E+01  0.18481031675E+02  0.00000000000E+00 0.  1.
</event>
<event>
 7    1  0.2442667E-009  0.4778727E+02  0.7816164E-02  0.1312668E+00
        -11   -1    0    0    0    0  0.00000000000E+00  0.00000000000E+00  0.45593999997E+02  0.45594000000E+02  0.51100000000E-03 0. -1.
         11   -1    0    0    0    0 -0.00000000000E+00 -0.00000000000E+00 -0.45593999997E+02  0.45594000000E+02  0.51100000000E-03 0.  1.
    9900012    2    1    2    0    0 -0.13282657051E+02 -0.40353523058E+02 -0.88762323768E+01  0.47787270712E+02  0.19999998483E+02 0.  0.
        -12    1    1    2    0    0  0.13282657051E+02  0.40353523058E+02  0.88762323768E+01  0.43400729288E+02  0.00000000000E+00 0.  1.
         11    1    3    3    0    0  0.36805800768E+01 -0.11128585871E+02 -0.38309776896E+01  0.12331605066E+02  0.51100000000E-03 0. -1.
        -11    1    3    3    0    0 -0.11594521798E+02 -0.11958226472E+02  0.97055557712E-01  0.16656576363E+02  0.51100000000E-03 0.  1.
         12    1    3    3    0    0 -0.53687153298E+01 -0.17266710715E+02 -0.51423102449E+01  0.18799089283E+02  0.00000000000E+00 0. -1.
</event>
<event>
 7    1  0.2442667E-009  0.4778727E+02  0.7816164E-02  0.1312668E+00
        -11   -1    0    0    0    0  0.00000000000E+00  0.00000000000E+00  0.45593999997E+02  0.45594000000E+02  0.51100000000E-03 0.  1.
         11   -1    0    0    0    0 -0.00000000000E+00 -0.00000000000E+00 -0.45593999997E+02  0.45594000000E+02  0.51100000000E-03 0. -1.
    9900012    2    1    2    0    0  0.39695314727E+02 -0.42983974992E+01 -0.17012613866E+02  0.47787271171E+02  0.20000000576E+02 0.  0.
        -12    1    1    2    0    0 -0.39695314727E+02  0.42983974992E+01  0.17012613866E+02  0.43400728829E+02  0.00000000000E+00 0.  1.
         11    1    3    3    0    0  0.17117162598E+02 -0.39298439725E+00 -0.17933469114E+01  0.17215335767E+02  0.51100000000E-03 0. -1.
        -11    1    3    3    0    0 -0.12121819438E+01 -0.29321421656E+00 -0.36792251350E+01  0.38848497393E+01  0.51100000000E-03 0.  1.
        -12    1    3    3    0    0  0.23790334073E+02 -0.36121988853E+01 -0.11540041819E+02  0.26687085665E+02  0.00000000000E+00 0.  1.
</event>
<event>
 7    1  0.2442667E-009  0.4778727E+02  0.7816164E-02  0.1312668E+00
        -11   -1    0    0    0    0  0.00000000000E+00  0.00000000000E+00  0.45593999997E+02  0.45594000000E+02  0.51100000000E-03 0. -1.
         11   -1    0    0    0    0 -0.00000000000E+00 -0.00000000000E+00 -0.45593999997E+02  0.45594000000E+02  0.51100000000E-03 0.  1.
    9900012    2    1    2    0    0 -0.34904705323E+02 -0.24635221571E+02 -0.76413853326E+01  0.47787269991E+02  0.19999995195E+02 0.  0.
        -12    1    1    2    0    0  0.34904705323E+02  0.24635221571E+02  0.76413853326E+01  0.43400730009E+02  0.00000000000E+00 0.  1.
         11    1    3    3    0    0 -0.35157816094E+01 -0.10303244140E+02 -0.73755251365E+01  0.13149750242E+02  0.51100000000E-03 0. -1.
        -11    1    3    3    0    0 -0.19358169040E+02 -0.75800695739E+01  0.76269801103E+00  0.20803313963E+02  0.51100000000E-03 0.  1.
         12    1    3    3    0    0 -0.12030754673E+02 -0.67519078577E+01 -0.10285582072E+01  0.13834205785E+02  0.00000000000E+00 0. -1.
</event>
<event>
 7    1  0.2442667E-009  0.4778727E+02  0.7816164E-02  0.1312668E+00
        -11   -1    0    0    0    0  0.00000000000E+00  0.00000000000E+00  0.45593999997E+02  0.45594000000E+02  0.51100000000E-03 0.  1.
         11   -1    0    0    0    0 -0.00000000000E+00 -0.00000000000E+00 -0.45593999997E+02  0.45594000000E+02  0.51100000000E-03 0. -1.
    9900012    2    1    2    0    0  0.18831356473E+02  0.33902699319E+02 -0.19483595516E+02  0.47787268417E+02  0.19999988019E+02 0.  0.
        -12    1    1    2    0    0 -0.18831356473E+02 -0.33902699319E+02  0.19483595516E+02  0.43400731583E+02  0.00000000000E+00 0.  1.
         11    1    3    3    0    0  0.55510635424E+01  0.97659714922E+01 -0.35396132736E+01  0.11777833758E+02  0.51100000000E-03 0. -1.
        -11    1    3    3    0    0  0.16282656175E+02  0.14997646270E+02 -0.14008078546E+02  0.26196956895E+02  0.51100000000E-03 0.  1.
        -12    1    3    3    0    0 -0.30023632436E+01  0.91390815562E+01 -0.19359036961E+01  0.98124777635E+01  0.00000000000E+00 0.  1.
</event>
<event>
 7    1  0.2442667E-009  0.4778727E+02  0.7816164E-02  0.1312668E+00
        -11   -1    0    0    0    0  0.00000000000E+00  0.00000000000E+00  0.45593999997E+02  0.45594000000E+02  0.51100000000E-03 0. -1.
         11   -1    0    0    0    0 -0.00000000000E+00 -0.00000000000E+00 -0.45593999997E+02  0.45594000000E+02  0.51100000000E-03 0.  1.
    9900012    2    1    2    0    0  0.92512289302E+01  0.32497690305E+02  0.27238539293E+02  0.47787272648E+02  0.20000007310E+02 0.  0.
        -12    1    1    2    0    0 -0.92512289302E+01 -0.32497690305E+02 -0.27238539293E+02  0.43400727352E+02  0.00000000000E+00 0.  1.
         11    1    3    3    0    0  0.38730810116E+00  0.19027145150E+02  0.66652961391E+01  0.20164534039E+02  0.51100000000E-03 0. -1.
        -11    1    3    3    0    0  0.24884915136E+01  0.17275974897E+01 -0.72515718582E-01  0.30302544266E+01  0.51100000000E-03 0.  1.
         12    1    3    3    0    0  0.63754293154E+01  0.11742947665E+02  0.20645758872E+02  0.24592484182E+02  0.00000000000E+00 0. -1.
</event>
<event>
 7    1  0.2442667E-009  0.4778727E+02  0.7816164E-02  0.1312668E+00
        -11   -1    0    0    0    0  0.00000000000E+00  0.00000000000E+00  0.45593999997E+02  0.45594000000E+02  0.51100000000E-03 0.  1.
         11   -1    0    0    0    0 -0.00000000000E+00 -0.00000000000E+00 -0.45593999997E+02  0.45594000000E+02  0.51100000000E-03 0. -1.
    9900012    2    1    2    0    0  0.31968663413E+02 -0.23894411212E+02 -0.17049498249E+02  0.47787265927E+02  0.19999976665E+02 0.  0.
        -12    1    1    2    0    0 -0.31968663413E+02  0.23894411212E+02  0.17049498249E+02  0.43400734073E+02  0.00000000000E+00 0.  1.
         11    1    3    3    0    0  0.22742640524E+02 -0.17427848178E+02 -0.13111615971E+02  0.31509872481E+02  0.51100000000E-03 0. -1.
        -11    1    3    3    0    0  0.34151334555E+01  0.23452076735E+01 -0.39470884529E+01  0.57221187568E+01  0.51100000000E-03 0.  1.
        -12    1    3    3    0    0  0.58108894335E+01 -0.88117707073E+01  0.92061747655E-02  0.10555274689E+02  0.00000000000E+00 0.  1.
</event>
<event>
 7    1  0.2442667E-009  0.4778728E+02  0.7816164E-02  0.1312668E+00
        -11   -1    0    0    0    0  0.00000000000E+00  0.00000000000E+00  0.45593999997E+02  0.45594000000E+02  0.51100000000E-03 0.  1.
         11   -1    0    0    0    0 -0.00000000000E+00 -0.00000000000E+00 -0.45593999997E+02  0.45594000000E+02  0.51100000000E-03 0. -1.
    9900012    2    1    2    0    0 -0.31364503240E+02 -0.24484401320E+02 -0.17332193105E+02  0.47787275475E+02  0.20000020198E+02 0.  0.
        -12    1    1    2    0    0  0.31364503240E+02  0.24484401320E+02  0.17332193105E+02  0.43400724525E+02  0.00000000000E+00 0.  1.
         11    1    3    3    0    0 -0.99261833218E+01 -0.59951097324E-01 -0.43808652126E+01  0.10850100909E+02  0.51100000000E-03 0. -1.
        -11    1    3    3    0    0 -0.12245374363E+02 -0.19142458418E+02 -0.40254577673E+01  0.23077851245E+02  0.51100000000E-03 0.  1.
        -12    1    3    3    0    0 -0.91929455551E+01 -0.52819918051E+01 -0.89258701250E+01  0.13859323320E+02  0.00000000000E+00 0.  1.
</event>
<event>
 7    1  0.2442667E-009  0.4778727E+02  0.7816164E-02  0.1312668E+00
        -11   -1    0    0    0    0  0.00000000000E+00  0.00000000000E+00  0.45593999997E+02  0.45594000000E+02  0.51100000000E-03 0. -1.
         11   -1    0    0    0    0 -0.00000000000E+00 -0.00000000000E+00 -0.45593999997E+02  0.45594000000E+02  0.51100000000E-03 0.  1.
    9900012    2    1    2    0    0  0.87935273215E+01  0.10417359560E+02  0.41204076306E+02  0.47787269509E+02  0.19999992999E+02 0.  0.
        -12    1    1    2    0    0 -0.87935273215E+01 -0.10417359560E+02 -0.41204076306E+02  0.43400730491E+02  0.00000000000E+00 0.  1.
         11    1    3    3    0    0  0.40460709445E+01  0.10811897330E+02  0.34605977337E+02  0.36480700126E+02  0.51100000000E-03 0. -1.
        -11    1    3    3    0    0  0.47251131535E+01 -0.22978138481E+01  0.94094971193E+00  0.53377925602E+01  0.51100000000E-03 0.  1.
        -12    1    3    3    0    0  0.22343223441E-01  0.19032760780E+01  0.56571492568E+01  0.59687768230E+01  0.00000000000E+00 0.  1.
</event>
<event>
 7    1  0.2442667E-009  0.4778727E+02  0.7816164E-02  0.1312668E+00
        -11   -1    0    0    0    0  0.00000000000E+00  0.00000000000E+00  0.45593999997E+02  0.45594000000E+02  0.51100000000E-03 0.  1.
         11   -1    0    0    0    0 -0.00000000000E+00 -0.00000000000E+00 -0.45593999997E+02  0.45594000000E+02  0.51100000000E-03 0. -1.
    9900012    2    1    2    0    0  0.38887943238E+02 -0.17658718744E+02  0.77149781650E+01  0.47787269994E+02  0.19999995212E+02 0.  0.
        -12    1    1    2    0    0 -0.38887943238E+02  0.17658718744E+02 -0.77149781650E+01  0.43400730006E+02  0.00000000000E+00 0.  1.
         11    1    3    3    0    0  0.13310111173E+02  0.13699746399E+01 -0.62830083233E+00  0.13395172718E+02  0.51100000000E-03 0. -1.
        -11    1    3    3    0    0  0.17017284563E+02 -0.13756527780E+02  0.93227830859E+00  0.21902035831E+02  0.51100000000E-03 0.  1.
        -12    1    3    3    0    0  0.85605475016E+01 -0.52721656041E+01  0.74110006888E+01  0.12490061445E+02  0.00000000000E+00 0.  1.
</event>
<event>
 7    1  0.2442667E-009  0.4778730E+02  0.7816164E-02  0.1312668E+00
        -11   -1    0    0    0    0  0.00000000000E+00  0.00000000000E+00  0.45593999997E+02  0.45594000000E+02  0.51100000000E-03 0. -1.
         11   -1    0    0    0    0 -0.00000000000E+00 -0.00000000000E+00 -0.45593999997E+02  0.45594000000E+02  0.51100000000E-03 0.  1.
    9900012    2    1    2    0    0  0.18842231210E+02 -0.27635610177E+02  0.27656170708E+02  0.47787304095E+02  0.20000150689E+02 0.  0.
        -12    1    1    2    0    0 -0.18842231210E+02  0.27635610177E+02 -0.27656170708E+02  0.43400695905E+02  0.00000000000E+00 0.  1.
         11    1    3    3    0    0  0.12342116443E+02 -0.11069800731E+02  0.17421393449E+02  0.24049392434E+02  0.51100000000E-03 0. -1.
        -11    1    3    3    0    0 -0.15684770474E+01 -0.94885630525E+01  0.11677134947E+01  0.96879566533E+01  0.51100000000E-03 0.  1.
         12    1    3    3    0    0  0.80685918151E+01 -0.70772463942E+01  0.90670637640E+01  0.14049955007E+02  0.00000000000E+00 0. -1.
</event>
<event>
 7    1  0.2442667E-009  0.4778727E+02  0.7816164E-02  0.1312668E+00
        -11   -1    0    0    0    0  0.00000000000E+00  0.00000000000E+00  0.45593999997E+02  0.45594000000E+02  0.51100000000E-03 0.  1.
         11   -1    0    0    0    0 -0.00000000000E+00 -0.00000000000E+00 -0.45593999997E+02  0.45594000000E+02  0.51100000000E-03 0. -1.
    9900012    2    1    2    0    0  0.15423672470E+02 -0.33220769359E+02 -0.23283337842E+02  0.47787274081E+02  0.20000013844E+02 0.  0.
        -12    1    1    2    0    0 -0.15423672470E+02  0.33220769359E+02  0.23283337842E+02  0.43400725919E+02  0.00000000000E+00 0.  1.
         11    1    3    3    0    0  0.11735254690E+02 -0.23831650367E+02 -0.21544831081E+02  0.34202975140E+02  0.51100000000E-03 0. -1.
        -11    1    3    3    0    0  0.34469591640E+01 -0.44456814686E-01 -0.24197407639E+01  0.42117276161E+01  0.51100000000E-03 0.  1.
         12    1    3    3    0    0  0.24145861613E+00 -0.93446621774E+01  0.68123400317E+00  0.93725713249E+01  0.00000000000E+00 0. -1.
</event>
<event>
 7    1  0.2442667E-009  0.4778727E+02  0.7816164E-02  0.1312668E+00
        -11   -1    0    0    0    0  0.00000000000E+00  0.00000000000E+00  0.45593999997E+02  0.45594000000E+02  0.51100000000E-03 0. -1.
         11   -1    0    0    0    0 -0.00000000000E+00 -0.00000000000E+00 -0.45593999997E+02  0.45594000000E+02  0.51100000000E-03 0.  1.
    9900012    2    1    2    0    0 -0.26515144123E+02 -0.17411580262E+02  0.29621062425E+02  0.47787270349E+02  0.19999996830E+02 0.  0.
        -12    1    1    2    0    0  0.26515144123E+02  0.17411580262E+02 -0.29621062425E+02  0.43400729651E+02  0.00000000000E+00 0.  1.
         11    1    3    3    0    0 -0.16827937789E+02 -0.13997381819E+02  0.22903832287E+02  0.31681094074E+02  0.51100000000E-03 0. -1.
        -11    1    3    3    0    0 -0.28961339862E+01  0.84832021855E+00 -0.24789676521E+01  0.39054474955E+01  0.51100000000E-03 0.  1.
        -12    1    3    3    0    0 -0.67910723475E+01 -0.42625186612E+01  0.91961977902E+01  0.12200728780E+02  0.00000000000E+00 0.  1.
</event>
<event>
 7    1  0.2442667E-009  0.4778727E+02  0.7816164E-02  0.1312668E+00
        -11   -1    0    0    0    0  0.00000000000E+00  0.00000000000E+00  0.45593999997E+02  0.45594000000E+02  0.51100000000E-03 0. -1.
         11   -1    0    0    0    0 -0.00000000000E+00 -0.00000000000E+00 -0.45593999997E+02  0.45594000000E+02  0.51100000000E-03 0.  1.
    9900012    2    1    2    0    0 -0.73525373635E+01  0.16178703222E+02  0.39595622853E+02  0.47787267371E+02  0.19999983253E+02 0.  0.
        -12    1    1    2    0    0  0.73525373635E+01 -0.16178703222E+02 -0.39595622853E+02  0.43400732629E+02  0.00000000000E+00 0.  1.
         11    1    3    3    0    0  0.34770487936E+00  0.63075679432E+01  0.29176492466E+02  0.29852537998E+02  0.51100000000E-03 0. -1.
        -11    1    3    3    0    0 -0.74632278220E+01  0.10398838114E+02  0.11168964360E+02  0.16987682855E+02  0.51100000000E-03 0.  1.
        -12    1    3    3    0    0 -0.23701442090E+00 -0.52770283556E+00 -0.74983397410E+00  0.94704651791E+00  0.00000000000E+00 0.  1.
</event>
<event>
 7    1  0.2442667E-009  0.4778727E+02  0.7816164E-02  0.1312668E+00
        -11   -1    0    0    0    0  0.00000000000E+00  0.00000000000E+00  0.45593999997E+02  0.45594000000E+02  0.51100000000E-03 0. -1.
         11   -1    0    0    0    0 -0.00000000000E+00 -0.00000000000E+00 -0.45593999997E+02  0.45594000000E+02  0.51100000000E-03 0.  1.
    9900012    2    1    2    0    0 -0.28713786259E+02  0.38635307182E+01  0.32314310491E+02  0.47787273584E+02  0.20000011579E+02 0.  0.
        -12    1    1    2    0    0  0.28713786259E+02 -0.38635307182E+01 -0.32314310491E+02  0.43400726416E+02  0.00000000000E+00 0.  1.
         11    1    3    3    0    0 -0.80139060070E+01 -0.11574915792E+01  0.17392012509E+02  0.19184487891E+02  0.51100000000E-03 0. -1.
        -11    1    3    3    0    0 -0.21595171936E+02  0.64107852625E+01  0.12788724524E+02  0.25903688808E+02  0.51100000000E-03 0.  1.
        -12    1    3    3    0    0  0.89529168434E+00 -0.13897629651E+01  0.21335734574E+01  0.26990968855E+01  0.00000000000E+00 0.  1.
</event>
<event>
 7    1  0.2442667E-009  0.4778726E+02  0.7816164E-02  0.1312668E+00
        -11   -1    0    0    0    0  0.00000000000E+00  0.00000000000E+00  0.45593999997E+02  0.45594000000E+02  0.51100000000E-03 0.  1.
         11   -1    0    0    0    0 -0.00000000000E+00 -0.00000000000E+00 -0.45593999997E+02  0.45594000000E+02  0.51100000000E-03 0. -1.
    9900012    2    1    2    0    0 -0.11528678403E+02 -0.19676278094E+02 -0.36926386790E+02  0.47787258224E+02  0.19999941546E+02 0.  0.
        -12    1    1    2    0    0  0.11528678403E+02  0.19676278094E+02  0.36926386790E+02  0.43400741776E+02  0.00000000000E+00 0.  1.
         11    1    3    3    0    0 -0.10492718056E+02 -0.14638012455E+02 -0.18654154662E+02  0.25929636080E+02  0.51100000000E-03 0. -1.
        -11    1    3    3    0    0 -0.40179051546E+01  0.88126457986E+00 -0.12176711779E+02  0.12852723412E+02  0.51100000000E-03 0.  1.
         12    1    3    3    0    0  0.29819448076E+01 -0.59195302190E+01 -0.60955203494E+01  0.90048987323E+01  0.00000000000E+00 0. -1.
</event>
<event>
 7    1  0.2442667E-009  0.4778727E+02  0.7816164E-02  0.1312668E+00
        -11   -1    0    0    0    0  0.00000000000E+00  0.00000000000E+00  0.45593999997E+02  0.45594000000E+02  0.51100000000E-03 0.  1.
         11   -1    0    0    0    0 -0.00000000000E+00 -0.00000000000E+00 -0.45593999997E+02  0.45594000000E+02  0.51100000000E-03 0. -1.
    9900012    2    1    2    0    0  0.29171536986E+02  0.47376297267E+01 -0.31783636937E+02  0.47787270945E+02  0.19999999548E+02 0.  0.
        -12    1    1    2    0    0 -0.29171536986E+02 -0.47376297267E+01  0.31783636937E+02  0.43400729055E+02  0.00000000000E+00 0.  1.
         11    1    3    3    0    0  0.16480606151E+01 -0.44049869642E+00 -0.11606382769E+01  0.20633042344E+01  0.51100000000E-03 0. -1.
        -11    1    3    3    0    0  0.32910111682E+01 -0.57933577215E+01 -0.27888381651E+01  0.72229749253E+01  0.51100000000E-03 0.  1.
        -12    1    3    3    0    0  0.24232465203E+02  0.10971486145E+02 -0.27834160495E+02  0.38500991786E+02  0.00000000000E+00 0.  1.
</event>
<event>
 7    1  0.2442667E-009  0.4778727E+02  0.7816164E-02  0.1312668E+00
        -11   -1    0    0    0    0  0.00000000000E+00  0.00000000000E+00  0.45593999997E+02  0.45594000000E+02  0.51100000000E-03 0.  1.
         11   -1    0    0    0    0 -0.00000000000E+00 -0.00000000000E+00 -0.45593999997E+02  0.45594000000E+02  0.51100000000E-03 0. -1.
    9900012    2    1    2    0    0  0.35686024556E+01  0.21111935570E+02 -0.37751480410E+02  0.47787273968E+02  0.20000013329E+02 0.  0.
        -12    1    1    2    0    0 -0.35686024556E+01 -0.21111935570E+02  0.37751480410E+02  0.43400726032E+02  0.00000000000E+00 0.  1.
         11    1    3    3    0    0  0.11519456445E+02  0.91111032108E+01 -0.18054653309E+02  0.23274032416E+02  0.51100000000E-03 0. -1.
        -11    1    3    3    0    0 -0.62678023391E+01  0.10905856605E+02 -0.17215876632E+02  0.21321572712E+02  0.51100000000E-03 0.  1.
         12    1    3    3    0    0 -0.16830516501E+01  0.10949757543E+01 -0.24809504689E+01  0.31916688407E+01  0.00000000000E+00 0. -1.
</event>
<event>
 7    1  0.2442667E-009  0.4778728E+02  0.7816164E-02  0.1312668E+00
        -11   -1    0    0    0    0  0.00000000000E+00  0.00000000000E+00  0.45593999997E+02  0.45594000000E+02  0.51100000000E-03 0. -1.
         11   -1    0    0    0    0 -0.00000000000E+00 -0.00000000000E+00 -0.45593999997E+02  0.45594000000E+02  0.51100000000E-03 0.  1.
    9900012    2    1    2    0    0 -0.30193585534E+02 -0.16159625176E+02 -0.26661512850E+02  0.47787281565E+02  0.20000047969E+02 0.  0.
        -12    1    1    2    0    0  0.30193585534E+02  0.16159625176E+02  0.26661512850E+02  0.43400718435E+02  0.00000000000E+00 0.  1.
         11    1    3    3    0    0 -0.10076010140E+02 -0.10648073903E+02 -0.86219145679E+01  0.17007200512E+02  0.51100000000E-03 0. -1.
        -11    1    3    3    0    0 -0.47984113666E+01 -0.78907445201E+01 -0.48808938836E+01  0.10445655848E+02  0.51100000000E-03 0.  1.
         12    1    3    3    0    0 -0.15319164028E+02  0.23791932469E+01 -0.13158704398E+02  0.20334425206E+02  0.00000000000E+00 0. -1.
</event>
<event>
 7    1  0.2442667E-009  0.4778727E+02  0.7816164E-02  0.1312668E+00
        -11   -1    0    0    0    0  0.00000000000E+00  0.00000000000E+00  0.45593999997E+02  0.45594000000E+02  0.51100000000E-03 0. -1.
         11   -1    0    0    0    0 -0.00000000000E+00 -0.00000000000E+00 -0.45593999997E+02  0.45594000000E+02  0.51100000000E-03 0.  1.
    9900012    2    1    2    0    0  0.21106360596E+02 -0.33940060800E+02  0.16917960258E+02  0.47787267702E+02  0.19999984761E+02 0.  0.
        -12    1    1    2    0    0 -0.21106360596E+02  0.33940060800E+02 -0.16917960258E+02  0.43400732298E+02  0.00000000000E+00 0.  1.
         11    1    3    3    0    0  0.57781978182E+01 -0.96377145042E+01  0.13328668838E+02  0.17433488583E+02  0.51100000000E-03 0. -1.
        -11    1    3    3    0    0  0.45310144500E+01 -0.10298173364E+02 -0.27265107671E+01  0.11576542135E+02  0.51100000000E-03 0.  1.
         12    1    3    3    0    0  0.10797148327E+02 -0.14004172932E+02  0.63158021863E+01  0.18777236984E+02  0.00000000000E+00 0. -1.
</event>
<event>
 7    1  0.2442667E-009  0.4778727E+02  0.7816164E-02  0.1312668E+00
        -11   -1    0    0    0    0  0.00000000000E+00  0.00000000000E+00  0.45593999997E+02  0.45594000000E+02  0.51100000000E-03 0.  1.
         11   -1    0    0    0    0 -0.00000000000E+00 -0.00000000000E+00 -0.45593999997E+02  0.45594000000E+02  0.51100000000E-03 0. -1.
    9900012    2    1    2    0    0 -0.11896209031E+02  0.34548268045E+02 -0.23420525398E+02  0.47787267009E+02  0.19999981601E+02 0.  0.
        -12    1    1    2    0    0  0.11896209031E+02 -0.34548268045E+02  0.23420525398E+02  0.43400732991E+02  0.00000000000E+00 0.  1.
         11    1    3    3    0    0 -0.12256708520E+02  0.22268532458E+02 -0.66393368937E+01  0.26271567068E+02  0.51100000000E-03 0. -1.
        -11    1    3    3    0    0  0.38210006806E+00  0.39394708175E+01 -0.10039052048E+02  0.10791107315E+02  0.51100000000E-03 0.  1.
         12    1    3    3    0    0 -0.21600579660E-01  0.83402647694E+01 -0.67421364563E+01  0.10724592627E+02  0.00000000000E+00 0. -1.
</event>
<event>
 7    1  0.2442667E-009  0.4778727E+02  0.7816164E-02  0.1312668E+00
        -11   -1    0    0    0    0  0.00000000000E+00  0.00000000000E+00  0.45593999997E+02  0.45594000000E+02  0.51100000000E-03 0.  1.
         11   -1    0    0    0    0 -0.00000000000E+00 -0.00000000000E+00 -0.45593999997E+02  0.45594000000E+02  0.51100000000E-03 0. -1.
    9900012    2    1    2    0    0 -0.33680818682E+02  0.22038391887E+02 -0.16233758069E+02  0.47787272297E+02  0.20000005713E+02 0.  0.
        -12    1    1    2    0    0  0.33680818682E+02 -0.22038391887E+02  0.16233758069E+02  0.43400727703E+02  0.00000000000E+00 0.  1.
         11    1    3    3    0    0 -0.20658364778E+02  0.79538067619E+01 -0.77348478837E+01  0.23449071396E+02  0.51100000000E-03 0. -1.
        -11    1    3    3    0    0  0.13468939329E+01  0.23217704392E+01  0.16749979502E+01  0.31639152380E+01  0.51100000000E-03 0.  1.
         12    1    3    3    0    0 -0.14369347837E+02  0.11762814686E+02 -0.10173908136E+02  0.21174285663E+02  0.00000000000E+00 0. -1.
</event>
<event>
 7    1  0.2442667E-009  0.4778727E+02  0.7816164E-02  0.1312668E+00
        -11   -1    0    0    0    0  0.00000000000E+00  0.00000000000E+00  0.45593999997E+02  0.45594000000E+02  0.51100000000E-03 0. -1.
         11   -1    0    0    0    0 -0.00000000000E+00 -0.00000000000E+00 -0.45593999997E+02  0.45594000000E+02  0.51100000000E-03 0.  1.
    9900012    2    1    2    0    0  0.18068013019E+02 -0.97095258958E+01  0.38247814493E+02  0.47787270731E+02  0.19999998573E+02 0.  0.
        -12    1    1    2    0    0 -0.18068013019E+02  0.97095258958E+01 -0.38247814493E+02  0.43400729269E+02  0.00000000000E+00 0.  1.
         11    1    3    3    0    0  0.45856392671E+01 -0.11994224758E+02  0.14101134137E+02  0.19071746098E+02  0.51100000000E-03 0. -1.
        -11    1    3    3    0    0 -0.59377693172E+00 -0.57748247326E+00  0.30807713450E+00  0.88372441037E+00  0.51100000000E-03 0.  1.
         12    1    3    3    0    0  0.14076150684E+02  0.28621813359E+01  0.23838603222E+02  0.27831800223E+02  0.00000000000E+00 0. -1.
</event>
<event>
 7    1  0.2442667E-009  0.4778727E+02  0.7816164E-02  0.1312668E+00
        -11   -1    0    0    0    0  0.00000000000E+00  0.00000000000E+00  0.45593999997E+02  0.45594000000E+02  0.51100000000E-03 0.  1.
         11   -1    0    0    0    0 -0.00000000000E+00 -0.00000000000E+00 -0.45593999997E+02  0.45594000000E+02  0.51100000000E-03 0. -1.
    9900012    2    1    2    0    0 -0.21610226062E+02 -0.79577842813E+01 -0.36787156972E+02  0.47787272826E+02  0.20000008124E+02 0.  0.
        -12    1    1    2    0    0  0.21610226062E+02  0.79577842813E+01  0.36787156972E+02  0.43400727174E+02  0.00000000000E+00 0.  1.
         11    1    3    3    0    0 -0.72694334552E+01 -0.84351666677E+01 -0.18158993315E+02  0.21301308362E+02  0.51100000000E-03 0. -1.
        -11    1    3    3    0    0 -0.10701534483E+02  0.47430942124E+01 -0.71634478913E+01  0.13723511539E+02  0.51100000000E-03 0.  1.
        -12    1    3    3    0    0 -0.36392581236E+01 -0.42657118260E+01 -0.11464715766E+02  0.12762452925E+02  0.00000000000E+00 0.  1.
</event>
<event>
 7    1  0.2442667E-009  0.4778727E+02  0.7816164E-02  0.1312668E+00
        -11   -1    0    0    0    0  0.00000000000E+00  0.00000000000E+00  0.45593999997E+02  0.45594000000E+02  0.51100000000E-03 0.  1.
         11   -1    0    0    0    0 -0.00000000000E+00 -0.00000000000E+00 -0.45593999997E+02  0.45594000000E+02  0.51100000000E-03 0. -1.
    9900012    2    1    2    0    0 -0.20089107030E+02 -0.13682894501E+02 -0.35955935065E+02  0.47787273167E+02  0.20000009680E+02 0.  0.
        -12    1    1    2    0    0  0.20089107030E+02  0.13682894501E+02  0.35955935065E+02  0.43400726833E+02  0.00000000000E+00 0.  1.
         11    1    3    3    0    0 -0.18061188915E+02 -0.43703721111E+01 -0.22594967357E+02  0.29254730345E+02  0.51100000000E-03 0.  1.
        -11    1    3    3    0    0 -0.21439018601E+01 -0.89421300380E+01 -0.56097145916E+01  0.10771578476E+02  0.51100000000E-03 0. -1.
        -12    1    3    3    0    0  0.11598374493E+00 -0.37039235223E+00 -0.77512531157E+01  0.77609643465E+01  0.00000000000E+00 0.  1.
</event>
<event>
 7    1  0.2442667E-009  0.4778727E+02  0.7816164E-02  0.1312668E+00
        -11   -1    0    0    0    0  0.00000000000E+00  0.00000000000E+00  0.45593999997E+02  0.45594000000E+02  0.51100000000E-03 0.  1.
         11   -1    0    0    0    0 -0.00000000000E+00 -0.00000000000E+00 -0.45593999997E+02  0.45594000000E+02  0.51100000000E-03 0. -1.
    9900012    2    1    2    0    0 -0.17656808220E+02 -0.16379178603E+02 -0.36105161714E+02  0.47787273386E+02  0.20000010676E+02 0.  0.
        -12    1    1    2    0    0  0.17656808220E+02  0.16379178603E+02  0.36105161714E+02  0.43400726614E+02  0.00000000000E+00 0.  1.
         11    1    3    3    0    0 -0.16942367905E+02 -0.51653190992E+01 -0.27898633802E+02  0.33046302666E+02  0.51100000000E-03 0. -1.
        -11    1    3    3    0    0 -0.55464529327E+00 -0.91532473444E+01 -0.39014672091E+01  0.99654912069E+01  0.51100000000E-03 0.  1.
         12    1    3    3    0    0 -0.15979502182E+00 -0.20606121595E+01 -0.43050607028E+01  0.47754795126E+01  0.00000000000E+00 0. -1.
</event>
<event>
 7    1  0.2442667E-009  0.4778727E+02  0.7816164E-02  0.1312668E+00
        -11   -1    0    0    0    0  0.00000000000E+00  0.00000000000E+00  0.45593999997E+02  0.45594000000E+02  0.51100000000E-03 0.  1.
         11   -1    0    0    0    0 -0.00000000000E+00 -0.00000000000E+00 -0.45593999997E+02  0.45594000000E+02  0.51100000000E-03 0. -1.
    9900012    2    1    2    0    0 -0.25637429146E+02 -0.65141351696E+01 -0.34408016396E+02  0.47787270484E+02  0.19999997446E+02 0.  0.
        -12    1    1    2    0    0  0.25637429146E+02  0.65141351696E+01  0.34408016396E+02  0.43400729516E+02  0.00000000000E+00 0.  1.
         11    1    3    3    0    0 -0.16407705970E+02 -0.80238839686E+01 -0.12212911179E+02  0.21971589130E+02  0.51100000000E-03 0. -1.
        -11    1    3    3    0    0 -0.10465927706E+02 -0.44608865024E+00 -0.20224746428E+02  0.22776632898E+02  0.51100000000E-03 0.  1.
         12    1    3    3    0    0  0.12362045302E+01  0.19558374493E+01 -0.19703587887E+01  0.30390484571E+01  0.00000000000E+00 0. -1.
</event>
<event>
 7    1  0.2442667E-009  0.4778727E+02  0.7816164E-02  0.1312668E+00
        -11   -1    0    0    0    0  0.00000000000E+00  0.00000000000E+00  0.45593999997E+02  0.45594000000E+02  0.51100000000E-03 0.  1.
         11   -1    0    0    0    0 -0.00000000000E+00 -0.00000000000E+00 -0.45593999997E+02  0.45594000000E+02  0.51100000000E-03 0. -1.
    9900012    2    1    2    0    0  0.39226903763E+02  0.18082767059E+02 -0.42292849824E+01  0.47787270804E+02  0.19999998903E+02 0.  0.
        -12    1    1    2    0    0 -0.39226903763E+02 -0.18082767059E+02  0.42292849824E+01  0.43400729196E+02  0.00000000000E+00 0.  1.
         11    1    3    3    0    0  0.15354390254E+02  0.52538407464E+01 -0.60338865513E+01  0.17313807491E+02  0.51100000000E-03 0. -1.
        -11    1    3    3    0    0  0.68330466037E-01  0.67978815971E+00  0.36225566584E+01  0.36864207572E+01  0.51100000000E-03 0.  1.
        -12    1    3    3    0    0  0.23804183043E+02  0.12149138152E+02 -0.18179550895E+01  0.26787042556E+02  0.00000000000E+00 0.  1.
</event>
<event>
 7    1  0.2442667E-009  0.4778733E+02  0.7816164E-02  0.1312667E+00
        -11   -1    0    0    0    0  0.00000000000E+00  0.00000000000E+00  0.45593999997E+02  0.45594000000E+02  0.51100000000E-03 0. -1.
         11   -1    0    0    0    0 -0.00000000000E+00 -0.00000000000E+00 -0.45593999997E+02  0.45594000000E+02  0.51100000000E-03 0.  1.
    9900012    2    1    2    0    0  0.17838186136E+02  0.39555762152E+02  0.87116162040E+00  0.47787330344E+02  0.20000270369E+02 0.  0.
        -12    1    1    2    0    0 -0.17838186136E+02 -0.39555762152E+02 -0.87116162040E+00  0.43400669656E+02  0.00000000000E+00 0.  1.
         11    1    3    3    0    0  0.11924579555E+02  0.21149101403E+02 -0.12414660791E+00  0.24279528421E+02  0.51100000000E-03 0. -1.
        -11    1    3    3    0    0 -0.21617644744E+00 -0.12971232459E+01  0.24926991595E+01  0.28182991914E+01  0.51100000000E-03 0.  1.
        -12    1    3    3    0    0  0.61297830283E+01  0.19703783994E+02 -0.14973909311E+01  0.20689502731E+02  0.00000000000E+00 0.  1.
</event>
<event>
 7    1  0.2442667E-009  0.4778727E+02  0.7816164E-02  0.1312668E+00
        -11   -1    0    0    0    0  0.00000000000E+00  0.00000000000E+00  0.45593999997E+02  0.45594000000E+02  0.51100000000E-03 0.  1.
         11   -1    0    0    0    0 -0.00000000000E+00 -0.00000000000E+00 -0.45593999997E+02  0.45594000000E+02  0.51100000000E-03 0. -1.
    9900012    2    1    2    0    0  0.35996608761E+02  0.12870480851E+02 -0.20547948048E+02  0.47787270874E+02  0.19999999223E+02 0.  0.
        -12    1    1    2    0    0 -0.35996608761E+02 -0.12870480851E+02  0.20547948048E+02  0.43400729126E+02  0.00000000000E+00 0.  1.
         11    1    3    3    0    0  0.13579431825E+02  0.88961924250E+01 -0.14515684200E+02  0.21777242626E+02  0.51100000000E-03 0. -1.
        -11    1    3    3    0    0  0.82712229853E+01 -0.38552952216E+01 -0.18814549923E+01  0.93175267141E+01  0.51100000000E-03 0.  1.
         12    1    3    3    0    0  0.14145953952E+02  0.78295836479E+01 -0.41508088556E+01  0.16692501534E+02  0.00000000000E+00 0. -1.
</event>
<event>
 7    1  0.2442667E-009  0.4778725E+02  0.7816164E-02  0.1312668E+00
        -11   -1    0    0    0    0  0.00000000000E+00  0.00000000000E+00  0.45593999997E+02  0.45594000000E+02  0.51100000000E-03 0. -1.
         11   -1    0    0    0    0 -0.00000000000E+00 -0.00000000000E+00 -0.45593999997E+02  0.45594000000E+02  0.51100000000E-03 0.  1.
    9900012    2    1    2    0    0 -0.17503586683E+02 -0.32792540531E+02  0.22403102284E+02  0.47787248242E+02  0.19999896033E+02 0.  0.
        -12    1    1    2    0    0  0.17503586683E+02  0.32792540531E+02 -0.22403102284E+02  0.43400751758E+02  0.00000000000E+00 0.  1.
         11    1    3    3    0    0 -0.20094691385E+02 -0.18892787779E+02  0.16958618642E+02  0.32377906023E+02  0.51100000000E-03 0. -1.
        -11    1    3    3    0    0  0.43107491883E+00 -0.60820293320E+01  0.10576363293E+01  0.61883359029E+01  0.51100000000E-03 0.  1.
         12    1    3    3    0    0  0.21600297830E+01 -0.78177234197E+01  0.43868473124E+01  0.92210063156E+01  0.00000000000E+00 0. -1.
</event>
<event>
 7    1  0.2442667E-009  0.4778728E+02  0.7816164E-02  0.1312668E+00
        -11   -1    0    0    0    0  0.00000000000E+00  0.00000000000E+00  0.45593999997E+02  0.45594000000E+02  0.51100000000E-03 0.  1.
         11   -1    0    0    0    0 -0.00000000000E+00 -0.00000000000E+00 -0.45593999997E+02  0.45594000000E+02  0.51100000000E-03 0. -1.
    9900012    2    1    2    0    0  0.35316473443E+02  0.22235744127E+02 -0.11913901391E+02  0.47787278120E+02  0.20000032260E+02 0.  0.
        -12    1    1    2    0    0 -0.35316473443E+02 -0.22235744127E+02  0.11913901391E+02  0.43400721880E+02  0.00000000000E+00 0.  1.
         11    1    3    3    0    0  0.18042177676E+02  0.11730743849E+02 -0.52404820976E+01  0.22149338126E+02  0.51100000000E-03 0. -1.
        -11    1    3    3    0    0  0.53566450950E+01 -0.18139045277E+01 -0.63381621048E+01  0.84944802923E+01  0.51100000000E-03 0.  1.
        -12    1    3    3    0    0  0.11917650673E+02  0.12318904805E+02 -0.33525718901E+00  0.17143459702E+02  0.00000000000E+00 0.  1.
</event>
<event>
 7    1  0.2442667E-009  0.4778727E+02  0.7816164E-02  0.1312668E+00
        -11   -1    0    0    0    0  0.00000000000E+00  0.00000000000E+00  0.45593999997E+02  0.45594000000E+02  0.51100000000E-03 0.  1.
         11   -1    0    0    0    0 -0.00000000000E+00 -0.00000000000E+00 -0.45593999997E+02  0.45594000000E+02  0.51100000000E-03 0. -1.
    9900012    2    1    2    0    0  0.16295648878E+02  0.14238319191E+02 -0.37621073925E+02  0.47787272944E+02  0.20000008661E+02 0.  0.
        -12    1    1    2    0    0 -0.16295648878E+02 -0.14238319191E+02  0.37621073925E+02  0.43400727056E+02  0.00000000000E+00 0.  1.
         11    1    3    3    0    0  0.59001259491E+01  0.17053213053E+02 -0.26412577572E+02  0.31988244964E+02  0.51100000000E-03 0. -1.
        -11    1    3    3    0    0  0.81472440562E+01 -0.17460115349E+01 -0.10045398250E+02  0.13051289907E+02  0.51100000000E-03 0.  1.
         12    1    3    3    0    0  0.22482788724E+01 -0.10688823270E+01 -0.11630981033E+01  0.27477380725E+01  0.00000000000E+00 0. -1.
</event>
<event>
 7    1  0.2442667E-009  0.4778727E+02  0.7816164E-02  0.1312668E+00
        -11   -1    0    0    0    0  0.00000000000E+00  0.00000000000E+00  0.45593999997E+02  0.45594000000E+02  0.51100000000E-03 0.  1.
         11   -1    0    0    0    0 -0.00000000000E+00 -0.00000000000E+00 -0.45593999997E+02  0.45594000000E+02  0.51100000000E-03 0. -1.
    9900012    2    1    2    0    0  0.11316880460E+02 -0.19092709052E+02 -0.37296382907E+02  0.47787268437E+02  0.19999988111E+02 0.  0.
        -12    1    1    2    0    0 -0.11316880460E+02  0.19092709052E+02  0.37296382907E+02  0.43400731563E+02  0.00000000000E+00 0.  1.
         11    1    3    3    0    0  0.51892133129E+01  0.42514084117E+00 -0.63953073694E+01  0.82467348783E+01  0.51100000000E-03 0. -1.
        -11    1    3    3    0    0 -0.41078192422E+01 -0.75037960704E+01 -0.78945692390E+01  0.11640676876E+02  0.51100000000E-03 0.  1.
        -12    1    3    3    0    0  0.10235486390E+02 -0.12014053822E+02 -0.23006506298E+02  0.27899856683E+02  0.00000000000E+00 0.  1.
</event>
<event>
 7    1  0.2442667E-009  0.4778727E+02  0.7816164E-02  0.1312668E+00
        -11   -1    0    0    0    0  0.00000000000E+00  0.00000000000E+00  0.45593999997E+02  0.45594000000E+02  0.51100000000E-03 0.  1.
         11   -1    0    0    0    0 -0.00000000000E+00 -0.00000000000E+00 -0.45593999997E+02  0.45594000000E+02  0.51100000000E-03 0. -1.
    9900012    2    1    2    0    0  0.35204596773E+02  0.25128881940E+02  0.35775727529E+01  0.47787269957E+02  0.19999995041E+02 0.  0.
        -12    1    1    2    0    0 -0.35204596773E+02 -0.25128881940E+02 -0.35775727529E+01  0.43400730043E+02  0.00000000000E+00 0.  1.
         11    1    3    3    0    0  0.34011949562E+02  0.16941986242E+02  0.17816919999E+01  0.38039690292E+02  0.51100000000E-03 0. -1.
        -11    1    3    3    0    0  0.12737699183E+01  0.47035738041E+01 -0.13464933336E+01  0.50556048989E+01  0.51100000000E-03 0.  1.
         12    1    3    3    0    0 -0.81122707462E-01  0.34833218937E+01  0.31423740865E+01  0.46919747663E+01  0.00000000000E+00 0. -1.
</event>
<event>
 7    1  0.2442667E-009  0.4778727E+02  0.7816164E-02  0.1312668E+00
        -11   -1    0    0    0    0  0.00000000000E+00  0.00000000000E+00  0.45593999997E+02  0.45594000000E+02  0.51100000000E-03 0. -1.
         11   -1    0    0    0    0 -0.00000000000E+00 -0.00000000000E+00 -0.45593999997E+02  0.45594000000E+02  0.51100000000E-03 0.  1.
    9900012    2    1    2    0    0 -0.23827330185E+02  0.23262288281E+02  0.27834283196E+02  0.47787273729E+02  0.20000012239E+02 0.  0.
        -12    1    1    2    0    0  0.23827330185E+02 -0.23262288281E+02 -0.27834283196E+02  0.43400726271E+02  0.00000000000E+00 0.  1.
         11    1    3    3    0    0 -0.91832481815E+01  0.83424674031E+01  0.18692019510E+02  0.22434803390E+02  0.51100000000E-03 0. -1.
        -11    1    3    3    0    0 -0.29734373432E+01  0.90969339770E+01  0.26279163715E+00  0.95741629985E+01  0.51100000000E-03 0.  1.
         12    1    3    3    0    0 -0.11670644661E+02  0.58228869012E+01  0.88794720484E+01  0.15778307340E+02  0.00000000000E+00 0. -1.
</event>
<event>
 7    1  0.2442667E-009  0.4778726E+02  0.7816164E-02  0.1312668E+00
        -11   -1    0    0    0    0  0.00000000000E+00  0.00000000000E+00  0.45593999997E+02  0.45594000000E+02  0.51100000000E-03 0.  1.
         11   -1    0    0    0    0 -0.00000000000E+00 -0.00000000000E+00 -0.45593999997E+02  0.45594000000E+02  0.51100000000E-03 0. -1.
    9900012    2    1    2    0    0 -0.37536283269E+02  0.11384399378E+02 -0.18575446478E+02  0.47787258962E+02  0.19999944909E+02 0.  0.
        -12    1    1    2    0    0  0.37536283269E+02 -0.11384399378E+02  0.18575446478E+02  0.43400741038E+02  0.00000000000E+00 0.  1.
         11    1    3    3    0    0 -0.33832773554E+02  0.10182038982E+02 -0.11438386277E+02  0.37137139969E+02  0.51100000000E-03 0. -1.
        -11    1    3    3    0    0 -0.69503569773E+00  0.38066210637E+01 -0.41535816223E+01  0.56767666059E+01  0.51100000000E-03 0.  1.
         12    1    3    3    0    0 -0.30084740169E+01 -0.26042606675E+01 -0.29834785782E+01  0.49733523866E+01  0.00000000000E+00 0. -1.
</event>
<event>
 7    1  0.2442667E-009  0.4778727E+02  0.7816164E-02  0.1312668E+00
        -11   -1    0    0    0    0  0.00000000000E+00  0.00000000000E+00  0.45593999997E+02  0.45594000000E+02  0.51100000000E-03 0.  1.
         11   -1    0    0    0    0 -0.00000000000E+00 -0.00000000000E+00 -0.45593999997E+02  0.45594000000E+02  0.51100000000E-03 0. -1.
    9900012    2    1    2    0    0  0.40128792510E+02 -0.16184158349E+02 -0.33728714344E+01  0.47787271532E+02  0.20000002225E+02 0.  0.
        -12    1    1    2    0    0 -0.40128792510E+02  0.16184158349E+02  0.33728714344E+01  0.43400728468E+02  0.00000000000E+00 0.  1.
         11    1    3    3    0    0  0.17882812417E+02 -0.15629635894E+02  0.28311164694E+01  0.23918522505E+02  0.51100000000E-03 0. -1.
        -11    1    3    3    0    0  0.77512352442E+01  0.25695948757E+01 -0.29943865972E+01  0.86977478114E+01  0.51100000000E-03 0.  1.
         12    1    3    3    0    0  0.14494744849E+02 -0.31241173315E+01 -0.32096013066E+01  0.15171001216E+02  0.00000000000E+00 0. -1.
</event>
<event>
 7    1  0.2442667E-009  0.4778727E+02  0.7816164E-02  0.1312668E+00
        -11   -1    0    0    0    0  0.00000000000E+00  0.00000000000E+00  0.45593999997E+02  0.45594000000E+02  0.51100000000E-03 0.  1.
         11   -1    0    0    0    0 -0.00000000000E+00 -0.00000000000E+00 -0.45593999997E+02  0.45594000000E+02  0.51100000000E-03 0. -1.
    9900012    2    1    2    0    0  0.25647827677E+02  0.19479980988E+02 -0.29091965680E+02  0.47787272000E+02  0.20000004355E+02 0.  0.
        -12    1    1    2    0    0 -0.25647827677E+02 -0.19479980988E+02  0.29091965680E+02  0.43400728000E+02  0.00000000000E+00 0.  1.
         11    1    3    3    0    0  0.11348896703E+02  0.11844499735E+02 -0.21813979937E+02  0.27293577107E+02  0.51100000000E-03 0. -1.
        -11    1    3    3    0    0  0.98291675815E+01  0.43667952948E+01 -0.96684015598E+01  0.14462345089E+02  0.51100000000E-03 0.  1.
         12    1    3    3    0    0  0.44697633929E+01  0.32686859578E+01  0.23904158165E+01  0.60313498037E+01  0.00000000000E+00 0. -1.
</event>
<event>
 7    1  0.2442667E-009  0.4778727E+02  0.7816164E-02  0.1312668E+00
        -11   -1    0    0    0    0  0.00000000000E+00  0.00000000000E+00  0.45593999997E+02  0.45594000000E+02  0.51100000000E-03 0. -1.
         11   -1    0    0    0    0 -0.00000000000E+00 -0.00000000000E+00 -0.45593999997E+02  0.45594000000E+02  0.51100000000E-03 0.  1.
    9900012    2    1    2    0    0 -0.11458697341E+02 -0.19089411118E+02  0.37254740050E+02  0.47787273995E+02  0.20000013454E+02 0.  0.
        -12    1    1    2    0    0  0.11458697341E+02  0.19089411118E+02 -0.37254740050E+02  0.43400726005E+02  0.00000000000E+00 0.  1.
         11    1    3    3    0    0 -0.30854350336E+01 -0.18758424663E+02  0.26638166596E+02  0.32725988526E+02  0.51100000000E-03 0. -1.
        -11    1    3    3    0    0 -0.57794310876E+01  0.13031748670E+01  0.25839108411E+01  0.64634885261E+01  0.51100000000E-03 0.  1.
         12    1    3    3    0    0 -0.25938312194E+01 -0.16341613224E+01  0.80326626127E+01  0.85977969429E+01  0.00000000000E+00 0. -1.
</event>
<event>
 7    1  0.2442667E-009  0.4778727E+02  0.7816164E-02  0.1312668E+00
        -11   -1    0    0    0    0  0.00000000000E+00  0.00000000000E+00  0.45593999997E+02  0.45594000000E+02  0.51100000000E-03 0.  1.
         11   -1    0    0    0    0 -0.00000000000E+00 -0.00000000000E+00 -0.45593999997E+02  0.45594000000E+02  0.51100000000E-03 0. -1.
    9900012    2    1    2    0    0 -0.11220626566E+01 -0.17343181965E+00 -0.43385875046E+02  0.47787271242E+02  0.20000000900E+02 0.  0.
        -12    1    1    2    0    0  0.11220626566E+01  0.17343181965E+00  0.43385875046E+02  0.43400728758E+02  0.00000000000E+00 0.  1.
         11    1    3    3    0    0 -0.55752589989E+01 -0.54466560127E+01 -0.30099777848E+02  0.31092542536E+02  0.51100000000E-03 0. -1.
        -11    1    3    3    0    0  0.18856641613E+01  0.48937146299E+01 -0.29073965166E+01  0.59964261835E+01  0.51100000000E-03 0.  1.
        -12    1    3    3    0    0  0.25675321810E+01  0.37950956315E+00 -0.10378700682E+02  0.10698302522E+02  0.00000000000E+00 0.  1.
</event>
<event>
 7    1  0.2442667E-009  0.4778727E+02  0.7816164E-02  0.1312668E+00
        -11   -1    0    0    0    0  0.00000000000E+00  0.00000000000E+00  0.45593999997E+02  0.45594000000E+02  0.51100000000E-03 0.  1.
         11   -1    0    0    0    0 -0.00000000000E+00 -0.00000000000E+00 -0.45593999997E+02  0.45594000000E+02  0.51100000000E-03 0. -1.
    9900012    2    1    2    0    0  0.36692263491E+02 -0.22159978480E+02 -0.67997171844E+01  0.47787274199E+02  0.20000014381E+02 0.  0.
        -12    1    1    2    0    0 -0.36692263491E+02  0.22159978480E+02  0.67997171844E+01  0.43400725801E+02  0.00000000000E+00 0.  1.
         11    1    3    3    0    0  0.67891230889E+01  0.25501201293E+01 -0.38485354146E+01  0.82101479943E+01  0.51100000000E-03 0. -1.
        -11    1    3    3    0    0  0.24434153610E+01 -0.43136705545E+00 -0.14902273101E+01  0.28943278771E+01  0.51100000000E-03 0.  1.
         12    1    3    3    0    0  0.27459725041E+02 -0.24278731554E+02 -0.14609544597E+01  0.36682798327E+02  0.00000000000E+00 0. -1.
</event>
<event>
 7    1  0.2442667E-009  0.4778728E+02  0.7816164E-02  0.1312668E+00
        -11   -1    0    0    0    0  0.00000000000E+00  0.00000000000E+00  0.45593999997E+02  0.45594000000E+02  0.51100000000E-03 0.  1.
         11   -1    0    0    0    0 -0.00000000000E+00 -0.00000000000E+00 -0.45593999997E+02  0.45594000000E+02  0.51100000000E-03 0. -1.
    9900012    2    1    2    0    0  0.32084294684E+02 -0.44575693727E+01 -0.28885132432E+02  0.47787276899E+02  0.20000026692E+02 0.  0.
        -12    1    1    2    0    0 -0.32084294684E+02  0.44575693727E+01  0.28885132432E+02  0.43400723101E+02  0.00000000000E+00 0.  1.
         11    1    3    3    0    0  0.14828211272E+02 -0.80742700671E+01 -0.10237312506E+02  0.19745183065E+02  0.51100000000E-03 0. -1.
        -11    1    3    3    0    0  0.38608866367E+01  0.57724737682E+01 -0.37513723415E+01  0.78930788500E+01  0.51100000000E-03 0.  1.
        -12    1    3    3    0    0  0.13395196775E+02 -0.21557730738E+01 -0.14896447585E+02  0.20149014984E+02  0.00000000000E+00 0.  1.
</event>
<event>
 7    1  0.2442667E-009  0.4778725E+02  0.7816164E-02  0.1312668E+00
        -11   -1    0    0    0    0  0.00000000000E+00  0.00000000000E+00  0.45593999997E+02  0.45594000000E+02  0.51100000000E-03 0.  1.
         11   -1    0    0    0    0 -0.00000000000E+00 -0.00000000000E+00 -0.45593999997E+02  0.45594000000E+02  0.51100000000E-03 0. -1.
    9900012    2    1    2    0    0  0.26326218243E+01  0.39006669425E+02 -0.18846057049E+02  0.47787253191E+02  0.19999918598E+02 0.  0.
        -12    1    1    2    0    0 -0.26326218243E+01 -0.39006669425E+02  0.18846057049E+02  0.43400746809E+02  0.00000000000E+00 0.  1.
         11    1    3    3    0    0  0.34252453011E+01  0.19588842765E+02 -0.17160056714E+02  0.26266377994E+02  0.51100000000E-03 0. -1.
        -11    1    3    3    0    0 -0.39983765414E+01  0.16285369174E+02 -0.10879865389E+00  0.16769379879E+02  0.51100000000E-03 0.  1.
        -12    1    3    3    0    0  0.32057530646E+01  0.31324574862E+01 -0.15772016809E+01  0.47514953179E+01  0.00000000000E+00 0.  1.
</event>
<event>
 7    1  0.2442667E-009  0.4778727E+02  0.7816164E-02  0.1312668E+00
        -11   -1    0    0    0    0  0.00000000000E+00  0.00000000000E+00  0.45593999997E+02  0.45594000000E+02  0.51100000000E-03 0. -1.
         11   -1    0    0    0    0 -0.00000000000E+00 -0.00000000000E+00 -0.45593999997E+02  0.45594000000E+02  0.51100000000E-03 0.  1.
    9900012    2    1    2    0    0 -0.22470526000E+02  0.33412581092E+02  0.16195626238E+02  0.47787269324E+02  0.19999992158E+02 0.  0.
        -12    1    1    2    0    0  0.22470526000E+02 -0.33412581092E+02 -0.16195626238E+02  0.43400730676E+02  0.00000000000E+00 0.  1.
         11    1    3    3    0    0 -0.42641946455E+01  0.51542267189E+01  0.10666017289E+02  0.12590207867E+02  0.51100000000E-03 0. -1.
        -11    1    3    3    0    0 -0.66772488979E+01  0.13023195600E+02 -0.17752004644E+01  0.14742476503E+02  0.51100000000E-03 0.  1.
        -12    1    3    3    0    0 -0.11529082456E+02  0.15235158773E+02  0.73048094132E+01  0.20454584955E+02  0.00000000000E+00 0.  1.
</event>
<event>
 7    1  0.2442667E-009  0.4778727E+02  0.7816164E-02  0.1312668E+00
        -11   -1    0    0    0    0  0.00000000000E+00  0.00000000000E+00  0.45593999997E+02  0.45594000000E+02  0.51100000000E-03 0.  1.
         11   -1    0    0    0    0 -0.00000000000E+00 -0.00000000000E+00 -0.45593999997E+02  0.45594000000E+02  0.51100000000E-03 0. -1.
    9900012    2    1    2    0    0 -0.30525900938E+02 -0.30640793779E+02 -0.35964514156E+01  0.47787270349E+02  0.19999996827E+02 0.  0.
        -12    1    1    2    0    0  0.30525900938E+02  0.30640793779E+02  0.35964514156E+01  0.43400729651E+02  0.00000000000E+00 0.  1.
         11    1    3    3    0    0 -0.18972053808E+02 -0.13468402319E+02 -0.96551944274E+01  0.25190463799E+02  0.51100000000E-03 0. -1.
        -11    1    3    3    0    0 -0.46378662940E+01 -0.12690641849E+02  0.33331086787E+01  0.13916601885E+02  0.51100000000E-03 0.  1.
         12    1    3    3    0    0 -0.69159808356E+01 -0.44817496114E+01  0.27256343330E+01  0.86802046644E+01  0.00000000000E+00 0. -1.
</event>
<event>
 7    1  0.2442667E-009  0.4778728E+02  0.7816164E-02  0.1312668E+00
        -11   -1    0    0    0    0  0.00000000000E+00  0.00000000000E+00  0.45593999997E+02  0.45594000000E+02  0.51100000000E-03 0.  1.
         11   -1    0    0    0    0 -0.00000000000E+00 -0.00000000000E+00 -0.45593999997E+02  0.45594000000E+02  0.51100000000E-03 0. -1.
    9900012    2    1    2    0    0  0.38941389971E+02 -0.91478257010E+01 -0.16837692501E+02  0.47787280459E+02  0.20000042926E+02 0.  0.
        -12    1    1    2    0    0 -0.38941389971E+02  0.91478257010E+01  0.16837692501E+02  0.43400719541E+02  0.00000000000E+00 0.  1.
         11    1    3    3    0    0  0.19159837820E+02  0.15080622103E+01 -0.29785653223E+01  0.19448534355E+02  0.51100000000E-03 0. -1.
        -11    1    3    3    0    0  0.19146352389E+02 -0.92321591855E+01 -0.15320597732E+02  0.26201837496E+02  0.51100000000E-03 0.  1.
         12    1    3    3    0    0  0.63519976095E+00 -0.14237287258E+01  0.14614705534E+01  0.21369086081E+01  0.00000000000E+00 0. -1.
</event>
<event>
 7    1  0.2442667E-009  0.4778727E+02  0.7816164E-02  0.1312668E+00
        -11   -1    0    0    0    0  0.00000000000E+00  0.00000000000E+00  0.45593999997E+02  0.45594000000E+02  0.51100000000E-03 0.  1.
         11   -1    0    0    0    0 -0.00000000000E+00 -0.00000000000E+00 -0.45593999997E+02  0.45594000000E+02  0.51100000000E-03 0. -1.
    9900012    2    1    2    0    0 -0.17134406503E+02 -0.10085244937E+02 -0.38578794555E+02  0.47787269119E+02  0.19999991223E+02 0.  0.
        -12    1    1    2    0    0  0.17134406503E+02  0.10085244937E+02  0.38578794555E+02  0.43400730881E+02  0.00000000000E+00 0.  1.
         11    1    3    3    0    0  0.38652222828E+01 -0.29787168116E+01 -0.10483396232E+02  0.11563489696E+02  0.51100000000E-03 0. -1.
        -11    1    3    3    0    0 -0.15928107921E+02 -0.63471229580E+01 -0.24720623186E+02  0.30084876645E+02  0.51100000000E-03 0.  1.
        -12    1    3    3    0    0 -0.50715208655E+01 -0.75940516769E+00 -0.33747751371E+01  0.61389027785E+01  0.00000000000E+00 0.  1.
</event>
<event>
 7    1  0.2442667E-009  0.4778727E+02  0.7816164E-02  0.1312668E+00
        -11   -1    0    0    0    0  0.00000000000E+00  0.00000000000E+00  0.45593999997E+02  0.45594000000E+02  0.51100000000E-03 0. -1.
         11   -1    0    0    0    0 -0.00000000000E+00 -0.00000000000E+00 -0.45593999997E+02  0.45594000000E+02  0.51100000000E-03 0.  1.
    9900012    2    1    2    0    0  0.96873097933E+00  0.43389280157E+02 -0.23422684190E+00  0.47787274955E+02  0.20000017830E+02 0.  0.
        -12    1    1    2    0    0 -0.96873097933E+00 -0.43389280157E+02  0.23422684190E+00  0.43400725045E+02  0.00000000000E+00 0.  1.
         11    1    3    3    0    0  0.45045984706E+01  0.15513811440E+01 -0.18179083682E+01  0.50993119077E+01  0.51100000000E-03 0.  1.
        -11    1    3    3    0    0 -0.49950218576E+01  0.30145039351E+02 -0.12016563290E+01  0.30579692919E+02  0.51100000000E-03 0. -1.
         12    1    3    3    0    0  0.14591543663E+01  0.11692859662E+02  0.27853378553E+01  0.12108270128E+02  0.00000000000E+00 0. -1.
</event>
<event>
 7    1  0.2442667E-009  0.4778727E+02  0.7816164E-02  0.1312668E+00
        -11   -1    0    0    0    0  0.00000000000E+00  0.00000000000E+00  0.45593999997E+02  0.45594000000E+02  0.51100000000E-03 0.  1.
         11   -1    0    0    0    0 -0.00000000000E+00 -0.00000000000E+00 -0.45593999997E+02  0.45594000000E+02  0.51100000000E-03 0. -1.
    9900012    2    1    2    0    0 -0.22241105512E+01  0.19959783163E+02 -0.38474454522E+02  0.47787271176E+02  0.20000000601E+02 0.  0.
        -12    1    1    2    0    0  0.22241105512E+01 -0.19959783163E+02  0.38474454522E+02  0.43400728824E+02  0.00000000000E+00 0.  1.
         11    1    3    3    0    0 -0.83576698777E+00  0.16391155788E+02 -0.39386463807E+02  0.42669216374E+02  0.51100000000E-03 0. -1.
        -11    1    3    3    0    0 -0.21264057460E+01  0.28485251903E+01 -0.25127288700E+00  0.35635425465E+01  0.51100000000E-03 0.  1.
         12    1    3    3    0    0  0.73806218256E+00  0.72010218458E+00  0.11632821716E+01  0.15545122554E+01  0.00000000000E+00 0. -1.
</event>
<event>
 7    1  0.2442667E-009  0.4778727E+02  0.7816164E-02  0.1312668E+00
        -11   -1    0    0    0    0  0.00000000000E+00  0.00000000000E+00  0.45593999997E+02  0.45594000000E+02  0.51100000000E-03 0.  1.
         11   -1    0    0    0    0 -0.00000000000E+00 -0.00000000000E+00 -0.45593999997E+02  0.45594000000E+02  0.51100000000E-03 0. -1.
    9900012    2    1    2    0    0 -0.72277178431E+01  0.22674275992E+02 -0.36294081216E+02  0.47787273873E+02  0.20000012898E+02 0.  0.
        -12    1    1    2    0    0  0.72277178431E+01 -0.22674275992E+02  0.36294081216E+02  0.43400726127E+02  0.00000000000E+00 0.  1.
         11    1    3    3    0    0 -0.26392544876E+01  0.19051086419E+02 -0.23344709247E+02  0.30247066107E+02  0.51100000000E-03 0. -1.
        -11    1    3    3    0    0 -0.20798402985E+01 -0.49868843251E+00  0.12953158548E+01  0.25004538077E+01  0.51100000000E-03 0.  1.
         12    1    3    3    0    0 -0.25086230570E+01  0.41218780058E+01 -0.14244687824E+02  0.15039753959E+02  0.00000000000E+00 0. -1.
</event>
<event>
 7    1  0.2442667E-009  0.4778731E+02  0.7816164E-02  0.1312668E+00
        -11   -1    0    0    0    0  0.00000000000E+00  0.00000000000E+00  0.45593999997E+02  0.45594000000E+02  0.51100000000E-03 0.  1.
         11   -1    0    0    0    0 -0.00000000000E+00 -0.00000000000E+00 -0.45593999997E+02  0.45594000000E+02  0.51100000000E-03 0. -1.
    9900012    2    1    2    0    0  0.28647500983E+01 -0.42556484390E+02  0.80224149797E+01  0.47787305318E+02  0.20000156265E+02 0.  0.
        -12    1    1    2    0    0 -0.28647500983E+01  0.42556484390E+02 -0.80224149797E+01  0.43400694682E+02  0.00000000000E+00 0.  1.
         11    1    3    3    0    0  0.74616790880E+01 -0.11081024696E+02  0.62947900626E+01  0.14767875450E+02  0.51100000000E-03 0. -1.
        -11    1    3    3    0    0 -0.31500588916E+00 -0.59680979085E+01  0.37838770762E+01  0.70735526678E+01  0.51100000000E-03 0.  1.
         12    1    3    3    0    0 -0.42819231005E+01 -0.25507361786E+02 -0.20562521591E+01  0.25945877200E+02  0.00000000000E+00 0. -1.
</event>
<event>
 7    1  0.2442667E-009  0.4778728E+02  0.7816164E-02  0.1312668E+00
        -11   -1    0    0    0    0  0.00000000000E+00  0.00000000000E+00  0.45593999997E+02  0.45594000000E+02  0.51100000000E-03 0.  1.
         11   -1    0    0    0    0 -0.00000000000E+00 -0.00000000000E+00 -0.45593999997E+02  0.45594000000E+02  0.51100000000E-03 0. -1.
    9900012    2    1    2    0    0 -0.30345413697E+02  0.15902971773E+02 -0.26643464865E+02  0.47787275770E+02  0.20000021545E+02 0.  0.
        -12    1    1    2    0    0  0.30345413697E+02 -0.15902971773E+02  0.26643464865E+02  0.43400724230E+02  0.00000000000E+00 0.  1.
         11    1    3    3    0    0 -0.15056041101E+02  0.10652547695E+02 -0.17135557471E+02  0.25175155931E+02  0.51100000000E-03 0. -1.
        -11    1    3    3    0    0 -0.74460847549E+01  0.27868587481E+01 -0.11661279911E+02  0.14113688720E+02  0.51100000000E-03 0.  1.
         12    1    3    3    0    0 -0.78432878409E+01  0.24635653300E+01  0.21533725165E+01  0.84984311191E+01  0.00000000000E+00 0. -1.
</event>
<event>
 7    1  0.2442667E-009  0.4778727E+02  0.7816164E-02  0.1312668E+00
        -11   -1    0    0    0    0  0.00000000000E+00  0.00000000000E+00  0.45593999997E+02  0.45594000000E+02  0.51100000000E-03 0. -1.
         11   -1    0    0    0    0 -0.00000000000E+00 -0.00000000000E+00 -0.45593999997E+02  0.45594000000E+02  0.51100000000E-03 0.  1.
    9900012    2    1    2    0    0  0.31592625926E+02 -0.29337042012E+02  0.49867110535E+01  0.47787270351E+02  0.19999996838E+02 0.  0.
        -12    1    1    2    0    0 -0.31592625926E+02  0.29337042012E+02 -0.49867110535E+01  0.43400729649E+02  0.00000000000E+00 0.  1.
         11    1    3    3    0    0  0.22894429748E+02 -0.96895429960E+01  0.27169163035E+01  0.25008474392E+02  0.51100000000E-03 0. -1.
        -11    1    3    3    0    0  0.52994211783E+00 -0.72919096433E+01  0.31063205945E+01  0.79436775357E+01  0.51100000000E-03 0.  1.
         12    1    3    3    0    0  0.81682540605E+01 -0.12355589373E+02 -0.83652584451E+00  0.14835118423E+02  0.00000000000E+00 0. -1.
</event>
<event>
 7    1  0.2442667E-009  0.4778727E+02  0.7816164E-02  0.1312668E+00
        -11   -1    0    0    0    0  0.00000000000E+00  0.00000000000E+00  0.45593999997E+02  0.45594000000E+02  0.51100000000E-03 0. -1.
         11   -1    0    0    0    0 -0.00000000000E+00 -0.00000000000E+00 -0.45593999997E+02  0.45594000000E+02  0.51100000000E-03 0.  1.
    9900012    2    1    2    0    0  0.19954571002E+02  0.25547290850E+02  0.28857830435E+02  0.47787270155E+02  0.19999995944E+02 0.  0.
        -12    1    1    2    0    0 -0.19954571002E+02 -0.25547290850E+02 -0.28857830435E+02  0.43400729845E+02  0.00000000000E+00 0.  1.
         11    1    3    3    0    0  0.12512800896E+02  0.17035639126E+02  0.15064265056E+02  0.25956025671E+02  0.51100000000E-03 0. -1.
        -11    1    3    3    0    0  0.79894957766E-01  0.44638446934E+01  0.12572499728E+02  0.13341665650E+02  0.51100000000E-03 0.  1.
        -12    1    3    3    0    0  0.73618751479E+01  0.40478070308E+01  0.12210656519E+01  0.84895788340E+01  0.00000000000E+00 0.  1.
</event>
<event>
 7    1  0.2442667E-009  0.4778727E+02  0.7816164E-02  0.1312668E+00
        -11   -1    0    0    0    0  0.00000000000E+00  0.00000000000E+00  0.45593999997E+02  0.45594000000E+02  0.51100000000E-03 0. -1.
         11   -1    0    0    0    0 -0.00000000000E+00 -0.00000000000E+00 -0.45593999997E+02  0.45594000000E+02  0.51100000000E-03 0.  1.
    9900012    2    1    2    0    0 -0.64090568228E+01 -0.30732965213E+02  0.29967188064E+02  0.47787268201E+02  0.19999987038E+02 0.  0.
        -12    1    1    2    0    0  0.64090568228E+01  0.30732965213E+02 -0.29967188064E+02  0.43400731799E+02  0.00000000000E+00 0.  1.
         11    1    3    3    0    0  0.93298200491E+00 -0.18368978129E+02  0.17410009164E+02  0.25325841195E+02  0.51100000000E-03 0. -1.
        -11    1    3    3    0    0 -0.77847097908E+01 -0.10656968586E+02  0.40960491930E+01  0.13818476950E+02  0.51100000000E-03 0.  1.
        -12    1    3    3    0    0  0.44267096313E+00 -0.17070184987E+01  0.84611297077E+01  0.86429500558E+01  0.00000000000E+00 0.  1.
</event>
<event>
 7    1  0.2442667E-009  0.4778727E+02  0.7816164E-02  0.1312668E+00
        -11   -1    0    0    0    0  0.00000000000E+00  0.00000000000E+00  0.45593999997E+02  0.45594000000E+02  0.51100000000E-03 0.  1.
         11   -1    0    0    0    0 -0.00000000000E+00 -0.00000000000E+00 -0.45593999997E+02  0.45594000000E+02  0.51100000000E-03 0. -1.
    9900012    2    1    2    0    0  0.16771157121E+02  0.37290545254E+02 -0.14552219366E+02  0.47787267691E+02  0.19999984709E+02 0.  0.
        -12    1    1    2    0    0 -0.16771157121E+02 -0.37290545254E+02  0.14552219366E+02  0.43400732309E+02  0.00000000000E+00 0.  1.
         11    1    3    3    0    0  0.70191547488E+01  0.26684391943E+02 -0.67133561834E+01  0.28397085384E+02  0.51100000000E-03 0. -1.
        -11    1    3    3    0    0  0.10702642059E+02  0.49532135027E+01 -0.38468727696E+01  0.12404809608E+02  0.51100000000E-03 0.  1.
        -12    1    3    3    0    0 -0.95063968689E+00  0.56529398078E+01 -0.39919904129E+01  0.69853726988E+01  0.00000000000E+00 0.  1.
</event>
<event>
 7    1  0.2442667E-009  0.4778727E+02  0.7816164E-02  0.1312668E+00
        -11   -1    0    0    0    0  0.00000000000E+00  0.00000000000E+00  0.45593999997E+02  0.45594000000E+02  0.51100000000E-03 0.  1.
         11   -1    0    0    0    0 -0.00000000000E+00 -0.00000000000E+00 -0.45593999997E+02  0.45594000000E+02  0.51100000000E-03 0. -1.
    9900012    2    1    2    0    0 -0.63447298873E+01 -0.51393638604E+01 -0.42625749881E+02  0.47787271767E+02  0.20000003293E+02 0.  0.
        -12    1    1    2    0    0  0.63447298873E+01  0.51393638604E+01  0.42625749881E+02  0.43400728233E+02  0.00000000000E+00 0.  1.
         11    1    3    3    0    0 -0.44318306492E+01 -0.42361050133E+01 -0.15270043290E+02  0.16454784439E+02  0.51100000000E-03 0. -1.
        -11    1    3    3    0    0  0.87082298251E+00  0.22744749201E+01 -0.26981684237E+02  0.27091379687E+02  0.51100000000E-03 0.  1.
        -12    1    3    3    0    0 -0.27837222206E+01 -0.31777337673E+01 -0.37402235432E+00  0.42411076405E+01  0.00000000000E+00 0.  1.
</event>
<event>
 7    1  0.2442667E-009  0.4778726E+02  0.7816164E-02  0.1312668E+00
        -11   -1    0    0    0    0  0.00000000000E+00  0.00000000000E+00  0.45593999997E+02  0.45594000000E+02  0.51100000000E-03 0. -1.
         11   -1    0    0    0    0 -0.00000000000E+00 -0.00000000000E+00 -0.45593999997E+02  0.45594000000E+02  0.51100000000E-03 0.  1.
    9900012    2    1    2    0    0  0.22739293006E+02 -0.41304116300E+01  0.36735390155E+02  0.47787255346E+02  0.19999928425E+02 0.  0.
        -12    1    1    2    0    0 -0.22739293006E+02  0.41304116300E+01 -0.36735390155E+02  0.43400744654E+02  0.00000000000E+00 0.  1.
         11    1    3    3    0    0  0.18806514932E+02 -0.18471348018E+01  0.22202012517E+02  0.29155210014E+02  0.51100000000E-03 0. -1.
        -11    1    3    3    0    0 -0.20783160647E+01 -0.31848577592E+01  0.10914291452E+02  0.11557875011E+02  0.51100000000E-03 0.  1.
         12    1    3    3    0    0  0.60110941382E+01  0.90158093096E+00  0.36190861865E+01  0.70741703216E+01  0.00000000000E+00 0. -1.
</event>
<event>
 7    1  0.2442667E-009  0.4778727E+02  0.7816164E-02  0.1312668E+00
        -11   -1    0    0    0    0  0.00000000000E+00  0.00000000000E+00  0.45593999997E+02  0.45594000000E+02  0.51100000000E-03 0.  1.
         11   -1    0    0    0    0 -0.00000000000E+00 -0.00000000000E+00 -0.45593999997E+02  0.45594000000E+02  0.51100000000E-03 0. -1.
    9900012    2    1    2    0    0  0.27190538690E+02  0.12728890830E+02 -0.31341245703E+02  0.47787265695E+02  0.19999975608E+02 0.  0.
        -12    1    1    2    0    0 -0.27190538690E+02 -0.12728890830E+02  0.31341245703E+02  0.43400734305E+02  0.00000000000E+00 0.  1.
         11    1    3    3    0    0  0.24648674958E+02  0.62672523264E+01 -0.18166658802E+02  0.31254809569E+02  0.51100000000E-03 0. -1.
        -11    1    3    3    0    0 -0.10885073828E+01  0.61166681256E+01 -0.69825322337E+01  0.93463486954E+01  0.51100000000E-03 0.  1.
        -12    1    3    3    0    0  0.36303711151E+01  0.34497037752E+00 -0.61920546676E+01  0.71861074303E+01  0.00000000000E+00 0.  1.
</event>
<event>
 7    1  0.2442667E-009  0.4778727E+02  0.7816164E-02  0.1312668E+00
        -11   -1    0    0    0    0  0.00000000000E+00  0.00000000000E+00  0.45593999997E+02  0.45594000000E+02  0.51100000000E-03 0.  1.
         11   -1    0    0    0    0 -0.00000000000E+00 -0.00000000000E+00 -0.45593999997E+02  0.45594000000E+02  0.51100000000E-03 0. -1.
    9900012    2    1    2    0    0 -0.10641758254E+00  0.37989677406E+01 -0.43234012747E+02  0.47787270296E+02  0.19999996590E+02 0.  0.
        -12    1    1    2    0    0  0.10641758254E+00 -0.37989677406E+01  0.43234012747E+02  0.43400729704E+02  0.00000000000E+00 0.  1.
         11    1    3    3    0    0 -0.59819057658E+01  0.52190658998E+01 -0.98660634419E+01  0.12663374493E+02  0.51100000000E-03 0. -1.
        -11    1    3    3    0    0  0.77670776500E+01 -0.21041923822E+01 -0.19263315375E+02  0.20876552405E+02  0.51100000000E-03 0.  1.
        -12    1    3    3    0    0 -0.18915894667E+01  0.68409422302E+00 -0.14104633930E+02  0.14247343398E+02  0.00000000000E+00 0.  1.
</event>
<event>
 7    1  0.2442667E-009  0.4778729E+02  0.7816164E-02  0.1312668E+00
        -11   -1    0    0    0    0  0.00000000000E+00  0.00000000000E+00  0.45593999997E+02  0.45594000000E+02  0.51100000000E-03 0.  1.
         11   -1    0    0    0    0 -0.00000000000E+00 -0.00000000000E+00 -0.45593999997E+02  0.45594000000E+02  0.51100000000E-03 0. -1.
    9900012    2    1    2    0    0  0.16398085250E+02  0.23598320047E+02 -0.32524511268E+02  0.47787288691E+02  0.20000080458E+02 0.  0.
        -12    1    1    2    0    0 -0.16398085250E+02 -0.23598320047E+02  0.32524511268E+02  0.43400711309E+02  0.00000000000E+00 0.  1.
         11    1    3    3    0    0  0.16143674563E+02  0.13446878875E+02 -0.16594210160E+02  0.26773206587E+02  0.51100000000E-03 0. -1.
        -11    1    3    3    0    0  0.95246687211E+00  0.53683878752E+01 -0.15171132711E+02  0.16121105716E+02  0.51100000000E-03 0.  1.
        -12    1    3    3    0    0 -0.69805618435E+00  0.47830532967E+01 -0.75916839705E+00  0.48929763877E+01  0.00000000000E+00 0.  1.
</event>
<event>
 7    1  0.2442667E-009  0.4778727E+02  0.7816164E-02  0.1312668E+00
        -11   -1    0    0    0    0  0.00000000000E+00  0.00000000000E+00  0.45593999997E+02  0.45594000000E+02  0.51100000000E-03 0. -1.
         11   -1    0    0    0    0 -0.00000000000E+00 -0.00000000000E+00 -0.45593999997E+02  0.45594000000E+02  0.51100000000E-03 0.  1.
    9900012    2    1    2    0    0 -0.87870641342E+01  0.35135067347E+00  0.42500439614E+02  0.47787270619E+02  0.19999998060E+02 0.  0.
        -12    1    1    2    0    0  0.87870641342E+01 -0.35135067347E+00 -0.42500439614E+02  0.43400729381E+02  0.00000000000E+00 0.  1.
         11    1    3    3    0    0 -0.13908539978E+02  0.31963503145E+01  0.20992904064E+02  0.25384368437E+02  0.51100000000E-03 0. -1.
        -11    1    3    3    0    0  0.41110169354E+01 -0.11954015476E+01  0.16109946641E+02  0.16669127936E+02  0.51100000000E-03 0.  1.
         12    1    3    3    0    0  0.10104589080E+01 -0.16495980934E+01  0.53975889087E+01  0.57337742458E+01  0.00000000000E+00 0. -1.
</event>
<event>
 7    1  0.2442667E-009  0.4778729E+02  0.7816164E-02  0.1312668E+00
        -11   -1    0    0    0    0  0.00000000000E+00  0.00000000000E+00  0.45593999997E+02  0.45594000000E+02  0.51100000000E-03 0.  1.
         11   -1    0    0    0    0 -0.00000000000E+00 -0.00000000000E+00 -0.45593999997E+02  0.45594000000E+02  0.51100000000E-03 0. -1.
    9900012    2    1    2    0    0  0.30939921934E+02  0.27240500776E+02 -0.13575631610E+02  0.47787292340E+02  0.20000097094E+02 0.  0.
        -12    1    1    2    0    0 -0.30939921934E+02 -0.27240500776E+02  0.13575631610E+02  0.43400707660E+02  0.00000000000E+00 0.  1.
         11    1    3    3    0    0  0.13154311551E+02  0.11932422578E+02 -0.88237040211E+01  0.19831196985E+02  0.51100000000E-03 0. -1.
        -11    1    3    3    0    0  0.73886094965E+00  0.74527417904E+01  0.24085330545E+01  0.78670393055E+01  0.51100000000E-03 0.  1.
        -12    1    3    3    0    0  0.17046749433E+02  0.78553364076E+01 -0.71604606438E+01  0.20089056049E+02  0.00000000000E+00 0.  1.
</event>
<event>
 7    1  0.2442667E-009  0.4778727E+02  0.7816164E-02  0.1312668E+00
        -11   -1    0    0    0    0  0.00000000000E+00  0.00000000000E+00  0.45593999997E+02  0.45594000000E+02  0.51100000000E-03 0.  1.
         11   -1    0    0    0    0 -0.00000000000E+00 -0.00000000000E+00 -0.45593999997E+02  0.45594000000E+02  0.51100000000E-03 0. -1.
    9900012    2    1    2    0    0  0.17646047783E+02 -0.28944076305E+02 -0.27101302901E+02  0.47787272190E+02  0.20000005224E+02 0.  0.
        -12    1    1    2    0    0 -0.17646047783E+02  0.28944076305E+02  0.27101302901E+02  0.43400727810E+02  0.00000000000E+00 0.  1.
         11    1    3    3    0    0  0.60648533400E+01 -0.11770285817E+02 -0.14545366419E+02  0.19669513435E+02  0.51100000000E-03 0. -1.
        -11    1    3    3    0    0  0.13957087974E+02 -0.12374107623E+02 -0.58764432770E+01  0.19556365461E+02  0.51100000000E-03 0.  1.
        -12    1    3    3    0    0 -0.23758935307E+01 -0.47996828649E+01 -0.66794932043E+01  0.85613932942E+01  0.00000000000E+00 0.  1.
</event>
<event>
 7    1  0.2442667E-009  0.4778727E+02  0.7816164E-02  0.1312668E+00
        -11   -1    0    0    0    0  0.00000000000E+00  0.00000000000E+00  0.45593999997E+02  0.45594000000E+02  0.51100000000E-03 0. -1.
         11   -1    0    0    0    0 -0.00000000000E+00 -0.00000000000E+00 -0.45593999997E+02  0.45594000000E+02  0.51100000000E-03 0.  1.
    9900012    2    1    2    0    0 -0.22890427688E+02 -0.36319605697E+02 -0.63669415405E+01  0.47787269795E+02  0.19999994303E+02 0.  0.
        -12    1    1    2    0    0  0.22890427688E+02  0.36319605697E+02  0.63669415405E+01  0.43400730205E+02  0.00000000000E+00 0.  1.
         11    1    3    3    0    0 -0.17119638639E+02 -0.27896083657E+02 -0.21499022324E+01  0.32800847404E+02  0.51100000000E-03 0. -1.
        -11    1    3    3    0    0 -0.24373805425E+01 -0.14213539526E+01 -0.63454885151E+01  0.69445155140E+01  0.51100000000E-03 0.  1.
        -12    1    3    3    0    0 -0.33334085069E+01 -0.70021680875E+01  0.21284492070E+01  0.80419068775E+01  0.00000000000E+00 0.  1.
</event>
<event>
 7    1  0.2442667E-009  0.4778726E+02  0.7816164E-02  0.1312668E+00
        -11   -1    0    0    0    0  0.00000000000E+00  0.00000000000E+00  0.45593999997E+02  0.45594000000E+02  0.51100000000E-03 0.  1.
         11   -1    0    0    0    0 -0.00000000000E+00 -0.00000000000E+00 -0.45593999997E+02  0.45594000000E+02  0.51100000000E-03 0. -1.
    9900012    2    1    2    0    0  0.38212677189E+02  0.91605304873E+01 -0.18425522399E+02  0.47787263918E+02  0.19999967510E+02 0.  0.
        -12    1    1    2    0    0 -0.38212677189E+02 -0.91605304873E+01  0.18425522399E+02  0.43400736082E+02  0.00000000000E+00 0.  1.
         11    1    3    3    0    0  0.46567496334E+01  0.40102064548E+01 -0.35815035837E+01  0.71129628945E+01  0.51100000000E-03 0. -1.
        -11    1    3    3    0    0 -0.12971016384E+01  0.20244188652E+01 -0.27442369622E+01  0.36485039630E+01  0.51100000000E-03 0.  1.
        -12    1    3    3    0    0  0.34853029194E+02  0.31259051673E+01 -0.12099781853E+02  0.37025797061E+02  0.00000000000E+00 0.  1.
</event>
<event>
 7    1  0.2442667E-009  0.4778727E+02  0.7816164E-02  0.1312668E+00
        -11   -1    0    0    0    0  0.00000000000E+00  0.00000000000E+00  0.45593999997E+02  0.45594000000E+02  0.51100000000E-03 0.  1.
         11   -1    0    0    0    0 -0.00000000000E+00 -0.00000000000E+00 -0.45593999997E+02  0.45594000000E+02  0.51100000000E-03 0. -1.
    9900012    2    1    2    0    0 -0.11726274738E+02 -0.40757708457E+02 -0.92155844178E+01  0.47787270581E+02  0.19999997887E+02 0.  0.
        -12    1    1    2    0    0  0.11726274738E+02  0.40757708457E+02  0.92155844178E+01  0.43400729419E+02  0.00000000000E+00 0.  1.
         11    1    3    3    0    0  0.71130518661E+00 -0.75185866420E+01 -0.69815305768E+00  0.75843600993E+01  0.51100000000E-03 0. -1.
        -11    1    3    3    0    0  0.13736888927E+01 -0.83451153067E+01  0.36900199653E+01  0.92273624759E+01  0.51100000000E-03 0.  1.
        -12    1    3    3    0    0 -0.13811268817E+02 -0.24894006509E+02 -0.12207451325E+02  0.30975548006E+02  0.00000000000E+00 0.  1.
</event>
<event>
 7    1  0.2442667E-009  0.4778727E+02  0.7816164E-02  0.1312668E+00
        -11   -1    0    0    0    0  0.00000000000E+00  0.00000000000E+00  0.45593999997E+02  0.45594000000E+02  0.51100000000E-03 0. -1.
         11   -1    0    0    0    0 -0.00000000000E+00 -0.00000000000E+00 -0.45593999997E+02  0.45594000000E+02  0.51100000000E-03 0.  1.
    9900012    2    1    2    0    0 -0.29196756762E+02  0.31891036216E+02  0.37595740099E+01  0.47787271975E+02  0.20000004245E+02 0.  0.
        -12    1    1    2    0    0  0.29196756762E+02 -0.31891036216E+02 -0.37595740099E+01  0.43400728025E+02  0.00000000000E+00 0.  1.
         11    1    3    3    0    0 -0.92934185861E+01  0.12979344771E+02  0.59996125480E+00  0.15974697914E+02  0.51100000000E-03 0. -1.
        -11    1    3    3    0    0 -0.21216211779E+02  0.20562682210E+02  0.29746067810E+01  0.29695114542E+02  0.51100000000E-03 0.  1.
        -12    1    3    3    0    0  0.13128736032E+01 -0.16509907647E+01  0.18500597412E+00  0.21174595188E+01  0.00000000000E+00 0.  1.
</event>
<event>
 7    1  0.2442667E-009  0.4778728E+02  0.7816164E-02  0.1312668E+00
        -11   -1    0    0    0    0  0.00000000000E+00  0.00000000000E+00  0.45593999997E+02  0.45594000000E+02  0.51100000000E-03 0. -1.
         11   -1    0    0    0    0 -0.00000000000E+00 -0.00000000000E+00 -0.45593999997E+02  0.45594000000E+02  0.51100000000E-03 0.  1.
    9900012    2    1    2    0    0 -0.26869041375E+02  0.22226202248E+02 -0.25839368060E+02  0.47787281198E+02  0.20000046293E+02 0.  0.
        -12    1    1    2    0    0  0.26869041375E+02 -0.22226202248E+02  0.25839368060E+02  0.43400718802E+02  0.00000000000E+00 0.  1.
         11    1    3    3    0    0 -0.14602562252E+02  0.11293926878E+02 -0.42193321058E+01  0.18936482575E+02  0.51100000000E-03 0. -1.
        -11    1    3    3    0    0 -0.11736147656E+00  0.18050622259E+01 -0.87570445357E+01  0.89419154892E+01  0.51100000000E-03 0.  1.
         12    1    3    3    0    0 -0.12149117646E+02  0.91272131443E+01 -0.12862991419E+02  0.19908883133E+02  0.00000000000E+00 0. -1.
</event>
<event>
 7    1  0.2442667E-009  0.4778727E+02  0.7816164E-02  0.1312668E+00
        -11   -1    0    0    0    0  0.00000000000E+00  0.00000000000E+00  0.45593999997E+02  0.45594000000E+02  0.51100000000E-03 0. -1.
         11   -1    0    0    0    0 -0.00000000000E+00 -0.00000000000E+00 -0.45593999997E+02  0.45594000000E+02  0.51100000000E-03 0.  1.
    9900012    2    1    2    0    0  0.25513814261E+02  0.96553171246E+01  0.33755641814E+02  0.47787271652E+02  0.20000002768E+02 0.  0.
        -12    1    1    2    0    0 -0.25513814261E+02 -0.96553171246E+01 -0.33755641814E+02  0.43400728348E+02  0.00000000000E+00 0.  1.
         11    1    3    3    0    0 -0.24176906795E+00  0.67647728572E+01  0.63941845909E+01  0.93116164512E+01  0.51100000000E-03 0. -1.
        -11    1    3    3    0    0  0.14848861567E+01  0.20399638092E+01  0.12487628947E+01  0.28152705499E+01  0.51100000000E-03 0.  1.
         12    1    3    3    0    0  0.24270697172E+02  0.85058045823E+00  0.26112694328E+02  0.35660384650E+02  0.00000000000E+00 0. -1.
</event>
<event>
 7    1  0.2442667E-009  0.4778727E+02  0.7816164E-02  0.1312668E+00
        -11   -1    0    0    0    0  0.00000000000E+00  0.00000000000E+00  0.45593999997E+02  0.45594000000E+02  0.51100000000E-03 0. -1.
         11   -1    0    0    0    0 -0.00000000000E+00 -0.00000000000E+00 -0.45593999997E+02  0.45594000000E+02  0.51100000000E-03 0.  1.
    9900012    2    1    2    0    0  0.78855040082E+01  0.16686263042E+02  0.39281174997E+02  0.47787271240E+02  0.20000000890E+02 0.  0.
        -12    1    1    2    0    0 -0.78855040082E+01 -0.16686263042E+02 -0.39281174997E+02  0.43400728760E+02  0.00000000000E+00 0.  1.
         11    1    3    3    0    0  0.78015662504E+01  0.64103695619E-02  0.11344262761E+02  0.13767961901E+02  0.51100000000E-03 0. -1.
        -11    1    3    3    0    0 -0.33006811147E+01  0.91760346498E+01  0.21367205287E+02  0.23487263990E+02  0.51100000000E-03 0.  1.
        -12    1    3    3    0    0  0.33846188725E+01  0.75038180223E+01  0.65697069495E+01  0.10532045349E+02  0.00000000000E+00 0.  1.
</event>
<event>
 7    1  0.2442667E-009  0.4778727E+02  0.7816164E-02  0.1312668E+00
        -11   -1    0    0    0    0  0.00000000000E+00  0.00000000000E+00  0.45593999997E+02  0.45594000000E+02  0.51100000000E-03 0.  1.
         11   -1    0    0    0    0 -0.00000000000E+00 -0.00000000000E+00 -0.45593999997E+02  0.45594000000E+02  0.51100000000E-03 0. -1.
    9900012    2    1    2    0    0 -0.61506529731E+01 -0.13473528552E+02 -0.40795303619E+02  0.47787270731E+02  0.19999998573E+02 0.  0.
        -12    1    1    2    0    0  0.61506529731E+01  0.13473528552E+02  0.40795303619E+02  0.43400729269E+02  0.00000000000E+00 0.  1.
         11    1    3    3    0    0  0.12011649781E+01  0.80003727713E+00 -0.93410945838E+01  0.94519260066E+01  0.51100000000E-03 0. -1.
        -11    1    3    3    0    0 -0.49136764025E+01  0.20601673054E+01 -0.63956219059E+01  0.83242107698E+01  0.51100000000E-03 0.  1.
        -12    1    3    3    0    0 -0.24381415487E+01 -0.16333733135E+02 -0.25058587130E+02  0.30011133955E+02  0.00000000000E+00 0.  1.
</event>
<event>
 7    1  0.2442667E-009  0.4778727E+02  0.7816164E-02  0.1312668E+00
        -11   -1    0    0    0    0  0.00000000000E+00  0.00000000000E+00  0.45593999997E+02  0.45594000000E+02  0.51100000000E-03 0.  1.
         11   -1    0    0    0    0 -0.00000000000E+00 -0.00000000000E+00 -0.45593999997E+02  0.45594000000E+02  0.51100000000E-03 0. -1.
    9900012    2    1    2    0    0 -0.29031922838E+02 -0.13053834071E+02 -0.29502004977E+02  0.47787269300E+02  0.19999992046E+02 0.  0.
        -12    1    1    2    0    0  0.29031922838E+02  0.13053834071E+02  0.29502004977E+02  0.43400730700E+02  0.00000000000E+00 0.  1.
         11    1    3    3    0    0 -0.22357279780E+02 -0.59126899715E+01 -0.20151142381E+02  0.30673708635E+02  0.51100000000E-03 0. -1.
        -11    1    3    3    0    0  0.18229104647E+01 -0.45752700631E+01 -0.56533247274E+01  0.74977449574E+01  0.51100000000E-03 0.  1.
        -12    1    3    3    0    0 -0.84975535227E+01 -0.25658740359E+01 -0.36975378686E+01  0.96158157079E+01  0.00000000000E+00 0.  1.
</event>
<event>
 7    1  0.2442667E-009  0.4778727E+02  0.7816164E-02  0.1312668E+00
        -11   -1    0    0    0    0  0.00000000000E+00  0.00000000000E+00  0.45593999997E+02  0.45594000000E+02  0.51100000000E-03 0.  1.
         11   -1    0    0    0    0 -0.00000000000E+00 -0.00000000000E+00 -0.45593999997E+02  0.45594000000E+02  0.51100000000E-03 0. -1.
    9900012    2    1    2    0    0  0.28660553889E+02 -0.16556138304E+02 -0.28072947173E+02  0.47787269271E+02  0.19999991915E+02 0.  0.
        -12    1    1    2    0    0 -0.28660553889E+02  0.16556138304E+02  0.28072947173E+02  0.43400730729E+02  0.00000000000E+00 0.  1.
         11    1    3    3    0    0  0.11056877638E+02 -0.12649479916E+02 -0.10712703358E+02  0.19925508745E+02  0.51100000000E-03 0. -1.
        -11    1    3    3    0    0  0.19074606955E+02 -0.20011201954E+01 -0.14078440432E+02  0.23791754828E+02  0.51100000000E-03 0.  1.
        -12    1    3    3    0    0 -0.14709307039E+01 -0.19055381934E+01 -0.32818033829E+01  0.40700056985E+01  0.00000000000E+00 0.  1.
</event>
<event>
 7    1  0.2442667E-009  0.4778727E+02  0.7816164E-02  0.1312668E+00
        -11   -1    0    0    0    0  0.00000000000E+00  0.00000000000E+00  0.45593999997E+02  0.45594000000E+02  0.51100000000E-03 0. -1.
         11   -1    0    0    0    0 -0.00000000000E+00 -0.00000000000E+00 -0.45593999997E+02  0.45594000000E+02  0.51100000000E-03 0.  1.
    9900012    2    1    2    0    0 -0.19629742388E+02  0.33073888260E+01  0.38566278062E+02  0.47787269469E+02  0.19999992816E+02 0.  0.
        -12    1    1    2    0    0  0.19629742388E+02 -0.33073888260E+01 -0.38566278062E+02  0.43400730531E+02  0.00000000000E+00 0.  1.
         11    1    3    3    0    0 -0.10791559056E+02 -0.46188235197E+01  0.26214961344E+02  0.28723082636E+02  0.51100000000E-03 0.  1.
        -11    1    3    3    0    0 -0.68293563613E+00  0.51220862122E+01  0.76794879439E+01  0.92561711085E+01  0.51100000000E-03 0. -1.
         12    1    3    3    0    0 -0.81552476959E+01  0.28041261336E+01  0.46718287744E+01  0.98080157244E+01  0.00000000000E+00 0. -1.
</event>
<event>
 7    1  0.2442667E-009  0.4778726E+02  0.7816164E-02  0.1312668E+00
        -11   -1    0    0    0    0  0.00000000000E+00  0.00000000000E+00  0.45593999997E+02  0.45594000000E+02  0.51100000000E-03 0.  1.
         11   -1    0    0    0    0 -0.00000000000E+00 -0.00000000000E+00 -0.45593999997E+02  0.45594000000E+02  0.51100000000E-03 0. -1.
    9900012    2    1    2    0    0  0.23326966050E+02 -0.18081030827E+02 -0.31820639430E+02  0.47787261359E+02  0.19999955840E+02 0.  0.
        -12    1    1    2    0    0 -0.23326966050E+02  0.18081030827E+02  0.31820639430E+02  0.43400738641E+02  0.00000000000E+00 0.  1.
         11    1    3    3    0    0  0.10515533273E+02 -0.14215943100E+02 -0.22128020306E+02  0.28325231881E+02  0.51100000000E-03 0. -1.
        -11    1    3    3    0    0  0.42847853570E+01 -0.65858103357E+01 -0.36531033654E+01  0.86647243345E+01  0.51100000000E-03 0.  1.
         12    1    3    3    0    0  0.85266474204E+01  0.27207226092E+01 -0.60395157591E+01  0.10797305143E+02  0.00000000000E+00 0. -1.
</event>
<event>
 7    1  0.2442667E-009  0.4778727E+02  0.7816164E-02  0.1312668E+00
        -11   -1    0    0    0    0  0.00000000000E+00  0.00000000000E+00  0.45593999997E+02  0.45594000000E+02  0.51100000000E-03 0. -1.
         11   -1    0    0    0    0 -0.00000000000E+00 -0.00000000000E+00 -0.45593999997E+02  0.45594000000E+02  0.51100000000E-03 0.  1.
    9900012    2    1    2    0    0  0.35963572817E+02 -0.87473076179E+01  0.22665601868E+02  0.47787268804E+02  0.19999989784E+02 0.  0.
        -12    1    1    2    0    0 -0.35963572817E+02  0.87473076179E+01 -0.22665601868E+02  0.43400731196E+02  0.00000000000E+00 0.  1.
         11    1    3    3    0    0  0.30230064858E+02 -0.13152252556E+02  0.12874077988E+02  0.35391813360E+02  0.51100000000E-03 0. -1.
        -11    1    3    3    0    0  0.13441529692E+01  0.23957568766E+01  0.30635232566E+01  0.41147992929E+01  0.51100000000E-03 0.  1.
         12    1    3    3    0    0  0.43893549897E+01  0.20091880615E+01  0.67280006237E+01  0.82806561506E+01  0.00000000000E+00 0. -1.
</event>
<event>
 7    1  0.2638154E-009  0.4778727E+02  0.7816164E-02  0.1312668E+00
        -11   -1    0    0    0    0  0.00000000000E+00  0.00000000000E+00  0.45593999997E+02  0.45594000000E+02  0.51100000000E-03 0.  1.
         11   -1    0    0    0    0 -0.00000000000E+00 -0.00000000000E+00 -0.45593999997E+02  0.45594000000E+02  0.51100000000E-03 0. -1.
    9900012    2    1    2    0    0  0.27299151139E+02  0.57922833813E+01 -0.33238965623E+02  0.47787273792E+02  0.20000012526E+02 0.  0.
        -12    1    1    2    0    0 -0.27299151139E+02 -0.57922833813E+01  0.33238965623E+02  0.43400726208E+02  0.00000000000E+00 0.  1.
         11    1    3    3    0    0  0.24444486574E+02  0.58967759354E+01 -0.25155545893E+02  0.35568333947E+02  0.51100000000E-03 0. -1.
        -11    1    3    3    0    0 -0.15319071918E+00  0.46847402796E+00 -0.90072049053E+01  0.90206804498E+01  0.51100000000E-03 0.  1.
        -12    1    3    3    0    0  0.30078552837E+01 -0.57296658213E+00  0.92378517437E+00  0.31982593954E+01  0.00000000000E+00 0.  1.
</event>
<event>
 7    1  0.2442667E-009  0.4778727E+02  0.7816164E-02  0.1312668E+00
        -11   -1    0    0    0    0  0.00000000000E+00  0.00000000000E+00  0.45593999997E+02  0.45594000000E+02  0.51100000000E-03 0. -1.
         11   -1    0    0    0    0 -0.00000000000E+00 -0.00000000000E+00 -0.45593999997E+02  0.45594000000E+02  0.51100000000E-03 0.  1.
    9900012    2    1    2    0    0 -0.36267941466E+02 -0.10343968536E+02  0.21477005227E+02  0.47787274006E+02  0.20000013504E+02 0.  0.
        -12    1    1    2    0    0  0.36267941466E+02  0.10343968536E+02 -0.21477005227E+02  0.43400725994E+02  0.00000000000E+00 0.  1.
         11    1    3    3    0    0 -0.13073536480E+02 -0.10525837431E+01  0.15212882481E+02  0.20086241119E+02  0.51100000000E-03 0. -1.
        -11    1    3    3    0    0 -0.21380082711E+02 -0.80308570404E+01  0.86753036922E+01  0.24430789917E+02  0.51100000000E-03 0.  1.
         12    1    3    3    0    0 -0.18143222747E+01 -0.12605277524E+01 -0.24111809463E+01  0.32702429706E+01  0.00000000000E+00 0. -1.
</event>
<event>
 7    1  0.2442667E-009  0.4778728E+02  0.7816164E-02  0.1312668E+00
        -11   -1    0    0    0    0  0.00000000000E+00  0.00000000000E+00  0.45593999997E+02  0.45594000000E+02  0.51100000000E-03 0.  1.
         11   -1    0    0    0    0 -0.00000000000E+00 -0.00000000000E+00 -0.45593999997E+02  0.45594000000E+02  0.51100000000E-03 0. -1.
    9900012    2    1    2    0    0 -0.33289006719E+02  0.25006042725E+02  0.12254086016E+02  0.47787276905E+02  0.20000026721E+02 0.  0.
        -12    1    1    2    0    0  0.33289006719E+02 -0.25006042725E+02 -0.12254086016E+02  0.43400723095E+02  0.00000000000E+00 0.  1.
         11    1    3    3    0    0 -0.20565187780E+02  0.41136512060E+01  0.55192026709E+01  0.21686647345E+02  0.51100000000E-03 0.  1.
        -11    1    3    3    0    0 -0.28554333316E+00  0.48246397736E+01  0.57057112279E+00  0.48666452108E+01  0.51100000000E-03 0. -1.
         12    1    3    3    0    0 -0.12438275606E+02  0.16067751745E+02  0.61643122226E+01  0.21233984350E+02  0.00000000000E+00 0. -1.
</event>
<event>
 7    1  0.2442667E-009  0.4778727E+02  0.7816164E-02  0.1312668E+00
        -11   -1    0    0    0    0  0.00000000000E+00  0.00000000000E+00  0.45593999997E+02  0.45594000000E+02  0.51100000000E-03 0.  1.
         11   -1    0    0    0    0 -0.00000000000E+00 -0.00000000000E+00 -0.45593999997E+02  0.45594000000E+02  0.51100000000E-03 0. -1.
    9900012    2    1    2    0    0  0.34796524988E+02  0.16857791558E+02 -0.19713958818E+02  0.47787268903E+02  0.19999990236E+02 0.  0.
        -12    1    1    2    0    0 -0.34796524988E+02 -0.16857791558E+02  0.19713958818E+02  0.43400731097E+02  0.00000000000E+00 0.  1.
         11    1    3    3    0    0 -0.15845079438E+01  0.61403027552E+00 -0.26451854054E+01  0.31439950212E+01  0.51100000000E-03 0. -1.
        -11    1    3    3    0    0  0.26933396404E+01 -0.15657942980E+01 -0.17540589985E+01  0.35752641068E+01  0.51100000000E-03 0.  1.
         12    1    3    3    0    0  0.33687693292E+02  0.17809555580E+02 -0.15314714415E+02  0.41068009775E+02  0.00000000000E+00 0. -1.
</event>
<event>
 7    1  0.2442667E-009  0.4778727E+02  0.7816164E-02  0.1312668E+00
        -11   -1    0    0    0    0  0.00000000000E+00  0.00000000000E+00  0.45593999997E+02  0.45594000000E+02  0.51100000000E-03 0.  1.
         11   -1    0    0    0    0 -0.00000000000E+00 -0.00000000000E+00 -0.45593999997E+02  0.45594000000E+02  0.51100000000E-03 0. -1.
    9900012    2    1    2    0    0 -0.31943838813E+02  0.25486501957E+02 -0.14616873979E+02  0.47787266999E+02  0.19999981557E+02 0.  0.
        -12    1    1    2    0    0  0.31943838813E+02 -0.25486501957E+02  0.14616873979E+02  0.43400733001E+02  0.00000000000E+00 0.  1.
         11    1    3    3    0    0 -0.74217288093E+01  0.20514462167E+01  0.21084433893E+01  0.79834844451E+01  0.51100000000E-03 0. -1.
        -11    1    3    3    0    0 -0.12093010145E+02  0.19628119885E+02 -0.11840623241E+02  0.25917259569E+02  0.51100000000E-03 0.  1.
        -12    1    3    3    0    0 -0.12429099859E+02  0.38069358548E+01 -0.48846941268E+01  0.13886522985E+02  0.00000000000E+00 0.  1.
</event>
<event>
 7    1  0.2442667E-009  0.4778727E+02  0.7816164E-02  0.1312668E+00
        -11   -1    0    0    0    0  0.00000000000E+00  0.00000000000E+00  0.45593999997E+02  0.45594000000E+02  0.51100000000E-03 0.  1.
         11   -1    0    0    0    0 -0.00000000000E+00 -0.00000000000E+00 -0.45593999997E+02  0.45594000000E+02  0.51100000000E-03 0. -1.
    9900012    2    1    2    0    0  0.14123948117E+02 -0.40238072909E+02 -0.80644361878E+01  0.47787267831E+02  0.19999985347E+02 0.  0.
        -12    1    1    2    0    0 -0.14123948117E+02  0.40238072909E+02  0.80644361878E+01  0.43400732169E+02  0.00000000000E+00 0.  1.
         11    1    3    3    0    0  0.22105603241E+01  0.13510100500E+00  0.83590100334E+00  0.23671839761E+01  0.51100000000E-03 0. -1.
        -11    1    3    3    0    0  0.14600282169E+01 -0.22486092350E+02 -0.10044685667E+02  0.24670868286E+02  0.51100000000E-03 0.  1.
        -12    1    3    3    0    0  0.10453359576E+02 -0.17887081564E+02  0.11443484758E+01  0.20749215569E+02  0.00000000000E+00 0.  1.
</event>
<event>
 7    1  0.2442667E-009  0.4778728E+02  0.7816164E-02  0.1312668E+00
        -11   -1    0    0    0    0  0.00000000000E+00  0.00000000000E+00  0.45593999997E+02  0.45594000000E+02  0.51100000000E-03 0.  1.
         11   -1    0    0    0    0 -0.00000000000E+00 -0.00000000000E+00 -0.45593999997E+02  0.45594000000E+02  0.51100000000E-03 0. -1.
    9900012    2    1    2    0    0  0.18153162345E+00  0.42100641619E+02 -0.10541590954E+02  0.47787284357E+02  0.20000060698E+02 0.  0.
        -12    1    1    2    0    0 -0.18153162345E+00 -0.42100641619E+02  0.10541590954E+02  0.43400715643E+02  0.00000000000E+00 0.  1.
         11    1    3    3    0    0 -0.18435614182E+01  0.11133725023E+02 -0.80597983987E+01  0.13867909074E+02  0.51100000000E-03 0. -1.
        -11    1    3    3    0    0 -0.28614708213E+01  0.24127708639E+02  0.20264572022E+01  0.24381158063E+02  0.51100000000E-03 0.  1.
        -12    1    3    3    0    0  0.48865638629E+01  0.68392079566E+01 -0.45082497573E+01  0.95382172200E+01  0.00000000000E+00 0.  1.
</event>
<event>
 7    1  0.2442667E-009  0.4778727E+02  0.7816164E-02  0.1312668E+00
        -11   -1    0    0    0    0  0.00000000000E+00  0.00000000000E+00  0.45593999997E+02  0.45594000000E+02  0.51100000000E-03 0. -1.
         11   -1    0    0    0    0 -0.00000000000E+00 -0.00000000000E+00 -0.45593999997E+02  0.45594000000E+02  0.51100000000E-03 0.  1.
    9900012    2    1    2    0    0 -0.12062477381E+02  0.40159518706E+02 -0.11195208240E+02  0.47787274305E+02  0.20000014866E+02 0.  0.
        -12    1    1    2    0    0  0.12062477381E+02 -0.40159518706E+02  0.11195208240E+02  0.43400725695E+02  0.00000000000E+00 0.  1.
         11    1    3    3    0    0 -0.15498216587E+01  0.30775860238E+02 -0.78121261637E+01  0.31789697010E+02  0.51100000000E-03 0. -1.
        -11    1    3    3    0    0 -0.85419874287E+01  0.54138381937E+01 -0.49976686175E+01  0.11280597728E+02  0.51100000000E-03 0.  1.
        -12    1    3    3    0    0 -0.19706682940E+01  0.39698202748E+01  0.16145865407E+01  0.47169795672E+01  0.00000000000E+00 0.  1.
</event>
<event>
 7    1  0.2442667E-009  0.4778728E+02  0.7816164E-02  0.1312668E+00
        -11   -1    0    0    0    0  0.00000000000E+00  0.00000000000E+00  0.45593999997E+02  0.45594000000E+02  0.51100000000E-03 0. -1.
         11   -1    0    0    0    0 -0.00000000000E+00 -0.00000000000E+00 -0.45593999997E+02  0.45594000000E+02  0.51100000000E-03 0.  1.
    9900012    2    1    2    0    0  0.32571288599E+01 -0.22875653327E+02  0.36738508381E+02  0.47787281093E+02  0.20000045818E+02 0.  0.
        -12    1    1    2    0    0 -0.32571288599E+01  0.22875653327E+02 -0.36738508381E+02  0.43400718907E+02  0.00000000000E+00 0.  1.
         11    1    3    3    0    0  0.10513230375E+01 -0.19418945677E+02  0.36497902855E+02  0.41355744999E+02  0.51100000000E-03 0. -1.
        -11    1    3    3    0    0  0.33707004619E+01 -0.32819401803E+01  0.12637176606E+01  0.48713176388E+01  0.51100000000E-03 0.  1.
         12    1    3    3    0    0 -0.11648946394E+01 -0.17476746968E+00 -0.10231121348E+01  0.15602184558E+01  0.00000000000E+00 0. -1.
</event>
<event>
 7    1  0.2442667E-009  0.4778727E+02  0.7816164E-02  0.1312668E+00
        -11   -1    0    0    0    0  0.00000000000E+00  0.00000000000E+00  0.45593999997E+02  0.45594000000E+02  0.51100000000E-03 0.  1.
         11   -1    0    0    0    0 -0.00000000000E+00 -0.00000000000E+00 -0.45593999997E+02  0.45594000000E+02  0.51100000000E-03 0. -1.
    9900012    2    1    2    0    0  0.19034062694E+01 -0.24637223176E+02 -0.35679231761E+02  0.47787270740E+02  0.19999998611E+02 0.  0.
        -12    1    1    2    0    0 -0.19034062694E+01  0.24637223176E+02  0.35679231761E+02  0.43400729260E+02  0.00000000000E+00 0.  1.
         11    1    3    3    0    0  0.28558696023E+01 -0.19356645580E+02 -0.26020055131E+02  0.32555782721E+02  0.51100000000E-03 0. -1.
        -11    1    3    3    0    0  0.67622206227E+00 -0.27447571286E+01  0.18208126811E+01  0.33624882235E+01  0.51100000000E-03 0.  1.
        -12    1    3    3    0    0 -0.16286853952E+01 -0.25358204675E+01 -0.11479989311E+02  0.11868999795E+02  0.00000000000E+00 0.  1.
</event>
<event>
 7    1  0.2442667E-009  0.4778727E+02  0.7816164E-02  0.1312668E+00
        -11   -1    0    0    0    0  0.00000000000E+00  0.00000000000E+00  0.45593999997E+02  0.45594000000E+02  0.51100000000E-03 0. -1.
         11   -1    0    0    0    0 -0.00000000000E+00 -0.00000000000E+00 -0.45593999997E+02  0.45594000000E+02  0.51100000000E-03 0.  1.
    9900012    2    1    2    0    0 -0.58908375726E+01  0.34440238193E+02  0.25744729259E+02  0.47787273524E+02  0.20000011303E+02 0.  0.
        -12    1    1    2    0    0  0.58908375726E+01 -0.34440238193E+02 -0.25744729259E+02  0.43400726476E+02  0.00000000000E+00 0.  1.
         11    1    3    3    0    0 -0.66863097693E+01  0.13461486897E+02  0.17944854948E+02  0.23408036808E+02  0.51100000000E-03 0. -1.
        -11    1    3    3    0    0  0.32056807243E+01  0.16203874121E+02  0.22482830695E+01  0.16670234025E+02  0.51100000000E-03 0.  1.
        -12    1    3    3    0    0 -0.24102085276E+01  0.47748771746E+01  0.55515912411E+01  0.77090026908E+01  0.00000000000E+00 0.  1.
</event>
<event>
 7    1  0.2442667E-009  0.4778727E+02  0.7816164E-02  0.1312668E+00
        -11   -1    0    0    0    0  0.00000000000E+00  0.00000000000E+00  0.45593999997E+02  0.45594000000E+02  0.51100000000E-03 0. -1.
         11   -1    0    0    0    0 -0.00000000000E+00 -0.00000000000E+00 -0.45593999997E+02  0.45594000000E+02  0.51100000000E-03 0.  1.
    9900012    2    1    2    0    0 -0.24684091218E+02 -0.64498331451E+01  0.35110092551E+02  0.47787270677E+02  0.19999998326E+02 0.  0.
        -12    1    1    2    0    0  0.24684091218E+02  0.64498331451E+01 -0.35110092551E+02  0.43400729323E+02  0.00000000000E+00 0.  1.
         11    1    3    3    0    0 -0.23113276429E+02  0.23783160054E+00  0.24364652732E+02  0.33584466859E+02  0.51100000000E-03 0. -1.
        -11    1    3    3    0    0  0.12286554943E+00 -0.45537526479E+01  0.18798129455E+01  0.49280276068E+01  0.51100000000E-03 0.  1.
        -12    1    3    3    0    0 -0.16936803376E+01 -0.21339120977E+01  0.88656268728E+01  0.92747762116E+01  0.00000000000E+00 0.  1.
</event>
<event>
 7    1  0.2442667E-009  0.4778727E+02  0.7816164E-02  0.1312668E+00
        -11   -1    0    0    0    0  0.00000000000E+00  0.00000000000E+00  0.45593999997E+02  0.45594000000E+02  0.51100000000E-03 0.  1.
         11   -1    0    0    0    0 -0.00000000000E+00 -0.00000000000E+00 -0.45593999997E+02  0.45594000000E+02  0.51100000000E-03 0. -1.
    9900012    2    1    2    0    0  0.73497213177E+01 -0.20638148732E+02 -0.37465602287E+02  0.47787274877E+02  0.20000017474E+02 0.  0.
        -12    1    1    2    0    0 -0.73497213177E+01  0.20638148732E+02  0.37465602287E+02  0.43400725123E+02  0.00000000000E+00 0.  1.
         11    1    3    3    0    0 -0.32677252584E+01  0.16310853389E+01 -0.36906882859E+01  0.51922681009E+01  0.51100000000E-03 0.  1.
        -11    1    3    3    0    0  0.78269682208E+01 -0.19378778756E+02 -0.31958906917E+02  0.38185995197E+02  0.51100000000E-03 0. -1.
        -12    1    3    3    0    0  0.27904783553E+01 -0.28904553144E+01 -0.18160070840E+01  0.44090115791E+01  0.00000000000E+00 0.  1.
</event>
<event>
 7    1  0.2442667E-009  0.4778725E+02  0.7816164E-02  0.1312668E+00
        -11   -1    0    0    0    0  0.00000000000E+00  0.00000000000E+00  0.45593999997E+02  0.45594000000E+02  0.51100000000E-03 0. -1.
         11   -1    0    0    0    0 -0.00000000000E+00 -0.00000000000E+00 -0.45593999997E+02  0.45594000000E+02  0.51100000000E-03 0.  1.
    9900012    2    1    2    0    0 -0.35088337229E+02  0.22608033207E+02  0.11887415113E+02  0.47787248704E+02  0.19999898142E+02 0.  0.
        -12    1    1    2    0    0  0.35088337229E+02 -0.22608033207E+02 -0.11887415113E+02  0.43400751296E+02  0.00000000000E+00 0.  1.
         11    1    3    3    0    0 -0.28486522787E+02  0.19718061075E+02  0.12232565121E+02  0.36741251513E+02  0.51100000000E-03 0. -1.
        -11    1    3    3    0    0  0.17145115783E+01  0.13988151251E+01 -0.12621894663E+01  0.25474214838E+01  0.51100000000E-03 0.  1.
        -12    1    3    3    0    0 -0.83163260200E+01  0.14911570078E+01  0.91703945788E+00  0.84985757077E+01  0.00000000000E+00 0.  1.
</event>
<event>
 7    1  0.2442667E-009  0.4778727E+02  0.7816164E-02  0.1312668E+00
        -11   -1    0    0    0    0  0.00000000000E+00  0.00000000000E+00  0.45593999997E+02  0.45594000000E+02  0.51100000000E-03 0. -1.
         11   -1    0    0    0    0 -0.00000000000E+00 -0.00000000000E+00 -0.45593999997E+02  0.45594000000E+02  0.51100000000E-03 0.  1.
    9900012    2    1    2    0    0 -0.52983282553E+01  0.40784586002E+02  0.13862478924E+02  0.47787273513E+02  0.20000011256E+02 0.  0.
        -12    1    1    2    0    0  0.52983282553E+01 -0.40784586002E+02 -0.13862478924E+02  0.43400726487E+02  0.00000000000E+00 0.  1.
         11    1    3    3    0    0  0.43158345314E+01  0.25917962448E+02  0.73018345962E+01  0.27270570106E+02  0.51100000000E-03 0. -1.
        -11    1    3    3    0    0 -0.88376593594E+01  0.15072788252E+02  0.41263672647E+01  0.17953274791E+02  0.51100000000E-03 0.  1.
        -12    1    3    3    0    0 -0.77650342734E+00 -0.20616469764E+00  0.24342770629E+01  0.25634286170E+01  0.00000000000E+00 0.  1.
</event>
<event>
 7    1  0.2442667E-009  0.4778729E+02  0.7816164E-02  0.1312668E+00
        -11   -1    0    0    0    0  0.00000000000E+00  0.00000000000E+00  0.45593999997E+02  0.45594000000E+02  0.51100000000E-03 0. -1.
         11   -1    0    0    0    0 -0.00000000000E+00 -0.00000000000E+00 -0.45593999997E+02  0.45594000000E+02  0.51100000000E-03 0.  1.
    9900012    2    1    2    0    0  0.14196373481E+02 -0.38636189268E+02  0.13759716487E+02  0.47787286423E+02  0.20000070119E+02 0.  0.
        -12    1    1    2    0    0 -0.14196373481E+02  0.38636189268E+02 -0.13759716487E+02  0.43400713577E+02  0.00000000000E+00 0.  1.
         11    1    3    3    0    0  0.79076143298E+01 -0.33253176599E+02  0.15707674330E+02  0.37616952979E+02  0.51100000000E-03 0. -1.
        -11    1    3    3    0    0  0.64211481232E+01 -0.63354292854E+01 -0.17588906082E+01  0.91903484092E+01  0.51100000000E-03 0.  1.
         12    1    3    3    0    0 -0.13238897222E+00  0.95241661598E+00 -0.18906723517E+00  0.97998503548E+00  0.00000000000E+00 0. -1.
</event>
<event>
 7    1  0.2442667E-009  0.4778727E+02  0.7816164E-02  0.1312668E+00
        -11   -1    0    0    0    0  0.00000000000E+00  0.00000000000E+00  0.45593999997E+02  0.45594000000E+02  0.51100000000E-03 0. -1.
         11   -1    0    0    0    0 -0.00000000000E+00 -0.00000000000E+00 -0.45593999997E+02  0.45594000000E+02  0.51100000000E-03 0.  1.
    9900012    2    1    2    0    0  0.28498533580E+02  0.26938361696E+02  0.18595198210E+02  0.47787272546E+02  0.20000006846E+02 0.  0.
        -12    1    1    2    0    0 -0.28498533580E+02 -0.26938361696E+02 -0.18595198210E+02  0.43400727454E+02  0.00000000000E+00 0.  1.
         11    1    3    3    0    0  0.11337528281E+02  0.16226170601E+02  0.56470410374E+01  0.20584392938E+02  0.51100000000E-03 0. -1.
        -11    1    3    3    0    0  0.95037380350E+01  0.76335041009E+01  0.14353361697E+02  0.18831102298E+02  0.51100000000E-03 0.  1.
        -12    1    3    3    0    0  0.76572672641E+01  0.30786869941E+01 -0.14052045246E+01  0.83717773093E+01  0.00000000000E+00 0.  1.
</event>
<event>
 7    1  0.2442667E-009  0.4778727E+02  0.7816164E-02  0.1312668E+00
        -11   -1    0    0    0    0  0.00000000000E+00  0.00000000000E+00  0.45593999997E+02  0.45594000000E+02  0.51100000000E-03 0.  1.
         11   -1    0    0    0    0 -0.00000000000E+00 -0.00000000000E+00 -0.45593999997E+02  0.45594000000E+02  0.51100000000E-03 0. -1.
    9900012    2    1    2    0    0 -0.38288874420E+01 -0.41578849005E+02 -0.11839028013E+02  0.47787266736E+02  0.19999980354E+02 0.  0.
        -12    1    1    2    0    0  0.38288874420E+01  0.41578849005E+02  0.11839028013E+02  0.43400733264E+02  0.00000000000E+00 0.  1.
         11    1    3    3    0    0 -0.20120057430E+00 -0.21189565983E+02 -0.13202062360E+02  0.24966630510E+02  0.51100000000E-03 0. -1.
        -11    1    3    3    0    0  0.14175096514E+00 -0.18563130562E+02  0.15476528832E+01  0.18628073955E+02  0.51100000000E-03 0.  1.
        -12    1    3    3    0    0 -0.37694378328E+01 -0.18261524604E+01 -0.18461853622E+00  0.41925622700E+01  0.00000000000E+00 0.  1.
</event>
<event>
 7    1  0.2442667E-009  0.4778727E+02  0.7816164E-02  0.1312668E+00
        -11   -1    0    0    0    0  0.00000000000E+00  0.00000000000E+00  0.45593999997E+02  0.45594000000E+02  0.51100000000E-03 0.  1.
         11   -1    0    0    0    0 -0.00000000000E+00 -0.00000000000E+00 -0.45593999997E+02  0.45594000000E+02  0.51100000000E-03 0. -1.
    9900012    2    1    2    0    0  0.25226800098E+01  0.40939443928E+02 -0.14185255115E+02  0.47787269059E+02  0.19999990946E+02 0.  0.
        -12    1    1    2    0    0 -0.25226800098E+01 -0.40939443928E+02  0.14185255115E+02  0.43400730941E+02  0.00000000000E+00 0.  1.
         11    1    3    3    0    0 -0.58001406614E+01  0.24117686311E+02 -0.14508195342E+02  0.28736599608E+02  0.51100000000E-03 0. -1.
        -11    1    3    3    0    0  0.67148872655E+01  0.10051778287E+02  0.31142018046E+00  0.12092350496E+02  0.51100000000E-03 0.  1.
         12    1    3    3    0    0  0.16079334058E+01  0.67699793299E+01  0.11520047104E-01  0.69583189548E+01  0.00000000000E+00 0. -1.
</event>
<event>
 7    1  0.2442667E-009  0.4778727E+02  0.7816164E-02  0.1312668E+00
        -11   -1    0    0    0    0  0.00000000000E+00  0.00000000000E+00  0.45593999997E+02  0.45594000000E+02  0.51100000000E-03 0.  1.
         11   -1    0    0    0    0 -0.00000000000E+00 -0.00000000000E+00 -0.45593999997E+02  0.45594000000E+02  0.51100000000E-03 0. -1.
    9900012    2    1    2    0    0 -0.31229338350E+02 -0.30068090081E+02 -0.20643881828E+01  0.47787270588E+02  0.19999997918E+02 0.  0.
        -12    1    1    2    0    0  0.31229338350E+02  0.30068090081E+02  0.20643881828E+01  0.43400729412E+02  0.00000000000E+00 0.  1.
         11    1    3    3    0    0 -0.37250268872E+01 -0.22896797264E+01 -0.34187453208E+01  0.55503403850E+01  0.51100000000E-03 0. -1.
        -11    1    3    3    0    0  0.15129922148E+01 -0.13423324941E+01  0.21807209152E+01  0.29743143643E+01  0.51100000000E-03 0.  1.
        -12    1    3    3    0    0 -0.29017303678E+02 -0.26436077861E+02 -0.82636377719E+00  0.39262615839E+02  0.00000000000E+00 0.  1.
</event>
<event>
 7    1  0.2442667E-009  0.4778727E+02  0.7816164E-02  0.1312668E+00
        -11   -1    0    0    0    0  0.00000000000E+00  0.00000000000E+00  0.45593999997E+02  0.45594000000E+02  0.51100000000E-03 0.  1.
         11   -1    0    0    0    0 -0.00000000000E+00 -0.00000000000E+00 -0.45593999997E+02  0.45594000000E+02  0.51100000000E-03 0. -1.
    9900012    2    1    2    0    0 -0.31789027284E+02 -0.23451056063E+02 -0.17975787845E+02  0.47787271494E+02  0.20000002051E+02 0.  0.
        -12    1    1    2    0    0  0.31789027284E+02  0.23451056063E+02  0.17975787845E+02  0.43400728506E+02  0.00000000000E+00 0.  1.
         11    1    3    3    0    0 -0.28304750968E+02 -0.24569601613E+02 -0.10784640699E+02  0.39001701579E+02  0.51100000000E-03 0. -1.
        -11    1    3    3    0    0 -0.26785838206E+00 -0.58919575542E+00 -0.36469300639E+01  0.37039166976E+01  0.51100000000E-03 0.  1.
         12    1    3    3    0    0 -0.32164179347E+01  0.17077413056E+01 -0.35442170826E+01  0.50816532178E+01  0.00000000000E+00 0. -1.
</event>
<event>
 7    1  0.2442667E-009  0.4778727E+02  0.7816164E-02  0.1312668E+00
        -11   -1    0    0    0    0  0.00000000000E+00  0.00000000000E+00  0.45593999997E+02  0.45594000000E+02  0.51100000000E-03 0. -1.
         11   -1    0    0    0    0 -0.00000000000E+00 -0.00000000000E+00 -0.45593999997E+02  0.45594000000E+02  0.51100000000E-03 0.  1.
    9900012    2    1    2    0    0 -0.33909327752E+01 -0.18157974369E+02  0.39273562735E+02  0.47787272032E+02  0.20000004501E+02 0.  0.
        -12    1    1    2    0    0  0.33909327752E+01  0.18157974369E+02 -0.39273562735E+02  0.43400727968E+02  0.00000000000E+00 0.  1.
         11    1    3    3    0    0 -0.47806092928E+01 -0.17244065424E+02  0.15353356576E+02  0.23578328524E+02  0.51100000000E-03 0.  1.
        -11    1    3    3    0    0  0.12180512558E+01 -0.21036511736E+01  0.18364573876E+02  0.18524755627E+02  0.51100000000E-03 0. -1.
        -12    1    3    3    0    0  0.17162526187E+00  0.11897422289E+01  0.55556322826E+01  0.56841878806E+01  0.00000000000E+00 0.  1.
</event>
<event>
 7    1  0.2442667E-009  0.4778728E+02  0.7816164E-02  0.1312668E+00
        -11   -1    0    0    0    0  0.00000000000E+00  0.00000000000E+00  0.45593999997E+02  0.45594000000E+02  0.51100000000E-03 0.  1.
         11   -1    0    0    0    0 -0.00000000000E+00 -0.00000000000E+00 -0.45593999997E+02  0.45594000000E+02  0.51100000000E-03 0. -1.
    9900012    2    1    2    0    0 -0.11360174474E+02  0.36388571138E+02 -0.20747070776E+02  0.47787278585E+02  0.20000034382E+02 0.  0.
        -12    1    1    2    0    0  0.11360174474E+02 -0.36388571138E+02  0.20747070776E+02  0.43400721415E+02  0.00000000000E+00 0.  1.
         11    1    3    3    0    0 -0.32099472548E+01  0.62914041244E+01 -0.23198929759E+01  0.74342068115E+01  0.51100000000E-03 0. -1.
        -11    1    3    3    0    0  0.10303079931E+01  0.11767138961E+02  0.13236866087E+01  0.11886094412E+02  0.51100000000E-03 0.  1.
        -12    1    3    3    0    0 -0.91805352126E+01  0.18330028052E+02 -0.19750864409E+02  0.28466977361E+02  0.00000000000E+00 0.  1.
</event>
<event>
 7    1  0.2442667E-009  0.4778727E+02  0.7816164E-02  0.1312668E+00
        -11   -1    0    0    0    0  0.00000000000E+00  0.00000000000E+00  0.45593999997E+02  0.45594000000E+02  0.51100000000E-03 0.  1.
         11   -1    0    0    0    0 -0.00000000000E+00 -0.00000000000E+00 -0.45593999997E+02  0.45594000000E+02  0.51100000000E-03 0. -1.
    9900012    2    1    2    0    0 -0.17068337345E+02  0.31791843154E+01 -0.39776726940E+02  0.47787270067E+02  0.19999995544E+02 0.  0.
        -12    1    1    2    0    0  0.17068337345E+02 -0.31791843154E+01  0.39776726940E+02  0.43400729933E+02  0.00000000000E+00 0.  1.
         11    1    3    3    0    0  0.28244816178E+01  0.79388401371E+00 -0.82778483579E+01  0.87824098022E+01  0.51100000000E-03 0. -1.
        -11    1    3    3    0    0 -0.19211844537E+02  0.25001725194E+00 -0.31336467074E+02  0.36757742696E+02  0.51100000000E-03 0.  1.
         12    1    3    3    0    0 -0.68097442537E+00  0.21352830498E+01 -0.16241150804E+00  0.22471175689E+01  0.00000000000E+00 0. -1.
</event>
<event>
 7    1  0.2442667E-009  0.4778727E+02  0.7816164E-02  0.1312668E+00
        -11   -1    0    0    0    0  0.00000000000E+00  0.00000000000E+00  0.45593999997E+02  0.45594000000E+02  0.51100000000E-03 0.  1.
         11   -1    0    0    0    0 -0.00000000000E+00 -0.00000000000E+00 -0.45593999997E+02  0.45594000000E+02  0.51100000000E-03 0. -1.
    9900012    2    1    2    0    0  0.27294062137E+02  0.13191247084E+00 -0.33743736517E+02  0.47787274396E+02  0.20000015279E+02 0.  0.
        -12    1    1    2    0    0 -0.27294062137E+02 -0.13191247084E+00  0.33743736517E+02  0.43400725604E+02  0.00000000000E+00 0.  1.
         11    1    3    3    0    0  0.25261728083E+02 -0.14329152556E+01 -0.17701498118E+02  0.30879624152E+02  0.51100000000E-03 0. -1.
        -11    1    3    3    0    0  0.92630544929E+00 -0.15196245150E+01 -0.85007525368E+01  0.86850500519E+01  0.51100000000E-03 0.  1.
         12    1    3    3    0    0  0.11060286050E+01  0.30844522414E+01 -0.75414858620E+01  0.82226001916E+01  0.00000000000E+00 0. -1.
</event>
<event>
 7    1  0.2442667E-009  0.4778727E+02  0.7816164E-02  0.1312668E+00
        -11   -1    0    0    0    0  0.00000000000E+00  0.00000000000E+00  0.45593999997E+02  0.45594000000E+02  0.51100000000E-03 0.  1.
         11   -1    0    0    0    0 -0.00000000000E+00 -0.00000000000E+00 -0.45593999997E+02  0.45594000000E+02  0.51100000000E-03 0. -1.
    9900012    2    1    2    0    0  0.38254900381E+02 -0.18772563172E+02 -0.82326731640E+01  0.47787269146E+02  0.19999991343E+02 0.  0.
        -12    1    1    2    0    0 -0.38254900381E+02  0.18772563172E+02  0.82326731640E+01  0.43400730854E+02  0.00000000000E+00 0.  1.
         11    1    3    3    0    0  0.20918855387E+02 -0.80607080081E+01  0.33435599133E+01  0.22666118270E+02  0.51100000000E-03 0. -1.
        -11    1    3    3    0    0  0.47717249292E+01  0.12335955742E+01 -0.31101289049E+01  0.58278657248E+01  0.51100000000E-03 0.  1.
         12    1    3    3    0    0  0.12564320066E+02 -0.11945450739E+02 -0.84661041724E+01  0.19293285151E+02  0.00000000000E+00 0. -1.
</event>
<event>
 7    1  0.2442667E-009  0.4778730E+02  0.7816164E-02  0.1312668E+00
        -11   -1    0    0    0    0  0.00000000000E+00  0.00000000000E+00  0.45593999997E+02  0.45594000000E+02  0.51100000000E-03 0. -1.
         11   -1    0    0    0    0 -0.00000000000E+00 -0.00000000000E+00 -0.45593999997E+02  0.45594000000E+02  0.51100000000E-03 0.  1.
    9900012    2    1    2    0    0  0.69163756051E+01 -0.42842484029E+02  0.55335399326E+00  0.47787298509E+02  0.20000125222E+02 0.  0.
        -12    1    1    2    0    0 -0.69163756051E+01  0.42842484029E+02 -0.55335399326E+00  0.43400701491E+02  0.00000000000E+00 0.  1.
         11    1    3    3    0    0  0.40179338790E+01 -0.20276461046E+02  0.85580266547E+01  0.22372270463E+02  0.51100000000E-03 0. -1.
        -11    1    3    3    0    0 -0.14631103360E+01 -0.24766660141E+01  0.89694220280E+00  0.30131498432E+01  0.51100000000E-03 0.  1.
         12    1    3    3    0    0  0.43615520622E+01 -0.20089356969E+02 -0.89016148643E+01  0.22401878203E+02  0.00000000000E+00 0. -1.
</event>
<event>
 7    1  0.2442667E-009  0.4778728E+02  0.7816164E-02  0.1312668E+00
        -11   -1    0    0    0    0  0.00000000000E+00  0.00000000000E+00  0.45593999997E+02  0.45594000000E+02  0.51100000000E-03 0. -1.
         11   -1    0    0    0    0 -0.00000000000E+00 -0.00000000000E+00 -0.45593999997E+02  0.45594000000E+02  0.51100000000E-03 0.  1.
    9900012    2    1    2    0    0  0.25859972592E+02  0.31487600259E+02  0.14947085307E+02  0.47787279825E+02  0.20000040036E+02 0.  0.
        -12    1    1    2    0    0 -0.25859972592E+02 -0.31487600259E+02 -0.14947085307E+02  0.43400720175E+02  0.00000000000E+00 0.  1.
         11    1    3    3    0    0  0.19308648402E+02  0.17358013374E+02  0.15310361610E+02  0.30141859669E+02  0.51100000000E-03 0. -1.
        -11    1    3    3    0    0 -0.13308681797E+01  0.44987611649E+01 -0.19867515931E+01  0.50948252457E+01  0.51100000000E-03 0.  1.
         12    1    3    3    0    0  0.78821923696E+01  0.96308257201E+01  0.16234752901E+01  0.12550594911E+02  0.00000000000E+00 0. -1.
</event>
<event>
 7    1  0.2442667E-009  0.4778726E+02  0.7816164E-02  0.1312668E+00
        -11   -1    0    0    0    0  0.00000000000E+00  0.00000000000E+00  0.45593999997E+02  0.45594000000E+02  0.51100000000E-03 0. -1.
         11   -1    0    0    0    0 -0.00000000000E+00 -0.00000000000E+00 -0.45593999997E+02  0.45594000000E+02  0.51100000000E-03 0.  1.
    9900012    2    1    2    0    0 -0.18187049649E+02 -0.37542801398E+02  0.11974696453E+02  0.47787261909E+02  0.19999958347E+02 0.  0.
        -12    1    1    2    0    0  0.18187049649E+02  0.37542801398E+02 -0.11974696453E+02  0.43400738091E+02  0.00000000000E+00 0.  1.
         11    1    3    3    0    0 -0.18610289283E+02 -0.22785006070E+02  0.80630462417E+01  0.30504296153E+02  0.51100000000E-03 0. -1.
        -11    1    3    3    0    0  0.20371449757E+01 -0.11949974331E+02 -0.10561927216E+00  0.12122829779E+02  0.51100000000E-03 0.  1.
         12    1    3    3    0    0 -0.16139053415E+01 -0.28078209968E+01  0.40172694831E+01  0.51601359770E+01  0.00000000000E+00 0. -1.
</event>
<event>
 7    1  0.2442667E-009  0.4778727E+02  0.7816164E-02  0.1312668E+00
        -11   -1    0    0    0    0  0.00000000000E+00  0.00000000000E+00  0.45593999997E+02  0.45594000000E+02  0.51100000000E-03 0.  1.
         11   -1    0    0    0    0 -0.00000000000E+00 -0.00000000000E+00 -0.45593999997E+02  0.45594000000E+02  0.51100000000E-03 0. -1.
    9900012    2    1    2    0    0 -0.24977446851E+02 -0.14734762722E+02 -0.32289896736E+02  0.47787268267E+02  0.19999987337E+02 0.  0.
        -12    1    1    2    0    0  0.24977446851E+02  0.14734762722E+02  0.32289896736E+02  0.43400731733E+02  0.00000000000E+00 0.  1.
         11    1    3    3    0    0 -0.75207149678E+01  0.97278882848E-01 -0.85821505222E+01  0.11411569772E+02  0.51100000000E-03 0. -1.
        -11    1    3    3    0    0 -0.58608391538E+01 -0.83725498628E+01 -0.20212811368E+02  0.22649652767E+02  0.51100000000E-03 0.  1.
        -12    1    3    3    0    0 -0.11595892730E+02 -0.64594917423E+01 -0.34949348464E+01  0.13726045729E+02  0.00000000000E+00 0.  1.
</event>
<event>
 7    1  0.2442667E-009  0.4778727E+02  0.7816164E-02  0.1312668E+00
        -11   -1    0    0    0    0  0.00000000000E+00  0.00000000000E+00  0.45593999997E+02  0.45594000000E+02  0.51100000000E-03 0. -1.
         11   -1    0    0    0    0 -0.00000000000E+00 -0.00000000000E+00 -0.45593999997E+02  0.45594000000E+02  0.51100000000E-03 0.  1.
    9900012    2    1    2    0    0 -0.48641714117E+00  0.23696251266E+02  0.36357590449E+02  0.47787270640E+02  0.19999998158E+02 0.  0.
        -12    1    1    2    0    0  0.48641714117E+00 -0.23696251266E+02 -0.36357590449E+02  0.43400729360E+02  0.00000000000E+00 0.  1.
         11    1    3    3    0    0  0.68616070509E+01  0.75012916453E+01  0.60823659201E+01  0.11846780285E+02  0.51100000000E-03 0. -1.
        -11    1    3    3    0    0 -0.79818691666E+01  0.85486763668E+01  0.18309371585E+02  0.21726094705E+02  0.51100000000E-03 0.  1.
        -12    1    3    3    0    0  0.63384497451E+00  0.76462832539E+01  0.11965852943E+02  0.14214395651E+02  0.00000000000E+00 0.  1.
</event>
<event>
 7    1  0.2442667E-009  0.4778726E+02  0.7816164E-02  0.1312668E+00
        -11   -1    0    0    0    0  0.00000000000E+00  0.00000000000E+00  0.45593999997E+02  0.45594000000E+02  0.51100000000E-03 0. -1.
         11   -1    0    0    0    0 -0.00000000000E+00 -0.00000000000E+00 -0.45593999997E+02  0.45594000000E+02  0.51100000000E-03 0.  1.
    9900012    2    1    2    0    0 -0.34629228028E+02 -0.20127366409E+02  0.16713176548E+02  0.47787255965E+02  0.19999931249E+02 0.  0.
        -12    1    1    2    0    0  0.34629228028E+02  0.20127366409E+02 -0.16713176548E+02  0.43400744035E+02  0.00000000000E+00 0.  1.
         11    1    3    3    0    0 -0.15552009787E+02 -0.61453442436E+01 -0.11268285704E+01  0.16760071813E+02  0.51100000000E-03 0. -1.
        -11    1    3    3    0    0 -0.11667105148E+02 -0.11575908477E+02  0.16176028113E+02  0.23060504881E+02  0.51100000000E-03 0.  1.
        -12    1    3    3    0    0 -0.74101130931E+01 -0.24061136886E+01  0.16639770062E+01  0.79666792713E+01  0.00000000000E+00 0.  1.
</event>
<event>
 7    1  0.2442667E-009  0.4778726E+02  0.7816164E-02  0.1312668E+00
        -11   -1    0    0    0    0  0.00000000000E+00  0.00000000000E+00  0.45593999997E+02  0.45594000000E+02  0.51100000000E-03 0. -1.
         11   -1    0    0    0    0 -0.00000000000E+00 -0.00000000000E+00 -0.45593999997E+02  0.45594000000E+02  0.51100000000E-03 0.  1.
    9900012    2    1    2    0    0  0.13557345563E+02  0.27318090328E+02 -0.30879513463E+02  0.47787262338E+02  0.19999960303E+02 0.  0.
        -12    1    1    2    0    0 -0.13557345563E+02 -0.27318090328E+02  0.30879513463E+02  0.43400737662E+02  0.00000000000E+00 0.  1.
         11    1    3    3    0    0  0.10489806985E+02  0.22680715835E+02 -0.16539346742E+02  0.29966663348E+02  0.51100000000E-03 0. -1.
        -11    1    3    3    0    0  0.41086765936E+01 -0.11364187346E+00 -0.11444291840E+02  0.12160014548E+02  0.51100000000E-03 0.  1.
        -12    1    3    3    0    0 -0.10411380153E+01  0.47510163673E+01 -0.28958748821E+01  0.56605844417E+01  0.00000000000E+00 0.  1.
</event>
<event>
 7    1  0.2442667E-009  0.4778728E+02  0.7816164E-02  0.1312668E+00
        -11   -1    0    0    0    0  0.00000000000E+00  0.00000000000E+00  0.45593999997E+02  0.45594000000E+02  0.51100000000E-03 0. -1.
         11   -1    0    0    0    0 -0.00000000000E+00 -0.00000000000E+00 -0.45593999997E+02  0.45594000000E+02  0.51100000000E-03 0.  1.
    9900012    2    1    2    0    0 -0.39334136901E+02 -0.16696604528E+02 -0.75941934163E+01  0.47787277631E+02  0.20000030032E+02 0.  0.
        -12    1    1    2    0    0  0.39334136901E+02  0.16696604528E+02  0.75941934163E+01  0.43400722369E+02  0.00000000000E+00 0.  1.
         11    1    3    3    0    0 -0.16158727695E+02 -0.78695676072E+01 -0.12000982337E+02  0.21611528228E+02  0.51100000000E-03 0. -1.
        -11    1    3    3    0    0 -0.12453933848E+02 -0.22604344480E+01  0.49512756263E+01  0.13591363536E+02  0.51100000000E-03 0.  1.
        -12    1    3    3    0    0 -0.10721475357E+02 -0.65666024729E+01 -0.54448670581E+00  0.12584385867E+02  0.00000000000E+00 0.  1.
</event>
<event>
 7    1  0.2442667E-009  0.4778727E+02  0.7816164E-02  0.1312668E+00
        -11   -1    0    0    0    0  0.00000000000E+00  0.00000000000E+00  0.45593999997E+02  0.45594000000E+02  0.51100000000E-03 0.  1.
         11   -1    0    0    0    0 -0.00000000000E+00 -0.00000000000E+00 -0.45593999997E+02  0.45594000000E+02  0.51100000000E-03 0. -1.
    9900012    2    1    2    0    0  0.35256941781E+02 -0.16175729894E+02 -0.19465788099E+02  0.47787273190E+02  0.20000009782E+02 0.  0.
        -12    1    1    2    0    0 -0.35256941781E+02  0.16175729894E+02  0.19465788099E+02  0.43400726810E+02  0.00000000000E+00 0.  1.
         11    1    3    3    0    0  0.26963109436E+02 -0.19051735266E+02 -0.13630445077E+02  0.35717879562E+02  0.51100000000E-03 0. -1.
        -11    1    3    3    0    0  0.60016056241E+01  0.35935855292E+01 -0.65295908265E+01  0.95691527130E+01  0.51100000000E-03 0.  1.
        -12    1    3    3    0    0  0.22922267202E+01 -0.71758015744E+00  0.69424780470E+00  0.25002409151E+01  0.00000000000E+00 0.  1.
</event>
<event>
 7    1  0.2442667E-009  0.4778727E+02  0.7816164E-02  0.1312668E+00
        -11   -1    0    0    0    0  0.00000000000E+00  0.00000000000E+00  0.45593999997E+02  0.45594000000E+02  0.51100000000E-03 0.  1.
         11   -1    0    0    0    0 -0.00000000000E+00 -0.00000000000E+00 -0.45593999997E+02  0.45594000000E+02  0.51100000000E-03 0. -1.
    9900012    2    1    2    0    0 -0.88091314849E+01 -0.99062981160E+01 -0.41326602255E+02  0.47787267358E+02  0.19999983194E+02 0.  0.
        -12    1    1    2    0    0  0.88091314849E+01  0.99062981160E+01  0.41326602255E+02  0.43400732642E+02  0.00000000000E+00 0.  1.
         11    1    3    3    0    0  0.21549738355E+01  0.16753164077E+01 -0.52183751812E+01  0.58891457013E+01  0.51100000000E-03 0. -1.
        -11    1    3    3    0    0  0.23043431551E+01 -0.39245507008E+01 -0.15906643189E+02  0.16544890250E+02  0.51100000000E-03 0.  1.
        -12    1    3    3    0    0 -0.13268448476E+02 -0.76570638229E+01 -0.20201583885E+02  0.25353231408E+02  0.00000000000E+00 0.  1.
</event>
<event>
 7    1  0.2442667E-009  0.4778727E+02  0.7816164E-02  0.1312668E+00
        -11   -1    0    0    0    0  0.00000000000E+00  0.00000000000E+00  0.45593999997E+02  0.45594000000E+02  0.51100000000E-03 0.  1.
         11   -1    0    0    0    0 -0.00000000000E+00 -0.00000000000E+00 -0.45593999997E+02  0.45594000000E+02  0.51100000000E-03 0. -1.
    9900012    2    1    2    0    0  0.46822851375E+01 -0.16645144614E+02 -0.39807521442E+02  0.47787269630E+02  0.19999993549E+02 0.  0.
        -12    1    1    2    0    0 -0.46822851375E+01  0.16645144614E+02  0.39807521442E+02  0.43400730370E+02  0.00000000000E+00 0.  1.
         11    1    3    3    0    0  0.25067132440E+01 -0.16620273036E+02 -0.22809577000E+02  0.28333617670E+02  0.51100000000E-03 0. -1.
        -11    1    3    3    0    0  0.54406541418E+01  0.40076807707E+00 -0.13901851339E+02  0.14933948020E+02  0.51100000000E-03 0.  1.
        -12    1    3    3    0    0 -0.32650822483E+01 -0.42563965513E+00 -0.30960931029E+01  0.45197039401E+01  0.00000000000E+00 0.  1.
</event>
<event>
 7    1  0.2442667E-009  0.4778726E+02  0.7816164E-02  0.1312668E+00
        -11   -1    0    0    0    0  0.00000000000E+00  0.00000000000E+00  0.45593999997E+02  0.45594000000E+02  0.51100000000E-03 0. -1.
         11   -1    0    0    0    0 -0.00000000000E+00 -0.00000000000E+00 -0.45593999997E+02  0.45594000000E+02  0.51100000000E-03 0.  1.
    9900012    2    1    2    0    0 -0.20718221251E+02 -0.31925817988E+02 -0.20859568587E+02  0.47787260978E+02  0.19999954105E+02 0.  0.
        -12    1    1    2    0    0  0.20718221251E+02  0.31925817988E+02  0.20859568587E+02  0.43400739022E+02  0.00000000000E+00 0.  1.
         11    1    3    3    0    0 -0.13824866503E+02 -0.17738995049E+02 -0.10179232910E+02  0.24686345661E+02  0.51100000000E-03 0. -1.
        -11    1    3    3    0    0 -0.16733714373E+01  0.15335459968E+01 -0.51662353470E+01  0.56428648055E+01  0.51100000000E-03 0.  1.
        -12    1    3    3    0    0 -0.52199833100E+01 -0.15720368936E+02 -0.55141003292E+01  0.17458050512E+02  0.00000000000E+00 0.  1.
</event>
<event>
 7    1  0.2442667E-009  0.4778727E+02  0.7816164E-02  0.1312668E+00
        -11   -1    0    0    0    0  0.00000000000E+00  0.00000000000E+00  0.45593999997E+02  0.45594000000E+02  0.51100000000E-03 0.  1.
         11   -1    0    0    0    0 -0.00000000000E+00 -0.00000000000E+00 -0.45593999997E+02  0.45594000000E+02  0.51100000000E-03 0. -1.
    9900012    2    1    2    0    0 -0.17878507459E+02  0.39515108585E+02  0.15932966138E+01  0.47787269251E+02  0.19999991824E+02 0.  0.
        -12    1    1    2    0    0  0.17878507459E+02 -0.39515108585E+02 -0.15932966138E+01  0.43400730749E+02  0.00000000000E+00 0.  1.
         11    1    3    3    0    0  0.19700915965E+01  0.12498827503E+02 -0.47869471307E+00  0.12662191704E+02  0.51100000000E-03 0.  1.
        -11    1    3    3    0    0 -0.13849164951E+02  0.21818823629E+02  0.55933548782E+01  0.26441370113E+02  0.51100000000E-03 0. -1.
        -12    1    3    3    0    0 -0.59994341043E+01  0.51974574527E+01 -0.35213635513E+01  0.86837074344E+01  0.00000000000E+00 0.  1.
</event>
<event>
 7    1  0.2442667E-009  0.4778725E+02  0.7816164E-02  0.1312668E+00
        -11   -1    0    0    0    0  0.00000000000E+00  0.00000000000E+00  0.45593999997E+02  0.45594000000E+02  0.51100000000E-03 0. -1.
         11   -1    0    0    0    0 -0.00000000000E+00 -0.00000000000E+00 -0.45593999997E+02  0.45594000000E+02  0.51100000000E-03 0.  1.
    9900012    2    1    2    0    0 -0.42070100765E+02  0.10109556665E+02  0.33954401412E+01  0.47787245074E+02  0.19999881592E+02 0.  0.
        -12    1    1    2    0    0  0.42070100765E+02 -0.10109556665E+02 -0.33954401412E+01  0.43400754926E+02  0.00000000000E+00 0.  1.
         11    1    3    3    0    0 -0.16529603365E+02  0.12231085751E+02 -0.18315955442E+00  0.20563579302E+02  0.51100000000E-03 0. -1.
        -11    1    3    3    0    0 -0.10903574977E+02 -0.14805819829E+01 -0.26266667405E+01  0.11312800215E+02  0.51100000000E-03 0.  1.
         12    1    3    3    0    0 -0.14636922424E+02 -0.64094710274E+00  0.62052664361E+01  0.15910865557E+02  0.00000000000E+00 0. -1.
</event>
<event>
 7    1  0.2442667E-009  0.4778727E+02  0.7816164E-02  0.1312668E+00
        -11   -1    0    0    0    0  0.00000000000E+00  0.00000000000E+00  0.45593999997E+02  0.45594000000E+02  0.51100000000E-03 0.  1.
         11   -1    0    0    0    0 -0.00000000000E+00 -0.00000000000E+00 -0.45593999997E+02  0.45594000000E+02  0.51100000000E-03 0. -1.
    9900012    2    1    2    0    0  0.13573887325E+02  0.12232801612E+02 -0.39366630148E+02  0.47787269343E+02  0.19999992241E+02 0.  0.
        -12    1    1    2    0    0 -0.13573887325E+02 -0.12232801612E+02  0.39366630148E+02  0.43400730657E+02  0.00000000000E+00 0.  1.
         11    1    3    3    0    0  0.53918514900E+01  0.85135929491E+01 -0.31277559747E+02  0.32860904908E+02  0.51100000000E-03 0. -1.
        -11    1    3    3    0    0  0.30428632968E+01  0.40741774993E+01  0.28678719045E+00  0.50931509395E+01  0.51100000000E-03 0.  1.
        -12    1    3    3    0    0  0.51391725379E+01 -0.35496883683E+00 -0.83758575916E+01  0.98332134953E+01  0.00000000000E+00 0.  1.
</event>
<event>
 7    1  0.2442667E-009  0.4778727E+02  0.7816164E-02  0.1312668E+00
        -11   -1    0    0    0    0  0.00000000000E+00  0.00000000000E+00  0.45593999997E+02  0.45594000000E+02  0.51100000000E-03 0.  1.
         11   -1    0    0    0    0 -0.00000000000E+00 -0.00000000000E+00 -0.45593999997E+02  0.45594000000E+02  0.51100000000E-03 0. -1.
    9900012    2    1    2    0    0  0.39029335628E+02 -0.17308226594E+02 -0.77948486969E+01  0.47787269435E+02  0.19999992661E+02 0.  0.
        -12    1    1    2    0    0 -0.39029335628E+02  0.17308226594E+02  0.77948486969E+01  0.43400730565E+02  0.00000000000E+00 0.  1.
         11    1    3    3    0    0  0.19705869687E+02 -0.11942435516E+02  0.13849678780E+01  0.23083786571E+02  0.51100000000E-03 0. -1.
        -11    1    3    3    0    0  0.71304550747E+01 -0.38515965107E+01  0.17132677949E+01  0.82833249394E+01  0.51100000000E-03 0.  1.
         12    1    3    3    0    0  0.12193010867E+02 -0.15141945678E+01 -0.10893084370E+02  0.16420157925E+02  0.00000000000E+00 0. -1.
</event>
<event>
 7    1  0.2442667E-009  0.4778727E+02  0.7816164E-02  0.1312668E+00
        -11   -1    0    0    0    0  0.00000000000E+00  0.00000000000E+00  0.45593999997E+02  0.45594000000E+02  0.51100000000E-03 0. -1.
         11   -1    0    0    0    0 -0.00000000000E+00 -0.00000000000E+00 -0.45593999997E+02  0.45594000000E+02  0.51100000000E-03 0.  1.
    9900012    2    1    2    0    0  0.39111634025E+02 -0.89536255522E+01  0.16544977394E+02  0.47787267245E+02  0.19999982678E+02 0.  0.
        -12    1    1    2    0    0 -0.39111634025E+02  0.89536255522E+01 -0.16544977394E+02  0.43400732755E+02  0.00000000000E+00 0.  1.
         11    1    3    3    0    0  0.12013904512E+02  0.46891284076E+01  0.61844960175E+01  0.14302790570E+02  0.51100000000E-03 0.  1.
        -11    1    3    3    0    0  0.37161243604E+01  0.11603914916E+01 -0.11419987666E+00  0.38947568023E+01  0.51100000000E-03 0. -1.
         12    1    3    3    0    0  0.23381605153E+02 -0.14803145451E+02  0.10474681253E+02  0.29589719873E+02  0.00000000000E+00 0. -1.
</event>
<event>
 7    1  0.2442667E-009  0.4778727E+02  0.7816164E-02  0.1312668E+00
        -11   -1    0    0    0    0  0.00000000000E+00  0.00000000000E+00  0.45593999997E+02  0.45594000000E+02  0.51100000000E-03 0.  1.
         11   -1    0    0    0    0 -0.00000000000E+00 -0.00000000000E+00 -0.45593999997E+02  0.45594000000E+02  0.51100000000E-03 0. -1.
    9900012    2    1    2    0    0  0.31053456068E+02  0.24205897748E+02 -0.18258724736E+02  0.47787266728E+02  0.19999980318E+02 0.  0.
        -12    1    1    2    0    0 -0.31053456068E+02 -0.24205897748E+02  0.18258724736E+02  0.43400733272E+02  0.00000000000E+00 0.  1.
         11    1    3    3    0    0 -0.12462830285E+01  0.39321792763E+01 -0.66115631938E+01  0.77928187053E+01  0.51100000000E-03 0. -1.
        -11    1    3    3    0    0  0.23796843826E+02  0.13987880650E+02 -0.72280915556E+01  0.28534117981E+02  0.51100000000E-03 0.  1.
         12    1    3    3    0    0  0.85028952706E+01  0.62858378212E+01 -0.44190699871E+01  0.11460330041E+02  0.00000000000E+00 0. -1.
</event>
<event>
 7    1  0.2442667E-009  0.4778727E+02  0.7816164E-02  0.1312668E+00
        -11   -1    0    0    0    0  0.00000000000E+00  0.00000000000E+00  0.45593999997E+02  0.45594000000E+02  0.51100000000E-03 0.  1.
         11   -1    0    0    0    0 -0.00000000000E+00 -0.00000000000E+00 -0.45593999997E+02  0.45594000000E+02  0.51100000000E-03 0. -1.
    9900012    2    1    2    0    0 -0.82196099823E+01 -0.37163609533E+02 -0.20854914555E+02  0.47787270480E+02  0.19999997428E+02 0.  0.
        -12    1    1    2    0    0  0.82196099823E+01  0.37163609533E+02  0.20854914555E+02  0.43400729520E+02  0.00000000000E+00 0.  1.
         11    1    3    3    0    0 -0.73352465607E+01 -0.16224136186E+02 -0.18787754657E+02  0.25884515881E+02  0.51100000000E-03 0.  1.
        -11    1    3    3    0    0  0.17868915900E+01 -0.14286306776E+02  0.14983625839E+00  0.14398402481E+02  0.51100000000E-03 0. -1.
        -12    1    3    3    0    0 -0.26712550116E+01 -0.66531665709E+01 -0.22169961564E+01  0.75043521182E+01  0.00000000000E+00 0.  1.
</event>
<event>
 7    1  0.2442667E-009  0.4778727E+02  0.7816164E-02  0.1312668E+00
        -11   -1    0    0    0    0  0.00000000000E+00  0.00000000000E+00  0.45593999997E+02  0.45594000000E+02  0.51100000000E-03 0.  1.
         11   -1    0    0    0    0 -0.00000000000E+00 -0.00000000000E+00 -0.45593999997E+02  0.45594000000E+02  0.51100000000E-03 0. -1.
    9900012    2    1    2    0    0  0.67888666184E+01 -0.32580500229E+02 -0.27857590072E+02  0.47787273857E+02  0.20000012823E+02 0.  0.
        -12    1    1    2    0    0 -0.67888666184E+01  0.32580500229E+02  0.27857590072E+02  0.43400726143E+02  0.00000000000E+00 0.  1.
         11    1    3    3    0    0  0.20746699618E+01 -0.23787968402E+02 -0.23045414436E+02  0.33185280215E+02  0.51100000000E-03 0. -1.
        -11    1    3    3    0    0  0.67988937579E+01 -0.28225455392E+01 -0.17051457767E+01  0.75564040412E+01  0.51100000000E-03 0.  1.
        -12    1    3    3    0    0 -0.20846971013E+01 -0.59699862876E+01 -0.31070298593E+01  0.70455896009E+01  0.00000000000E+00 0.  1.
</event>
<event>
 7    1  0.2442667E-009  0.4778727E+02  0.7816164E-02  0.1312668E+00
        -11   -1    0    0    0    0  0.00000000000E+00  0.00000000000E+00  0.45593999997E+02  0.45594000000E+02  0.51100000000E-03 0.  1.
         11   -1    0    0    0    0 -0.00000000000E+00 -0.00000000000E+00 -0.45593999997E+02  0.45594000000E+02  0.51100000000E-03 0. -1.
    9900012    2    1    2    0    0 -0.52245937842E+01 -0.41864546868E+02  0.10182646120E+02  0.47787274814E+02  0.20000017188E+02 0.  0.
        -12    1    1    2    0    0  0.52245937842E+01  0.41864546868E+02 -0.10182646120E+02  0.43400725186E+02  0.00000000000E+00 0.  1.
         11    1    3    3    0    0 -0.86917325913E+01 -0.22898175986E+02  0.40710150431E+00  0.24495681473E+02  0.51100000000E-03 0. -1.
        -11    1    3    3    0    0  0.56879123983E+01 -0.17246787908E+02  0.73899775218E+01  0.19606524644E+02  0.51100000000E-03 0.  1.
        -12    1    3    3    0    0 -0.22207735912E+01 -0.17195829743E+01  0.23855670935E+01  0.36850686977E+01  0.00000000000E+00 0.  1.
</event>
<event>
 7    1  0.2442667E-009  0.4778730E+02  0.7816164E-02  0.1312668E+00
        -11   -1    0    0    0    0  0.00000000000E+00  0.00000000000E+00  0.45593999997E+02  0.45594000000E+02  0.51100000000E-03 0.  1.
         11   -1    0    0    0    0 -0.00000000000E+00 -0.00000000000E+00 -0.45593999997E+02  0.45594000000E+02  0.51100000000E-03 0. -1.
    9900012    2    1    2    0    0 -0.14384771370E+02 -0.24342172647E+02 -0.32926544509E+02  0.47787304731E+02  0.20000153590E+02 0.  0.
        -12    1    1    2    0    0  0.14384771370E+02  0.24342172647E+02  0.32926544509E+02  0.43400695269E+02  0.00000000000E+00 0.  1.
         11    1    3    3    0    0 -0.99966165692E+01 -0.33776606484E+01 -0.18040720332E+02  0.20899964704E+02  0.51100000000E-03 0. -1.
        -11    1    3    3    0    0 -0.24829568755E+01 -0.18092616022E+02 -0.14686774383E+02  0.23435212211E+02  0.51100000000E-03 0.  1.
         12    1    3    3    0    0 -0.19051979248E+01 -0.28718959770E+01 -0.19904979465E+00  0.34521278158E+01  0.00000000000E+00 0. -1.
</event>
<event>
 7    1  0.2442667E-009  0.4778727E+02  0.7816164E-02  0.1312668E+00
        -11   -1    0    0    0    0  0.00000000000E+00  0.00000000000E+00  0.45593999997E+02  0.45594000000E+02  0.51100000000E-03 0. -1.
         11   -1    0    0    0    0 -0.00000000000E+00 -0.00000000000E+00 -0.45593999997E+02  0.45594000000E+02  0.51100000000E-03 0.  1.
    9900012    2    1    2    0    0  0.36699204954E+02 -0.10208656290E+02  0.20798440176E+02  0.47787269347E+02  0.19999992259E+02 0.  0.
        -12    1    1    2    0    0 -0.36699204954E+02  0.10208656290E+02 -0.20798440176E+02  0.43400730653E+02  0.00000000000E+00 0.  1.
         11    1    3    3    0    0  0.12295830569E+02  0.23867242464E+01  0.11482075962E+02  0.16991820699E+02  0.51100000000E-03 0. -1.
        -11    1    3    3    0    0  0.52814450062E+01 -0.62881976105E+01 -0.81998841793E+00  0.82527251141E+01  0.51100000000E-03 0.  1.
         12    1    3    3    0    0  0.19121929378E+02 -0.63071829255E+01  0.10136352632E+02  0.22542723533E+02  0.00000000000E+00 0. -1.
</event>
<event>
 7    1  0.2442667E-009  0.4778728E+02  0.7816164E-02  0.1312668E+00
        -11   -1    0    0    0    0  0.00000000000E+00  0.00000000000E+00  0.45593999997E+02  0.45594000000E+02  0.51100000000E-03 0.  1.
         11   -1    0    0    0    0 -0.00000000000E+00 -0.00000000000E+00 -0.45593999997E+02  0.45594000000E+02  0.51100000000E-03 0. -1.
    9900012    2    1    2    0    0 -0.25705424649E+02  0.18101593657E+02 -0.29919662296E+02  0.47787277181E+02  0.20000027980E+02 0.  0.
        -12    1    1    2    0    0  0.25705424649E+02 -0.18101593657E+02  0.29919662296E+02  0.43400722819E+02  0.00000000000E+00 0.  1.
         11    1    3    3    0    0 -0.93470208042E+01  0.17374996945E+02 -0.17996553301E+02  0.26704554812E+02  0.51100000000E-03 0. -1.
        -11    1    3    3    0    0 -0.44583427314E+01  0.12471852718E+01 -0.65366204626E+01  0.80099749280E+01  0.51100000000E-03 0.  1.
         12    1    3    3    0    0 -0.11900061113E+02 -0.52058855922E+00 -0.53864885318E+01  0.13072747441E+02  0.00000000000E+00 0. -1.
</event>
<event>
 7    1  0.2442667E-009  0.4778727E+02  0.7816164E-02  0.1312668E+00
        -11   -1    0    0    0    0  0.00000000000E+00  0.00000000000E+00  0.45593999997E+02  0.45594000000E+02  0.51100000000E-03 0. -1.
         11   -1    0    0    0    0 -0.00000000000E+00 -0.00000000000E+00 -0.45593999997E+02  0.45594000000E+02  0.51100000000E-03 0.  1.
    9900012    2    1    2    0    0 -0.68961617014E+01 -0.23254582276E+02  0.35990152003E+02  0.47787266317E+02  0.19999978446E+02 0.  0.
        -12    1    1    2    0    0  0.68961617014E+01  0.23254582276E+02 -0.35990152003E+02  0.43400733683E+02  0.00000000000E+00 0.  1.
         11    1    3    3    0    0 -0.79346176231E+01 -0.14875998394E+01  0.86132239758E+01  0.11805030183E+02  0.51100000000E-03 0. -1.
        -11    1    3    3    0    0  0.55929055366E+00 -0.16003434307E+02  0.13486181161E+02  0.20935610765E+02  0.51100000000E-03 0.  1.
         12    1    3    3    0    0  0.47916536806E+00 -0.57635481296E+01  0.13890746866E+02  0.15046625369E+02  0.00000000000E+00 0. -1.
</event>
<event>
 7    1  0.2442667E-009  0.4778727E+02  0.7816164E-02  0.1312668E+00
        -11   -1    0    0    0    0  0.00000000000E+00  0.00000000000E+00  0.45593999997E+02  0.45594000000E+02  0.51100000000E-03 0.  1.
         11   -1    0    0    0    0 -0.00000000000E+00 -0.00000000000E+00 -0.45593999997E+02  0.45594000000E+02  0.51100000000E-03 0. -1.
    9900012    2    1    2    0    0  0.72485797064E+01  0.56676615829E+01 -0.42414137773E+02  0.47787269837E+02  0.19999994497E+02 0.  0.
        -12    1    1    2    0    0 -0.72485797064E+01 -0.56676615829E+01  0.42414137773E+02  0.43400730163E+02  0.00000000000E+00 0.  1.
         11    1    3    3    0    0  0.12346914430E+02  0.41343885571E+01 -0.15679920535E+02  0.20381348653E+02  0.51100000000E-03 0. -1.
        -11    1    3    3    0    0 -0.27256670056E+01 -0.64623753339E+00 -0.11757570915E+02  0.12086660318E+02  0.51100000000E-03 0.  1.
         12    1    3    3    0    0 -0.23726677176E+01  0.21795105592E+01 -0.14976646324E+02  0.15319260866E+02  0.00000000000E+00 0. -1.
</event>
<event>
 7    1  0.2442667E-009  0.4778727E+02  0.7816164E-02  0.1312668E+00
        -11   -1    0    0    0    0  0.00000000000E+00  0.00000000000E+00  0.45593999997E+02  0.45594000000E+02  0.51100000000E-03 0.  1.
         11   -1    0    0    0    0 -0.00000000000E+00 -0.00000000000E+00 -0.45593999997E+02  0.45594000000E+02  0.51100000000E-03 0. -1.
    9900012    2    1    2    0    0  0.15585889788E+02 -0.17512743283E+02 -0.36524062965E+02  0.47787270591E+02  0.19999997931E+02 0.  0.
        -12    1    1    2    0    0 -0.15585889788E+02  0.17512743283E+02  0.36524062965E+02  0.43400729409E+02  0.00000000000E+00 0.  1.
         11    1    3    3    0    0 -0.19645204114E+01 -0.31621980354E+01 -0.14659316466E+02  0.15124628801E+02  0.51100000000E-03 0.  1.
        -11    1    3    3    0    0  0.96883335848E+01 -0.13084908439E+02 -0.15303934191E+02  0.22344776537E+02  0.51100000000E-03 0. -1.
         12    1    3    3    0    0  0.78620766142E+01 -0.12656368086E+01 -0.65608123086E+01  0.10317865252E+02  0.00000000000E+00 0. -1.
</event>
<event>
 7    1  0.2442667E-009  0.4778727E+02  0.7816164E-02  0.1312668E+00
        -11   -1    0    0    0    0  0.00000000000E+00  0.00000000000E+00  0.45593999997E+02  0.45594000000E+02  0.51100000000E-03 0.  1.
         11   -1    0    0    0    0 -0.00000000000E+00 -0.00000000000E+00 -0.45593999997E+02  0.45594000000E+02  0.51100000000E-03 0. -1.
    9900012    2    1    2    0    0 -0.72319413067E-02  0.29865165942E+02 -0.31491192072E+02  0.47787269970E+02  0.19999995100E+02 0.  0.
        -12    1    1    2    0    0  0.72319413067E-02 -0.29865165942E+02  0.31491192072E+02  0.43400730030E+02  0.00000000000E+00 0.  1.
         11    1    3    3    0    0 -0.57440722717E+01  0.17907632645E+02 -0.25562238228E+02  0.31734928655E+02  0.51100000000E-03 0. -1.
        -11    1    3    3    0    0  0.24677417059E+01  0.11077014224E+02 -0.34673833339E+01  0.11866454428E+02  0.51100000000E-03 0.  1.
        -12    1    3    3    0    0  0.32690986246E+01  0.88051907245E+00 -0.24615705101E+01  0.41858868869E+01  0.00000000000E+00 0.  1.
</event>
<event>
 7    1  0.2442667E-009  0.4778727E+02  0.7816164E-02  0.1312668E+00
        -11   -1    0    0    0    0  0.00000000000E+00  0.00000000000E+00  0.45593999997E+02  0.45594000000E+02  0.51100000000E-03 0.  1.
         11   -1    0    0    0    0 -0.00000000000E+00 -0.00000000000E+00 -0.45593999997E+02  0.45594000000E+02  0.51100000000E-03 0. -1.
    9900012    2    1    2    0    0 -0.21657898995E+02  0.26262194165E+02 -0.26923149804E+02  0.47787269285E+02  0.19999991978E+02 0.  0.
        -12    1    1    2    0    0  0.21657898995E+02 -0.26262194165E+02  0.26923149804E+02  0.43400730715E+02  0.00000000000E+00 0.  1.
         11    1    3    3    0    0 -0.60010254296E+01  0.33636293765E+01 -0.16471786228E+02  0.17850659668E+02  0.51100000000E-03 0. -1.
        -11    1    3    3    0    0 -0.10337299631E+02  0.18277320948E+02 -0.75072529299E+01  0.22299754965E+02  0.51100000000E-03 0.  1.
         12    1    3    3    0    0 -0.53195739345E+01  0.46212438399E+01 -0.29441106469E+01  0.76368546519E+01  0.00000000000E+00 0. -1.
</event>
<event>
 7    1  0.2442667E-009  0.4778727E+02  0.7816164E-02  0.1312668E+00
        -11   -1    0    0    0    0  0.00000000000E+00  0.00000000000E+00  0.45593999997E+02  0.45594000000E+02  0.51100000000E-03 0.  1.
         11   -1    0    0    0    0 -0.00000000000E+00 -0.00000000000E+00 -0.45593999997E+02  0.45594000000E+02  0.51100000000E-03 0. -1.
    9900012    2    1    2    0    0  0.21979213995E+02  0.11502299222E+02 -0.35612279923E+02  0.47787271704E+02  0.20000003009E+02 0.  0.
        -12    1    1    2    0    0 -0.21979213995E+02 -0.11502299222E+02  0.35612279923E+02  0.43400728296E+02  0.00000000000E+00 0.  1.
         11    1    3    3    0    0  0.13796798808E+01  0.19040842274E+01 -0.19803489932E+02  0.19942599306E+02  0.51100000000E-03 0. -1.
        -11    1    3    3    0    0  0.17477885859E+02  0.72663268584E+01 -0.14032625771E+02  0.23562482603E+02  0.51100000000E-03 0.  1.
         12    1    3    3    0    0  0.31216482553E+01  0.23318881360E+01 -0.17761642203E+01  0.42821897957E+01  0.00000000000E+00 0. -1.
</event>
<event>
 7    1  0.2442667E-009  0.4778727E+02  0.7816164E-02  0.1312668E+00
        -11   -1    0    0    0    0  0.00000000000E+00  0.00000000000E+00  0.45593999997E+02  0.45594000000E+02  0.51100000000E-03 0. -1.
         11   -1    0    0    0    0 -0.00000000000E+00 -0.00000000000E+00 -0.45593999997E+02  0.45594000000E+02  0.51100000000E-03 0.  1.
    9900012    2    1    2    0    0  0.33148491155E+02 -0.27358592779E+02  0.60256385732E+01  0.47787269765E+02  0.19999994166E+02 0.  0.
        -12    1    1    2    0    0 -0.33148491155E+02  0.27358592779E+02 -0.60256385732E+01  0.43400730235E+02  0.00000000000E+00 0.  1.
         11    1    3    3    0    0  0.96080329801E+01 -0.12370888427E+02  0.98789932300E+01  0.18518846771E+02  0.51100000000E-03 0. -1.
        -11    1    3    3    0    0  0.22278682720E+02 -0.11053133575E+02 -0.30110526366E+01  0.25051505021E+02  0.51100000000E-03 0.  1.
        -12    1    3    3    0    0  0.12617754551E+01 -0.39345707773E+01 -0.84230202020E+00  0.42169179734E+01  0.00000000000E+00 0.  1.
</event>
<event>
 7    1  0.2442667E-009  0.4778726E+02  0.7816164E-02  0.1312668E+00
        -11   -1    0    0    0    0  0.00000000000E+00  0.00000000000E+00  0.45593999997E+02  0.45594000000E+02  0.51100000000E-03 0.  1.
         11   -1    0    0    0    0 -0.00000000000E+00 -0.00000000000E+00 -0.45593999997E+02  0.45594000000E+02  0.51100000000E-03 0. -1.
    9900012    2    1    2    0    0 -0.40313354634E+02  0.15769942503E+02  0.31250985657E+01  0.47787263952E+02  0.19999967664E+02 0.  0.
        -12    1    1    2    0    0  0.40313354634E+02 -0.15769942503E+02 -0.31250985657E+01  0.43400736048E+02  0.00000000000E+00 0.  1.
         11    1    3    3    0    0 -0.20322737455E+02  0.15635722614E+02  0.41781748218E+01  0.25979734880E+02  0.51100000000E-03 0. -1.
        -11    1    3    3    0    0 -0.12539152099E+02 -0.36287146073E+01  0.13435351193E+01  0.13122613762E+02  0.51100000000E-03 0.  1.
         12    1    3    3    0    0 -0.74514650799E+01  0.37629344968E+01 -0.23966113754E+01  0.86849153104E+01  0.00000000000E+00 0. -1.
</event>
<event>
 7    1  0.2442667E-009  0.4778728E+02  0.7816164E-02  0.1312668E+00
        -11   -1    0    0    0    0  0.00000000000E+00  0.00000000000E+00  0.45593999997E+02  0.45594000000E+02  0.51100000000E-03 0. -1.
         11   -1    0    0    0    0 -0.00000000000E+00 -0.00000000000E+00 -0.45593999997E+02  0.45594000000E+02  0.51100000000E-03 0.  1.
    9900012    2    1    2    0    0 -0.43283552951E+02 -0.17908081054E+00  0.31818456996E+01  0.47787283784E+02  0.20000058087E+02 0.  0.
        -12    1    1    2    0    0  0.43283552951E+02  0.17908081054E+00 -0.31818456996E+01  0.43400716216E+02  0.00000000000E+00 0.  1.
         11    1    3    3    0    0 -0.84289982023E+01 -0.10238403069E+01  0.38100289998E+01  0.93065880380E+01  0.51100000000E-03 0. -1.
        -11    1    3    3    0    0 -0.19668857261E+02 -0.72377820015E+01 -0.27881504968E+01  0.21142923585E+02  0.51100000000E-03 0.  1.
        -12    1    3    3    0    0 -0.15185697488E+02  0.80825414979E+01  0.21599671965E+01  0.17337772162E+02  0.00000000000E+00 0.  1.
</event>
<event>
 7    1  0.2442667E-009  0.4778727E+02  0.7816164E-02  0.1312668E+00
        -11   -1    0    0    0    0  0.00000000000E+00  0.00000000000E+00  0.45593999997E+02  0.45594000000E+02  0.51100000000E-03 0.  1.
         11   -1    0    0    0    0 -0.00000000000E+00 -0.00000000000E+00 -0.45593999997E+02  0.45594000000E+02  0.51100000000E-03 0. -1.
    9900012    2    1    2    0    0  0.39470099661E+02 -0.17859171445E+02 -0.26046878558E+01  0.47787272232E+02  0.20000005413E+02 0.  0.
        -12    1    1    2    0    0 -0.39470099661E+02  0.17859171445E+02  0.26046878558E+01  0.43400727768E+02  0.00000000000E+00 0.  1.
         11    1    3    3    0    0  0.25441445058E+02 -0.14780612627E+02 -0.42846884192E+01  0.29733687820E+02  0.51100000000E-03 0. -1.
        -11    1    3    3    0    0  0.14354838431E+02 -0.22350499594E+01  0.44062047516E+01  0.15181287010E+02  0.51100000000E-03 0.  1.
         12    1    3    3    0    0 -0.32618382837E+00 -0.84350885904E+00 -0.27262041883E+01  0.28722974013E+01  0.00000000000E+00 0. -1.
</event>
<event>
 7    1  0.2442667E-009  0.4778727E+02  0.7816164E-02  0.1312668E+00
        -11   -1    0    0    0    0  0.00000000000E+00  0.00000000000E+00  0.45593999997E+02  0.45594000000E+02  0.51100000000E-03 0. -1.
         11   -1    0    0    0    0 -0.00000000000E+00 -0.00000000000E+00 -0.45593999997E+02  0.45594000000E+02  0.51100000000E-03 0.  1.
    9900012    2    1    2    0    0 -0.23427037101E+02  0.34089493995E+02  0.13141679618E+02  0.47787269461E+02  0.19999992780E+02 0.  0.
        -12    1    1    2    0    0  0.23427037101E+02 -0.34089493995E+02 -0.13141679618E+02  0.43400730539E+02  0.00000000000E+00 0.  1.
         11    1    3    3    0    0  0.88783352390E+00  0.91359897265E+01  0.33084538685E+01  0.97570704574E+01  0.51100000000E-03 0. -1.
        -11    1    3    3    0    0 -0.40386615221E+01  0.10620551181E+02  0.10802987313E+00  0.11363035026E+02  0.51100000000E-03 0.  1.
         12    1    3    3    0    0 -0.20276209103E+02  0.14332953087E+02  0.97251958764E+01  0.26667163978E+02  0.00000000000E+00 0. -1.
</event>
<event>
 7    1  0.2442667E-009  0.4778727E+02  0.7816164E-02  0.1312668E+00
        -11   -1    0    0    0    0  0.00000000000E+00  0.00000000000E+00  0.45593999997E+02  0.45594000000E+02  0.51100000000E-03 0.  1.
         11   -1    0    0    0    0 -0.00000000000E+00 -0.00000000000E+00 -0.45593999997E+02  0.45594000000E+02  0.51100000000E-03 0. -1.
    9900012    2    1    2    0    0  0.30439227114E+02 -0.30000458681E+02 -0.75530778492E+01  0.47787273585E+02  0.20000011583E+02 0.  0.
        -12    1    1    2    0    0 -0.30439227114E+02  0.30000458681E+02  0.75530778492E+01  0.43400726415E+02  0.00000000000E+00 0.  1.
         11    1    3    3    0    0  0.24348545280E+02 -0.26955701373E+02 -0.69859573756E+01  0.36990067511E+02  0.51100000000E-03 0. -1.
        -11    1    3    3    0    0  0.48204832100E+01  0.20919218615E+01 -0.14061292444E+01  0.54397054300E+01  0.51100000000E-03 0.  1.
         12    1    3    3    0    0  0.12701986247E+01 -0.51366791690E+01  0.83900877076E+00  0.53575006438E+01  0.00000000000E+00 0. -1.
</event>
<event>
 7    1  0.2442667E-009  0.4778728E+02  0.7816164E-02  0.1312668E+00
        -11   -1    0    0    0    0  0.00000000000E+00  0.00000000000E+00  0.45593999997E+02  0.45594000000E+02  0.51100000000E-03 0. -1.
         11   -1    0    0    0    0 -0.00000000000E+00 -0.00000000000E+00 -0.45593999997E+02  0.45594000000E+02  0.51100000000E-03 0.  1.
    9900012    2    1    2    0    0  0.21474999960E+02 -0.67126987359E+01  0.37113159350E+02  0.47787279447E+02  0.20000038312E+02 0.  0.
        -12    1    1    2    0    0 -0.21474999960E+02  0.67126987359E+01 -0.37113159350E+02  0.43400720553E+02  0.00000000000E+00 0.  1.
         11    1    3    3    0    0  0.58496126353E+01 -0.92169497098E+01  0.85147115987E+01  0.13844509518E+02  0.51100000000E-03 0. -1.
        -11    1    3    3    0    0  0.12537624516E+02  0.15123222038E+01  0.13443548196E+02  0.18444731912E+02  0.51100000000E-03 0.  1.
         12    1    3    3    0    0  0.30877628086E+01  0.99192877014E+00  0.15154899555E+02  0.15498038016E+02  0.00000000000E+00 0. -1.
</event>
<event>
 7    1  0.2442667E-009  0.4778726E+02  0.7816164E-02  0.1312668E+00
        -11   -1    0    0    0    0  0.00000000000E+00  0.00000000000E+00  0.45593999997E+02  0.45594000000E+02  0.51100000000E-03 0. -1.
         11   -1    0    0    0    0 -0.00000000000E+00 -0.00000000000E+00 -0.45593999997E+02  0.45594000000E+02  0.51100000000E-03 0.  1.
    9900012    2    1    2    0    0  0.96435309029E+01 -0.26224056336E+02  0.33210323511E+02  0.47787257994E+02  0.19999940498E+02 0.  0.
        -12    1    1    2    0    0 -0.96435309029E+01  0.26224056336E+02 -0.33210323511E+02  0.43400742006E+02  0.00000000000E+00 0.  1.
         11    1    3    3    0    0  0.70176107752E+01 -0.62880487377E+01  0.13811637552E+02  0.16719681517E+02  0.51100000000E-03 0. -1.
        -11    1    3    3    0    0  0.12380119251E+01  0.94532779097E+00 -0.99368712552E+00  0.18476288923E+01  0.51100000000E-03 0.  1.
        -12    1    3    3    0    0  0.13879082026E+01 -0.20881335389E+02  0.20392373084E+02  0.29219947584E+02  0.00000000000E+00 0.  1.
</event>
<event>
 7    1  0.2442667E-009  0.4778727E+02  0.7816164E-02  0.1312668E+00
        -11   -1    0    0    0    0  0.00000000000E+00  0.00000000000E+00  0.45593999997E+02  0.45594000000E+02  0.51100000000E-03 0.  1.
         11   -1    0    0    0    0 -0.00000000000E+00 -0.00000000000E+00 -0.45593999997E+02  0.45594000000E+02  0.51100000000E-03 0. -1.
    9900012    2    1    2    0    0 -0.81210678213E+00 -0.13427885852E+02 -0.41263248117E+02  0.47787270962E+02  0.19999999626E+02 0.  0.
        -12    1    1    2    0    0  0.81210678213E+00  0.13427885852E+02  0.41263248117E+02  0.43400729038E+02  0.00000000000E+00 0.  1.
         11    1    3    3    0    0 -0.87831017367E+00 -0.41218544899E+01 -0.95473267491E+01  0.10436118125E+02  0.51100000000E-03 0. -1.
        -11    1    3    3    0    0 -0.11796145811E+01 -0.47375438940E+01 -0.32221186040E+02  0.32588965047E+02  0.51100000000E-03 0.  1.
        -12    1    3    3    0    0  0.12458179726E+01 -0.45684874680E+01  0.50526467295E+00  0.47621877909E+01  0.00000000000E+00 0.  1.
</event>
<event>
 7    1  0.2442667E-009  0.4778727E+02  0.7816164E-02  0.1312668E+00
        -11   -1    0    0    0    0  0.00000000000E+00  0.00000000000E+00  0.45593999997E+02  0.45594000000E+02  0.51100000000E-03 0.  1.
         11   -1    0    0    0    0 -0.00000000000E+00 -0.00000000000E+00 -0.45593999997E+02  0.45594000000E+02  0.51100000000E-03 0. -1.
    9900012    2    1    2    0    0  0.40677102545E+02 -0.11189104918E+02  0.10188246121E+02  0.47787273055E+02  0.20000009166E+02 0.  0.
        -12    1    1    2    0    0 -0.40677102545E+02  0.11189104918E+02 -0.10188246121E+02  0.43400726945E+02  0.00000000000E+00 0.  1.
         11    1    3    3    0    0  0.48295606344E+01  0.19694879003E+01  0.55370125235E+00  0.52450094231E+01  0.51100000000E-03 0. -1.
        -11    1    3    3    0    0  0.20863504745E+02 -0.84281047851E+01 -0.25678958244E+01  0.22647579777E+02  0.51100000000E-03 0.  1.
        -12    1    3    3    0    0  0.14984037166E+02 -0.47304880329E+01  0.12202440693E+02  0.19894683855E+02  0.00000000000E+00 0.  1.
</event>
<event>
 7    1  0.2442667E-009  0.4778722E+02  0.7816164E-02  0.1312668E+00
        -11   -1    0    0    0    0  0.00000000000E+00  0.00000000000E+00  0.45593999997E+02  0.45594000000E+02  0.51100000000E-03 0.  1.
         11   -1    0    0    0    0 -0.00000000000E+00 -0.00000000000E+00 -0.45593999997E+02  0.45594000000E+02  0.51100000000E-03 0. -1.
    9900012    2    1    2    0    0  0.29182742673E+02  0.13287524052E+02 -0.29247850627E+02  0.47787221992E+02  0.19999776351E+02 0.  0.
        -12    1    1    2    0    0 -0.29182742673E+02 -0.13287524052E+02  0.29247850627E+02  0.43400778008E+02  0.00000000000E+00 0.  1.
         11    1    3    3    0    0  0.22433582431E+02  0.18076005220E+02 -0.24807212983E+02  0.38018487630E+02  0.51100000000E-03 0. -1.
        -11    1    3    3    0    0  0.49061212582E+01 -0.28530681146E+01 -0.42482275964E+01  0.70892497091E+01  0.51100000000E-03 0.  1.
         12    1    3    3    0    0  0.18430389845E+01 -0.19354130527E+01 -0.19241004687E+00  0.26794846536E+01  0.00000000000E+00 0. -1.
</event>
<event>
 7    1  0.2442667E-009  0.4778727E+02  0.7816164E-02  0.1312668E+00
        -11   -1    0    0    0    0  0.00000000000E+00  0.00000000000E+00  0.45593999997E+02  0.45594000000E+02  0.51100000000E-03 0. -1.
         11   -1    0    0    0    0 -0.00000000000E+00 -0.00000000000E+00 -0.45593999997E+02  0.45594000000E+02  0.51100000000E-03 0.  1.
    9900012    2    1    2    0    0 -0.37500721346E+01  0.40884635125E+02  0.14071497204E+02  0.47787268855E+02  0.19999990019E+02 0.  0.
        -12    1    1    2    0    0  0.37500721346E+01 -0.40884635125E+02 -0.14071497204E+02  0.43400731145E+02  0.00000000000E+00 0.  1.
         11    1    3    3    0    0 -0.17452261062E+01  0.18695190879E+02  0.62990468624E+01  0.19804897571E+02  0.51100000000E-03 0.  1.
        -11    1    3    3    0    0  0.65719494789E+01  0.92655282311E+01  0.28958410069E+01  0.11722901891E+02  0.51100000000E-03 0. -1.
        -12    1    3    3    0    0 -0.85767955073E+01  0.12923916015E+02  0.48766093348E+01  0.16259469393E+02  0.00000000000E+00 0.  1.
</event>
<event>
 7    1  0.2442667E-009  0.4778726E+02  0.7816164E-02  0.1312668E+00
        -11   -1    0    0    0    0  0.00000000000E+00  0.00000000000E+00  0.45593999997E+02  0.45594000000E+02  0.51100000000E-03 0.  1.
         11   -1    0    0    0    0 -0.00000000000E+00 -0.00000000000E+00 -0.45593999997E+02  0.45594000000E+02  0.51100000000E-03 0. -1.
    9900012    2    1    2    0    0 -0.67998008847E+01 -0.19778513060E+02 -0.38028897161E+02  0.47787263944E+02  0.19999967626E+02 0.  0.
        -12    1    1    2    0    0  0.67998008847E+01  0.19778513060E+02  0.38028897161E+02  0.43400736056E+02  0.00000000000E+00 0.  1.
         11    1    3    3    0    0  0.23072591966E+01 -0.11713188570E+02 -0.26695860164E+02  0.29243651989E+02  0.51100000000E-03 0. -1.
        -11    1    3    3    0    0 -0.36989231737E+01  0.11242576080E+01 -0.42354605782E+01  0.57345544190E+01  0.51100000000E-03 0.  1.
         12    1    3    3    0    0 -0.54081369076E+01 -0.91895820977E+01 -0.70975764186E+01  0.12809057536E+02  0.00000000000E+00 0. -1.
</event>
<event>
 7    1  0.2442667E-009  0.4778725E+02  0.7816164E-02  0.1312668E+00
        -11   -1    0    0    0    0  0.00000000000E+00  0.00000000000E+00  0.45593999997E+02  0.45594000000E+02  0.51100000000E-03 0.  1.
         11   -1    0    0    0    0 -0.00000000000E+00 -0.00000000000E+00 -0.45593999997E+02  0.45594000000E+02  0.51100000000E-03 0. -1.
    9900012    2    1    2    0    0  0.15731459432E+02  0.50246142453E+01 -0.40136015377E+02  0.47787247766E+02  0.19999893862E+02 0.  0.
        -12    1    1    2    0    0 -0.15731459432E+02 -0.50246142453E+01  0.40136015377E+02  0.43400752234E+02  0.00000000000E+00 0.  1.
         11    1    3    3    0    0  0.11769306410E+02 -0.56183350358E+00 -0.25589534574E+02  0.28171909950E+02  0.51100000000E-03 0. -1.
        -11    1    3    3    0    0  0.37412509188E+01  0.69976011515E+01 -0.38422844313E+01  0.88162650950E+01  0.51100000000E-03 0.  1.
        -12    1    3    3    0    0  0.22090210386E+00 -0.14111534027E+01 -0.10704196372E+02  0.10799072721E+02  0.00000000000E+00 0.  1.
</event>
<event>
 7    1  0.2442667E-009  0.4778727E+02  0.7816164E-02  0.1312668E+00
        -11   -1    0    0    0    0  0.00000000000E+00  0.00000000000E+00  0.45593999997E+02  0.45594000000E+02  0.51100000000E-03 0. -1.
         11   -1    0    0    0    0 -0.00000000000E+00 -0.00000000000E+00 -0.45593999997E+02  0.45594000000E+02  0.51100000000E-03 0.  1.
    9900012    2    1    2    0    0  0.11665641682E+02  0.41788265292E+02  0.11300883452E+01  0.47787269457E+02  0.19999992762E+02 0.  0.
        -12    1    1    2    0    0 -0.11665641682E+02 -0.41788265292E+02 -0.11300883452E+01  0.43400730543E+02  0.00000000000E+00 0.  1.
         11    1    3    3    0    0  0.13120363386E+02  0.16522059484E+02  0.28358938894E+01  0.21287664959E+02  0.51100000000E-03 0. -1.
        -11    1    3    3    0    0 -0.29002513828E+01  0.12944167411E+02 -0.40582724208E+01  0.13872004302E+02  0.51100000000E-03 0.  1.
        -12    1    3    3    0    0  0.14455296785E+01  0.12322038397E+02  0.23524668766E+01  0.12627600196E+02  0.00000000000E+00 0.  1.
</event>
<event>
 7    1  0.2442667E-009  0.4778724E+02  0.7816164E-02  0.1312668E+00
        -11   -1    0    0    0    0  0.00000000000E+00  0.00000000000E+00  0.45593999997E+02  0.45594000000E+02  0.51100000000E-03 0.  1.
         11   -1    0    0    0    0 -0.00000000000E+00 -0.00000000000E+00 -0.45593999997E+02  0.45594000000E+02  0.51100000000E-03 0. -1.
    9900012    2    1    2    0    0 -0.11075344644E+02  0.39303632200E+02 -0.14703304829E+02  0.47787240376E+02  0.19999860169E+02 0.  0.
        -12    1    1    2    0    0  0.11075344644E+02 -0.39303632200E+02  0.14703304829E+02  0.43400759624E+02  0.00000000000E+00 0.  1.
         11    1    3    3    0    0 -0.12777994147E+02  0.29812028023E+02 -0.15642383052E+02  0.36009974967E+02  0.51100000000E-03 0. -1.
        -11    1    3    3    0    0  0.15693178964E+01  0.98632891552E+01 -0.77586813792E+00  0.10017444946E+02  0.51100000000E-03 0.  1.
         12    1    3    3    0    0  0.13333160659E+00 -0.37168497902E+00  0.17149463611E+01  0.17598204631E+01  0.00000000000E+00 0. -1.
</event>
<event>
 7    1  0.2442667E-009  0.4778726E+02  0.7816164E-02  0.1312668E+00
        -11   -1    0    0    0    0  0.00000000000E+00  0.00000000000E+00  0.45593999997E+02  0.45594000000E+02  0.51100000000E-03 0. -1.
         11   -1    0    0    0    0 -0.00000000000E+00 -0.00000000000E+00 -0.45593999997E+02  0.45594000000E+02  0.51100000000E-03 0.  1.
    9900012    2    1    2    0    0  0.21910610290E+02 -0.65392969139E+01  0.36888843916E+02  0.47787262071E+02  0.19999959084E+02 0.  0.
        -12    1    1    2    0    0 -0.21910610290E+02  0.65392969139E+01 -0.36888843916E+02  0.43400737929E+02  0.00000000000E+00 0.  1.
         11    1    3    3    0    0  0.11064570962E+02  0.11358885146E+01  0.15097155829E+02  0.18752042227E+02  0.51100000000E-03 0. -1.
        -11    1    3    3    0    0  0.86710694454E+01  0.21962594593E+01  0.85267071577E+01  0.12357820850E+02  0.51100000000E-03 0.  1.
        -12    1    3    3    0    0  0.21749698824E+01 -0.98714448878E+01  0.13264980929E+02  0.16677398994E+02  0.00000000000E+00 0.  1.
</event>
<event>
 7    1  0.2442667E-009  0.4778727E+02  0.7816164E-02  0.1312668E+00
        -11   -1    0    0    0    0  0.00000000000E+00  0.00000000000E+00  0.45593999997E+02  0.45594000000E+02  0.51100000000E-03 0.  1.
         11   -1    0    0    0    0 -0.00000000000E+00 -0.00000000000E+00 -0.45593999997E+02  0.45594000000E+02  0.51100000000E-03 0. -1.
    9900012    2    1    2    0    0  0.39641846881E+02  0.16167766087E+02 -0.71239386673E+01  0.47787272051E+02  0.20000004591E+02 0.  0.
        -12    1    1    2    0    0 -0.39641846881E+02 -0.16167766087E+02  0.71239386673E+01  0.43400727949E+02  0.00000000000E+00 0.  1.
         11    1    3    3    0    0  0.33476865140E+01 -0.22946579243E+01 -0.72724728415E+00  0.41232691956E+01  0.51100000000E-03 0. -1.
        -11    1    3    3    0    0  0.35159900072E+02  0.17180611538E+02 -0.22727177512E+01  0.39198944273E+02  0.51100000000E-03 0.  1.
        -12    1    3    3    0    0  0.11342602951E+01  0.12818124729E+01 -0.41239736319E+01  0.44650585830E+01  0.00000000000E+00 0.  1.
</event>
<event>
 7    1  0.2442667E-009  0.4778727E+02  0.7816164E-02  0.1312668E+00
        -11   -1    0    0    0    0  0.00000000000E+00  0.00000000000E+00  0.45593999997E+02  0.45594000000E+02  0.51100000000E-03 0.  1.
         11   -1    0    0    0    0 -0.00000000000E+00 -0.00000000000E+00 -0.45593999997E+02  0.45594000000E+02  0.51100000000E-03 0. -1.
    9900012    2    1    2    0    0 -0.29196835409E+02  0.75622790754E+01 -0.31208650842E+02  0.47787272470E+02  0.20000006501E+02 0.  0.
        -12    1    1    2    0    0  0.29196835409E+02 -0.75622790754E+01  0.31208650842E+02  0.43400727530E+02  0.00000000000E+00 0.  1.
         11    1    3    3    0    0 -0.10733028946E+02  0.49412650153E+01 -0.11773034952E+02  0.16679878973E+02  0.51100000000E-03 0. -1.
        -11    1    3    3    0    0 -0.18409029227E+02 -0.10514480893E+01 -0.99868058446E+01  0.20969840042E+02  0.51100000000E-03 0.  1.
        -12    1    3    3    0    0 -0.54777236733E-01  0.36724621494E+01 -0.94488100459E+01  0.10137553456E+02  0.00000000000E+00 0.  1.
</event>
<event>
 7    1  0.2442667E-009  0.4778724E+02  0.7816164E-02  0.1312668E+00
        -11   -1    0    0    0    0  0.00000000000E+00  0.00000000000E+00  0.45593999997E+02  0.45594000000E+02  0.51100000000E-03 0. -1.
         11   -1    0    0    0    0 -0.00000000000E+00 -0.00000000000E+00 -0.45593999997E+02  0.45594000000E+02  0.51100000000E-03 0.  1.
    9900012    2    1    2    0    0 -0.15732540556E+02  0.40429632647E+02  0.12483216135E+01  0.47787235776E+02  0.19999839198E+02 0.  0.
        -12    1    1    2    0    0  0.15732540556E+02 -0.40429632647E+02 -0.12483216135E+01  0.43400764224E+02  0.00000000000E+00 0.  1.
         11    1    3    3    0    0 -0.86322427150E+00  0.10668736263E+02  0.27641069696E+01  0.11054744556E+02  0.51100000000E-03 0. -1.
        -11    1    3    3    0    0 -0.12238067800E+02  0.19554154779E+02  0.59413254020E+01  0.23820886221E+02  0.51100000000E-03 0.  1.
        -12    1    3    3    0    0 -0.26312484849E+01  0.10206741606E+02 -0.74571107581E+01  0.12911604999E+02  0.00000000000E+00 0.  1.
</event>
<event>
 7    1  0.2442667E-009  0.4778727E+02  0.7816164E-02  0.1312668E+00
        -11   -1    0    0    0    0  0.00000000000E+00  0.00000000000E+00  0.45593999997E+02  0.45594000000E+02  0.51100000000E-03 0.  1.
         11   -1    0    0    0    0 -0.00000000000E+00 -0.00000000000E+00 -0.45593999997E+02  0.45594000000E+02  0.51100000000E-03 0. -1.
    9900012    2    1    2    0    0 -0.42040633561E+02  0.53659590403E+01  0.93496059831E+01  0.47787268224E+02  0.19999987142E+02 0.  0.
        -12    1    1    2    0    0  0.42040633561E+02 -0.53659590403E+01 -0.93496059831E+01  0.43400731776E+02  0.00000000000E+00 0.  1.
         11    1    3    3    0    0 -0.17879685906E+01 -0.97450422890E+00  0.11992288746E+01  0.23631843618E+01  0.51100000000E-03 0. -1.
        -11    1    3    3    0    0 -0.12587079323E+02 -0.10443630532E+01  0.10866214876E+02  0.16661329060E+02  0.51100000000E-03 0.  1.
        -12    1    3    3    0    0 -0.27665585648E+02  0.73848263224E+01 -0.27158377675E+01  0.28762754802E+02  0.00000000000E+00 0.  1.
</event>
<event>
 7    1  0.2442667E-009  0.4778721E+02  0.7816164E-02  0.1312668E+00
        -11   -1    0    0    0    0  0.00000000000E+00  0.00000000000E+00  0.45593999997E+02  0.45594000000E+02  0.51100000000E-03 0. -1.
         11   -1    0    0    0    0 -0.00000000000E+00 -0.00000000000E+00 -0.45593999997E+02  0.45594000000E+02  0.51100000000E-03 0.  1.
    9900012    2    1    2    0    0 -0.27525495520E+01 -0.35004715242E+02  0.25509245160E+02  0.47787214214E+02  0.19999740886E+02 0.  0.
        -12    1    1    2    0    0  0.27525495520E+01  0.35004715242E+02 -0.25509245160E+02  0.43400785786E+02  0.00000000000E+00 0.  1.
         11    1    3    3    0    0  0.13279196049E+01 -0.10614413013E+02  0.17719243313E+02  0.20697843316E+02  0.51100000000E-03 0. -1.
        -11    1    3    3    0    0  0.19706935998E+01 -0.50527379169E+01  0.32569832506E+01  0.63262733008E+01  0.51100000000E-03 0.  1.
         12    1    3    3    0    0 -0.60511627566E+01 -0.19337564312E+02  0.45330185965E+01  0.20763097597E+02  0.00000000000E+00 0. -1.
</event>
<event>
 7    1  0.2442667E-009  0.4778727E+02  0.7816164E-02  0.1312668E+00
        -11   -1    0    0    0    0  0.00000000000E+00  0.00000000000E+00  0.45593999997E+02  0.45594000000E+02  0.51100000000E-03 0. -1.
         11   -1    0    0    0    0 -0.00000000000E+00 -0.00000000000E+00 -0.45593999997E+02  0.45594000000E+02  0.51100000000E-03 0.  1.
    9900012    2    1    2    0    0  0.16485118722E+02 -0.36019870654E+02  0.17732264829E+02  0.47787269163E+02  0.19999991424E+02 0.  0.
        -12    1    1    2    0    0 -0.16485118722E+02  0.36019870654E+02 -0.17732264829E+02  0.43400730837E+02  0.00000000000E+00 0.  1.
         11    1    3    3    0    0  0.32258428765E+01 -0.10725645558E+02  0.46306063180E+01  0.12119738035E+02  0.51100000000E-03 0. -1.
        -11    1    3    3    0    0  0.15704043346E+02 -0.24429407250E+02  0.82900785489E+01  0.30201627748E+02  0.51100000000E-03 0.  1.
        -12    1    3    3    0    0 -0.24447675004E+01 -0.86481784523E+00  0.48115799620E+01  0.54659033807E+01  0.00000000000E+00 0.  1.
</event>
<event>
 7    1  0.2442667E-009  0.4778727E+02  0.7816164E-02  0.1312668E+00
        -11   -1    0    0    0    0  0.00000000000E+00  0.00000000000E+00  0.45593999997E+02  0.45594000000E+02  0.51100000000E-03 0.  1.
         11   -1    0    0    0    0 -0.00000000000E+00 -0.00000000000E+00 -0.45593999997E+02  0.45594000000E+02  0.51100000000E-03 0. -1.
    9900012    2    1    2    0    0  0.51812381978E+01 -0.27036179914E+02 -0.33553281261E+02  0.47787274926E+02  0.20000017698E+02 0.  0.
        -12    1    1    2    0    0 -0.51812381978E+01  0.27036179914E+02  0.33553281261E+02  0.43400725074E+02  0.00000000000E+00 0.  1.
         11    1    3    3    0    0 -0.19481271502E+01 -0.17093801672E+02 -0.23704302128E+02  0.29289711413E+02  0.51100000000E-03 0. -1.
        -11    1    3    3    0    0  0.73764586065E+01 -0.30568262894E+01 -0.81322616166E+01  0.11396929753E+02  0.51100000000E-03 0.  1.
         12    1    3    3    0    0 -0.24709325845E+00 -0.68855519524E+01 -0.17167175159E+01  0.71006337602E+01  0.00000000000E+00 0. -1.
</event>
<event>
 7    1  0.2442667E-009  0.4778727E+02  0.7816164E-02  0.1312668E+00
        -11   -1    0    0    0    0  0.00000000000E+00  0.00000000000E+00  0.45593999997E+02  0.45594000000E+02  0.51100000000E-03 0.  1.
         11   -1    0    0    0    0 -0.00000000000E+00 -0.00000000000E+00 -0.45593999997E+02  0.45594000000E+02  0.51100000000E-03 0. -1.
    9900012    2    1    2    0    0 -0.32772370621E+02  0.52493530522E+01 -0.27964964046E+02  0.47787271923E+02  0.20000004004E+02 0.  0.
        -12    1    1    2    0    0  0.32772370621E+02 -0.52493530522E+01  0.27964964046E+02  0.43400728077E+02  0.00000000000E+00 0.  1.
         11    1    3    3    0    0 -0.18124887311E+02 -0.11723703693E+01 -0.14565523641E+02  0.23281762638E+02  0.51100000000E-03 0. -1.
        -11    1    3    3    0    0 -0.11535919298E+02  0.97873231390E+01 -0.12924258318E+02  0.19897376249E+02  0.51100000000E-03 0.  1.
        -12    1    3    3    0    0 -0.31115640121E+01 -0.33655997175E+01 -0.47518208629E+00  0.46081330357E+01  0.00000000000E+00 0.  1.
</event>
<event>
 7    1  0.2442667E-009  0.4778727E+02  0.7816164E-02  0.1312668E+00
        -11   -1    0    0    0    0  0.00000000000E+00  0.00000000000E+00  0.45593999997E+02  0.45594000000E+02  0.51100000000E-03 0.  1.
         11   -1    0    0    0    0 -0.00000000000E+00 -0.00000000000E+00 -0.45593999997E+02  0.45594000000E+02  0.51100000000E-03 0. -1.
    9900012    2    1    2    0    0 -0.28840905115E+02 -0.81116373009E+01 -0.31401062527E+02  0.47787271949E+02  0.20000004123E+02 0.  0.
        -12    1    1    2    0    0  0.28840905115E+02  0.81116373009E+01  0.31401062527E+02  0.43400728051E+02  0.00000000000E+00 0.  1.
         11    1    3    3    0    0  0.51530684636E+00  0.52682993592E+00  0.18763259493E+01  0.20158596818E+01  0.51100000000E-03 0.  1.
        -11    1    3    3    0    0 -0.26181906766E+02 -0.93334716038E+01 -0.31696614272E+02  0.42157814111E+02  0.51100000000E-03 0. -1.
         12    1    3    3    0    0 -0.31743051956E+01  0.69500436703E+00 -0.15807742044E+01  0.36135981556E+01  0.00000000000E+00 0. -1.
</event>
<event>
 7    1  0.2442667E-009  0.4778727E+02  0.7816164E-02  0.1312668E+00
        -11   -1    0    0    0    0  0.00000000000E+00  0.00000000000E+00  0.45593999997E+02  0.45594000000E+02  0.51100000000E-03 0.  1.
         11   -1    0    0    0    0 -0.00000000000E+00 -0.00000000000E+00 -0.45593999997E+02  0.45594000000E+02  0.51100000000E-03 0. -1.
    9900012    2    1    2    0    0  0.39493189519E+00  0.31134685832E+02 -0.30234063821E+02  0.47787271341E+02  0.20000001350E+02 0.  0.
        -12    1    1    2    0    0 -0.39493189519E+00 -0.31134685832E+02  0.30234063821E+02  0.43400728659E+02  0.00000000000E+00 0.  1.
         11    1    3    3    0    0 -0.61457838948E+01  0.46507707825E+01 -0.56385321761E+01  0.95495221826E+01  0.51100000000E-03 0. -1.
        -11    1    3    3    0    0  0.17995421526E+01  0.22995984703E+02 -0.21735943508E+02  0.31693925362E+02  0.51100000000E-03 0.  1.
        -12    1    3    3    0    0  0.47411736373E+01  0.34879303461E+01 -0.28595881368E+01  0.65438237958E+01  0.00000000000E+00 0.  1.
</event>
<event>
 7    1  0.2442667E-009  0.4778727E+02  0.7816164E-02  0.1312668E+00
        -11   -1    0    0    0    0  0.00000000000E+00  0.00000000000E+00  0.45593999997E+02  0.45594000000E+02  0.51100000000E-03 0.  1.
         11   -1    0    0    0    0 -0.00000000000E+00 -0.00000000000E+00 -0.45593999997E+02  0.45594000000E+02  0.51100000000E-03 0. -1.
    9900012    2    1    2    0    0  0.27790359542E+02 -0.22254461496E+02 -0.24820522060E+02  0.47787268955E+02  0.19999990472E+02 0.  0.
        -12    1    1    2    0    0 -0.27790359542E+02  0.22254461496E+02  0.24820522060E+02  0.43400731045E+02  0.00000000000E+00 0.  1.
         11    1    3    3    0    0  0.14483940804E+02 -0.12162899516E+02 -0.11268576121E+02  0.22015936816E+02  0.51100000000E-03 0.  1.
        -11    1    3    3    0    0  0.10526373227E+02 -0.89835768310E+01 -0.21764882420E+01  0.14008793214E+02  0.51100000000E-03 0. -1.
        -12    1    3    3    0    0  0.27800455118E+01 -0.11079851484E+01 -0.11375457697E+02  0.11762538924E+02  0.00000000000E+00 0.  1.
</event>
<event>
 7    1  0.2442667E-009  0.4778727E+02  0.7816164E-02  0.1312668E+00
        -11   -1    0    0    0    0  0.00000000000E+00  0.00000000000E+00  0.45593999997E+02  0.45594000000E+02  0.51100000000E-03 0. -1.
         11   -1    0    0    0    0 -0.00000000000E+00 -0.00000000000E+00 -0.45593999997E+02  0.45594000000E+02  0.51100000000E-03 0.  1.
    9900012    2    1    2    0    0  0.85737127312E+01 -0.39261103443E+02  0.16391474543E+02  0.47787271535E+02  0.20000002236E+02 0.  0.
        -12    1    1    2    0    0 -0.85737127312E+01  0.39261103443E+02 -0.16391474543E+02  0.43400728465E+02  0.00000000000E+00 0.  1.
         11    1    3    3    0    0  0.11293307452E+02 -0.17121488719E+02  0.80355751953E+01  0.22028496048E+02  0.51100000000E-03 0. -1.
        -11    1    3    3    0    0  0.20389257902E+01 -0.69695800009E+01 -0.97059809861E+00  0.73262763186E+01  0.51100000000E-03 0.  1.
         12    1    3    3    0    0 -0.47585205108E+01 -0.15170034723E+02  0.93264974467E+01  0.18432499168E+02  0.00000000000E+00 0. -1.
</event>
<event>
 7    1  0.2442667E-009  0.4778727E+02  0.7816164E-02  0.1312668E+00
        -11   -1    0    0    0    0  0.00000000000E+00  0.00000000000E+00  0.45593999997E+02  0.45594000000E+02  0.51100000000E-03 0. -1.
         11   -1    0    0    0    0 -0.00000000000E+00 -0.00000000000E+00 -0.45593999997E+02  0.45594000000E+02  0.51100000000E-03 0.  1.
    9900012    2    1    2    0    0  0.31245680846E+02  0.29377571205E+02  0.66549914864E+01  0.47787272205E+02  0.20000005290E+02 0.  0.
        -12    1    1    2    0    0 -0.31245680846E+02 -0.29377571205E+02 -0.66549914864E+01  0.43400727795E+02  0.00000000000E+00 0.  1.
         11    1    3    3    0    0 -0.11444254765E+01  0.26743368563E+00  0.17715797849E+01  0.21259646382E+01  0.51100000000E-03 0. -1.
        -11    1    3    3    0    0  0.24940035541E+02  0.17185577422E+02 -0.12673995336E+01  0.30314282870E+02  0.51100000000E-03 0.  1.
        -12    1    3    3    0    0  0.74500707824E+01  0.11924560098E+02  0.61508112351E+01  0.15347024696E+02  0.00000000000E+00 0.  1.
</event>
<event>
 7    1  0.2442667E-009  0.4778727E+02  0.7816164E-02  0.1312668E+00
        -11   -1    0    0    0    0  0.00000000000E+00  0.00000000000E+00  0.45593999997E+02  0.45594000000E+02  0.51100000000E-03 0.  1.
         11   -1    0    0    0    0 -0.00000000000E+00 -0.00000000000E+00 -0.45593999997E+02  0.45594000000E+02  0.51100000000E-03 0. -1.
    9900012    2    1    2    0    0  0.75106227835E+01  0.21733240410E+00 -0.42745368856E+02  0.47787271358E+02  0.20000001432E+02 0.  0.
        -12    1    1    2    0    0 -0.75106227835E+01 -0.21733240410E+00  0.42745368856E+02  0.43400728642E+02  0.00000000000E+00 0.  1.
         11    1    3    3    0    0  0.54428428308E+01  0.11727145574E+01 -0.13236434531E+02  0.14359770084E+02  0.51100000000E-03 0. -1.
        -11    1    3    3    0    0 -0.59335231462E+01 -0.11225567857E+01 -0.56791295676E+01  0.82897131175E+01  0.51100000000E-03 0.  1.
        -12    1    3    3    0    0  0.80013030990E+01  0.16717463238E+00 -0.23829804758E+02  0.25137788157E+02  0.00000000000E+00 0.  1.
</event>
<event>
 7    1  0.2442667E-009  0.4778726E+02  0.7816164E-02  0.1312668E+00
        -11   -1    0    0    0    0  0.00000000000E+00  0.00000000000E+00  0.45593999997E+02  0.45594000000E+02  0.51100000000E-03 0. -1.
         11   -1    0    0    0    0 -0.00000000000E+00 -0.00000000000E+00 -0.45593999997E+02  0.45594000000E+02  0.51100000000E-03 0.  1.
    9900012    2    1    2    0    0 -0.22606430854E+01 -0.91237211946E+01  0.42370645014E+02  0.47787258595E+02  0.19999943236E+02 0.  0.
        -12    1    1    2    0    0  0.22606430854E+01  0.91237211946E+01 -0.42370645014E+02  0.43400741405E+02  0.00000000000E+00 0.  1.
         11    1    3    3    0    0 -0.43195956870E+01 -0.20904023782E+01  0.40465663604E+00  0.48158525991E+01  0.51100000000E-03 0. -1.
        -11    1    3    3    0    0 -0.15282127576E+01 -0.13231676921E+01  0.49612690563E+01  0.53572752294E+01  0.51100000000E-03 0.  1.
         12    1    3    3    0    0  0.35871653592E+01 -0.57101511243E+01  0.37004719322E+02  0.37614130766E+02  0.00000000000E+00 0. -1.
</event>
<event>
 7    1  0.2442667E-009  0.4778727E+02  0.7816164E-02  0.1312668E+00
        -11   -1    0    0    0    0  0.00000000000E+00  0.00000000000E+00  0.45593999997E+02  0.45594000000E+02  0.51100000000E-03 0. -1.
         11   -1    0    0    0    0 -0.00000000000E+00 -0.00000000000E+00 -0.45593999997E+02  0.45594000000E+02  0.51100000000E-03 0.  1.
    9900012    2    1    2    0    0  0.35884117634E+02  0.53997769260E+01  0.23807469599E+02  0.47787273071E+02  0.20000009242E+02 0.  0.
        -12    1    1    2    0    0 -0.35884117634E+02 -0.53997769260E+01 -0.23807469599E+02  0.43400726929E+02  0.00000000000E+00 0.  1.
         11    1    3    3    0    0  0.20253007019E+02  0.60180867433E+01  0.19785973036E+02  0.28946267300E+02  0.51100000000E-03 0. -1.
        -11    1    3    3    0    0  0.58309640402E+01 -0.49195043205E+01  0.25158701793E+01  0.80331355906E+01  0.51100000000E-03 0.  1.
         12    1    3    3    0    0  0.98001465749E+01  0.43011945031E+01  0.15056263843E+01  0.10807870181E+02  0.00000000000E+00 0. -1.
</event>
<event>
 7    1  0.2442667E-009  0.4778727E+02  0.7816164E-02  0.1312668E+00
        -11   -1    0    0    0    0  0.00000000000E+00  0.00000000000E+00  0.45593999997E+02  0.45594000000E+02  0.51100000000E-03 0.  1.
         11   -1    0    0    0    0 -0.00000000000E+00 -0.00000000000E+00 -0.45593999997E+02  0.45594000000E+02  0.51100000000E-03 0. -1.
    9900012    2    1    2    0    0 -0.20737009938E+02  0.13819575896E+02 -0.35533349327E+02  0.47787272201E+02  0.20000005273E+02 0.  0.
        -12    1    1    2    0    0  0.20737009938E+02 -0.13819575896E+02  0.35533349327E+02  0.43400727799E+02  0.00000000000E+00 0.  1.
         11    1    3    3    0    0 -0.14271246341E+02  0.15108571301E+02 -0.26046136987E+02  0.33321744418E+02  0.51100000000E-03 0. -1.
        -11    1    3    3    0    0 -0.32453770837E+01 -0.42303066147E+01 -0.84351898839E+01  0.99789977006E+01  0.51100000000E-03 0.  1.
        -12    1    3    3    0    0 -0.32203865137E+01  0.29413112099E+01 -0.10520224561E+01  0.44865300823E+01  0.00000000000E+00 0.  1.
</event>
<event>
 7    1  0.2442667E-009  0.4778727E+02  0.7816164E-02  0.1312668E+00
        -11   -1    0    0    0    0  0.00000000000E+00  0.00000000000E+00  0.45593999997E+02  0.45594000000E+02  0.51100000000E-03 0.  1.
         11   -1    0    0    0    0 -0.00000000000E+00 -0.00000000000E+00 -0.45593999997E+02  0.45594000000E+02  0.51100000000E-03 0. -1.
    9900012    2    1    2    0    0  0.10732877075E+02 -0.37332793568E+02 -0.19356942718E+02  0.47787270083E+02  0.19999995617E+02 0.  0.
        -12    1    1    2    0    0 -0.10732877075E+02  0.37332793568E+02  0.19356942718E+02  0.43400729917E+02  0.00000000000E+00 0.  1.
         11    1    3    3    0    0  0.52807500718E+01 -0.55074425717E+01 -0.10078029831E+02  0.12640606415E+02  0.51100000000E-03 0. -1.
        -11    1    3    3    0    0  0.25534066799E+01 -0.23411169917E+02 -0.19731287016E+01  0.23632519961E+02  0.51100000000E-03 0.  1.
        -12    1    3    3    0    0  0.28987203236E+01 -0.84141810794E+01 -0.73057841851E+01  0.11514143707E+02  0.00000000000E+00 0.  1.
</event>
<event>
 7    1  0.2442667E-009  0.4778727E+02  0.7816164E-02  0.1312668E+00
        -11   -1    0    0    0    0  0.00000000000E+00  0.00000000000E+00  0.45593999997E+02  0.45594000000E+02  0.51100000000E-03 0. -1.
         11   -1    0    0    0    0 -0.00000000000E+00 -0.00000000000E+00 -0.45593999997E+02  0.45594000000E+02  0.51100000000E-03 0.  1.
    9900012    2    1    2    0    0  0.18222375684E+02 -0.37753699166E+02  0.11235049773E+02  0.47787272821E+02  0.20000008100E+02 0.  0.
        -12    1    1    2    0    0 -0.18222375684E+02  0.37753699166E+02 -0.11235049773E+02  0.43400727179E+02  0.00000000000E+00 0.  1.
         11    1    3    3    0    0  0.92499576816E+01 -0.23359803850E+02  0.44547611151E+01  0.25516407464E+02  0.51100000000E-03 0. -1.
        -11    1    3    3    0    0  0.21037978885E+01 -0.67619466763E+01  0.93089502353E+01  0.11696428649E+02  0.51100000000E-03 0.  1.
        -12    1    3    3    0    0  0.68686201139E+01 -0.76319486393E+01 -0.25286615775E+01  0.10574436707E+02  0.00000000000E+00 0.  1.
</event>
<event>
 7    1  0.2442667E-009  0.4778721E+02  0.7816164E-02  0.1312668E+00
        -11   -1    0    0    0    0  0.00000000000E+00  0.00000000000E+00  0.45593999997E+02  0.45594000000E+02  0.51100000000E-03 0.  1.
         11   -1    0    0    0    0 -0.00000000000E+00 -0.00000000000E+00 -0.45593999997E+02  0.45594000000E+02  0.51100000000E-03 0. -1.
    9900012    2    1    2    0    0 -0.53144270099E+01 -0.29738175356E+02 -0.31161292948E+02  0.47787212148E+02  0.19999731468E+02 0.  0.
        -12    1    1    2    0    0  0.53144270099E+01  0.29738175356E+02  0.31161292948E+02  0.43400787852E+02  0.00000000000E+00 0.  1.
         11    1    3    3    0    0  0.52432421328E+01 -0.15998614883E+02 -0.18357785825E+02  0.24908945520E+02  0.51100000000E-03 0. -1.
        -11    1    3    3    0    0 -0.90788399632E+01 -0.11837251767E+02 -0.13751337036E+02  0.20289039776E+02  0.51100000000E-03 0.  1.
         12    1    3    3    0    0 -0.14788291796E+01 -0.19023087056E+01  0.94782991299E+00  0.25892268533E+01  0.00000000000E+00 0. -1.
</event>
<event>
 7    1  0.2442667E-009  0.4778727E+02  0.7816164E-02  0.1312668E+00
        -11   -1    0    0    0    0  0.00000000000E+00  0.00000000000E+00  0.45593999997E+02  0.45594000000E+02  0.51100000000E-03 0.  1.
         11   -1    0    0    0    0 -0.00000000000E+00 -0.00000000000E+00 -0.45593999997E+02  0.45594000000E+02  0.51100000000E-03 0. -1.
    9900012    2    1    2    0    0 -0.39760258415E+02  0.16612204455E+02 -0.51749346206E+01  0.47787269195E+02  0.19999991567E+02 0.  0.
        -12    1    1    2    0    0  0.39760258415E+02 -0.16612204455E+02  0.51749346206E+01  0.43400730805E+02  0.00000000000E+00 0.  1.
         11    1    3    3    0    0 -0.24873136978E+02  0.13858292649E+02 -0.11066398291E+02  0.30548165078E+02  0.51100000000E-03 0. -1.
        -11    1    3    3    0    0 -0.14093296320E+02  0.11098501640E+01  0.41932691989E+01  0.14745720579E+02  0.51100000000E-03 0.  1.
        -12    1    3    3    0    0 -0.79382511752E+00  0.16440616428E+01  0.16981944719E+01  0.24933835379E+01  0.00000000000E+00 0.  1.
</event>
<event>
 7    1  0.2442667E-009  0.4778727E+02  0.7816164E-02  0.1312668E+00
        -11   -1    0    0    0    0  0.00000000000E+00  0.00000000000E+00  0.45593999997E+02  0.45594000000E+02  0.51100000000E-03 0. -1.
         11   -1    0    0    0    0 -0.00000000000E+00 -0.00000000000E+00 -0.45593999997E+02  0.45594000000E+02  0.51100000000E-03 0.  1.
    9900012    2    1    2    0    0 -0.42190787143E+02  0.13292188065E+01  0.10089284480E+02  0.47787274157E+02  0.20000014193E+02 0.  0.
        -12    1    1    2    0    0  0.42190787143E+02 -0.13292188065E+01 -0.10089284480E+02  0.43400725843E+02  0.00000000000E+00 0.  1.
         11    1    3    3    0    0 -0.32711730261E+02 -0.90061218556E+00  0.14388361259E+02  0.35747634033E+02  0.51100000000E-03 0. -1.
        -11    1    3    3    0    0 -0.28330096618E+01  0.34308435588E+01 -0.11966450531E+01  0.46074495019E+01  0.51100000000E-03 0.  1.
         12    1    3    3    0    0 -0.66460472196E+01 -0.12010125668E+01 -0.31024317260E+01  0.74321906222E+01  0.00000000000E+00 0. -1.
</event>
<event>
 7    1  0.2442667E-009  0.4778727E+02  0.7816164E-02  0.1312668E+00
        -11   -1    0    0    0    0  0.00000000000E+00  0.00000000000E+00  0.45593999997E+02  0.45594000000E+02  0.51100000000E-03 0.  1.
         11   -1    0    0    0    0 -0.00000000000E+00 -0.00000000000E+00 -0.45593999997E+02  0.45594000000E+02  0.51100000000E-03 0. -1.
    9900012    2    1    2    0    0 -0.38384853139E+02  0.69688319577E+00 -0.20242048657E+02  0.47787272696E+02  0.20000007529E+02 0.  0.
        -12    1    1    2    0    0  0.38384853139E+02 -0.69688319577E+00  0.20242048657E+02  0.43400727304E+02  0.00000000000E+00 0.  1.
         11    1    3    3    0    0 -0.48906570082E+01  0.57873959693E+01 -0.54139499727E+01  0.93125363164E+01  0.51100000000E-03 0. -1.
        -11    1    3    3    0    0 -0.12838852934E+02 -0.27056446582E+01 -0.32698524544E+00  0.13124921992E+02  0.51100000000E-03 0.  1.
         12    1    3    3    0    0 -0.20655343197E+02 -0.23848681153E+01 -0.14501113439E+02  0.25349814388E+02  0.00000000000E+00 0. -1.
</event>
<event>
 7    1  0.2442667E-009  0.4778727E+02  0.7816164E-02  0.1312668E+00
        -11   -1    0    0    0    0  0.00000000000E+00  0.00000000000E+00  0.45593999997E+02  0.45594000000E+02  0.51100000000E-03 0.  1.
         11   -1    0    0    0    0 -0.00000000000E+00 -0.00000000000E+00 -0.45593999997E+02  0.45594000000E+02  0.51100000000E-03 0. -1.
    9900012    2    1    2    0    0  0.14831469392E+02  0.23138781283E+01 -0.40722189695E+02  0.47787271321E+02  0.20000001262E+02 0.  0.
        -12    1    1    2    0    0 -0.14831469392E+02 -0.23138781283E+01  0.40722189695E+02  0.43400728679E+02  0.00000000000E+00 0.  1.
         11    1    3    3    0    0  0.12206878472E+02 -0.16947205390E+01 -0.33094425179E+02  0.35314599501E+02  0.51100000000E-03 0. -1.
        -11    1    3    3    0    0  0.57570747887E+01  0.33033299154E+01 -0.55077458017E+01  0.86250311727E+01  0.51100000000E-03 0.  1.
         12    1    3    3    0    0 -0.31324838692E+01  0.70526875183E+00 -0.21200187143E+01  0.38476406474E+01  0.00000000000E+00 0. -1.
</event>
<event>
 7    1  0.2442667E-009  0.4778727E+02  0.7816164E-02  0.1312668E+00
        -11   -1    0    0    0    0  0.00000000000E+00  0.00000000000E+00  0.45593999997E+02  0.45594000000E+02  0.51100000000E-03 0.  1.
         11   -1    0    0    0    0 -0.00000000000E+00 -0.00000000000E+00 -0.45593999997E+02  0.45594000000E+02  0.51100000000E-03 0. -1.
    9900012    2    1    2    0    0 -0.19894716268E+02  0.33887679004E+02 -0.18424142285E+02  0.47787267948E+02  0.19999985884E+02 0.  0.
        -12    1    1    2    0    0  0.19894716268E+02 -0.33887679004E+02  0.18424142285E+02  0.43400732052E+02  0.00000000000E+00 0.  1.
         11    1    3    3    0    0 -0.16470791411E+02  0.22948246493E+02 -0.92762073045E+01  0.29731414515E+02  0.51100000000E-03 0. -1.
        -11    1    3    3    0    0  0.34061891513E+01  0.61147077021E+01 -0.27234198471E+01  0.75105785890E+01  0.51100000000E-03 0.  1.
         12    1    3    3    0    0 -0.68301140087E+01  0.48247248086E+01 -0.64245151336E+01  0.10545274845E+02  0.00000000000E+00 0. -1.
</event>
<event>
 7    1  0.2442667E-009  0.4778727E+02  0.7816164E-02  0.1312668E+00
        -11   -1    0    0    0    0  0.00000000000E+00  0.00000000000E+00  0.45593999997E+02  0.45594000000E+02  0.51100000000E-03 0. -1.
         11   -1    0    0    0    0 -0.00000000000E+00 -0.00000000000E+00 -0.45593999997E+02  0.45594000000E+02  0.51100000000E-03 0.  1.
    9900012    2    1    2    0    0 -0.58804890143E+01  0.42519546419E+02 -0.64133627218E+01  0.47787271894E+02  0.20000003873E+02 0.  0.
        -12    1    1    2    0    0  0.58804890143E+01 -0.42519546419E+02  0.64133627218E+01  0.43400728106E+02  0.00000000000E+00 0.  1.
         11    1    3    3    0    0 -0.15078511672E+01  0.34688117184E+02 -0.53233371243E+01  0.35126585478E+02  0.51100000000E-03 0. -1.
        -11    1    3    3    0    0 -0.17682261639E+01  0.53152799506E+01 -0.48724146652E+01  0.74242339437E+01  0.51100000000E-03 0.  1.
         12    1    3    3    0    0 -0.26044116831E+01  0.25161492845E+01  0.37823890678E+01  0.52364524726E+01  0.00000000000E+00 0. -1.
</event>
<event>
 7    1  0.2442667E-009  0.4778727E+02  0.7816164E-02  0.1312668E+00
        -11   -1    0    0    0    0  0.00000000000E+00  0.00000000000E+00  0.45593999997E+02  0.45594000000E+02  0.51100000000E-03 0.  1.
         11   -1    0    0    0    0 -0.00000000000E+00 -0.00000000000E+00 -0.45593999997E+02  0.45594000000E+02  0.51100000000E-03 0. -1.
    9900012    2    1    2    0    0  0.19504419520E+02  0.36735210244E+02 -0.12398596049E+02  0.47787271476E+02  0.20000001966E+02 0.  0.
        -12    1    1    2    0    0 -0.19504419520E+02 -0.36735210244E+02  0.12398596049E+02  0.43400728524E+02  0.00000000000E+00 0.  1.
         11    1    3    3    0    0  0.17857934539E+01  0.28539528628E+01 -0.78782945494E+01  0.85674751515E+01  0.51100000000E-03 0. -1.
        -11    1    3    3    0    0  0.51273926964E+01  0.86564922521E+01  0.20589700404E+01  0.10269584795E+02  0.51100000000E-03 0.  1.
         12    1    3    3    0    0  0.12591233369E+02  0.25224765129E+02 -0.65792715398E+01  0.28950211529E+02  0.00000000000E+00 0. -1.
</event>
<event>
 7    1  0.2442667E-009  0.4778727E+02  0.7816164E-02  0.1312668E+00
        -11   -1    0    0    0    0  0.00000000000E+00  0.00000000000E+00  0.45593999997E+02  0.45594000000E+02  0.51100000000E-03 0.  1.
         11   -1    0    0    0    0 -0.00000000000E+00 -0.00000000000E+00 -0.45593999997E+02  0.45594000000E+02  0.51100000000E-03 0. -1.
    9900012    2    1    2    0    0 -0.22730077852E+02  0.32837228254E+02 -0.16990695850E+02  0.47787265628E+02  0.19999975305E+02 0.  0.
        -12    1    1    2    0    0  0.22730077852E+02 -0.32837228254E+02  0.16990695850E+02  0.43400734372E+02  0.00000000000E+00 0.  1.
         11    1    3    3    0    0 -0.62784125025E+00  0.45986903388E+01  0.26204322328E+01  0.53299908832E+01  0.51100000000E-03 0.  1.
        -11    1    3    3    0    0 -0.21372812345E+02  0.20901835971E+02 -0.18049331224E+02  0.34920799137E+02  0.51100000000E-03 0. -1.
         12    1    3    3    0    0 -0.72942425722E+00  0.73367019441E+01 -0.15617968585E+01  0.75364756080E+01  0.00000000000E+00 0. -1.
</event>
<event>
 7    1  0.2442667E-009  0.4778727E+02  0.7816164E-02  0.1312668E+00
        -11   -1    0    0    0    0  0.00000000000E+00  0.00000000000E+00  0.45593999997E+02  0.45594000000E+02  0.51100000000E-03 0.  1.
         11   -1    0    0    0    0 -0.00000000000E+00 -0.00000000000E+00 -0.45593999997E+02  0.45594000000E+02  0.51100000000E-03 0. -1.
    9900012    2    1    2    0    0 -0.21724975846E+02 -0.33424755936E+02 -0.17159081755E+02  0.47787274527E+02  0.20000015878E+02 0.  0.
        -12    1    1    2    0    0  0.21724975846E+02  0.33424755936E+02  0.17159081755E+02  0.43400725473E+02  0.00000000000E+00 0.  1.
         11    1    3    3    0    0 -0.41968541430E+01 -0.14992053282E+02 -0.11939276871E+02  0.19619418410E+02  0.51100000000E-03 0. -1.
        -11    1    3    3    0    0 -0.16506179540E+02 -0.16577763678E+02 -0.96349314120E+00  0.23413767976E+02  0.51100000000E-03 0.  1.
        -12    1    3    3    0    0 -0.10219421633E+01 -0.18549389770E+01 -0.42563117424E+01  0.47540881399E+01  0.00000000000E+00 0.  1.
</event>
<event>
 7    1  0.2442667E-009  0.4778727E+02  0.7816164E-02  0.1312668E+00
        -11   -1    0    0    0    0  0.00000000000E+00  0.00000000000E+00  0.45593999997E+02  0.45594000000E+02  0.51100000000E-03 0.  1.
         11   -1    0    0    0    0 -0.00000000000E+00 -0.00000000000E+00 -0.45593999997E+02  0.45594000000E+02  0.51100000000E-03 0. -1.
    9900012    2    1    2    0    0  0.91747422442E+01  0.33265628615E+02 -0.26321952578E+02  0.47787272703E+02  0.20000007562E+02 0.  0.
        -12    1    1    2    0    0 -0.91747422442E+01 -0.33265628615E+02  0.26321952578E+02  0.43400727297E+02  0.00000000000E+00 0.  1.
         11    1    3    3    0    0  0.98676834031E+01  0.23105715841E+02 -0.23701012904E+02  0.34539590229E+02  0.51100000000E-03 0. -1.
        -11    1    3    3    0    0 -0.12798404185E+01  0.76287083373E+01  0.19612263545E+01  0.79800746530E+01  0.51100000000E-03 0.  1.
        -12    1    3    3    0    0  0.58689925969E+00  0.25312044363E+01 -0.45821660289E+01  0.52676078210E+01  0.00000000000E+00 0.  1.
</event>
<event>
 7    1  0.2442667E-009  0.4778727E+02  0.7816164E-02  0.1312668E+00
        -11   -1    0    0    0    0  0.00000000000E+00  0.00000000000E+00  0.45593999997E+02  0.45594000000E+02  0.51100000000E-03 0.  1.
         11   -1    0    0    0    0 -0.00000000000E+00 -0.00000000000E+00 -0.45593999997E+02  0.45594000000E+02  0.51100000000E-03 0. -1.
    9900012    2    1    2    0    0 -0.36201993044E+02  0.23875895406E+02  0.17265023058E+01  0.47787268532E+02  0.19999988543E+02 0.  0.
        -12    1    1    2    0    0  0.36201993044E+02 -0.23875895406E+02 -0.17265023058E+01  0.43400731468E+02  0.00000000000E+00 0.  1.
         11    1    3    3    0    0 -0.24968679538E+02  0.84471862538E+01 -0.46556191093E+01  0.26766858296E+02  0.51100000000E-03 0. -1.
        -11    1    3    3    0    0 -0.77422044023E+00  0.46702670297E+01  0.31071281660E+01  0.56626016212E+01  0.51100000000E-03 0.  1.
         12    1    3    3    0    0 -0.10459093066E+02  0.10758442122E+02  0.32749932491E+01  0.15357808614E+02  0.00000000000E+00 0. -1.
</event>
<event>
 7    1  0.2442667E-009  0.4778727E+02  0.7816164E-02  0.1312668E+00
        -11   -1    0    0    0    0  0.00000000000E+00  0.00000000000E+00  0.45593999997E+02  0.45594000000E+02  0.51100000000E-03 0. -1.
         11   -1    0    0    0    0 -0.00000000000E+00 -0.00000000000E+00 -0.45593999997E+02  0.45594000000E+02  0.51100000000E-03 0.  1.
    9900012    2    1    2    0    0 -0.37930117896E+02  0.13585442159E+02  0.16135831388E+02  0.47787272623E+02  0.20000007198E+02 0.  0.
        -12    1    1    2    0    0  0.37930117896E+02 -0.13585442159E+02 -0.16135831388E+02  0.43400727377E+02  0.00000000000E+00 0.  1.
         11    1    3    3    0    0 -0.12135046223E+02  0.12578044652E+02  0.12029629121E+02  0.21217411038E+02  0.51100000000E-03 0. -1.
        -11    1    3    3    0    0 -0.59493993371E+01 -0.12468009255E+01 -0.40967081235E+00  0.60924293558E+01  0.51100000000E-03 0.  1.
         12    1    3    3    0    0 -0.19845672336E+02  0.22541984320E+01  0.45158730801E+01  0.20477432230E+02  0.00000000000E+00 0. -1.
</event>
<event>
 7    1  0.2442667E-009  0.4778727E+02  0.7816164E-02  0.1312668E+00
        -11   -1    0    0    0    0  0.00000000000E+00  0.00000000000E+00  0.45593999997E+02  0.45594000000E+02  0.51100000000E-03 0.  1.
         11   -1    0    0    0    0 -0.00000000000E+00 -0.00000000000E+00 -0.45593999997E+02  0.45594000000E+02  0.51100000000E-03 0. -1.
    9900012    2    1    2    0    0 -0.20181776061E+01  0.42943231993E+02 -0.59522326165E+01  0.47787270882E+02  0.19999999259E+02 0.  0.
        -12    1    1    2    0    0  0.20181776061E+01 -0.42943231993E+02  0.59522326165E+01  0.43400729118E+02  0.00000000000E+00 0.  1.
         11    1    3    3    0    0 -0.41727578233E+01  0.19761118887E+02  0.21781932225E+01  0.20313991570E+02  0.51100000000E-03 0. -1.
        -11    1    3    3    0    0  0.63155188867E+01  0.15791899762E+02 -0.84392208208E+01  0.18986582769E+02  0.51100000000E-03 0.  1.
        -12    1    3    3    0    0 -0.41609386695E+01  0.73902133438E+01  0.30879498185E+00  0.84866965433E+01  0.00000000000E+00 0.  1.
</event>
<event>
 7    1  0.2442667E-009  0.4778727E+02  0.7816164E-02  0.1312668E+00
        -11   -1    0    0    0    0  0.00000000000E+00  0.00000000000E+00  0.45593999997E+02  0.45594000000E+02  0.51100000000E-03 0.  1.
         11   -1    0    0    0    0 -0.00000000000E+00 -0.00000000000E+00 -0.45593999997E+02  0.45594000000E+02  0.51100000000E-03 0. -1.
    9900012    2    1    2    0    0  0.34117884261E+02  0.26801982001E+02  0.11166627600E+01  0.47787271880E+02  0.20000003809E+02 0.  0.
        -12    1    1    2    0    0 -0.34117884261E+02 -0.26801982001E+02 -0.11166627600E+01  0.43400728120E+02  0.00000000000E+00 0.  1.
         11    1    3    3    0    0  0.30033444230E+02  0.22000316039E+02 -0.60683179814E+00  0.37234257387E+02  0.51100000000E-03 0. -1.
        -11    1    3    3    0    0 -0.20077489938E+01  0.37142092010E+01  0.75943688907E+00  0.42898893530E+01  0.51100000000E-03 0.  1.
         12    1    3    3    0    0  0.60921890250E+01  0.10874567615E+01  0.96405766903E+00  0.62631251395E+01  0.00000000000E+00 0. -1.
</event>
<event>
 7    1  0.2442667E-009  0.4778728E+02  0.7816164E-02  0.1312668E+00
        -11   -1    0    0    0    0  0.00000000000E+00  0.00000000000E+00  0.45593999997E+02  0.45594000000E+02  0.51100000000E-03 0.  1.
         11   -1    0    0    0    0 -0.00000000000E+00 -0.00000000000E+00 -0.45593999997E+02  0.45594000000E+02  0.51100000000E-03 0. -1.
    9900012    2    1    2    0    0 -0.11789110114E+02 -0.23859316732E+01 -0.41700676327E+02  0.47787283492E+02  0.20000056755E+02 0.  0.
        -12    1    1    2    0    0  0.11789110114E+02  0.23859316732E+01  0.41700676327E+02  0.43400716508E+02  0.00000000000E+00 0.  1.
         11    1    3    3    0    0 -0.50819908276E+01 -0.91694064452E+01 -0.15892149979E+02  0.19038515608E+02  0.51100000000E-03 0.  1.
        -11    1    3    3    0    0 -0.24508455970E+01  0.67835243434E+01 -0.97017886450E+01  0.12089150087E+02  0.51100000000E-03 0. -1.
        -12    1    3    3    0    0 -0.42562736889E+01 -0.49571311764E-04 -0.16106737703E+02  0.16659617797E+02  0.00000000000E+00 0.  1.
</event>
<event>
 7    1  0.2442667E-009  0.4778727E+02  0.7816164E-02  0.1312668E+00
        -11   -1    0    0    0    0  0.00000000000E+00  0.00000000000E+00  0.45593999997E+02  0.45594000000E+02  0.51100000000E-03 0.  1.
         11   -1    0    0    0    0 -0.00000000000E+00 -0.00000000000E+00 -0.45593999997E+02  0.45594000000E+02  0.51100000000E-03 0. -1.
    9900012    2    1    2    0    0 -0.40547378098E+02  0.58758635105E+01 -0.14318092404E+02  0.47787269446E+02  0.19999992710E+02 0.  0.
        -12    1    1    2    0    0  0.40547378098E+02 -0.58758635105E+01  0.14318092404E+02  0.43400730554E+02  0.00000000000E+00 0.  1.
         11    1    3    3    0    0 -0.15528632030E+02 -0.13813551244E+01 -0.13051618224E+02  0.20332026295E+02  0.51100000000E-03 0. -1.
        -11    1    3    3    0    0 -0.81941901913E+01  0.21808133137E+01  0.36124156577E+01  0.92168458132E+01  0.51100000000E-03 0.  1.
        -12    1    3    3    0    0 -0.16824555876E+02  0.50764053213E+01 -0.48788898376E+01  0.18238397338E+02  0.00000000000E+00 0.  1.
</event>
<event>
 7    1  0.2442667E-009  0.4778727E+02  0.7816164E-02  0.1312668E+00
        -11   -1    0    0    0    0  0.00000000000E+00  0.00000000000E+00  0.45593999997E+02  0.45594000000E+02  0.51100000000E-03 0. -1.
         11   -1    0    0    0    0 -0.00000000000E+00 -0.00000000000E+00 -0.45593999997E+02  0.45594000000E+02  0.51100000000E-03 0.  1.
    9900012    2    1    2    0    0 -0.25364294152E+02  0.25219031486E+01  0.35127138056E+02  0.47787271420E+02  0.20000001711E+02 0.  0.
        -12    1    1    2    0    0  0.25364294152E+02 -0.25219031486E+01 -0.35127138056E+02  0.43400728580E+02  0.00000000000E+00 0.  1.
         11    1    3    3    0    0 -0.23163535041E+01 -0.50348015818E+01  0.10124156337E+02  0.11541804986E+02  0.51100000000E-03 0. -1.
        -11    1    3    3    0    0 -0.18929124357E+01 -0.18869252997E+01  0.91587026154E+00  0.28253182428E+01  0.51100000000E-03 0.  1.
         12    1    3    3    0    0 -0.21155028212E+02  0.94436300301E+01  0.24087111457E+02  0.33420148191E+02  0.00000000000E+00 0. -1.
</event>
<event>
 7    1  0.2442667E-009  0.4778727E+02  0.7816164E-02  0.1312668E+00
        -11   -1    0    0    0    0  0.00000000000E+00  0.00000000000E+00  0.45593999997E+02  0.45594000000E+02  0.51100000000E-03 0. -1.
         11   -1    0    0    0    0 -0.00000000000E+00 -0.00000000000E+00 -0.45593999997E+02  0.45594000000E+02  0.51100000000E-03 0.  1.
    9900012    2    1    2    0    0 -0.35395799030E+02 -0.25063354333E+02 -0.16089754463E+01  0.47787272801E+02  0.20000008009E+02 0.  0.
        -12    1    1    2    0    0  0.35395799030E+02  0.25063354333E+02  0.16089754463E+01  0.43400727199E+02  0.00000000000E+00 0.  1.
         11    1    3    3    0    0 -0.17403313425E+02 -0.64759687505E+01 -0.66538997799E+00  0.18581071915E+02  0.51100000000E-03 0. -1.
        -11    1    3    3    0    0 -0.78167494722E+01 -0.16286936775E+02  0.24604098029E+01  0.18232375009E+02  0.51100000000E-03 0.  1.
        -12    1    3    3    0    0 -0.10175736133E+02 -0.23004488077E+01 -0.34039952712E+01  0.10973825876E+02  0.00000000000E+00 0.  1.
</event>
<event>
 7    1  0.2442667E-009  0.4778728E+02  0.7816164E-02  0.1312668E+00
        -11   -1    0    0    0    0  0.00000000000E+00  0.00000000000E+00  0.45593999997E+02  0.45594000000E+02  0.51100000000E-03 0. -1.
         11   -1    0    0    0    0 -0.00000000000E+00 -0.00000000000E+00 -0.45593999997E+02  0.45594000000E+02  0.51100000000E-03 0.  1.
    9900012    2    1    2    0    0  0.30820414169E+02 -0.85411505615E+01  0.29338945719E+02  0.47787275140E+02  0.20000018671E+02 0.  0.
        -12    1    1    2    0    0 -0.30820414169E+02  0.85411505615E+01 -0.29338945719E+02  0.43400724860E+02  0.00000000000E+00 0.  1.
         11    1    3    3    0    0  0.56200581831E+01 -0.21779550771E+01 -0.72202540286E+00  0.60704088201E+01  0.51100000000E-03 0. -1.
        -11    1    3    3    0    0  0.26259226467E+02 -0.43520491302E+01  0.27117131862E+02  0.37997712391E+02  0.51100000000E-03 0.  1.
         12    1    3    3    0    0 -0.10588704807E+01 -0.20111463542E+01  0.29438392598E+01  0.37191539281E+01  0.00000000000E+00 0. -1.
</event>
<event>
 7    1  0.2442667E-009  0.4778727E+02  0.7816164E-02  0.1312668E+00
        -11   -1    0    0    0    0  0.00000000000E+00  0.00000000000E+00  0.45593999997E+02  0.45594000000E+02  0.51100000000E-03 0.  1.
         11   -1    0    0    0    0 -0.00000000000E+00 -0.00000000000E+00 -0.45593999997E+02  0.45594000000E+02  0.51100000000E-03 0. -1.
    9900012    2    1    2    0    0 -0.12792509369E+02 -0.50780945984E+01 -0.41160514637E+02  0.47787270676E+02  0.19999998319E+02 0.  0.
        -12    1    1    2    0    0  0.12792509369E+02  0.50780945984E+01  0.41160514637E+02  0.43400729324E+02  0.00000000000E+00 0.  1.
         11    1    3    3    0    0  0.26334137385E+01 -0.48532016186E+01 -0.75987205047E+01  0.93930286616E+01  0.51100000000E-03 0. -1.
        -11    1    3    3    0    0 -0.86868073646E+01  0.76071940900E+00 -0.76427851572E+01  0.11595321532E+02  0.51100000000E-03 0.  1.
         12    1    3    3    0    0 -0.67391157427E+01 -0.98561238880E+00 -0.25919008975E+02  0.26798920482E+02  0.00000000000E+00 0. -1.
</event>
<event>
 7    1  0.2442667E-009  0.4778727E+02  0.7816164E-02  0.1312668E+00
        -11   -1    0    0    0    0  0.00000000000E+00  0.00000000000E+00  0.45593999997E+02  0.45594000000E+02  0.51100000000E-03 0.  1.
         11   -1    0    0    0    0 -0.00000000000E+00 -0.00000000000E+00 -0.45593999997E+02  0.45594000000E+02  0.51100000000E-03 0. -1.
    9900012    2    1    2    0    0 -0.18387670797E+02 -0.71693434524E+00 -0.39306523984E+02  0.47787271206E+02  0.20000000736E+02 0.  0.
        -12    1    1    2    0    0  0.18387670797E+02  0.71693434524E+00  0.39306523984E+02  0.43400728794E+02  0.00000000000E+00 0.  1.
         11    1    3    3    0    0 -0.13120320166E+02 -0.22967111565E+01 -0.18946447661E+02  0.23159999193E+02  0.51100000000E-03 0. -1.
        -11    1    3    3    0    0  0.27546085048E+01 -0.12796689424E+01 -0.58067311006E+00  0.30923457340E+01  0.51100000000E-03 0.  1.
        -12    1    3    3    0    0 -0.80219591356E+01  0.28594457537E+01 -0.19779403213E+02  0.21534926279E+02  0.00000000000E+00 0.  1.
</event>
<event>
 7    1  0.2442667E-009  0.4778727E+02  0.7816164E-02  0.1312668E+00
        -11   -1    0    0    0    0  0.00000000000E+00  0.00000000000E+00  0.45593999997E+02  0.45594000000E+02  0.51100000000E-03 0. -1.
         11   -1    0    0    0    0 -0.00000000000E+00 -0.00000000000E+00 -0.45593999997E+02  0.45594000000E+02  0.51100000000E-03 0.  1.
    9900012    2    1    2    0    0  0.66978545416E+01 -0.28255968093E+02  0.32254654503E+02  0.47787265843E+02  0.19999976283E+02 0.  0.
        -12    1    1    2    0    0 -0.66978545416E+01  0.28255968093E+02 -0.32254654503E+02  0.43400734157E+02  0.00000000000E+00 0.  1.
         11    1    3    3    0    0 -0.41352997758E+01 -0.17767301481E+02  0.11925968738E+02  0.21794642386E+02  0.51100000000E-03 0. -1.
        -11    1    3    3    0    0  0.90648557054E+01 -0.90949863225E+01  0.12785885997E+02  0.18120962065E+02  0.51100000000E-03 0.  1.
         12    1    3    3    0    0  0.17682986120E+01 -0.13936802896E+01  0.75427997675E+01  0.78716613915E+01  0.00000000000E+00 0. -1.
</event>
<event>
 7    1  0.2442667E-009  0.4778727E+02  0.7816164E-02  0.1312668E+00
        -11   -1    0    0    0    0  0.00000000000E+00  0.00000000000E+00  0.45593999997E+02  0.45594000000E+02  0.51100000000E-03 0.  1.
         11   -1    0    0    0    0 -0.00000000000E+00 -0.00000000000E+00 -0.45593999997E+02  0.45594000000E+02  0.51100000000E-03 0. -1.
    9900012    2    1    2    0    0 -0.37939282912E+02 -0.19693512909E+02 -0.75099622658E+01  0.47787272221E+02  0.20000005364E+02 0.  0.
        -12    1    1    2    0    0  0.37939282912E+02  0.19693512909E+02  0.75099622658E+01  0.43400727779E+02  0.00000000000E+00 0.  1.
         11    1    3    3    0    0 -0.18122865624E+02 -0.22039317929E+01 -0.10539831108E+02  0.21080408294E+02  0.51100000000E-03 0. -1.
        -11    1    3    3    0    0 -0.13662820544E+02 -0.11906961527E+02  0.98251468502E+00  0.18149758494E+02  0.51100000000E-03 0.  1.
         12    1    3    3    0    0 -0.61535967432E+01 -0.55826195886E+01  0.20473541568E+01  0.85571054330E+01  0.00000000000E+00 0. -1.
</event>
<event>
 7    1  0.2442667E-009  0.4778728E+02  0.7816164E-02  0.1312668E+00
        -11   -1    0    0    0    0  0.00000000000E+00  0.00000000000E+00  0.45593999997E+02  0.45594000000E+02  0.51100000000E-03 0.  1.
         11   -1    0    0    0    0 -0.00000000000E+00 -0.00000000000E+00 -0.45593999997E+02  0.45594000000E+02  0.51100000000E-03 0. -1.
    9900012    2    1    2    0    0  0.28682976896E+02 -0.32174951182E+02  0.50677234299E+01  0.47787280329E+02  0.20000042334E+02 0.  0.
        -12    1    1    2    0    0 -0.28682976896E+02  0.32174951182E+02 -0.50677234299E+01  0.43400719671E+02  0.00000000000E+00 0.  1.
         11    1    3    3    0    0  0.10494987412E+02 -0.19229003234E+02  0.10050989953E+02  0.24102317844E+02  0.51100000000E-03 0. -1.
        -11    1    3    3    0    0  0.13619892085E+02 -0.61528966043E+01 -0.27088727926E+01  0.15188732307E+02  0.51100000000E-03 0.  1.
         12    1    3    3    0    0  0.45680973992E+01 -0.67930513437E+01 -0.22743937306E+01  0.84962301786E+01  0.00000000000E+00 0. -1.
</event>
<event>
 7    1  0.2442667E-009  0.4778727E+02  0.7816164E-02  0.1312668E+00
        -11   -1    0    0    0    0  0.00000000000E+00  0.00000000000E+00  0.45593999997E+02  0.45594000000E+02  0.51100000000E-03 0.  1.
         11   -1    0    0    0    0 -0.00000000000E+00 -0.00000000000E+00 -0.45593999997E+02  0.45594000000E+02  0.51100000000E-03 0. -1.
    9900012    2    1    2    0    0  0.32167561612E+02 -0.19950155783E+01  0.29067007077E+02  0.47787274112E+02  0.20000013985E+02 0.  0.
        -12    1    1    2    0    0 -0.32167561612E+02  0.19950155783E+01 -0.29067007077E+02  0.43400725888E+02  0.00000000000E+00 0.  1.
         11    1    3    3    0    0  0.29088813912E+02  0.14507482568E+01  0.16335309759E+02  0.33393204556E+02  0.51100000000E-03 0. -1.
        -11    1    3    3    0    0  0.43432618616E+01 -0.30952795194E+01  0.93106260124E+01  0.10729978374E+02  0.51100000000E-03 0.  1.
         12    1    3    3    0    0 -0.12645141611E+01 -0.35048431571E+00  0.34210713049E+01  0.36640911823E+01  0.00000000000E+00 0. -1.
</event>
<event>
 7    1  0.2442667E-009  0.4778728E+02  0.7816164E-02  0.1312668E+00
        -11   -1    0    0    0    0  0.00000000000E+00  0.00000000000E+00  0.45593999997E+02  0.45594000000E+02  0.51100000000E-03 0.  1.
         11   -1    0    0    0    0 -0.00000000000E+00 -0.00000000000E+00 -0.45593999997E+02  0.45594000000E+02  0.51100000000E-03 0. -1.
    9900012    2    1    2    0    0  0.26967453016E+02  0.33815501241E+02  0.35903825594E+01  0.47787280037E+02  0.20000041003E+02 0.  0.
        -12    1    1    2    0    0 -0.26967453016E+02 -0.33815501241E+02 -0.35903825594E+01  0.43400719963E+02  0.00000000000E+00 0.  1.
         11    1    3    3    0    0  0.11767234492E+01  0.73900606457E+01 -0.49421335272E+01  0.89678513862E+01  0.51100000000E-03 0.  1.
        -11    1    3    3    0    0  0.97407929205E+01  0.51031826277E+01  0.76009520787E+00  0.11022851928E+02  0.51100000000E-03 0. -1.
         12    1    3    3    0    0  0.16049936646E+02  0.21322257967E+02  0.77724208788E+01  0.27796576723E+02  0.00000000000E+00 0. -1.
</event>
<event>
 7    1  0.2442667E-009  0.4778727E+02  0.7816164E-02  0.1312668E+00
        -11   -1    0    0    0    0  0.00000000000E+00  0.00000000000E+00  0.45593999997E+02  0.45594000000E+02  0.51100000000E-03 0. -1.
         11   -1    0    0    0    0 -0.00000000000E+00 -0.00000000000E+00 -0.45593999997E+02  0.45594000000E+02  0.51100000000E-03 0.  1.
    9900012    2    1    2    0    0  0.17899631919E+01  0.36024721187E+02  0.24137912126E+02  0.47787270667E+02  0.19999998278E+02 0.  0.
        -12    1    1    2    0    0 -0.17899631919E+01 -0.36024721187E+02 -0.24137912126E+02  0.43400729333E+02  0.00000000000E+00 0.  1.
         11    1    3    3    0    0  0.72088606023E+01  0.16559836764E+02  0.44291498422E+01  0.18596054243E+02  0.51100000000E-03 0. -1.
        -11    1    3    3    0    0 -0.46216692565E+00  0.39695952761E+01  0.51373146876E+00  0.40292933880E+01  0.51100000000E-03 0.  1.
         12    1    3    3    0    0 -0.49567304847E+01  0.15495289147E+02  0.19195030815E+02  0.25161923036E+02  0.00000000000E+00 0. -1.
</event>
<event>
 7    1  0.2442667E-009  0.4778727E+02  0.7816164E-02  0.1312668E+00
        -11   -1    0    0    0    0  0.00000000000E+00  0.00000000000E+00  0.45593999997E+02  0.45594000000E+02  0.51100000000E-03 0.  1.
         11   -1    0    0    0    0 -0.00000000000E+00 -0.00000000000E+00 -0.45593999997E+02  0.45594000000E+02  0.51100000000E-03 0. -1.
    9900012    2    1    2    0    0 -0.67426642265E+01  0.40013330017E+02 -0.15397825876E+02  0.47787272568E+02  0.20000006948E+02 0.  0.
        -12    1    1    2    0    0  0.67426642265E+01 -0.40013330017E+02  0.15397825876E+02  0.43400727432E+02  0.00000000000E+00 0.  1.
         11    1    3    3    0    0 -0.87876124104E+01  0.17288593762E+02 -0.83051977405E+01  0.21097249013E+02  0.51100000000E-03 0. -1.
        -11    1    3    3    0    0  0.51646995381E+01  0.18930916604E+02 -0.21806946460E+01  0.19743585140E+02  0.51100000000E-03 0.  1.
         12    1    3    3    0    0 -0.31197513542E+01  0.37938196511E+01 -0.49119334891E+01  0.69464384154E+01  0.00000000000E+00 0. -1.
</event>
<event>
 7    1  0.2442667E-009  0.4778727E+02  0.7816164E-02  0.1312668E+00
        -11   -1    0    0    0    0  0.00000000000E+00  0.00000000000E+00  0.45593999997E+02  0.45594000000E+02  0.51100000000E-03 0.  1.
         11   -1    0    0    0    0 -0.00000000000E+00 -0.00000000000E+00 -0.45593999997E+02  0.45594000000E+02  0.51100000000E-03 0. -1.
    9900012    2    1    2    0    0  0.22865631241E+01  0.55340019124E+00 -0.43336923206E+02  0.47787268029E+02  0.19999986251E+02 0.  0.
        -12    1    1    2    0    0 -0.22865631241E+01 -0.55340019124E+00  0.43336923206E+02  0.43400731971E+02  0.00000000000E+00 0.  1.
         11    1    3    3    0    0  0.22780292690E+00 -0.16366438575E+01 -0.21782518523E+02  0.21845104961E+02  0.51100000000E-03 0. -1.
        -11    1    3    3    0    0 -0.22407526133E+01 -0.25687676178E+01  0.46716212477E-01  0.34090646832E+01  0.51100000000E-03 0.  1.
        -12    1    3    3    0    0  0.42995128106E+01  0.47588116666E+01 -0.21601120895E+02  0.22533098384E+02  0.00000000000E+00 0.  1.
</event>
<event>
 7    1  0.2442667E-009  0.4778727E+02  0.7816164E-02  0.1312668E+00
        -11   -1    0    0    0    0  0.00000000000E+00  0.00000000000E+00  0.45593999997E+02  0.45594000000E+02  0.51100000000E-03 0.  1.
         11   -1    0    0    0    0 -0.00000000000E+00 -0.00000000000E+00 -0.45593999997E+02  0.45594000000E+02  0.51100000000E-03 0. -1.
    9900012    2    1    2    0    0  0.98441745094E+01 -0.31872822960E+02 -0.27763983099E+02  0.47787269906E+02  0.19999994809E+02 0.  0.
        -12    1    1    2    0    0 -0.98441745094E+01  0.31872822960E+02  0.27763983099E+02  0.43400730094E+02  0.00000000000E+00 0.  1.
         11    1    3    3    0    0  0.59865723571E+00 -0.19937386412E+02 -0.10310495423E+02  0.22453598455E+02  0.51100000000E-03 0. -1.
        -11    1    3    3    0    0  0.38702115895E+00  0.92526741651E+00 -0.57023446437E+01  0.57898739077E+01  0.51100000000E-03 0.  1.
        -12    1    3    3    0    0  0.88584961148E+01 -0.12860703964E+02 -0.11751143032E+02  0.19543797543E+02  0.00000000000E+00 0.  1.
</event>
<event>
 7    1  0.2442667E-009  0.4778727E+02  0.7816164E-02  0.1312668E+00
        -11   -1    0    0    0    0  0.00000000000E+00  0.00000000000E+00  0.45593999997E+02  0.45594000000E+02  0.51100000000E-03 0.  1.
         11   -1    0    0    0    0 -0.00000000000E+00 -0.00000000000E+00 -0.45593999997E+02  0.45594000000E+02  0.51100000000E-03 0. -1.
    9900012    2    1    2    0    0 -0.17523038775E+02 -0.25548167809E+02 -0.30395027198E+02  0.47787269077E+02  0.19999991029E+02 0.  0.
        -12    1    1    2    0    0  0.17523038775E+02  0.25548167809E+02  0.30395027198E+02  0.43400730923E+02  0.00000000000E+00 0.  1.
         11    1    3    3    0    0  0.12149571518E+01 -0.10150009639E+02 -0.16713923239E+02  0.19592193519E+02  0.51100000000E-03 0.  1.
        -11    1    3    3    0    0 -0.14110092196E+02 -0.12821491438E+02 -0.88235380593E+01  0.21008097692E+02  0.51100000000E-03 0. -1.
        -12    1    3    3    0    0 -0.46279037302E+01 -0.25766667309E+01 -0.48575658997E+01  0.71869778661E+01  0.00000000000E+00 0.  1.
</event>
<event>
 7    1  0.2442667E-009  0.4778727E+02  0.7816164E-02  0.1312668E+00
        -11   -1    0    0    0    0  0.00000000000E+00  0.00000000000E+00  0.45593999997E+02  0.45594000000E+02  0.51100000000E-03 0. -1.
         11   -1    0    0    0    0 -0.00000000000E+00 -0.00000000000E+00 -0.45593999997E+02  0.45594000000E+02  0.51100000000E-03 0.  1.
    9900012    2    1    2    0    0 -0.28925530353E+02  0.28862316039E+02  0.14625447350E+02  0.47787270703E+02  0.19999998443E+02 0.  0.
        -12    1    1    2    0    0  0.28925530353E+02 -0.28862316039E+02 -0.14625447350E+02  0.43400729297E+02  0.00000000000E+00 0.  1.
         11    1    3    3    0    0 -0.28434457911E+02  0.31395859677E+02  0.12652326113E+02  0.44207462694E+02  0.51100000000E-03 0. -1.
        -11    1    3    3    0    0 -0.48815015193E+00 -0.10989518728E+01  0.17569005662E+01  0.21290104862E+01  0.51100000000E-03 0.  1.
         12    1    3    3    0    0 -0.29222898362E-02 -0.14345917652E+01  0.21622067092E+00  0.14507975225E+01  0.00000000000E+00 0. -1.
</event>
<event>
 7    1  0.2442667E-009  0.4778733E+02  0.7816164E-02  0.1312667E+00
        -11   -1    0    0    0    0  0.00000000000E+00  0.00000000000E+00  0.45593999997E+02  0.45594000000E+02  0.51100000000E-03 0. -1.
         11   -1    0    0    0    0 -0.00000000000E+00 -0.00000000000E+00 -0.45593999997E+02  0.45594000000E+02  0.51100000000E-03 0.  1.
    9900012    2    1    2    0    0 -0.31473219061E+02 -0.29419873038E+02  0.52464805419E+01  0.47787331736E+02  0.20000276716E+02 0.  0.
        -12    1    1    2    0    0  0.31473219061E+02  0.29419873038E+02 -0.52464805419E+01  0.43400668264E+02  0.00000000000E+00 0.  1.
         11    1    3    3    0    0 -0.18105792078E+02 -0.26240634412E+02  0.35910109184E+00  0.31882903804E+02  0.51100000000E-03 0. -1.
        -11    1    3    3    0    0 -0.19603752194E+01  0.64782247480E-01  0.34362001904E+01  0.39566071008E+01  0.51100000000E-03 0.  1.
         12    1    3    3    0    0 -0.11407051764E+02 -0.32440208735E+01  0.14511792597E+01  0.11947820831E+02  0.00000000000E+00 0. -1.
</event>
<event>
 7    1  0.2442667E-009  0.4778727E+02  0.7816164E-02  0.1312668E+00
        -11   -1    0    0    0    0  0.00000000000E+00  0.00000000000E+00  0.45593999997E+02  0.45594000000E+02  0.51100000000E-03 0.  1.
         11   -1    0    0    0    0 -0.00000000000E+00 -0.00000000000E+00 -0.45593999997E+02  0.45594000000E+02  0.51100000000E-03 0. -1.
    9900012    2    1    2    0    0  0.37064095092E+02 -0.23834541115E+01 -0.22454294367E+02  0.47787270352E+02  0.19999996842E+02 0.  0.
        -12    1    1    2    0    0 -0.37064095092E+02  0.23834541115E+01  0.22454294367E+02  0.43400729648E+02  0.00000000000E+00 0.  1.
         11    1    3    3    0    0  0.34585585528E+02 -0.31952762772E+01 -0.13425210613E+02  0.37237196418E+02  0.51100000000E-03 0. -1.
        -11    1    3    3    0    0  0.33508439638E+01  0.37453263589E+00 -0.89581805908E+01  0.95716994167E+01  0.51100000000E-03 0.  1.
         12    1    3    3    0    0 -0.87233439979E+00  0.43728952988E+00 -0.70903163423E-01  0.97837451754E+00  0.00000000000E+00 0. -1.
</event>
<event>
 7    1  0.2442667E-009  0.4778728E+02  0.7816164E-02  0.1312668E+00
        -11   -1    0    0    0    0  0.00000000000E+00  0.00000000000E+00  0.45593999997E+02  0.45594000000E+02  0.51100000000E-03 0.  1.
         11   -1    0    0    0    0 -0.00000000000E+00 -0.00000000000E+00 -0.45593999997E+02  0.45594000000E+02  0.51100000000E-03 0. -1.
    9900012    2    1    2    0    0 -0.85515533420E+01 -0.12543998782E+02 -0.40658841622E+02  0.47787281434E+02  0.20000047370E+02 0.  0.
        -12    1    1    2    0    0  0.85515533420E+01  0.12543998782E+02  0.40658841622E+02  0.43400718566E+02  0.00000000000E+00 0.  1.
         11    1    3    3    0    0  0.12256681193E+01 -0.56479879962E+00 -0.84283992915E+01  0.85357586014E+01  0.51100000000E-03 0. -1.
        -11    1    3    3    0    0 -0.10533142528E+02 -0.56503357977E+01 -0.30330068729E+02  0.32600405757E+02  0.51100000000E-03 0.  1.
        -12    1    3    3    0    0  0.75592106684E+00 -0.63288641851E+01 -0.19003736015E+01  0.66511170759E+01  0.00000000000E+00 0.  1.
</event>
<event>
 7    1  0.2442667E-009  0.4778727E+02  0.7816164E-02  0.1312668E+00
        -11   -1    0    0    0    0  0.00000000000E+00  0.00000000000E+00  0.45593999997E+02  0.45594000000E+02  0.51100000000E-03 0.  1.
         11   -1    0    0    0    0 -0.00000000000E+00 -0.00000000000E+00 -0.45593999997E+02  0.45594000000E+02  0.51100000000E-03 0. -1.
    9900012    2    1    2    0    0  0.40978223008E+02  0.51567525386E+01 -0.13334784750E+02  0.47787270260E+02  0.19999996421E+02 0.  0.
        -12    1    1    2    0    0 -0.40978223008E+02 -0.51567525386E+01  0.13334784750E+02  0.43400729740E+02  0.00000000000E+00 0.  1.
         11    1    3    3    0    0  0.53721244383E+01  0.32039266213E+01  0.33315818332E+01  0.70869107902E+01  0.51100000000E-03 0. -1.
        -11    1    3    3    0    0  0.18518629506E+02 -0.78960756403E-01 -0.14157630229E+02  0.23310606331E+02  0.51100000000E-03 0.  1.
        -12    1    3    3    0    0  0.17087469064E+02  0.20317866737E+01 -0.25087363548E+01  0.17389753138E+02  0.00000000000E+00 0.  1.
</event>
<event>
 7    1  0.2442667E-009  0.4778727E+02  0.7816164E-02  0.1312668E+00
        -11   -1    0    0    0    0  0.00000000000E+00  0.00000000000E+00  0.45593999997E+02  0.45594000000E+02  0.51100000000E-03 0. -1.
         11   -1    0    0    0    0 -0.00000000000E+00 -0.00000000000E+00 -0.45593999997E+02  0.45594000000E+02  0.51100000000E-03 0.  1.
    9900012    2    1    2    0    0 -0.22815043343E+02 -0.10498781445E+02  0.35395944112E+02  0.47787268737E+02  0.19999989479E+02 0.  0.
        -12    1    1    2    0    0  0.22815043343E+02  0.10498781445E+02 -0.35395944112E+02  0.43400731263E+02  0.00000000000E+00 0.  1.
         11    1    3    3    0    0 -0.21064238370E+02 -0.11982155302E+02  0.28849968199E+02  0.37677511185E+02  0.51100000000E-03 0. -1.
        -11    1    3    3    0    0 -0.44854282090E+01 -0.73672872600E-01  0.45132799178E+01  0.63635045209E+01  0.51100000000E-03 0.  1.
         12    1    3    3    0    0  0.27346232357E+01  0.15570467296E+01  0.20326959959E+01  0.37462530308E+01  0.00000000000E+00 0. -1.
</event>
<event>
 7    1  0.2442667E-009  0.4778727E+02  0.7816164E-02  0.1312668E+00
        -11   -1    0    0    0    0  0.00000000000E+00  0.00000000000E+00  0.45593999997E+02  0.45594000000E+02  0.51100000000E-03 0.  1.
         11   -1    0    0    0    0 -0.00000000000E+00 -0.00000000000E+00 -0.45593999997E+02  0.45594000000E+02  0.51100000000E-03 0. -1.
    9900012    2    1    2    0    0  0.53200345203E+01 -0.20859460593E+02 -0.37685583973E+02  0.47787273014E+02  0.20000008981E+02 0.  0.
        -12    1    1    2    0    0 -0.53200345203E+01  0.20859460593E+02  0.37685583973E+02  0.43400726986E+02  0.00000000000E+00 0.  1.
         11    1    3    3    0    0 -0.18274811086E+01  0.86069741323E+00  0.38976556262E-02  0.20200254187E+01  0.51100000000E-03 0. -1.
        -11    1    3    3    0    0  0.86902810525E+01 -0.21322180980E+02 -0.29488543819E+02  0.37412973730E+02  0.51100000000E-03 0.  1.
        -12    1    3    3    0    0 -0.15427654236E+01 -0.39797702649E+00 -0.82009378094E+01  0.83542738655E+01  0.00000000000E+00 0.  1.
</event>
<event>
 7    1  0.2442667E-009  0.4778727E+02  0.7816164E-02  0.1312668E+00
        -11   -1    0    0    0    0  0.00000000000E+00  0.00000000000E+00  0.45593999997E+02  0.45594000000E+02  0.51100000000E-03 0.  1.
         11   -1    0    0    0    0 -0.00000000000E+00 -0.00000000000E+00 -0.45593999997E+02  0.45594000000E+02  0.51100000000E-03 0. -1.
    9900012    2    1    2    0    0 -0.22099466686E+02  0.34824578619E+02 -0.13508718716E+02  0.47787272067E+02  0.20000004663E+02 0.  0.
        -12    1    1    2    0    0  0.22099466686E+02 -0.34824578619E+02  0.13508718716E+02  0.43400727933E+02  0.00000000000E+00 0.  1.
         11    1    3    3    0    0 -0.23468800876E+02  0.28026576324E+02 -0.84193629263E+01  0.37512121606E+02  0.51100000000E-03 0. -1.
        -11    1    3    3    0    0  0.26718789419E+01  0.68902370045E+01 -0.33861451802E+01  0.81289779494E+01  0.51100000000E-03 0.  1.
        -12    1    3    3    0    0 -0.13025447520E+01 -0.92234710472E-01 -0.17032106091E+01  0.21461725121E+01  0.00000000000E+00 0.  1.
</event>
<event>
 7    1  0.2442667E-009  0.4778726E+02  0.7816164E-02  0.1312668E+00
        -11   -1    0    0    0    0  0.00000000000E+00  0.00000000000E+00  0.45593999997E+02  0.45594000000E+02  0.51100000000E-03 0.  1.
         11   -1    0    0    0    0 -0.00000000000E+00 -0.00000000000E+00 -0.45593999997E+02  0.45594000000E+02  0.51100000000E-03 0. -1.
    9900012    2    1    2    0    0 -0.21805210679E+02 -0.37514303949E+02 -0.91335200491E+00  0.47787257778E+02  0.19999939514E+02 0.  0.
        -12    1    1    2    0    0  0.21805210679E+02  0.37514303949E+02  0.91335200491E+00  0.43400742222E+02  0.00000000000E+00 0.  1.
         11    1    3    3    0    0 -0.96144773030E+01 -0.24949164154E+02 -0.35105430448E+01  0.26967070263E+02  0.51100000000E-03 0. -1.
        -11    1    3    3    0    0 -0.23011459474E+01 -0.77777647078E+01 -0.27974326021E+01  0.85798907887E+01  0.51100000000E-03 0.  1.
         12    1    3    3    0    0 -0.98895874286E+01 -0.47873750864E+01  0.53946236420E+01  0.12240296727E+02  0.00000000000E+00 0. -1.
</event>
<event>
 7    1  0.2442667E-009  0.4778727E+02  0.7816164E-02  0.1312668E+00
        -11   -1    0    0    0    0  0.00000000000E+00  0.00000000000E+00  0.45593999997E+02  0.45594000000E+02  0.51100000000E-03 0.  1.
         11   -1    0    0    0    0 -0.00000000000E+00 -0.00000000000E+00 -0.45593999997E+02  0.45594000000E+02  0.51100000000E-03 0. -1.
    9900012    2    1    2    0    0 -0.48376915080E+00  0.60387513851E+01 -0.42975836420E+02  0.47787273429E+02  0.20000010873E+02 0.  0.
        -12    1    1    2    0    0  0.48376915080E+00 -0.60387513851E+01  0.42975836420E+02  0.43400726571E+02  0.00000000000E+00 0.  1.
         11    1    3    3    0    0  0.26416974119E+01  0.71934251657E+01 -0.12449085868E+02  0.14618606980E+02  0.51100000000E-03 0. -1.
        -11    1    3    3    0    0 -0.41042781820E+01 -0.44002548127E+01 -0.63225659661E+01  0.87282405139E+01  0.51100000000E-03 0.  1.
        -12    1    3    3    0    0  0.97881161921E+00  0.32455810321E+01 -0.24204184586E+02  0.24440425935E+02  0.00000000000E+00 0.  1.
</event>
<event>
 7    1  0.2442667E-009  0.4778726E+02  0.7816164E-02  0.1312668E+00
        -11   -1    0    0    0    0  0.00000000000E+00  0.00000000000E+00  0.45593999997E+02  0.45594000000E+02  0.51100000000E-03 0.  1.
         11   -1    0    0    0    0 -0.00000000000E+00 -0.00000000000E+00 -0.45593999997E+02  0.45594000000E+02  0.51100000000E-03 0. -1.
    9900012    2    1    2    0    0 -0.73886206469E-01 -0.31831876194E+02 -0.29501697494E+02  0.47787263184E+02  0.19999964160E+02 0.  0.
        -12    1    1    2    0    0  0.73886206469E-01  0.31831876194E+02  0.29501697494E+02  0.43400736816E+02  0.00000000000E+00 0.  1.
         11    1    3    3    0    0  0.11183867616E+01 -0.11017144644E+02 -0.15891466754E+02  0.19369227680E+02  0.51100000000E-03 0. -1.
        -11    1    3    3    0    0 -0.79296720093E+00 -0.15944471444E+02 -0.23409584946E+01  0.16134901721E+02  0.51100000000E-03 0.  1.
        -12    1    3    3    0    0 -0.39930576713E+00 -0.48702601056E+01 -0.11269272245E+02  0.12283133783E+02  0.00000000000E+00 0.  1.
</event>
<event>
 7    1  0.2442667E-009  0.4778728E+02  0.7816164E-02  0.1312668E+00
        -11   -1    0    0    0    0  0.00000000000E+00  0.00000000000E+00  0.45593999997E+02  0.45594000000E+02  0.51100000000E-03 0. -1.
         11   -1    0    0    0    0 -0.00000000000E+00 -0.00000000000E+00 -0.45593999997E+02  0.45594000000E+02  0.51100000000E-03 0.  1.
    9900012    2    1    2    0    0 -0.37779554331E+02  0.63670501720E+01  0.20390885528E+02  0.47787282656E+02  0.20000052943E+02 0.  0.
        -12    1    1    2    0    0  0.37779554331E+02 -0.63670501720E+01 -0.20390885528E+02  0.43400717344E+02  0.00000000000E+00 0.  1.
         11    1    3    3    0    0 -0.36586000450E+01  0.65322275167E+01  0.67689971640E+01  0.10093298444E+02  0.51100000000E-03 0. -1.
        -11    1    3    3    0    0 -0.16650680820E+02 -0.70721521162E+00  0.21904853148E+01  0.16809031837E+02  0.51100000000E-03 0.  1.
         12    1    3    3    0    0 -0.17470273466E+02  0.54203786691E+00  0.11431403050E+02  0.20884952375E+02  0.00000000000E+00 0. -1.
</event>
<event>
 7    1  0.2442667E-009  0.4778727E+02  0.7816164E-02  0.1312668E+00
        -11   -1    0    0    0    0  0.00000000000E+00  0.00000000000E+00  0.45593999997E+02  0.45594000000E+02  0.51100000000E-03 0.  1.
         11   -1    0    0    0    0 -0.00000000000E+00 -0.00000000000E+00 -0.45593999997E+02  0.45594000000E+02  0.51100000000E-03 0. -1.
    9900012    2    1    2    0    0 -0.41949209630E+02  0.35274227368E+01  0.10556736158E+02  0.47787267540E+02  0.19999984023E+02 0.  0.
        -12    1    1    2    0    0  0.41949209630E+02 -0.35274227368E+01 -0.10556736158E+02  0.43400732460E+02  0.00000000000E+00 0.  1.
         11    1    3    3    0    0 -0.27884301770E+02  0.79056121517E+01  0.94678801236E+01  0.30490551700E+02  0.51100000000E-03 0. -1.
        -11    1    3    3    0    0 -0.22286036740E+01 -0.48690025703E+01  0.10142446844E+01  0.54500048537E+01  0.51100000000E-03 0.  1.
         12    1    3    3    0    0 -0.11836304186E+02  0.49081315533E+00  0.74611349892E-01  0.11846710986E+02  0.00000000000E+00 0. -1.
</event>
<event>
 7    1  0.2442667E-009  0.4778726E+02  0.7816164E-02  0.1312668E+00
        -11   -1    0    0    0    0  0.00000000000E+00  0.00000000000E+00  0.45593999997E+02  0.45594000000E+02  0.51100000000E-03 0. -1.
         11   -1    0    0    0    0 -0.00000000000E+00 -0.00000000000E+00 -0.45593999997E+02  0.45594000000E+02  0.51100000000E-03 0.  1.
    9900012    2    1    2    0    0  0.16834775131E+02  0.20953998444E+02 -0.34075569952E+02  0.47787260697E+02  0.19999952821E+02 0.  0.
        -12    1    1    2    0    0 -0.16834775131E+02 -0.20953998444E+02  0.34075569952E+02  0.43400739303E+02  0.00000000000E+00 0.  1.
         11    1    3    3    0    0  0.12472803489E+02  0.20370645445E+02 -0.15019775904E+02  0.28215734816E+02  0.51100000000E-03 0. -1.
        -11    1    3    3    0    0  0.34656900230E+01  0.26205614454E+00 -0.15889430339E+02  0.16265106133E+02  0.51100000000E-03 0.  1.
         12    1    3    3    0    0  0.89628161811E+00  0.32129685396E+00 -0.31663637095E+01  0.33064197478E+01  0.00000000000E+00 0. -1.
</event>
<event>
 7    1  0.2442667E-009  0.4778727E+02  0.7816164E-02  0.1312668E+00
        -11   -1    0    0    0    0  0.00000000000E+00  0.00000000000E+00  0.45593999997E+02  0.45594000000E+02  0.51100000000E-03 0. -1.
         11   -1    0    0    0    0 -0.00000000000E+00 -0.00000000000E+00 -0.45593999997E+02  0.45594000000E+02  0.51100000000E-03 0.  1.
    9900012    2    1    2    0    0 -0.13362151171E+02  0.27944856831E+02 -0.30400021854E+02  0.47787269177E+02  0.19999991488E+02 0.  0.
        -12    1    1    2    0    0  0.13362151171E+02 -0.27944856831E+02  0.30400021854E+02  0.43400730823E+02  0.00000000000E+00 0.  1.
         11    1    3    3    0    0  0.24467630210E+01  0.95210397575E+01 -0.42730353253E+01  0.10718940176E+02  0.51100000000E-03 0. -1.
        -11    1    3    3    0    0 -0.88442664897E+01  0.34141959569E+01 -0.12131675994E+02  0.15396601783E+02  0.51100000000E-03 0.  1.
        -12    1    3    3    0    0 -0.69646477021E+01  0.15009621116E+02 -0.13995310535E+02  0.21671727219E+02  0.00000000000E+00 0.  1.
</event>
<event>
 7    1  0.2442667E-009  0.4778727E+02  0.7816164E-02  0.1312668E+00
        -11   -1    0    0    0    0  0.00000000000E+00  0.00000000000E+00  0.45593999997E+02  0.45594000000E+02  0.51100000000E-03 0. -1.
         11   -1    0    0    0    0 -0.00000000000E+00 -0.00000000000E+00 -0.45593999997E+02  0.45594000000E+02  0.51100000000E-03 0.  1.
    9900012    2    1    2    0    0  0.10365759949E+02 -0.37009380885E+02  0.20161350551E+02  0.47787270642E+02  0.19999998164E+02 0.  0.
        -12    1    1    2    0    0 -0.10365759949E+02  0.37009380885E+02 -0.20161350551E+02  0.43400729358E+02  0.00000000000E+00 0.  1.
         11    1    3    3    0    0  0.97397560268E+01 -0.35533496691E+02  0.20800238366E+02  0.42310071506E+02  0.51100000000E-03 0. -1.
        -11    1    3    3    0    0 -0.71616651253E+00  0.12624527439E+01  0.12282864608E+01  0.19014124474E+01  0.51100000000E-03 0.  1.
         12    1    3    3    0    0  0.13421704352E+01 -0.27383369380E+01 -0.18671742756E+01  0.35757866881E+01  0.00000000000E+00 0. -1.
</event>
<event>
 7    1  0.2442667E-009  0.4778727E+02  0.7816164E-02  0.1312668E+00
        -11   -1    0    0    0    0  0.00000000000E+00  0.00000000000E+00  0.45593999997E+02  0.45594000000E+02  0.51100000000E-03 0. -1.
         11   -1    0    0    0    0 -0.00000000000E+00 -0.00000000000E+00 -0.45593999997E+02  0.45594000000E+02  0.51100000000E-03 0.  1.
    9900012    2    1    2    0    0 -0.17545970152E+02 -0.24806306645E+02  0.30990477188E+02  0.47787267353E+02  0.19999983171E+02 0.  0.
        -12    1    1    2    0    0  0.17545970152E+02  0.24806306645E+02 -0.30990477188E+02  0.43400732647E+02  0.00000000000E+00 0.  1.
         11    1    3    3    0    0 -0.18711334799E+02 -0.17982750937E+02  0.27183059247E+02  0.37582071410E+02  0.51100000000E-03 0. -1.
        -11    1    3    3    0    0  0.31059904068E+01 -0.48029310360E+01  0.45478426567E+01  0.73074069297E+01  0.51100000000E-03 0.  1.
        -12    1    3    3    0    0 -0.19406257600E+01 -0.20206246719E+01 -0.74042471588E+00  0.28977890132E+01  0.00000000000E+00 0.  1.
</event>
<event>
 7    1  0.2442667E-009  0.4778727E+02  0.7816164E-02  0.1312668E+00
        -11   -1    0    0    0    0  0.00000000000E+00  0.00000000000E+00  0.45593999997E+02  0.45594000000E+02  0.51100000000E-03 0. -1.
         11   -1    0    0    0    0 -0.00000000000E+00 -0.00000000000E+00 -0.45593999997E+02  0.45594000000E+02  0.51100000000E-03 0.  1.
    9900012    2    1    2    0    0 -0.33260386907E+01 -0.38621197752E+02  0.19518297724E+02  0.47787269647E+02  0.19999993627E+02 0.  0.
        -12    1    1    2    0    0  0.33260386907E+01  0.38621197752E+02 -0.19518297724E+02  0.43400730353E+02  0.00000000000E+00 0.  1.
         11    1    3    3    0    0 -0.37110989353E+01 -0.96839373088E+01  0.68479987312E+01  0.12427629862E+02  0.51100000000E-03 0. -1.
        -11    1    3    3    0    0  0.70291265425E+00 -0.24834919659E+02  0.16429903167E+02  0.29786054438E+02  0.51100000000E-03 0.  1.
        -12    1    3    3    0    0 -0.31785240971E+00 -0.41023407842E+01 -0.37596041742E+01  0.55735853462E+01  0.00000000000E+00 0.  1.
</event>
<event>
 7    1  0.2442667E-009  0.4778729E+02  0.7816164E-02  0.1312668E+00
        -11   -1    0    0    0    0  0.00000000000E+00  0.00000000000E+00  0.45593999997E+02  0.45594000000E+02  0.51100000000E-03 0.  1.
         11   -1    0    0    0    0 -0.00000000000E+00 -0.00000000000E+00 -0.45593999997E+02  0.45594000000E+02  0.51100000000E-03 0. -1.
    9900012    2    1    2    0    0 -0.13562800631E+01  0.84600689584E+01 -0.42546553882E+02  0.47787291370E+02  0.20000092672E+02 0.  0.
        -12    1    1    2    0    0  0.13562800631E+01 -0.84600689584E+01  0.42546553882E+02  0.43400708630E+02  0.00000000000E+00 0.  1.
         11    1    3    3    0    0 -0.10573795831E+01  0.25221912602E+01 -0.32319593354E+02  0.32435098507E+02  0.51100000000E-03 0. -1.
        -11    1    3    3    0    0 -0.34205971981E+01  0.72658737779E+01 -0.76586467055E+01  0.11097219317E+02  0.51100000000E-03 0.  1.
        -12    1    3    3    0    0  0.31216967181E+01 -0.13279960797E+01 -0.25683138225E+01  0.42549735461E+01  0.00000000000E+00 0.  1.
</event>
<event>
 7    1  0.2442667E-009  0.4778725E+02  0.7816164E-02  0.1312668E+00
        -11   -1    0    0    0    0  0.00000000000E+00  0.00000000000E+00  0.45593999997E+02  0.45594000000E+02  0.51100000000E-03 0.  1.
         11   -1    0    0    0    0 -0.00000000000E+00 -0.00000000000E+00 -0.45593999997E+02  0.45594000000E+02  0.51100000000E-03 0. -1.
    9900012    2    1    2    0    0 -0.38818508319E+02 -0.30899784306E+01 -0.19162474495E+02  0.47787251347E+02  0.19999910193E+02 0.  0.
        -12    1    1    2    0    0  0.38818508319E+02  0.30899784306E+01  0.19162474495E+02  0.43400748653E+02  0.00000000000E+00 0.  1.
         11    1    3    3    0    0 -0.18417595574E+02 -0.32999021753E+01  0.62345875911E+00  0.18721268178E+02  0.51100000000E-03 0. -1.
        -11    1    3    3    0    0 -0.10296398128E+02  0.24555261924E+01 -0.12645439323E+02  0.16490984180E+02  0.51100000000E-03 0.  1.
         12    1    3    3    0    0 -0.10104514616E+02 -0.22456024478E+01 -0.71404939313E+01  0.12574998989E+02  0.00000000000E+00 0. -1.
</event>
<event>
 7    1  0.2442667E-009  0.4778727E+02  0.7816164E-02  0.1312668E+00
        -11   -1    0    0    0    0  0.00000000000E+00  0.00000000000E+00  0.45593999997E+02  0.45594000000E+02  0.51100000000E-03 0.  1.
         11   -1    0    0    0    0 -0.00000000000E+00 -0.00000000000E+00 -0.45593999997E+02  0.45594000000E+02  0.51100000000E-03 0. -1.
    9900012    2    1    2    0    0 -0.42096685460E+02  0.32820488488E+01  0.10035961146E+02  0.47787270887E+02  0.19999999284E+02 0.  0.
        -12    1    1    2    0    0  0.42096685460E+02 -0.32820488488E+01 -0.10035961146E+02  0.43400729113E+02  0.00000000000E+00 0.  1.
         11    1    3    3    0    0 -0.11290538341E+02  0.24612608565E+01  0.21253200262E+01  0.11749512607E+02  0.51100000000E-03 0. -1.
        -11    1    3    3    0    0 -0.24021475829E+02  0.12639408076E+01  0.13186333483E+02  0.27431883610E+02  0.51100000000E-03 0.  1.
        -12    1    3    3    0    0 -0.67846712901E+01 -0.44315281533E+00 -0.52756923633E+01  0.86058746705E+01  0.00000000000E+00 0.  1.
</event>
