<event>
 7    1  0.1920603E-013  0.7246154E+02  0.7816164E-02  0.1226708E+00
        -11   -1    0    0    0    0  0.00000000000E+00  0.00000000000E+00  0.45593999997E+02  0.45594000000E+02  0.51100000000E-03 0.  1.
         11   -1    0    0    0    0 -0.00000000000E+00 -0.00000000000E+00 -0.45593999997E+02  0.45594000000E+02  0.51100000000E-03 0. -1.
    9900012    2    1    2    0    0 -0.56850552141E+00 -0.71674911150E+01 -0.17291163901E+02  0.72461535399E+02  0.69999954542E+02 0.  0.
        -12    1    1    2    0    0  0.56850552141E+00  0.71674911150E+01  0.17291163901E+02  0.18726464601E+02  0.00000000000E+00 0.  1.
         11    1    3    3    0    0  0.12683883585E+02 -0.30383400532E+02 -0.19007599955E+01  0.32979460570E+02  0.51100000000E-03 0. -1.
        -11    1    3    3    0    0 -0.13395680617E+02  0.14926787143E+02  0.20607112366E+01  0.20161839317E+02  0.51100000000E-03 0.  1.
        -12    1    3    3    0    0  0.14329151069E+00  0.82891222738E+01 -0.17451115142E+02  0.19320235511E+02  0.00000000000E+00 0.  1.
</event>
<event>
 7    1  0.1920603E-013  0.7246157E+02  0.7816164E-02  0.1226708E+00
        -11   -1    0    0    0    0  0.00000000000E+00  0.00000000000E+00  0.45593999997E+02  0.45594000000E+02  0.51100000000E-03 0. -1.
         11   -1    0    0    0    0 -0.00000000000E+00 -0.00000000000E+00 -0.45593999997E+02  0.45594000000E+02  0.51100000000E-03 0.  1.
    9900012    2    1    2    0    0  0.14438530546E+02 -0.11774999335E+02  0.18861074374E+01  0.72461570150E+02  0.69999999812E+02 0.  0.
        -12    1    1    2    0    0 -0.14438530546E+02  0.11774999335E+02 -0.18861074374E+01  0.18726429850E+02  0.00000000000E+00 0.  1.
         11    1    3    3    0    0 -0.16492008529E+02  0.37927979727E+01  0.15011262169E+02  0.22621000287E+02  0.51100000000E-03 0. -1.
        -11    1    3    3    0    0 -0.25416332158E+01 -0.63080120521E+01 -0.13492164204E+02  0.15109249174E+02  0.51100000000E-03 0.  1.
         12    1    3    3    0    0  0.33472172291E+02 -0.92597852551E+01  0.36700947160E+00  0.34731320689E+02  0.00000000000E+00 0. -1.
</event>
<event>
 7    1  0.1920603E-013  0.7246129E+02  0.7816164E-02  0.1226709E+00
        -11   -1    0    0    0    0  0.00000000000E+00  0.00000000000E+00  0.45593999997E+02  0.45594000000E+02  0.51100000000E-03 0. -1.
         11   -1    0    0    0    0 -0.00000000000E+00 -0.00000000000E+00 -0.45593999997E+02  0.45594000000E+02  0.51100000000E-03 0.  1.
    9900012    2    1    2    0    0 -0.21119897548E+01  0.18538014159E+02 -0.16034502114E+01  0.72461293876E+02  0.69999639913E+02 0.  0.
        -12    1    1    2    0    0  0.21119897548E+01 -0.18538014159E+02  0.16034502114E+01  0.18726706124E+02  0.00000000000E+00 0.  1.
         11    1    3    3    0    0 -0.16090821861E+02  0.22552914338E+02  0.23319628744E+02  0.36212616286E+02  0.51100000000E-03 0. -1.
        -11    1    3    3    0    0  0.70025221090E+01 -0.21424637533E+01 -0.27592709335E+02  0.28547908427E+02  0.51100000000E-03 0.  1.
        -12    1    3    3    0    0  0.69763099969E+01 -0.18724364258E+01  0.26696303800E+01  0.77007691633E+01  0.00000000000E+00 0.  1.
</event>
<event>
 7    1  0.1920603E-013  0.7246163E+02  0.7816164E-02  0.1226708E+00
        -11   -1    0    0    0    0  0.00000000000E+00  0.00000000000E+00  0.45593999997E+02  0.45594000000E+02  0.51100000000E-03 0.  1.
         11   -1    0    0    0    0 -0.00000000000E+00 -0.00000000000E+00 -0.45593999997E+02  0.45594000000E+02  0.51100000000E-03 0. -1.
    9900012    2    1    2    0    0 -0.14026309007E+02  0.60313314645E+01 -0.10842638811E+02  0.72461625018E+02  0.70000071288E+02 0.  0.
        -12    1    1    2    0    0  0.14026309007E+02 -0.60313314645E+01  0.10842638811E+02  0.18726374982E+02  0.00000000000E+00 0.  1.
         11    1    3    3    0    0 -0.21024487849E+02  0.21672648892E+02 -0.20919939013E+01  0.30267296511E+02  0.51100000000E-03 0. -1.
        -11    1    3    3    0    0 -0.25332884281E+01 -0.24269459088E+02  0.32381365976E+01  0.24615233568E+02  0.51100000000E-03 0.  1.
         12    1    3    3    0    0  0.95314672708E+01  0.86281416607E+01 -0.11988781507E+02  0.17579094939E+02  0.00000000000E+00 0. -1.
</event>
<event>
 7    1  0.1920603E-013  0.7246158E+02  0.7816164E-02  0.1226708E+00
        -11   -1    0    0    0    0  0.00000000000E+00  0.00000000000E+00  0.45593999997E+02  0.45594000000E+02  0.51100000000E-03 0. -1.
         11   -1    0    0    0    0 -0.00000000000E+00 -0.00000000000E+00 -0.45593999997E+02  0.45594000000E+02  0.51100000000E-03 0.  1.
    9900012    2    1    2    0    0  0.71610071394E+01  0.98332890190E+01  0.14237452267E+02  0.72461584346E+02  0.70000018305E+02 0.  0.
        -12    1    1    2    0    0 -0.71610071394E+01 -0.98332890190E+01 -0.14237452267E+02  0.18726415654E+02  0.00000000000E+00 0.  1.
         11    1    3    3    0    0  0.29370385677E+01  0.35766234192E+02  0.17045831073E+02  0.39729209167E+02  0.51100000000E-03 0. -1.
        -11    1    3    3    0    0  0.96411312270E+01 -0.20634272374E+02  0.32816694270E+01  0.23010735804E+02  0.51100000000E-03 0.  1.
        -12    1    3    3    0    0 -0.54171626553E+01 -0.52986727991E+01 -0.60900482323E+01  0.97216393750E+01  0.00000000000E+00 0.  1.
</event>
<event>
 7    1  0.1920603E-013  0.7246162E+02  0.7816164E-02  0.1226708E+00
        -11   -1    0    0    0    0  0.00000000000E+00  0.00000000000E+00  0.45593999997E+02  0.45594000000E+02  0.51100000000E-03 0. -1.
         11   -1    0    0    0    0 -0.00000000000E+00 -0.00000000000E+00 -0.45593999997E+02  0.45594000000E+02  0.51100000000E-03 0.  1.
    9900012    2    1    2    0    0 -0.13515308609E+01 -0.11579647036E+02  0.14654773238E+02  0.72461621819E+02  0.70000067120E+02 0.  0.
        -12    1    1    2    0    0  0.13515308609E+01  0.11579647036E+02 -0.14654773238E+02  0.18726378181E+02  0.00000000000E+00 0.  1.
         11    1    3    3    0    0  0.10540895714E+02 -0.14022124550E+02  0.68698309478E+01  0.18839454261E+02  0.51100000000E-03 0. -1.
        -11    1    3    3    0    0 -0.22140417889E+02 -0.33450482116E+01  0.24492542065E+02  0.33185419523E+02  0.51100000000E-03 0.  1.
        -12    1    3    3    0    0  0.10247991313E+02  0.57875257260E+01 -0.16707599775E+02  0.20436748035E+02  0.00000000000E+00 0.  1.
</event>
<event>
 7    1  0.1920603E-013  0.7246156E+02  0.7816164E-02  0.1226708E+00
        -11   -1    0    0    0    0  0.00000000000E+00  0.00000000000E+00  0.45593999997E+02  0.45594000000E+02  0.51100000000E-03 0.  1.
         11   -1    0    0    0    0 -0.00000000000E+00 -0.00000000000E+00 -0.45593999997E+02  0.45594000000E+02  0.51100000000E-03 0. -1.
    9900012    2    1    2    0    0  0.57259720249E+01 -0.31553838408E+01 -0.17548116749E+02  0.72461558687E+02  0.69999984879E+02 0.  0.
        -12    1    1    2    0    0 -0.57259720249E+01  0.31553838408E+01  0.17548116749E+02  0.18726441313E+02  0.00000000000E+00 0.  1.
         11    1    3    3    0    0  0.99016028056E+01 -0.20355252144E+02 -0.21411854695E+02  0.31158394530E+02  0.51100000000E-03 0. -1.
        -11    1    3    3    0    0 -0.97177969072E+01  0.19983672003E+02  0.16197373838E+02  0.27497957069E+02  0.51100000000E-03 0.  1.
        -12    1    3    3    0    0  0.55421661264E+01 -0.27838037003E+01 -0.12333635892E+02  0.13805207087E+02  0.00000000000E+00 0.  1.
</event>
<event>
 7    1  0.1920603E-013  0.7246161E+02  0.7816164E-02  0.1226708E+00
        -11   -1    0    0    0    0  0.00000000000E+00  0.00000000000E+00  0.45593999997E+02  0.45594000000E+02  0.51100000000E-03 0.  1.
         11   -1    0    0    0    0 -0.00000000000E+00 -0.00000000000E+00 -0.45593999997E+02  0.45594000000E+02  0.51100000000E-03 0. -1.
    9900012    2    1    2    0    0 -0.91257942938E+01 -0.15265911373E+02 -0.58608589881E+01  0.72461605803E+02  0.70000046257E+02 0.  0.
        -12    1    1    2    0    0  0.91257942938E+01  0.15265911373E+02  0.58608589881E+01  0.18726394197E+02  0.00000000000E+00 0.  1.
         11    1    3    3    0    0 -0.25008361171E+02  0.41467037086E+01 -0.24305101346E+02  0.35119100669E+02  0.51100000000E-03 0. -1.
        -11    1    3    3    0    0  0.10763106808E+02  0.15283536697E+01  0.53069080936E+01  0.12097256172E+02  0.51100000000E-03 0.  1.
         12    1    3    3    0    0  0.51194600691E+01 -0.20940968751E+02  0.13137334264E+02  0.25245248963E+02  0.00000000000E+00 0. -1.
</event>
<event>
 7    1  0.1920603E-013  0.7246155E+02  0.7816164E-02  0.1226708E+00
        -11   -1    0    0    0    0  0.00000000000E+00  0.00000000000E+00  0.45593999997E+02  0.45594000000E+02  0.51100000000E-03 0.  1.
         11   -1    0    0    0    0 -0.00000000000E+00 -0.00000000000E+00 -0.45593999997E+02  0.45594000000E+02  0.51100000000E-03 0. -1.
    9900012    2    1    2    0    0 -0.15992176594E+02  0.92746463767E+01 -0.29851294687E+01  0.72461554113E+02  0.69999978921E+02 0.  0.
        -12    1    1    2    0    0  0.15992176594E+02 -0.92746463767E+01  0.29851294687E+01  0.18726445887E+02  0.00000000000E+00 0.  1.
         11    1    3    3    0    0 -0.10596080155E+02 -0.80913507993E+01 -0.28566874855E+02  0.31524803119E+02  0.51100000000E-03 0. -1.
        -11    1    3    3    0    0  0.10063008964E+02  0.10114410796E+02  0.15673250152E+02  0.21194721648E+02  0.51100000000E-03 0.  1.
         12    1    3    3    0    0 -0.15459105403E+02  0.72515863798E+01  0.99084952351E+01  0.19742029346E+02  0.00000000000E+00 0. -1.
</event>
<event>
 7    1  0.1920603E-013  0.7246162E+02  0.7816164E-02  0.1226708E+00
        -11   -1    0    0    0    0  0.00000000000E+00  0.00000000000E+00  0.45593999997E+02  0.45594000000E+02  0.51100000000E-03 0. -1.
         11   -1    0    0    0    0 -0.00000000000E+00 -0.00000000000E+00 -0.45593999997E+02  0.45594000000E+02  0.51100000000E-03 0.  1.
    9900012    2    1    2    0    0  0.14835711084E+02 -0.88254109653E+01  0.72588744417E+01  0.72461615932E+02  0.70000059452E+02 0.  0.
        -12    1    1    2    0    0 -0.14835711084E+02  0.88254109653E+01 -0.72588744417E+01  0.18726384068E+02  0.00000000000E+00 0.  1.
         11    1    3    3    0    0 -0.49774483191E+01 -0.19648014331E+02  0.17103389286E+02  0.26520659574E+02  0.51100000000E-03 0. -1.
        -11    1    3    3    0    0  0.18710238045E+02 -0.11450434775E+02 -0.87409555531E+01  0.23613338782E+02  0.51100000000E-03 0.  1.
        -12    1    3    3    0    0  0.11029213588E+01  0.22273038140E+02 -0.11035592910E+01  0.22327617576E+02  0.00000000000E+00 0.  1.
</event>
<event>
 7    1  0.1920603E-013  0.7246157E+02  0.7816164E-02  0.1226708E+00
        -11   -1    0    0    0    0  0.00000000000E+00  0.00000000000E+00  0.45593999997E+02  0.45594000000E+02  0.51100000000E-03 0.  1.
         11   -1    0    0    0    0 -0.00000000000E+00 -0.00000000000E+00 -0.45593999997E+02  0.45594000000E+02  0.51100000000E-03 0. -1.
    9900012    2    1    2    0    0  0.61180420395E+00 -0.78204414066E+00 -0.18700091435E+02  0.72461566354E+02  0.69999994867E+02 0.  0.
        -12    1    1    2    0    0 -0.61180420395E+00  0.78204414066E+00  0.18700091435E+02  0.18726433646E+02  0.00000000000E+00 0.  1.
         11    1    3    3    0    0  0.54294560929E+01  0.29805792665E+01 -0.14754884935E+02  0.16002170976E+02  0.51100000000E-03 0. -1.
        -11    1    3    3    0    0 -0.27355656787E+02 -0.12884360624E+02  0.48078711356E+01  0.30617876021E+02  0.51100000000E-03 0.  1.
        -12    1    3    3    0    0  0.22538004898E+02  0.91217372166E+01 -0.87530776353E+01  0.25841519358E+02  0.00000000000E+00 0.  1.
</event>
<event>
 7    1  0.1978874E-013  0.7246155E+02  0.7816164E-02  0.1226708E+00
        -11   -1    0    0    0    0  0.00000000000E+00  0.00000000000E+00  0.45593999997E+02  0.45594000000E+02  0.51100000000E-03 0. -1.
         11   -1    0    0    0    0 -0.00000000000E+00 -0.00000000000E+00 -0.45593999997E+02  0.45594000000E+02  0.51100000000E-03 0.  1.
    9900012    2    1    2    0    0  0.74581389136E+01  0.45831344135E+01  0.16554484946E+02  0.72461550018E+02  0.69999973586E+02 0.  0.
        -12    1    1    2    0    0 -0.74581389136E+01 -0.45831344135E+01 -0.16554484946E+02  0.18726449982E+02  0.00000000000E+00 0.  1.
         11    1    3    3    0    0 -0.38868645251E+00  0.19601260893E+02  0.21163396655E+02  0.28848741116E+02  0.51100000000E-03 0. -1.
        -11    1    3    3    0    0  0.77755735676E+01 -0.28218841486E+02  0.95782137708E+00  0.29286173891E+02  0.51100000000E-03 0.  1.
        -12    1    3    3    0    0  0.71251798542E-01  0.13200715006E+02 -0.55667330852E+01  0.14326635011E+02  0.00000000000E+00 0.  1.
</event>
<event>
 7    1  0.1920603E-013  0.7246154E+02  0.7816164E-02  0.1226708E+00
        -11   -1    0    0    0    0  0.00000000000E+00  0.00000000000E+00  0.45593999997E+02  0.45594000000E+02  0.51100000000E-03 0.  1.
         11   -1    0    0    0    0 -0.00000000000E+00 -0.00000000000E+00 -0.45593999997E+02  0.45594000000E+02  0.51100000000E-03 0. -1.
    9900012    2    1    2    0    0  0.34044536294E+01  0.48916842348E+01 -0.17752781665E+02  0.72461544489E+02  0.69999966384E+02 0.  0.
        -12    1    1    2    0    0 -0.34044536294E+01 -0.48916842348E+01  0.17752781665E+02  0.18726455511E+02  0.00000000000E+00 0.  1.
         11    1    3    3    0    0 -0.21869702716E+02  0.16309617780E+01  0.16451055576E+02  0.27414980631E+02  0.51100000000E-03 0.  1.
        -11    1    3    3    0    0  0.26486645201E+02  0.51105583005E+01 -0.30367375513E+02  0.40618193903E+02  0.51100000000E-03 0. -1.
        -12    1    3    3    0    0 -0.12124888554E+01 -0.18498358437E+01 -0.38364617269E+01  0.44283699546E+01  0.00000000000E+00 0.  1.
</event>
<event>
 7    1  0.1920603E-013  0.7246156E+02  0.7816164E-02  0.1226708E+00
        -11   -1    0    0    0    0  0.00000000000E+00  0.00000000000E+00  0.45593999997E+02  0.45594000000E+02  0.51100000000E-03 0.  1.
         11   -1    0    0    0    0 -0.00000000000E+00 -0.00000000000E+00 -0.45593999997E+02  0.45594000000E+02  0.51100000000E-03 0. -1.
    9900012    2    1    2    0    0  0.93359981426E+01  0.14006389254E+02 -0.82060808320E+01  0.72461559765E+02  0.69999986284E+02 0.  0.
        -12    1    1    2    0    0 -0.93359981426E+01 -0.14006389254E+02  0.82060808320E+01  0.18726440235E+02  0.00000000000E+00 0.  1.
         11    1    3    3    0    0  0.79628568858E+00 -0.56932319804E+00 -0.38229438776E+01  0.39462767204E+01  0.51100000000E-03 0. -1.
        -11    1    3    3    0    0 -0.15041481216E+01  0.47364120242E-01  0.29906407086E+02  0.29944246359E+02  0.51100000000E-03 0.  1.
        -12    1    3    3    0    0  0.10043860576E+02  0.14528348332E+02 -0.34289544041E+02  0.38571036686E+02  0.00000000000E+00 0.  1.
</event>
<event>
 7    1  0.1920603E-013  0.7246158E+02  0.7816164E-02  0.1226708E+00
        -11   -1    0    0    0    0  0.00000000000E+00  0.00000000000E+00  0.45593999997E+02  0.45594000000E+02  0.51100000000E-03 0. -1.
         11   -1    0    0    0    0 -0.00000000000E+00 -0.00000000000E+00 -0.45593999997E+02  0.45594000000E+02  0.51100000000E-03 0.  1.
    9900012    2    1    2    0    0  0.79744430249E+01 -0.16234154350E+02  0.48517421114E+01  0.72461577209E+02  0.70000009008E+02 0.  0.
        -12    1    1    2    0    0 -0.79744430249E+01  0.16234154350E+02 -0.48517421114E+01  0.18726422791E+02  0.00000000000E+00 0.  1.
         11    1    3    3    0    0  0.21047995589E+02 -0.14471046391E+02 -0.45546148829E+01  0.25945593440E+02  0.51100000000E-03 0. -1.
        -11    1    3    3    0    0 -0.18723787116E+02  0.16418524458E+02  0.11370019592E+02  0.27375636890E+02  0.51100000000E-03 0.  1.
         12    1    3    3    0    0  0.56502345520E+01 -0.18181632417E+02 -0.19636625980E+01  0.19140346879E+02  0.00000000000E+00 0. -1.
</event>
<event>
 7    1  0.1920603E-013  0.7246157E+02  0.7816164E-02  0.1226708E+00
        -11   -1    0    0    0    0  0.00000000000E+00  0.00000000000E+00  0.45593999997E+02  0.45594000000E+02  0.51100000000E-03 0.  1.
         11   -1    0    0    0    0 -0.00000000000E+00 -0.00000000000E+00 -0.45593999997E+02  0.45594000000E+02  0.51100000000E-03 0. -1.
    9900012    2    1    2    0    0  0.68921308226E+01 -0.14889344149E+02 -0.90269080089E+01  0.72461572026E+02  0.70000002256E+02 0.  0.
        -12    1    1    2    0    0 -0.68921308226E+01  0.14889344149E+02  0.90269080089E+01  0.18726427974E+02  0.00000000000E+00 0.  1.
         11    1    3    3    0    0 -0.93757434281E+01 -0.26165545839E+02  0.20523997447E+00  0.27795367916E+02  0.51100000000E-03 0. -1.
        -11    1    3    3    0    0  0.15767930582E+02  0.18889077049E+02  0.79570290029E+01  0.25859991829E+02  0.51100000000E-03 0.  1.
         12    1    3    3    0    0  0.49994366838E+00 -0.76128753588E+01 -0.17189176986E+02  0.18806212281E+02  0.00000000000E+00 0. -1.
</event>
<event>
 7    1  0.1920603E-013  0.7246152E+02  0.7816164E-02  0.1226708E+00
        -11   -1    0    0    0    0  0.00000000000E+00  0.00000000000E+00  0.45593999997E+02  0.45594000000E+02  0.51100000000E-03 0. -1.
         11   -1    0    0    0    0 -0.00000000000E+00 -0.00000000000E+00 -0.45593999997E+02  0.45594000000E+02  0.51100000000E-03 0.  1.
    9900012    2    1    2    0    0 -0.86498049347E+01 -0.91043322998E+01  0.13891471382E+02  0.72461522243E+02  0.69999937404E+02 0.  0.
        -12    1    1    2    0    0  0.86498049347E+01  0.91043322998E+01 -0.13891471382E+02  0.18726477757E+02  0.00000000000E+00 0.  1.
         11    1    3    3    0    0  0.69479023448E+01 -0.63303255200E+01 -0.16357857290E+02  0.18865997550E+02  0.51100000000E-03 0.  1.
        -11    1    3    3    0    0  0.43831522186E+01 -0.16313667641E+02  0.22721150294E+02  0.28312513951E+02  0.51100000000E-03 0. -1.
         12    1    3    3    0    0 -0.19980859498E+02  0.13539660861E+02  0.75281783776E+01  0.25283010742E+02  0.00000000000E+00 0. -1.
</event>
<event>
 7    1  0.1920603E-013  0.7246158E+02  0.7816164E-02  0.1226708E+00
        -11   -1    0    0    0    0  0.00000000000E+00  0.00000000000E+00  0.45593999997E+02  0.45594000000E+02  0.51100000000E-03 0. -1.
         11   -1    0    0    0    0 -0.00000000000E+00 -0.00000000000E+00 -0.45593999997E+02  0.45594000000E+02  0.51100000000E-03 0.  1.
    9900012    2    1    2    0    0  0.13623745891E+02  0.11625127318E+02  0.54707198619E+01  0.72461579812E+02  0.70000012398E+02 0.  0.
        -12    1    1    2    0    0 -0.13623745891E+02 -0.11625127318E+02 -0.54707198619E+01  0.18726420188E+02  0.00000000000E+00 0.  1.
         11    1    3    3    0    0 -0.41858861097E+01  0.75834584305E+01 -0.65240787148E+00  0.86865482548E+01  0.51100000000E-03 0. -1.
        -11    1    3    3    0    0  0.13998000010E+02 -0.16964286765E+02 -0.20213919221E+02  0.29871952736E+02  0.51100000000E-03 0.  1.
        -12    1    3    3    0    0  0.38116319907E+01  0.21005955652E+02  0.26337046954E+02  0.33903078821E+02  0.00000000000E+00 0.  1.
</event>
<event>
 7    1  0.1920603E-013  0.7246156E+02  0.7816164E-02  0.1226708E+00
        -11   -1    0    0    0    0  0.00000000000E+00  0.00000000000E+00  0.45593999997E+02  0.45594000000E+02  0.51100000000E-03 0.  1.
         11   -1    0    0    0    0 -0.00000000000E+00 -0.00000000000E+00 -0.45593999997E+02  0.45594000000E+02  0.51100000000E-03 0. -1.
    9900012    2    1    2    0    0 -0.99292767802E+01 -0.96790837787E+01 -0.12585884594E+02  0.72461556366E+02  0.69999981855E+02 0.  0.
        -12    1    1    2    0    0  0.99292767802E+01  0.96790837787E+01  0.12585884594E+02  0.18726443634E+02  0.00000000000E+00 0.  1.
         11    1    3    3    0    0  0.13838235247E+02 -0.21995397100E+02  0.80231674210E+01  0.27196791430E+02  0.51100000000E-03 0. -1.
        -11    1    3    3    0    0 -0.18406228392E+02 -0.46312863703E+01 -0.19863768383E+02  0.27473757510E+02  0.51100000000E-03 0.  1.
        -12    1    3    3    0    0 -0.53612836352E+01  0.16947599692E+02 -0.74528363225E+00  0.17791007426E+02  0.00000000000E+00 0.  1.
</event>
<event>
 7    1  0.1920603E-013  0.7246153E+02  0.7816164E-02  0.1226708E+00
        -11   -1    0    0    0    0  0.00000000000E+00  0.00000000000E+00  0.45593999997E+02  0.45594000000E+02  0.51100000000E-03 0.  1.
         11   -1    0    0    0    0 -0.00000000000E+00 -0.00000000000E+00 -0.45593999997E+02  0.45594000000E+02  0.51100000000E-03 0. -1.
    9900012    2    1    2    0    0  0.59095337884E+01  0.14138211038E+02  0.10764244779E+02  0.72461532992E+02  0.69999951406E+02 0.  0.
        -12    1    1    2    0    0 -0.59095337884E+01 -0.14138211038E+02 -0.10764244779E+02  0.18726467008E+02  0.00000000000E+00 0.  1.
         11    1    3    3    0    0  0.27883522636E+01  0.24922432740E+02  0.25886638615E+02  0.36041928653E+02  0.51100000000E-03 0. -1.
        -11    1    3    3    0    0 -0.12156402205E+00  0.72539556207E-01 -0.22756597380E+02  0.22757037689E+02  0.51100000000E-03 0.  1.
        -12    1    3    3    0    0  0.32427455468E+01 -0.10856761258E+02  0.76342035446E+01  0.13662566650E+02  0.00000000000E+00 0.  1.
</event>
<event>
 7    1  0.1920603E-013  0.7246158E+02  0.7816164E-02  0.1226708E+00
        -11   -1    0    0    0    0  0.00000000000E+00  0.00000000000E+00  0.45593999997E+02  0.45594000000E+02  0.51100000000E-03 0.  1.
         11   -1    0    0    0    0 -0.00000000000E+00 -0.00000000000E+00 -0.45593999997E+02  0.45594000000E+02  0.51100000000E-03 0. -1.
    9900012    2    1    2    0    0  0.11768098761E+02  0.99360263004E+01 -0.10652036739E+02  0.72461584065E+02  0.70000017938E+02 0.  0.
        -12    1    1    2    0    0 -0.11768098761E+02 -0.99360263004E+01  0.10652036739E+02  0.18726415935E+02  0.00000000000E+00 0.  1.
         11    1    3    3    0    0 -0.20457913940E+02  0.13354235609E+02  0.95226213566E+01  0.26221025328E+02  0.51100000000E-03 0. -1.
        -11    1    3    3    0    0  0.94735882050E+01 -0.75679515951E+01 -0.19670402970E+02  0.23107304431E+02  0.51100000000E-03 0.  1.
        -12    1    3    3    0    0  0.22752424497E+02  0.41497422866E+01 -0.50425512506E+00  0.23133254305E+02  0.00000000000E+00 0.  1.
</event>
<event>
 7    1  0.1920603E-013  0.7246165E+02  0.7816164E-02  0.1226708E+00
        -11   -1    0    0    0    0  0.00000000000E+00  0.00000000000E+00  0.45593999997E+02  0.45594000000E+02  0.51100000000E-03 0.  1.
         11   -1    0    0    0    0 -0.00000000000E+00 -0.00000000000E+00 -0.45593999997E+02  0.45594000000E+02  0.51100000000E-03 0. -1.
    9900012    2    1    2    0    0  0.12105988089E+02  0.92675736031E+01 -0.10873519136E+02  0.72461647272E+02  0.70000100277E+02 0.  0.
        -12    1    1    2    0    0 -0.12105988089E+02 -0.92675736031E+01  0.10873519136E+02  0.18726352728E+02  0.00000000000E+00 0.  1.
         11    1    3    3    0    0 -0.12488297231E+02  0.18251460140E+02 -0.23214889785E+02  0.32062508837E+02  0.51100000000E-03 0. -1.
        -11    1    3    3    0    0  0.22405399570E+02 -0.18012305163E+02  0.66590151550E+01  0.29509109615E+02  0.51100000000E-03 0.  1.
         12    1    3    3    0    0  0.21888857505E+01  0.90284186266E+01  0.56823554944E+01  0.10890028820E+02  0.00000000000E+00 0. -1.
</event>
<event>
 7    1  0.1920603E-013  0.7246161E+02  0.7816164E-02  0.1226708E+00
        -11   -1    0    0    0    0  0.00000000000E+00  0.00000000000E+00  0.45593999997E+02  0.45594000000E+02  0.51100000000E-03 0.  1.
         11   -1    0    0    0    0 -0.00000000000E+00 -0.00000000000E+00 -0.45593999997E+02  0.45594000000E+02  0.51100000000E-03 0. -1.
    9900012    2    1    2    0    0  0.14683064207E+02 -0.89976853766E+01  0.73570904502E+01  0.72461614963E+02  0.70000058190E+02 0.  0.
        -12    1    1    2    0    0 -0.14683064207E+02  0.89976853766E+01 -0.73570904502E+01  0.18726385037E+02  0.00000000000E+00 0.  1.
         11    1    3    3    0    0  0.14774068129E+02 -0.27129417445E+02  0.98598226326E+00  0.30907127677E+02  0.51100000000E-03 0. -1.
        -11    1    3    3    0    0  0.13234518461E+02  0.18656408181E+02  0.13368864272E+02  0.26494161193E+02  0.51100000000E-03 0.  1.
         12    1    3    3    0    0 -0.13325522383E+02 -0.52467611321E+00 -0.69977560855E+01  0.15060326093E+02  0.00000000000E+00 0. -1.
</event>
<event>
 7    1  0.1920603E-013  0.7246161E+02  0.7816164E-02  0.1226708E+00
        -11   -1    0    0    0    0  0.00000000000E+00  0.00000000000E+00  0.45593999997E+02  0.45594000000E+02  0.51100000000E-03 0.  1.
         11   -1    0    0    0    0 -0.00000000000E+00 -0.00000000000E+00 -0.45593999997E+02  0.45594000000E+02  0.51100000000E-03 0. -1.
    9900012    2    1    2    0    0  0.45639365233E+01 -0.99736176993E+00 -0.18134321528E+02  0.72461605142E+02  0.70000045396E+02 0.  0.
        -12    1    1    2    0    0 -0.45639365233E+01  0.99736176993E+00  0.18134321528E+02  0.18726394858E+02  0.00000000000E+00 0.  1.
         11    1    3    3    0    0  0.21032592855E+02 -0.62969483302E+01 -0.24924655154E+02  0.33215357221E+02  0.51100000000E-03 0. -1.
        -11    1    3    3    0    0  0.21933370853E+01 -0.28408021415E+01  0.16360154230E+02  0.16749194938E+02  0.51100000000E-03 0.  1.
         12    1    3    3    0    0 -0.18661993417E+02  0.81403887018E+01 -0.95698206048E+01  0.22497052983E+02  0.00000000000E+00 0. -1.
</event>
<event>
 7    1  0.1920603E-013  0.7246156E+02  0.7816164E-02  0.1226708E+00
        -11   -1    0    0    0    0  0.00000000000E+00  0.00000000000E+00  0.45593999997E+02  0.45594000000E+02  0.51100000000E-03 0.  1.
         11   -1    0    0    0    0 -0.00000000000E+00 -0.00000000000E+00 -0.45593999997E+02  0.45594000000E+02  0.51100000000E-03 0. -1.
    9900012    2    1    2    0    0 -0.14933531780E+02 -0.71372112606E+01 -0.87595234740E+01  0.72461563940E+02  0.69999991722E+02 0.  0.
        -12    1    1    2    0    0  0.14933531780E+02  0.71372112606E+01  0.87595234740E+01  0.18726436060E+02  0.00000000000E+00 0.  1.
         11    1    3    3    0    0 -0.14506063195E+02 -0.19878644637E+02 -0.18774992712E+02  0.30952976168E+02  0.51100000000E-03 0. -1.
        -11    1    3    3    0    0 -0.97210351119E+01  0.20356061000E+02  0.16412593173E+02  0.27896970409E+02  0.51100000000E-03 0.  1.
        -12    1    3    3    0    0  0.92935665262E+01 -0.76146276230E+01 -0.63971239348E+01  0.13611617364E+02  0.00000000000E+00 0.  1.
</event>
<event>
 7    1  0.1920603E-013  0.7246156E+02  0.7816164E-02  0.1226708E+00
        -11   -1    0    0    0    0  0.00000000000E+00  0.00000000000E+00  0.45593999997E+02  0.45594000000E+02  0.51100000000E-03 0.  1.
         11   -1    0    0    0    0 -0.00000000000E+00 -0.00000000000E+00 -0.45593999997E+02  0.45594000000E+02  0.51100000000E-03 0. -1.
    9900012    2    1    2    0    0  0.40209008297E+01  0.15651297147E+02 -0.94630268392E+01  0.72461558191E+02  0.69999984233E+02 0.  0.
        -12    1    1    2    0    0 -0.40209008297E+01 -0.15651297147E+02  0.94630268392E+01  0.18726441809E+02  0.00000000000E+00 0.  1.
         11    1    3    3    0    0 -0.22016277670E+02  0.19377012791E+02 -0.36953495822E+01  0.29560796944E+02  0.51100000000E-03 0. -1.
        -11    1    3    3    0    0  0.12187035426E+02 -0.62338283736E+01  0.13376324475E+02  0.19139239938E+02  0.51100000000E-03 0.  1.
         12    1    3    3    0    0  0.13850143074E+02  0.25081127294E+01 -0.19144001732E+02  0.23761521310E+02  0.00000000000E+00 0. -1.
</event>
<event>
 7    1  0.1920603E-013  0.7246157E+02  0.7816164E-02  0.1226708E+00
        -11   -1    0    0    0    0  0.00000000000E+00  0.00000000000E+00  0.45593999997E+02  0.45594000000E+02  0.51100000000E-03 0.  1.
         11   -1    0    0    0    0 -0.00000000000E+00 -0.00000000000E+00 -0.45593999997E+02  0.45594000000E+02  0.51100000000E-03 0. -1.
    9900012    2    1    2    0    0 -0.18332621853E+02  0.36323600587E+01  0.11832382804E+01  0.72461571712E+02  0.70000001847E+02 0.  0.
        -12    1    1    2    0    0  0.18332621853E+02 -0.36323600587E+01 -0.11832382804E+01  0.18726428288E+02  0.00000000000E+00 0.  1.
         11    1    3    3    0    0 -0.35698089016E+01 -0.20648397615E+01 -0.18977250585E+02  0.19420173502E+02  0.51100000000E-03 0. -1.
        -11    1    3    3    0    0 -0.27578503994E+02 -0.41848267490E+01  0.23551199195E+02  0.36506788975E+02  0.51100000000E-03 0.  1.
        -12    1    3    3    0    0  0.12815691042E+02  0.98820265692E+01 -0.33907103294E+01  0.16534609235E+02  0.00000000000E+00 0.  1.
</event>
<event>
 7    1  0.1920603E-013  0.7246162E+02  0.7816164E-02  0.1226708E+00
        -11   -1    0    0    0    0  0.00000000000E+00  0.00000000000E+00  0.45593999997E+02  0.45594000000E+02  0.51100000000E-03 0.  1.
         11   -1    0    0    0    0 -0.00000000000E+00 -0.00000000000E+00 -0.45593999997E+02  0.45594000000E+02  0.51100000000E-03 0. -1.
    9900012    2    1    2    0    0  0.15547509943E+02  0.50653978233E+01 -0.91265541479E+01  0.72461619913E+02  0.70000064638E+02 0.  0.
        -12    1    1    2    0    0 -0.15547509943E+02 -0.50653978233E+01  0.91265541479E+01  0.18726380087E+02  0.00000000000E+00 0.  1.
         11    1    3    3    0    0  0.65740283679E+01  0.27102693930E+02 -0.73278621298E+01  0.28835246330E+02  0.51100000000E-03 0. -1.
        -11    1    3    3    0    0  0.13888078640E+02 -0.21074295207E+02 -0.15101642749E+02  0.29411974785E+02  0.51100000000E-03 0.  1.
        -12    1    3    3    0    0 -0.49145970650E+01 -0.96300089992E+00  0.13302950731E+02  0.14214398798E+02  0.00000000000E+00 0.  1.
</event>
<event>
 7    1  0.1920603E-013  0.7246155E+02  0.7816164E-02  0.1226708E+00
        -11   -1    0    0    0    0  0.00000000000E+00  0.00000000000E+00  0.45593999997E+02  0.45594000000E+02  0.51100000000E-03 0.  1.
         11   -1    0    0    0    0 -0.00000000000E+00 -0.00000000000E+00 -0.45593999997E+02  0.45594000000E+02  0.51100000000E-03 0. -1.
    9900012    2    1    2    0    0 -0.45290736106E+01  0.16080409654E+02 -0.84609696819E+01  0.72461545708E+02  0.69999967971E+02 0.  0.
        -12    1    1    2    0    0  0.45290736106E+01 -0.16080409654E+02  0.84609696819E+01  0.18726454292E+02  0.00000000000E+00 0.  1.
         11    1    3    3    0    0 -0.75963041068E+01  0.15228506654E+02 -0.26188114140E+02  0.31231851906E+02  0.51100000000E-03 0. -1.
        -11    1    3    3    0    0  0.29452930613E+01  0.50390281638E+01  0.28802873219E+02  0.29388298045E+02  0.51100000000E-03 0.  1.
         12    1    3    3    0    0  0.12193743493E+00 -0.41871251635E+01 -0.11075728761E+02  0.11841395756E+02  0.00000000000E+00 0. -1.
</event>
<event>
 7    1  0.1920603E-013  0.7246154E+02  0.7816164E-02  0.1226708E+00
        -11   -1    0    0    0    0  0.00000000000E+00  0.00000000000E+00  0.45593999997E+02  0.45594000000E+02  0.51100000000E-03 0. -1.
         11   -1    0    0    0    0 -0.00000000000E+00 -0.00000000000E+00 -0.45593999997E+02  0.45594000000E+02  0.51100000000E-03 0.  1.
    9900012    2    1    2    0    0 -0.17090653545E+02 -0.65515295669E+00 -0.76263104986E+01  0.72461540756E+02  0.69999961521E+02 0.  0.
        -12    1    1    2    0    0  0.17090653545E+02  0.65515295669E+00  0.76263104986E+01  0.18726459244E+02  0.00000000000E+00 0.  1.
         11    1    3    3    0    0 -0.34161924721E+02  0.11047405357E+02 -0.91116776885E+01  0.37041934835E+02  0.51100000000E-03 0. -1.
        -11    1    3    3    0    0  0.44501784946E+01 -0.73047216018E+01 -0.13094545446E+02  0.15640657499E+02  0.51100000000E-03 0.  1.
         12    1    3    3    0    0  0.12621092682E+02 -0.43978367124E+01  0.14579912636E+02  0.19778948422E+02  0.00000000000E+00 0. -1.
</event>
<event>
 8    1  0.1920603E-013  0.7246157E+02  0.7816164E-02  0.1226708E+00
        -11   -1    0    0    0    0  0.00000000000E+00  0.00000000000E+00  0.45593999997E+02  0.45594000000E+02  0.51100000000E-03 0. -1.
         11   -1    0    0    0    0 -0.00000000000E+00 -0.00000000000E+00 -0.45593999997E+02  0.45594000000E+02  0.51100000000E-03 0.  1.
    9900012    2    1    2    0    0 -0.80699835519E+01  0.16810331982E+02  0.17225752864E+01  0.72461570509E+02  0.70000000279E+02 0.  0.
        -24    2    3    3    0    0 -0.12568136656E+02  0.35852693574E+01 -0.11340820885E+02  0.53335986007E+02  0.50450975903E+02 0.  0.
        -12    1    1    2    0    0  0.80699835519E+01 -0.16810331982E+02 -0.17225752864E+01  0.18726429491E+02  0.00000000000E+00 0.  1.
         11    1    4    4    0    0 -0.30824027953E+01  0.16947162427E+02 -0.26107252362E+02  0.31277726060E+02  0.51100000000E-03 0.  1.
        -11    1    3    3    0    0  0.44981531043E+01  0.13225062625E+02  0.13063396171E+02  0.19125584502E+02  0.51100000000E-03 0. -1.
        -12    1    4    4    0    0 -0.94857338609E+01 -0.13361893070E+02  0.14766431478E+02  0.22058259947E+02  0.00000000000E+00 0.  1.
</event>
<event>
 7    1  0.1920603E-013  0.7246161E+02  0.7816164E-02  0.1226708E+00
        -11   -1    0    0    0    0  0.00000000000E+00  0.00000000000E+00  0.45593999997E+02  0.45594000000E+02  0.51100000000E-03 0.  1.
         11   -1    0    0    0    0 -0.00000000000E+00 -0.00000000000E+00 -0.45593999997E+02  0.45594000000E+02  0.51100000000E-03 0. -1.
    9900012    2    1    2    0    0 -0.39204157566E+01 -0.24414461418E+01 -0.18147933786E+02  0.72461606336E+02  0.70000046950E+02 0.  0.
        -12    1    1    2    0    0  0.39204157566E+01  0.24414461418E+01  0.18147933786E+02  0.18726393664E+02  0.00000000000E+00 0.  1.
         11    1    3    3    0    0 -0.24026877883E+02 -0.12820578581E+01 -0.20435460867E+02  0.31568062884E+02  0.51100000000E-03 0. -1.
        -11    1    3    3    0    0  0.14635975204E+02  0.77593364187E+01  0.16410040674E+02  0.23317557913E+02  0.51100000000E-03 0.  1.
         12    1    3    3    0    0  0.54704869221E+01 -0.89187247024E+01 -0.14122513593E+02  0.17575985539E+02  0.00000000000E+00 0. -1.
</event>
<event>
 7    1  0.1920603E-013  0.7246159E+02  0.7816164E-02  0.1226708E+00
        -11   -1    0    0    0    0  0.00000000000E+00  0.00000000000E+00  0.45593999997E+02  0.45594000000E+02  0.51100000000E-03 0.  1.
         11   -1    0    0    0    0 -0.00000000000E+00 -0.00000000000E+00 -0.45593999997E+02  0.45594000000E+02  0.51100000000E-03 0. -1.
    9900012    2    1    2    0    0  0.50220089925E+01  0.13490094369E+02  0.11978116222E+02  0.72461588474E+02  0.70000023683E+02 0.  0.
        -12    1    1    2    0    0 -0.50220089925E+01 -0.13490094369E+02 -0.11978116222E+02  0.18726411526E+02  0.00000000000E+00 0.  1.
         11    1    3    3    0    0 -0.17683244447E+02  0.28236967023E+02 -0.11022862795E+02  0.35093118204E+02  0.51100000000E-03 0. -1.
        -11    1    3    3    0    0  0.10131010765E+02 -0.28928916786E+01  0.14986880130E+02  0.18319737380E+02  0.51100000000E-03 0.  1.
         12    1    3    3    0    0  0.12574242674E+02 -0.11853980975E+02  0.80140988864E+01  0.19048732891E+02  0.00000000000E+00 0. -1.
</event>
<event>
 7    1  0.1920603E-013  0.7246155E+02  0.7816164E-02  0.1226708E+00
        -11   -1    0    0    0    0  0.00000000000E+00  0.00000000000E+00  0.45593999997E+02  0.45594000000E+02  0.51100000000E-03 0. -1.
         11   -1    0    0    0    0 -0.00000000000E+00 -0.00000000000E+00 -0.45593999997E+02  0.45594000000E+02  0.51100000000E-03 0.  1.
    9900012    2    1    2    0    0 -0.16427969338E+02  0.82659296087E+01 -0.35321650275E+01  0.72461549224E+02  0.69999972552E+02 0.  0.
        -12    1    1    2    0    0  0.16427969338E+02 -0.82659296087E+01  0.35321650275E+01  0.18726450776E+02  0.00000000000E+00 0.  1.
         11    1    3    3    0    0  0.10731490428E+02  0.19784525598E+02 -0.16507514928E+01  0.22568059746E+02  0.51100000000E-03 0. -1.
        -11    1    3    3    0    0 -0.21254806175E+02 -0.11746825304E+02 -0.19605039619E+02  0.31210771683E+02  0.51100000000E-03 0.  1.
        -12    1    3    3    0    0 -0.59046535905E+01  0.22822931517E+00  0.17723626085E+02  0.18682717796E+02  0.00000000000E+00 0.  1.
</event>
<event>
 7    1  0.1920603E-013  0.7246159E+02  0.7816164E-02  0.1226708E+00
        -11   -1    0    0    0    0  0.00000000000E+00  0.00000000000E+00  0.45593999997E+02  0.45594000000E+02  0.51100000000E-03 0.  1.
         11   -1    0    0    0    0 -0.00000000000E+00 -0.00000000000E+00 -0.45593999997E+02  0.45594000000E+02  0.51100000000E-03 0. -1.
    9900012    2    1    2    0    0  0.91691176184E+01 -0.16019111100E+02  0.31613198496E+01  0.72461585994E+02  0.70000020452E+02 0.  0.
        -12    1    1    2    0    0 -0.91691176184E+01  0.16019111100E+02 -0.31613198496E+01  0.18726414006E+02  0.00000000000E+00 0.  1.
         11    1    3    3    0    0 -0.81993694335E+01  0.56945808781E+01 -0.78441775254E+01  0.12696024252E+02  0.51100000000E-03 0. -1.
        -11    1    3    3    0    0  0.18049650043E+02 -0.27425291660E+02 -0.12827059793E+02  0.35248687245E+02  0.51100000000E-03 0.  1.
        -12    1    3    3    0    0 -0.68116299066E+00  0.57115996816E+01  0.23832557168E+02  0.24516874497E+02  0.00000000000E+00 0.  1.
</event>
<event>
 7    1  0.1920603E-013  0.7246155E+02  0.7816164E-02  0.1226708E+00
        -11   -1    0    0    0    0  0.00000000000E+00  0.00000000000E+00  0.45593999997E+02  0.45594000000E+02  0.51100000000E-03 0.  1.
         11   -1    0    0    0    0 -0.00000000000E+00 -0.00000000000E+00 -0.45593999997E+02  0.45594000000E+02  0.51100000000E-03 0. -1.
    9900012    2    1    2    0    0 -0.85941989650E+01  0.10138397109E+02 -0.13192141376E+02  0.72461549566E+02  0.69999972997E+02 0.  0.
        -12    1    1    2    0    0  0.85941989650E+01 -0.10138397109E+02  0.13192141376E+02  0.18726450434E+02  0.00000000000E+00 0.  1.
         11    1    3    3    0    0 -0.12094407450E+02  0.31781894175E+02  0.91507255410E+00  0.34017654930E+02  0.51100000000E-03 0. -1.
        -11    1    3    3    0    0  0.15118977823E+02 -0.14965674177E+02 -0.39701198176E+01  0.21640627200E+02  0.51100000000E-03 0.  1.
        -12    1    3    3    0    0 -0.11618769338E+02 -0.66778228888E+01 -0.10137094113E+02  0.16803267436E+02  0.00000000000E+00 0.  1.
</event>
<event>
 7    1  0.1920603E-013  0.7246154E+02  0.7816164E-02  0.1226708E+00
        -11   -1    0    0    0    0  0.00000000000E+00  0.00000000000E+00  0.45593999997E+02  0.45594000000E+02  0.51100000000E-03 0. -1.
         11   -1    0    0    0    0 -0.00000000000E+00 -0.00000000000E+00 -0.45593999997E+02  0.45594000000E+02  0.51100000000E-03 0.  1.
    9900012    2    1    2    0    0 -0.76659900028E+01 -0.17081145398E+02 -0.38400244717E+00  0.72461537742E+02  0.69999957595E+02 0.  0.
        -12    1    1    2    0    0  0.76659900028E+01  0.17081145398E+02  0.38400244717E+00  0.18726462258E+02  0.00000000000E+00 0.  1.
         11    1    3    3    0    0  0.24712071837E+02 -0.50900027127E+01 -0.15236312255E+02  0.29474392843E+02  0.51100000000E-03 0.  1.
        -11    1    3    3    0    0 -0.28223569483E+02 -0.17403309115E+02  0.14398660247E+02  0.36149224884E+02  0.51100000000E-03 0. -1.
         12    1    3    3    0    0 -0.41544923564E+01  0.54121664302E+01  0.45364956055E+00  0.68379200150E+01  0.00000000000E+00 0. -1.
</event>
<event>
 7    1  0.1920603E-013  0.7246159E+02  0.7816164E-02  0.1226708E+00
        -11   -1    0    0    0    0  0.00000000000E+00  0.00000000000E+00  0.45593999997E+02  0.45594000000E+02  0.51100000000E-03 0. -1.
         11   -1    0    0    0    0 -0.00000000000E+00 -0.00000000000E+00 -0.45593999997E+02  0.45594000000E+02  0.51100000000E-03 0.  1.
    9900012    2    1    2    0    0 -0.85703793820E+01  0.16625522449E+02  0.90503041721E+00  0.72461588718E+02  0.70000024000E+02 0.  0.
        -12    1    1    2    0    0  0.85703793820E+01 -0.16625522449E+02 -0.90503041721E+00  0.18726411282E+02  0.00000000000E+00 0.  1.
         11    1    3    3    0    0  0.20427458870E+02  0.63462557379E+00 -0.18822861450E+02  0.27784598952E+02  0.51100000000E-03 0. -1.
        -11    1    3    3    0    0 -0.20476432161E+02  0.12318566929E+02  0.11656115792E+01  0.23924673787E+02  0.51100000000E-03 0.  1.
         12    1    3    3    0    0 -0.85214060912E+01  0.36723299460E+01  0.18562280288E+02  0.20752315979E+02  0.00000000000E+00 0. -1.
</event>
<event>
 7    1  0.1920603E-013  0.7246157E+02  0.7816164E-02  0.1226708E+00
        -11   -1    0    0    0    0  0.00000000000E+00  0.00000000000E+00  0.45593999997E+02  0.45594000000E+02  0.51100000000E-03 0.  1.
         11   -1    0    0    0    0 -0.00000000000E+00 -0.00000000000E+00 -0.45593999997E+02  0.45594000000E+02  0.51100000000E-03 0. -1.
    9900012    2    1    2    0    0 -0.26208607171E+01  0.10547825333E+02 -0.15249706127E+02  0.72461573029E+02  0.70000003562E+02 0.  0.
        -12    1    1    2    0    0  0.26208607171E+01 -0.10547825333E+02  0.15249706127E+02  0.18726426971E+02  0.00000000000E+00 0.  1.
         11    1    3    3    0    0  0.14745536164E+02  0.20894378049E+02 -0.25448210003E+02  0.36077933192E+02  0.51100000000E-03 0.  1.
        -11    1    3    3    0    0 -0.18697848203E+02  0.50698561448E+01  0.68768768206E+01  0.20557344280E+02  0.51100000000E-03 0. -1.
        -12    1    3    3    0    0  0.13314513223E+01 -0.15416408860E+02  0.33216270552E+01  0.15826295557E+02  0.00000000000E+00 0.  1.
</event>
<event>
 7    1  0.1920603E-013  0.7246159E+02  0.7816164E-02  0.1226708E+00
        -11   -1    0    0    0    0  0.00000000000E+00  0.00000000000E+00  0.45593999997E+02  0.45594000000E+02  0.51100000000E-03 0.  1.
         11   -1    0    0    0    0 -0.00000000000E+00 -0.00000000000E+00 -0.45593999997E+02  0.45594000000E+02  0.51100000000E-03 0. -1.
    9900012    2    1    2    0    0 -0.95189809970E+01 -0.15813518038E+02  0.31622780813E+01  0.72461592052E+02  0.70000028344E+02 0.  0.
        -12    1    1    2    0    0  0.95189809970E+01  0.15813518038E+02 -0.31622780813E+01  0.18726407948E+02  0.00000000000E+00 0.  1.
         11    1    3    3    0    0 -0.15284418935E+02 -0.12534973980E+02  0.11085731439E+02  0.22663461268E+02  0.51100000000E-03 0. -1.
        -11    1    3    3    0    0 -0.27283798633E-01  0.19544977012E+02 -0.15625594427E+02  0.25023310578E+02  0.51100000000E-03 0.  1.
        -12    1    3    3    0    0  0.57927217370E+01 -0.22823521071E+02  0.77021410693E+01  0.24774820206E+02  0.00000000000E+00 0.  1.
</event>
<event>
 7    1  0.1920603E-013  0.7246156E+02  0.7816164E-02  0.1226708E+00
        -11   -1    0    0    0    0  0.00000000000E+00  0.00000000000E+00  0.45593999997E+02  0.45594000000E+02  0.51100000000E-03 0.  1.
         11   -1    0    0    0    0 -0.00000000000E+00 -0.00000000000E+00 -0.45593999997E+02  0.45594000000E+02  0.51100000000E-03 0. -1.
    9900012    2    1    2    0    0  0.14828669755E+02  0.10303725994E+02 -0.49621946711E+01  0.72461559014E+02  0.69999985305E+02 0.  0.
        -12    1    1    2    0    0 -0.14828669755E+02 -0.10303725994E+02  0.49621946711E+01  0.18726440986E+02  0.00000000000E+00 0.  1.
         11    1    3    3    0    0 -0.82745256133E+01 -0.22589551898E+02  0.11155229475E+02  0.26517819932E+02  0.51100000000E-03 0.  1.
        -11    1    3    3    0    0  0.16689899174E+02  0.31941576480E+02 -0.10989367162E+02  0.37677357038E+02  0.51100000000E-03 0. -1.
        -12    1    3    3    0    0  0.64132961943E+01  0.95170141154E+00 -0.51280569846E+01  0.82663820435E+01  0.00000000000E+00 0.  1.
</event>
<event>
 7    1  0.1920603E-013  0.7246156E+02  0.7816164E-02  0.1226708E+00
        -11   -1    0    0    0    0  0.00000000000E+00  0.00000000000E+00  0.45593999997E+02  0.45594000000E+02  0.51100000000E-03 0. -1.
         11   -1    0    0    0    0 -0.00000000000E+00 -0.00000000000E+00 -0.45593999997E+02  0.45594000000E+02  0.51100000000E-03 0.  1.
    9900012    2    1    2    0    0 -0.48681947711E+01  0.85969920322E+01  0.15908235234E+02  0.72461560387E+02  0.69999987094E+02 0.  0.
        -12    1    1    2    0    0  0.48681947711E+01 -0.85969920322E+01 -0.15908235234E+02  0.18726439613E+02  0.00000000000E+00 0.  1.
         11    1    3    3    0    0  0.13455774217E+02 -0.13677425238E+02  0.17602829909E+01  0.19267288792E+02  0.51100000000E-03 0. -1.
        -11    1    3    3    0    0 -0.23552700599E+02 -0.36411613186E+01  0.11962633975E+02  0.26666315327E+02  0.51100000000E-03 0.  1.
        -12    1    3    3    0    0  0.52287316105E+01  0.25915578589E+02  0.21853182682E+01  0.26527956268E+02  0.00000000000E+00 0.  1.
</event>
<event>
 7    1  0.1920603E-013  0.7246155E+02  0.7816164E-02  0.1226708E+00
        -11   -1    0    0    0    0  0.00000000000E+00  0.00000000000E+00  0.45593999997E+02  0.45594000000E+02  0.51100000000E-03 0.  1.
         11   -1    0    0    0    0 -0.00000000000E+00 -0.00000000000E+00 -0.45593999997E+02  0.45594000000E+02  0.51100000000E-03 0. -1.
    9900012    2    1    2    0    0  0.18481807982E+02 -0.27780875873E+01 -0.11768788030E+01  0.72461547035E+02  0.69999969700E+02 0.  0.
        -12    1    1    2    0    0 -0.18481807982E+02  0.27780875873E+01  0.11768788030E+01  0.18726452965E+02  0.00000000000E+00 0.  1.
         11    1    3    3    0    0 -0.21774414889E+02 -0.17933179788E+02 -0.88361035890E+00  0.28222417483E+02  0.51100000000E-03 0. -1.
        -11    1    3    3    0    0  0.80601620278E+01  0.32737663594E+01  0.41419452439E+01  0.96353240088E+01  0.51100000000E-03 0.  1.
         12    1    3    3    0    0  0.32196060844E+02  0.11881325841E+02 -0.44352136881E+01  0.34603805543E+02  0.00000000000E+00 0. -1.
</event>
<event>
 7    1  0.1920603E-013  0.7246151E+02  0.7816164E-02  0.1226708E+00
        -11   -1    0    0    0    0  0.00000000000E+00  0.00000000000E+00  0.45593999997E+02  0.45594000000E+02  0.51100000000E-03 0.  1.
         11   -1    0    0    0    0 -0.00000000000E+00 -0.00000000000E+00 -0.45593999997E+02  0.45594000000E+02  0.51100000000E-03 0. -1.
    9900012    2    1    2    0    0 -0.98144670724E+01  0.78803697649E+01 -0.13865698165E+02  0.72461506010E+02  0.69999916258E+02 0.  0.
        -12    1    1    2    0    0  0.98144670724E+01 -0.78803697649E+01  0.13865698165E+02  0.18726493990E+02  0.00000000000E+00 0.  1.
         11    1    3    3    0    0  0.11449318229E+02  0.93602924262E+01 -0.28957566347E+02  0.32515267356E+02  0.51100000000E-03 0. -1.
        -11    1    3    3    0    0 -0.14614728379E+02  0.13863390114E+02  0.66444372593E+01  0.21211610448E+02  0.51100000000E-03 0.  1.
         12    1    3    3    0    0 -0.66490569227E+01 -0.15343312775E+02  0.84474309226E+01  0.18734628207E+02  0.00000000000E+00 0. -1.
</event>
<event>
 7    1  0.1920603E-013  0.7246135E+02  0.7816164E-02  0.1226709E+00
        -11   -1    0    0    0    0  0.00000000000E+00  0.00000000000E+00  0.45593999997E+02  0.45594000000E+02  0.51100000000E-03 0.  1.
         11   -1    0    0    0    0 -0.00000000000E+00 -0.00000000000E+00 -0.45593999997E+02  0.45594000000E+02  0.51100000000E-03 0. -1.
    9900012    2    1    2    0    0 -0.60127622334E+01  0.73042195190E+01 -0.16161138698E+02  0.72461352236E+02  0.69999715938E+02 0.  0.
        -12    1    1    2    0    0  0.60127622334E+01 -0.73042195190E+01  0.16161138698E+02  0.18726647764E+02  0.00000000000E+00 0.  1.
         11    1    3    3    0    0 -0.68176268488E+01  0.60005325961E+01 -0.21822475353E+01  0.93406976106E+01  0.51100000000E-03 0. -1.
        -11    1    3    3    0    0  0.15950571480E+02 -0.26364034391E+01  0.19996361085E+02  0.25714311395E+02  0.51100000000E-03 0.  1.
        -12    1    3    3    0    0 -0.15145706865E+02  0.39400903621E+01 -0.33975252248E+02  0.37406343230E+02  0.00000000000E+00 0.  1.
</event>
<event>
 7    1  0.1920603E-013  0.7246162E+02  0.7816164E-02  0.1226708E+00
        -11   -1    0    0    0    0  0.00000000000E+00  0.00000000000E+00  0.45593999997E+02  0.45594000000E+02  0.51100000000E-03 0.  1.
         11   -1    0    0    0    0 -0.00000000000E+00 -0.00000000000E+00 -0.45593999997E+02  0.45594000000E+02  0.51100000000E-03 0. -1.
    9900012    2    1    2    0    0  0.13608830728E+02  0.12688566575E+02 -0.21159283124E+01  0.72461624266E+02  0.70000070308E+02 0.  0.
        -12    1    1    2    0    0 -0.13608830728E+02 -0.12688566575E+02  0.21159283124E+01  0.18726375734E+02  0.00000000000E+00 0.  1.
         11    1    3    3    0    0  0.91961184413E+01  0.36247660118E+01 -0.44295237907E+01  0.10831814451E+02  0.51100000000E-03 0. -1.
        -11    1    3    3    0    0 -0.49960980650E+01 -0.77662380557E+01  0.28016181844E+02  0.29498845652E+02  0.51100000000E-03 0.  1.
        -12    1    3    3    0    0  0.94088103522E+01  0.16830038619E+02 -0.25702586366E+02  0.32130964163E+02  0.00000000000E+00 0.  1.
</event>
<event>
 7    1  0.1920603E-013  0.7246155E+02  0.7816164E-02  0.1226708E+00
        -11   -1    0    0    0    0  0.00000000000E+00  0.00000000000E+00  0.45593999997E+02  0.45594000000E+02  0.51100000000E-03 0.  1.
         11   -1    0    0    0    0 -0.00000000000E+00 -0.00000000000E+00 -0.45593999997E+02  0.45594000000E+02  0.51100000000E-03 0. -1.
    9900012    2    1    2    0    0  0.13867508206E+02  0.97439376860E+01 -0.79641470651E+01  0.72461554957E+02  0.69999980021E+02 0.  0.
        -12    1    1    2    0    0 -0.13867508206E+02 -0.97439376860E+01  0.79641470651E+01  0.18726445043E+02  0.00000000000E+00 0.  1.
         11    1    3    3    0    0 -0.16298951729E+02 -0.17666669402E+01  0.97313730802E+00  0.16423274218E+02  0.51100000000E-03 0. -1.
        -11    1    3    3    0    0  0.10120307184E+02  0.20495973384E+02 -0.20944737455E+02  0.31003025172E+02  0.51100000000E-03 0.  1.
        -12    1    3    3    0    0  0.20046152751E+02 -0.89853687581E+01  0.12007453082E+02  0.25035255568E+02  0.00000000000E+00 0.  1.
</event>
<event>
 7    1  0.1920603E-013  0.7246163E+02  0.7816164E-02  0.1226708E+00
        -11   -1    0    0    0    0  0.00000000000E+00  0.00000000000E+00  0.45593999997E+02  0.45594000000E+02  0.51100000000E-03 0. -1.
         11   -1    0    0    0    0 -0.00000000000E+00 -0.00000000000E+00 -0.45593999997E+02  0.45594000000E+02  0.51100000000E-03 0.  1.
    9900012    2    1    2    0    0 -0.10751277318E+02  0.82635686699E+01  0.12915129891E+02  0.72461625251E+02  0.70000071592E+02 0.  0.
        -12    1    1    2    0    0  0.10751277318E+02 -0.82635686699E+01 -0.12915129891E+02  0.18726374749E+02  0.00000000000E+00 0.  1.
         11    1    3    3    0    0 -0.52134819798E+01 -0.83163345418E+01  0.12396845855E+02  0.15812134643E+02  0.51100000000E-03 0. -1.
        -11    1    3    3    0    0  0.15703365143E+02  0.18386444986E+02 -0.16583084171E+02  0.29319886032E+02  0.51100000000E-03 0.  1.
        -12    1    3    3    0    0 -0.21241160481E+02 -0.18065417741E+01  0.17101368207E+02  0.27329604577E+02  0.00000000000E+00 0.  1.
</event>
<event>
 7    1  0.1920603E-013  0.7246166E+02  0.7816164E-02  0.1226708E+00
        -11   -1    0    0    0    0  0.00000000000E+00  0.00000000000E+00  0.45593999997E+02  0.45594000000E+02  0.51100000000E-03 0.  1.
         11   -1    0    0    0    0 -0.00000000000E+00 -0.00000000000E+00 -0.45593999997E+02  0.45594000000E+02  0.51100000000E-03 0. -1.
    9900012    2    1    2    0    0  0.38108490177E+01  0.11930469709E+00 -0.18334093910E+02  0.72461660173E+02  0.70000117083E+02 0.  0.
        -12    1    1    2    0    0 -0.38108490177E+01 -0.11930469709E+00  0.18334093910E+02  0.18726339827E+02  0.00000000000E+00 0.  1.
         11    1    3    3    0    0 -0.10860739323E+01  0.98650071006E+01 -0.42887205610E+02  0.44020567090E+02  0.51100000000E-03 0. -1.
        -11    1    3    3    0    0 -0.56509845690E+00 -0.52624112591E+01  0.37934486083E+01  0.65117248967E+01  0.51100000000E-03 0.  1.
         12    1    3    3    0    0  0.54620214070E+01 -0.44832911444E+01  0.20759663092E+02  0.21929368186E+02  0.00000000000E+00 0. -1.
</event>
<event>
 8    1  0.1920603E-013  0.7246157E+02  0.7816164E-02  0.1226708E+00
        -11   -1    0    0    0    0  0.00000000000E+00  0.00000000000E+00  0.45593999997E+02  0.45594000000E+02  0.51100000000E-03 0.  1.
         11   -1    0    0    0    0 -0.00000000000E+00 -0.00000000000E+00 -0.45593999997E+02  0.45594000000E+02  0.51100000000E-03 0. -1.
    9900012    2    1    2    0    0  0.77286501212E+00 -0.46110636719E+01 -0.18133389711E+02  0.72461573461E+02  0.70000004125E+02 0.  0.
        -24    2    3    3    0    0 -0.41486123320E+01  0.12403367553E+02 -0.12415731366E+02  0.53849657214E+02  0.50740326031E+02 0.  0.
        -12    1    1    2    0    0 -0.77286501212E+00  0.46110636719E+01  0.18133389711E+02  0.18726426539E+02  0.00000000000E+00 0.  1.
         11    1    4    4    0    0  0.89265000173E+01  0.13112199911E+02 -0.28797815685E+02  0.32877444815E+02  0.51100000000E-03 0. -1.
        -11    1    3    3    0    0  0.49214773441E+01 -0.17014431225E+02 -0.57176583455E+01  0.18611916247E+02  0.51100000000E-03 0.  1.
        -12    1    4    4    0    0 -0.13075112349E+02 -0.70883235769E+00  0.16382084319E+02  0.20972212399E+02  0.00000000000E+00 0.  1.
</event>
<event>
 7    1  0.1920603E-013  0.7246156E+02  0.7816164E-02  0.1226708E+00
        -11   -1    0    0    0    0  0.00000000000E+00  0.00000000000E+00  0.45593999997E+02  0.45594000000E+02  0.51100000000E-03 0. -1.
         11   -1    0    0    0    0 -0.00000000000E+00 -0.00000000000E+00 -0.45593999997E+02  0.45594000000E+02  0.51100000000E-03 0.  1.
    9900012    2    1    2    0    0 -0.17898518176E+02  0.64867923305E+00 -0.54682596276E+01  0.72461558774E+02  0.69999984993E+02 0.  0.
        -12    1    1    2    0    0  0.17898518176E+02 -0.64867923305E+00  0.54682596276E+01  0.18726441226E+02  0.00000000000E+00 0.  1.
         11    1    3    3    0    0 -0.13065786619E+02  0.19220977570E+02 -0.16935590569E+02  0.28757172790E+02  0.51100000000E-03 0. -1.
        -11    1    3    3    0    0 -0.23774482767E+01 -0.11815818077E+02 -0.13280113056E+02  0.17933968333E+02  0.51100000000E-03 0.  1.
         12    1    3    3    0    0 -0.24552832798E+01 -0.67564802602E+01  0.24747443997E+02  0.25770417650E+02  0.00000000000E+00 0. -1.
</event>
<event>
 7    1  0.1920603E-013  0.7246155E+02  0.7816164E-02  0.1226708E+00
        -11   -1    0    0    0    0  0.00000000000E+00  0.00000000000E+00  0.45593999997E+02  0.45594000000E+02  0.51100000000E-03 0. -1.
         11   -1    0    0    0    0 -0.00000000000E+00 -0.00000000000E+00 -0.45593999997E+02  0.45594000000E+02  0.51100000000E-03 0.  1.
    9900012    2    1    2    0    0  0.99604943039E+01 -0.15186186080E+02 -0.45659801449E+01  0.72461551615E+02  0.69999975667E+02 0.  0.
        -12    1    1    2    0    0 -0.99604943039E+01  0.15186186080E+02  0.45659801449E+01  0.18726448385E+02  0.00000000000E+00 0.  1.
         11    1    3    3    0    0  0.16566223752E+02 -0.13340461442E+02  0.20403020053E+02  0.29473562873E+02  0.51100000000E-03 0. -1.
        -11    1    3    3    0    0 -0.54916091274E+01  0.14407915555E+02 -0.21288154417E+02  0.26285572472E+02  0.51100000000E-03 0.  1.
        -12    1    3    3    0    0 -0.11141203209E+01 -0.16253640193E+02 -0.36808457807E+01  0.16702416270E+02  0.00000000000E+00 0.  1.
</event>
<event>
 7    1  0.1920603E-013  0.7246196E+02  0.7816164E-02  0.1226707E+00
        -11   -1    0    0    0    0  0.00000000000E+00  0.00000000000E+00  0.45593999997E+02  0.45594000000E+02  0.51100000000E-03 0.  1.
         11   -1    0    0    0    0 -0.00000000000E+00 -0.00000000000E+00 -0.45593999997E+02  0.45594000000E+02  0.51100000000E-03 0. -1.
    9900012    2    1    2    0    0  0.12672621073E+02  0.23753537725E+01 -0.13580393890E+02  0.72461955874E+02  0.70000502287E+02 0.  0.
        -12    1    1    2    0    0 -0.12672621073E+02 -0.23753537725E+01  0.13580393890E+02  0.18726044126E+02  0.00000000000E+00 0.  1.
         11    1    3    3    0    0  0.13745702213E+02 -0.27256411617E+01  0.24807679894E+02  0.28492006442E+02  0.51100000000E-03 0. -1.
        -11    1    3    3    0    0 -0.57734766327E+01  0.91477055637E+01 -0.94158597835E+01  0.14341267909E+02  0.51100000000E-03 0.  1.
         12    1    3    3    0    0  0.47003954921E+01 -0.40467106295E+01 -0.28972214001E+02  0.29628681523E+02  0.00000000000E+00 0. -1.
</event>
<event>
 7    1  0.1920603E-013  0.7246159E+02  0.7816164E-02  0.1226708E+00
        -11   -1    0    0    0    0  0.00000000000E+00  0.00000000000E+00  0.45593999997E+02  0.45594000000E+02  0.51100000000E-03 0.  1.
         11   -1    0    0    0    0 -0.00000000000E+00 -0.00000000000E+00 -0.45593999997E+02  0.45594000000E+02  0.51100000000E-03 0. -1.
    9900012    2    1    2    0    0  0.18294414015E+02 -0.27179729390E+01 -0.29335128358E+01  0.72461589276E+02  0.70000024728E+02 0.  0.
        -12    1    1    2    0    0 -0.18294414015E+02  0.27179729390E+01  0.29335128358E+01  0.18726410724E+02  0.00000000000E+00 0.  1.
         11    1    3    3    0    0  0.28673481560E-01 -0.94266283493E+01 -0.17572003928E+02  0.19940849192E+02  0.51100000000E-03 0. -1.
        -11    1    3    3    0    0 -0.68410754836E+01  0.16877823889E+02  0.17531335138E+02  0.25278626644E+02  0.51100000000E-03 0.  1.
         12    1    3    3    0    0  0.25106816017E+02 -0.10169168478E+02 -0.28928440464E+01  0.27242113441E+02  0.00000000000E+00 0. -1.
</event>
<event>
 7    1  0.1920603E-013  0.7246154E+02  0.7816164E-02  0.1226708E+00
        -11   -1    0    0    0    0  0.00000000000E+00  0.00000000000E+00  0.45593999997E+02  0.45594000000E+02  0.51100000000E-03 0.  1.
         11   -1    0    0    0    0 -0.00000000000E+00 -0.00000000000E+00 -0.45593999997E+02  0.45594000000E+02  0.51100000000E-03 0. -1.
    9900012    2    1    2    0    0  0.69013699793E+01  0.10796515481E+02  0.13656013279E+02  0.72461538701E+02  0.69999958843E+02 0.  0.
        -12    1    1    2    0    0 -0.69013699793E+01 -0.10796515481E+02 -0.13656013279E+02  0.18726461299E+02  0.00000000000E+00 0.  1.
         11    1    3    3    0    0 -0.47924977976E+01 -0.21147385321E+02 -0.11476209758E+02  0.24533310656E+02  0.51100000000E-03 0.  1.
        -11    1    3    3    0    0  0.34213698234E+00  0.26656233412E+02  0.23033268752E+02  0.35230715393E+02  0.51100000000E-03 0. -1.
        -12    1    3    3    0    0  0.11351730794E+02  0.52876673911E+01  0.20989542842E+01  0.12697512652E+02  0.00000000000E+00 0.  1.
</event>
<event>
 7    1  0.1920603E-013  0.7246158E+02  0.7816164E-02  0.1226708E+00
        -11   -1    0    0    0    0  0.00000000000E+00  0.00000000000E+00  0.45593999997E+02  0.45594000000E+02  0.51100000000E-03 0.  1.
         11   -1    0    0    0    0 -0.00000000000E+00 -0.00000000000E+00 -0.45593999997E+02  0.45594000000E+02  0.51100000000E-03 0. -1.
    9900012    2    1    2    0    0 -0.15518329887E+02 -0.11567992667E+01  0.10417396189E+02  0.72461577748E+02  0.70000009709E+02 0.  0.
        -12    1    1    2    0    0  0.15518329887E+02  0.11567992667E+01 -0.10417396189E+02  0.18726422252E+02  0.00000000000E+00 0.  1.
         11    1    3    3    0    0 -0.22534168422E+02 -0.14041491871E+02  0.33326219442E+02  0.42609730614E+02  0.51100000000E-03 0.  1.
        -11    1    3    3    0    0  0.98825099862E+01  0.57875938820E+01 -0.12868407435E+02  0.17226611876E+02  0.51100000000E-03 0. -1.
        -12    1    3    3    0    0 -0.28666714510E+01  0.70970987222E+01 -0.10040415819E+02  0.12625235257E+02  0.00000000000E+00 0.  1.
</event>
<event>
 7    1  0.1920603E-013  0.7246158E+02  0.7816164E-02  0.1226708E+00
        -11   -1    0    0    0    0  0.00000000000E+00  0.00000000000E+00  0.45593999997E+02  0.45594000000E+02  0.51100000000E-03 0.  1.
         11   -1    0    0    0    0 -0.00000000000E+00 -0.00000000000E+00 -0.45593999997E+02  0.45594000000E+02  0.51100000000E-03 0. -1.
    9900012    2    1    2    0    0  0.37382249453E+01  0.48054105300E+00 -0.18343213222E+02  0.72461582383E+02  0.70000015748E+02 0.  0.
        -12    1    1    2    0    0 -0.37382249453E+01 -0.48054105300E+00  0.18343213222E+02  0.18726417617E+02  0.00000000000E+00 0.  1.
         11    1    3    3    0    0  0.55253939018E+01 -0.28883798639E+02 -0.10075510721E+02  0.31085683491E+02  0.51100000000E-03 0. -1.
        -11    1    3    3    0    0 -0.12595828734E+02  0.72720259474E+01 -0.83705077814E+01  0.16781020936E+02  0.51100000000E-03 0.  1.
         12    1    3    3    0    0  0.10808659777E+02  0.22092313744E+02  0.10280527973E+00  0.24594877956E+02  0.00000000000E+00 0. -1.
</event>
<event>
 7    1  0.1920603E-013  0.7246163E+02  0.7816164E-02  0.1226708E+00
        -11   -1    0    0    0    0  0.00000000000E+00  0.00000000000E+00  0.45593999997E+02  0.45594000000E+02  0.51100000000E-03 0. -1.
         11   -1    0    0    0    0 -0.00000000000E+00 -0.00000000000E+00 -0.45593999997E+02  0.45594000000E+02  0.51100000000E-03 0.  1.
    9900012    2    1    2    0    0 -0.13307757983E+02  0.13167960892E+02  0.43027029474E+00  0.72461634920E+02  0.70000084186E+02 0.  0.
        -12    1    1    2    0    0  0.13307757983E+02 -0.13167960892E+02 -0.43027029474E+00  0.18726365080E+02  0.00000000000E+00 0.  1.
         11    1    3    3    0    0 -0.27252380117E+02  0.19448349698E+02 -0.83553870942E+01  0.34507144503E+02  0.51100000000E-03 0. -1.
        -11    1    3    3    0    0  0.15343994894E+02  0.82015050008E+01  0.14172223773E+02  0.22440026527E+02  0.51100000000E-03 0.  1.
         12    1    3    3    0    0 -0.13993727605E+01 -0.14481893807E+02 -0.53865663845E+01  0.15514463890E+02  0.00000000000E+00 0. -1.
</event>
<event>
 7    1  0.1920603E-013  0.7246155E+02  0.7816164E-02  0.1226708E+00
        -11   -1    0    0    0    0  0.00000000000E+00  0.00000000000E+00  0.45593999997E+02  0.45594000000E+02  0.51100000000E-03 0.  1.
         11   -1    0    0    0    0 -0.00000000000E+00 -0.00000000000E+00 -0.45593999997E+02  0.45594000000E+02  0.51100000000E-03 0. -1.
    9900012    2    1    2    0    0 -0.56677067816E+00  0.12314601838E+02 -0.14096425883E+02  0.72461551589E+02  0.69999975632E+02 0.  0.
        -12    1    1    2    0    0  0.56677067816E+00 -0.12314601838E+02  0.14096425883E+02  0.18726448411E+02  0.00000000000E+00 0.  1.
         11    1    3    3    0    0  0.15213810476E+02  0.26128846531E+02  0.13926955767E+01  0.30267412368E+02  0.51100000000E-03 0. -1.
        -11    1    3    3    0    0 -0.10840569185E+02 -0.49925388599E+01  0.94889005359E+01  0.15247380698E+02  0.51100000000E-03 0.  1.
         12    1    3    3    0    0 -0.49400119697E+01 -0.88217058330E+01 -0.24978021995E+02  0.26946758522E+02  0.00000000000E+00 0. -1.
</event>
<event>
 7    1  0.1920603E-013  0.7246154E+02  0.7816164E-02  0.1226708E+00
        -11   -1    0    0    0    0  0.00000000000E+00  0.00000000000E+00  0.45593999997E+02  0.45594000000E+02  0.51100000000E-03 0. -1.
         11   -1    0    0    0    0 -0.00000000000E+00 -0.00000000000E+00 -0.45593999997E+02  0.45594000000E+02  0.51100000000E-03 0.  1.
    9900012    2    1    2    0    0  0.18663713870E+02 -0.40183695602E+00 -0.14780197474E+01  0.72461541960E+02  0.69999963089E+02 0.  0.
        -12    1    1    2    0    0 -0.18663713870E+02  0.40183695602E+00  0.14780197474E+01  0.18726458040E+02  0.00000000000E+00 0.  1.
         11    1    3    3    0    0 -0.45234328189E+01 -0.45613108213E+00 -0.26329828423E+02  0.26719456676E+02  0.51100000000E-03 0. -1.
        -11    1    3    3    0    0 -0.47470938522E+01 -0.66019073090E+01  0.11472439306E+02  0.14061896887E+02  0.51100000000E-03 0.  1.
         12    1    3    3    0    0  0.27934240541E+02  0.66562014351E+01  0.13379369370E+02  0.31680188397E+02  0.00000000000E+00 0. -1.
</event>
<event>
 7    1  0.1920603E-013  0.7246157E+02  0.7816164E-02  0.1226708E+00
        -11   -1    0    0    0    0  0.00000000000E+00  0.00000000000E+00  0.45593999997E+02  0.45594000000E+02  0.51100000000E-03 0.  1.
         11   -1    0    0    0    0 -0.00000000000E+00 -0.00000000000E+00 -0.45593999997E+02  0.45594000000E+02  0.51100000000E-03 0. -1.
    9900012    2    1    2    0    0  0.85226557749E+01  0.32250342173E+01 -0.16359784682E+02  0.72461573165E+02  0.70000003740E+02 0.  0.
        -12    1    1    2    0    0 -0.85226557749E+01 -0.32250342173E+01  0.16359784682E+02  0.18726426835E+02  0.00000000000E+00 0.  1.
         11    1    3    3    0    0  0.34501668074E+01 -0.16496096909E+02 -0.31895654451E+02  0.36074334885E+02  0.51100000000E-03 0. -1.
        -11    1    3    3    0    0 -0.79433578516E+01  0.58248811349E+01  0.14224669664E+02  0.17302236893E+02  0.51100000000E-03 0.  1.
         12    1    3    3    0    0  0.13015846819E+02  0.13896249991E+02  0.13112001056E+01  0.19085001387E+02  0.00000000000E+00 0. -1.
</event>
<event>
 7    1  0.1920603E-013  0.7246159E+02  0.7816164E-02  0.1226708E+00
        -11   -1    0    0    0    0  0.00000000000E+00  0.00000000000E+00  0.45593999997E+02  0.45594000000E+02  0.51100000000E-03 0. -1.
         11   -1    0    0    0    0 -0.00000000000E+00 -0.00000000000E+00 -0.45593999997E+02  0.45594000000E+02  0.51100000000E-03 0.  1.
    9900012    2    1    2    0    0  0.60498468394E+01 -0.49453418044E+01  0.17018270291E+02  0.72461586140E+02  0.70000020642E+02 0.  0.
        -12    1    1    2    0    0 -0.60498468394E+01  0.49453418044E+01 -0.17018270291E+02  0.18726413860E+02  0.00000000000E+00 0.  1.
         11    1    3    3    0    0  0.10882702787E+01  0.32101370183E+01 -0.18581332137E+02  0.18887964849E+02  0.51100000000E-03 0.  1.
        -11    1    3    3    0    0  0.94610017662E+01 -0.71223492303E+01  0.43138010265E+02  0.44733950673E+02  0.51100000000E-03 0. -1.
         12    1    3    3    0    0 -0.44994252054E+01 -0.10331295924E+01 -0.75384078362E+01  0.88396706182E+01  0.00000000000E+00 0. -1.
</event>
<event>
 7    1  0.1920603E-013  0.7246161E+02  0.7816164E-02  0.1226708E+00
        -11   -1    0    0    0    0  0.00000000000E+00  0.00000000000E+00  0.45593999997E+02  0.45594000000E+02  0.51100000000E-03 0.  1.
         11   -1    0    0    0    0 -0.00000000000E+00 -0.00000000000E+00 -0.45593999997E+02  0.45594000000E+02  0.51100000000E-03 0. -1.
    9900012    2    1    2    0    0 -0.56566902077E+01 -0.15965619066E+02 -0.79861418128E+01  0.72461612272E+02  0.70000054684E+02 0.  0.
        -12    1    1    2    0    0  0.56566902077E+01  0.15965619066E+02  0.79861418128E+01  0.18726387728E+02  0.00000000000E+00 0.  1.
         11    1    3    3    0    0  0.12221820194E+02 -0.21259228890E+02  0.18244803510E+02  0.30564694620E+02  0.51100000000E-03 0. -1.
        -11    1    3    3    0    0  0.43823411434E+01  0.46554418117E+01 -0.16307434779E+02  0.17516006442E+02  0.51100000000E-03 0.  1.
         12    1    3    3    0    0 -0.22260851545E+02  0.63816801207E+00 -0.99235105438E+01  0.24380911210E+02  0.00000000000E+00 0. -1.
</event>
<event>
 7    1  0.1920603E-013  0.7246156E+02  0.7816164E-02  0.1226708E+00
        -11   -1    0    0    0    0  0.00000000000E+00  0.00000000000E+00  0.45593999997E+02  0.45594000000E+02  0.51100000000E-03 0.  1.
         11   -1    0    0    0    0 -0.00000000000E+00 -0.00000000000E+00 -0.45593999997E+02  0.45594000000E+02  0.51100000000E-03 0. -1.
    9900012    2    1    2    0    0  0.21603332208E+01 -0.18123000932E+02 -0.41915738675E+01  0.72461561634E+02  0.69999988718E+02 0.  0.
        -12    1    1    2    0    0 -0.21603332208E+01  0.18123000932E+02  0.41915738675E+01  0.18726438366E+02  0.00000000000E+00 0.  1.
         11    1    3    3    0    0  0.27804382496E+01  0.15411812668E+02 -0.11631089552E+02  0.19507358893E+02  0.51100000000E-03 0. -1.
        -11    1    3    3    0    0  0.11793564106E+02 -0.34467318450E+02 -0.32120963766E+01  0.36570503946E+02  0.51100000000E-03 0.  1.
        -12    1    3    3    0    0 -0.12413669135E+02  0.93250485069E+00  0.10651612061E+02  0.16383698794E+02  0.00000000000E+00 0.  1.
</event>
<event>
 7    1  0.1920603E-013  0.7246161E+02  0.7816164E-02  0.1226708E+00
        -11   -1    0    0    0    0  0.00000000000E+00  0.00000000000E+00  0.45593999997E+02  0.45594000000E+02  0.51100000000E-03 0. -1.
         11   -1    0    0    0    0 -0.00000000000E+00 -0.00000000000E+00 -0.45593999997E+02  0.45594000000E+02  0.51100000000E-03 0.  1.
    9900012    2    1    2    0    0  0.16516421247E+02  0.84764299329E+01 -0.24567613956E+01  0.72461609216E+02  0.70000050703E+02 0.  0.
        -12    1    1    2    0    0 -0.16516421247E+02 -0.84764299329E+01  0.24567613956E+01  0.18726390784E+02  0.00000000000E+00 0.  1.
         11    1    3    3    0    0 -0.95654935780E+01  0.99025436575E+01  0.57139448595E+00  0.13779895870E+02  0.51100000000E-03 0. -1.
        -11    1    3    3    0    0  0.33435309993E+02 -0.58121915694E+01 -0.20200051518E+02  0.39493589438E+02  0.51100000000E-03 0.  1.
        -12    1    3    3    0    0 -0.73533951671E+01  0.43860778448E+01  0.17171895636E+02  0.19188123907E+02  0.00000000000E+00 0.  1.
</event>
<event>
 7    1  0.1920603E-013  0.7246159E+02  0.7816164E-02  0.1226708E+00
        -11   -1    0    0    0    0  0.00000000000E+00  0.00000000000E+00  0.45593999997E+02  0.45594000000E+02  0.51100000000E-03 0.  1.
         11   -1    0    0    0    0 -0.00000000000E+00 -0.00000000000E+00 -0.45593999997E+02  0.45594000000E+02  0.51100000000E-03 0. -1.
    9900012    2    1    2    0    0 -0.14689822031E+02  0.64004110036E+01 -0.96913524193E+01  0.72461589665E+02  0.70000025234E+02 0.  0.
        -12    1    1    2    0    0  0.14689822031E+02 -0.64004110036E+01  0.96913524193E+01  0.18726410335E+02  0.00000000000E+00 0.  1.
         11    1    3    3    0    0 -0.36035111094E+02  0.13946836937E+02 -0.40457494309E+01  0.38851146455E+02  0.51100000000E-03 0. -1.
        -11    1    3    3    0    0  0.10835583839E+02 -0.48001248370E+01 -0.15109941306E+02  0.19203161253E+02  0.51100000000E-03 0.  1.
         12    1    3    3    0    0  0.10509705225E+02 -0.27463010960E+01  0.94643383174E+01  0.14407281958E+02  0.00000000000E+00 0. -1.
</event>
<event>
 7    1  0.1920603E-013  0.7246148E+02  0.7816164E-02  0.1226708E+00
        -11   -1    0    0    0    0  0.00000000000E+00  0.00000000000E+00  0.45593999997E+02  0.45594000000E+02  0.51100000000E-03 0. -1.
         11   -1    0    0    0    0 -0.00000000000E+00 -0.00000000000E+00 -0.45593999997E+02  0.45594000000E+02  0.51100000000E-03 0.  1.
    9900012    2    1    2    0    0  0.64368629145E+01 -0.68450533569E+01  0.16198604228E+02  0.72461475000E+02  0.69999875862E+02 0.  0.
        -12    1    1    2    0    0 -0.64368629145E+01  0.68450533569E+01 -0.16198604228E+02  0.18726525000E+02  0.00000000000E+00 0.  1.
         11    1    3    3    0    0  0.31862174757E+01  0.25028849707E+02  0.11031618234E+02  0.27537100438E+02  0.51100000000E-03 0. -1.
        -11    1    3    3    0    0 -0.11791622963E+02 -0.25565760626E+02  0.14299518985E+01  0.28190339678E+02  0.51100000000E-03 0.  1.
        -12    1    3    3    0    0  0.15042268401E+02 -0.63081424376E+01  0.37370340955E+01  0.16734034884E+02  0.00000000000E+00 0.  1.
</event>
<event>
 7    1  0.1920603E-013  0.7246158E+02  0.7816164E-02  0.1226708E+00
        -11   -1    0    0    0    0  0.00000000000E+00  0.00000000000E+00  0.45593999997E+02  0.45594000000E+02  0.51100000000E-03 0. -1.
         11   -1    0    0    0    0 -0.00000000000E+00 -0.00000000000E+00 -0.45593999997E+02  0.45594000000E+02  0.51100000000E-03 0.  1.
    9900012    2    1    2    0    0  0.89851384297E+01 -0.12297092645E+02  0.10896224395E+02  0.72461577325E+02  0.70000009159E+02 0.  0.
        -12    1    1    2    0    0 -0.89851384297E+01  0.12297092645E+02 -0.10896224395E+02  0.18726422675E+02  0.00000000000E+00 0.  1.
         11    1    3    3    0    0 -0.12448137767E+02  0.13536982894E+02  0.11883653237E+02  0.21895827325E+02  0.51100000000E-03 0. -1.
        -11    1    3    3    0    0  0.48736434021E+01 -0.30477583264E+02 -0.81700111928E+01  0.31927802379E+02  0.51100000000E-03 0.  1.
        -12    1    3    3    0    0  0.16559632794E+02  0.46435077240E+01  0.71825823511E+01  0.18637947620E+02  0.00000000000E+00 0.  1.
</event>
<event>
 7    1  0.1920603E-013  0.7246145E+02  0.7816164E-02  0.1226708E+00
        -11   -1    0    0    0    0  0.00000000000E+00  0.00000000000E+00  0.45593999997E+02  0.45594000000E+02  0.51100000000E-03 0. -1.
         11   -1    0    0    0    0 -0.00000000000E+00 -0.00000000000E+00 -0.45593999997E+02  0.45594000000E+02  0.51100000000E-03 0.  1.
    9900012    2    1    2    0    0 -0.12244087378E+02  0.14029339480E+01  0.14099571570E+02  0.72461446184E+02  0.69999838323E+02 0.  0.
        -12    1    1    2    0    0  0.12244087378E+02 -0.14029339480E+01 -0.14099571570E+02  0.18726553816E+02  0.00000000000E+00 0.  1.
         11    1    3    3    0    0 -0.12062786669E+02 -0.10993814122E+02  0.21913198189E+01  0.16467442241E+02  0.51100000000E-03 0. -1.
        -11    1    3    3    0    0  0.19178554205E+02  0.22891443098E+02 -0.20294669046E+01  0.29932488113E+02  0.51100000000E-03 0.  1.
        -12    1    3    3    0    0 -0.19359854914E+02 -0.10494695027E+02  0.13937718655E+02  0.26061515829E+02  0.00000000000E+00 0.  1.
</event>
<event>
 7    1  0.1920603E-013  0.7246158E+02  0.7816164E-02  0.1226708E+00
        -11   -1    0    0    0    0  0.00000000000E+00  0.00000000000E+00  0.45593999997E+02  0.45594000000E+02  0.51100000000E-03 0.  1.
         11   -1    0    0    0    0 -0.00000000000E+00 -0.00000000000E+00 -0.45593999997E+02  0.45594000000E+02  0.51100000000E-03 0. -1.
    9900012    2    1    2    0    0  0.18292801218E+02  0.11883160602E+01  0.38262669900E+01  0.72461575073E+02  0.70000006225E+02 0.  0.
        -12    1    1    2    0    0 -0.18292801218E+02 -0.11883160602E+01 -0.38262669900E+01  0.18726424927E+02  0.00000000000E+00 0.  1.
         11    1    3    3    0    0  0.24569177586E+02 -0.12779544663E+01 -0.22974661507E+02  0.33661739802E+02  0.51100000000E-03 0. -1.
        -11    1    3    3    0    0 -0.87446425193E+01 -0.11175509777E+02  0.13296304327E+02  0.19446143592E+02  0.51100000000E-03 0.  1.
         12    1    3    3    0    0  0.24682661512E+01  0.13641780304E+02  0.13504624170E+02  0.19353691679E+02  0.00000000000E+00 0. -1.
</event>
<event>
 7    1  0.1920603E-013  0.7246160E+02  0.7816164E-02  0.1226708E+00
        -11   -1    0    0    0    0  0.00000000000E+00  0.00000000000E+00  0.45593999997E+02  0.45594000000E+02  0.51100000000E-03 0. -1.
         11   -1    0    0    0    0 -0.00000000000E+00 -0.00000000000E+00 -0.45593999997E+02  0.45594000000E+02  0.51100000000E-03 0.  1.
    9900012    2    1    2    0    0  0.35754188929E-01 -0.39739986118E+01  0.18299840253E+02  0.72461598941E+02  0.70000037317E+02 0.  0.
        -12    1    1    2    0    0 -0.35754188929E-01  0.39739986118E+01 -0.18299840253E+02  0.18726401059E+02  0.00000000000E+00 0.  1.
         11    1    3    3    0    0  0.14114670673E+02 -0.10411170802E+02 -0.19031653279E+02  0.25880885465E+02  0.51100000000E-03 0.  1.
        -11    1    3    3    0    0 -0.94859017799E+01 -0.42476502433E+01  0.32259852176E+02  0.33892815284E+02  0.51100000000E-03 0. -1.
        -12    1    3    3    0    0 -0.45930147040E+01  0.10684822433E+02  0.50716413560E+01  0.12687898192E+02  0.00000000000E+00 0.  1.
</event>
<event>
 7    1  0.1920603E-013  0.7246155E+02  0.7816164E-02  0.1226708E+00
        -11   -1    0    0    0    0  0.00000000000E+00  0.00000000000E+00  0.45593999997E+02  0.45594000000E+02  0.51100000000E-03 0.  1.
         11   -1    0    0    0    0 -0.00000000000E+00 -0.00000000000E+00 -0.45593999997E+02  0.45594000000E+02  0.51100000000E-03 0. -1.
    9900012    2    1    2    0    0 -0.10081724413E+02 -0.13766244689E+02 -0.77155123538E+01  0.72461553704E+02  0.69999978388E+02 0.  0.
        -12    1    1    2    0    0  0.10081724413E+02  0.13766244689E+02  0.77155123538E+01  0.18726446296E+02  0.00000000000E+00 0.  1.
         11    1    3    3    0    0  0.13429668358E+02 -0.59501730021E+01 -0.26453551805E+02  0.30258072548E+02  0.51100000000E-03 0. -1.
        -11    1    3    3    0    0 -0.18268826207E+02 -0.17918193867E+02  0.16921068535E+02  0.30677911322E+02  0.51100000000E-03 0.  1.
         12    1    3    3    0    0 -0.52425665641E+01  0.10102122179E+02  0.18169709160E+01  0.11525569835E+02  0.00000000000E+00 0. -1.
</event>
<event>
 7    1  0.1920603E-013  0.7246150E+02  0.7816164E-02  0.1226708E+00
        -11   -1    0    0    0    0  0.00000000000E+00  0.00000000000E+00  0.45593999997E+02  0.45594000000E+02  0.51100000000E-03 0. -1.
         11   -1    0    0    0    0 -0.00000000000E+00 -0.00000000000E+00 -0.45593999997E+02  0.45594000000E+02  0.51100000000E-03 0.  1.
    9900012    2    1    2    0    0 -0.32583692425E+01  0.17934343085E+02  0.42923253208E+01  0.72461503033E+02  0.69999912380E+02 0.  0.
        -12    1    1    2    0    0  0.32583692425E+01 -0.17934343085E+02 -0.42923253208E+01  0.18726496967E+02  0.00000000000E+00 0.  1.
         11    1    3    3    0    0  0.26154175359E+02  0.60329261044E+01 -0.49224990679E+01  0.27288607209E+02  0.51100000000E-03 0. -1.
        -11    1    3    3    0    0 -0.22100402767E+02  0.18855590235E+02 -0.31406591562E+01  0.29220281070E+02  0.51100000000E-03 0.  1.
        -12    1    3    3    0    0 -0.73121418344E+01 -0.69541732552E+01  0.12355483545E+02  0.15952614754E+02  0.00000000000E+00 0.  1.
</event>
<event>
 7    1  0.1920603E-013  0.7246147E+02  0.7816164E-02  0.1226708E+00
        -11   -1    0    0    0    0  0.00000000000E+00  0.00000000000E+00  0.45593999997E+02  0.45594000000E+02  0.51100000000E-03 0.  1.
         11   -1    0    0    0    0 -0.00000000000E+00 -0.00000000000E+00 -0.45593999997E+02  0.45594000000E+02  0.51100000000E-03 0. -1.
    9900012    2    1    2    0    0 -0.33114828504E+01 -0.12589661956E+02 -0.13461705151E+02  0.72461467689E+02  0.69999866337E+02 0.  0.
        -12    1    1    2    0    0  0.33114828504E+01  0.12589661956E+02  0.13461705151E+02  0.18726532311E+02  0.00000000000E+00 0.  1.
         11    1    3    3    0    0  0.46122968154E+01  0.16438126812E+02  0.68449501368E+01  0.18393983735E+02  0.51100000000E-03 0. -1.
        -11    1    3    3    0    0  0.12224103420E+02 -0.27261150915E+02 -0.11645899629E+02  0.32065963763E+02  0.51100000000E-03 0.  1.
         12    1    3    3    0    0 -0.20147883085E+02 -0.17666378536E+01 -0.86607556587E+01  0.22001520191E+02  0.00000000000E+00 0. -1.
</event>
<event>
 7    1  0.1920603E-013  0.7246154E+02  0.7816164E-02  0.1226708E+00
        -11   -1    0    0    0    0  0.00000000000E+00  0.00000000000E+00  0.45593999997E+02  0.45594000000E+02  0.51100000000E-03 0.  1.
         11   -1    0    0    0    0 -0.00000000000E+00 -0.00000000000E+00 -0.45593999997E+02  0.45594000000E+02  0.51100000000E-03 0. -1.
    9900012    2    1    2    0    0 -0.45685856695E+01  0.14092534749E+02 -0.11454637632E+02  0.72461541874E+02  0.69999962977E+02 0.  0.
        -12    1    1    2    0    0  0.45685856695E+01 -0.14092534749E+02  0.11454637632E+02  0.18726458126E+02  0.00000000000E+00 0.  1.
         11    1    3    3    0    0 -0.17849322231E+02  0.68028337400E+01  0.11867681202E+02  0.22488190421E+02  0.51100000000E-03 0. -1.
        -11    1    3    3    0    0  0.27040152233E+02 -0.27014538665E+01 -0.15043661985E+02  0.31060899085E+02  0.51100000000E-03 0.  1.
        -12    1    3    3    0    0 -0.13759415671E+02  0.99911548759E+01 -0.82786568489E+01  0.18912452368E+02  0.00000000000E+00 0.  1.
</event>
<event>
 7    1  0.1920603E-013  0.7246146E+02  0.7816164E-02  0.1226708E+00
        -11   -1    0    0    0    0  0.00000000000E+00  0.00000000000E+00  0.45593999997E+02  0.45594000000E+02  0.51100000000E-03 0.  1.
         11   -1    0    0    0    0 -0.00000000000E+00 -0.00000000000E+00 -0.45593999997E+02  0.45594000000E+02  0.51100000000E-03 0. -1.
    9900012    2    1    2    0    0  0.13267433080E+02  0.11727388534E+02  0.60931891341E+01  0.72461457975E+02  0.69999853684E+02 0.  0.
        -12    1    1    2    0    0 -0.13267433080E+02 -0.11727388534E+02 -0.60931891341E+01  0.18726542025E+02  0.00000000000E+00 0.  1.
         11    1    3    3    0    0  0.11506424126E+02  0.17673457237E+01 -0.10860962042E+02  0.15921111889E+02  0.51100000000E-03 0. -1.
        -11    1    3    3    0    0  0.14443437410E+02 -0.85338005364E+01  0.27143430350E+02  0.31909315995E+02  0.51100000000E-03 0.  1.
        -12    1    3    3    0    0 -0.12682428456E+02  0.18493843347E+02 -0.10189279174E+02  0.24631030091E+02  0.00000000000E+00 0.  1.
</event>
<event>
 7    1  0.1920603E-013  0.7246152E+02  0.7816164E-02  0.1226708E+00
        -11   -1    0    0    0    0  0.00000000000E+00  0.00000000000E+00  0.45593999997E+02  0.45594000000E+02  0.51100000000E-03 0.  1.
         11   -1    0    0    0    0 -0.00000000000E+00 -0.00000000000E+00 -0.45593999997E+02  0.45594000000E+02  0.51100000000E-03 0. -1.
    9900012    2    1    2    0    0  0.90530407705E+01  0.15462365371E+02  0.54441394466E+01  0.72461522905E+02  0.69999938267E+02 0.  0.
        -12    1    1    2    0    0 -0.90530407705E+01 -0.15462365371E+02 -0.54441394466E+01  0.18726477095E+02  0.00000000000E+00 0.  1.
         11    1    3    3    0    0 -0.16281466114E+02  0.61797622215E+01 -0.17104602973E+02  0.24409896417E+02  0.51100000000E-03 0.  1.
        -11    1    3    3    0    0  0.26201599998E+02  0.16958502391E+02  0.90457903237E+01  0.32495245324E+02  0.51100000000E-03 0. -1.
        -12    1    3    3    0    0 -0.86709311330E+00 -0.76758992419E+01  0.13502952096E+02  0.15556381165E+02  0.00000000000E+00 0.  1.
</event>
<event>
 7    1  0.1920603E-013  0.7246148E+02  0.7816164E-02  0.1226708E+00
        -11   -1    0    0    0    0  0.00000000000E+00  0.00000000000E+00  0.45593999997E+02  0.45594000000E+02  0.51100000000E-03 0.  1.
         11   -1    0    0    0    0 -0.00000000000E+00 -0.00000000000E+00 -0.45593999997E+02  0.45594000000E+02  0.51100000000E-03 0. -1.
    9900012    2    1    2    0    0 -0.35747037775E+01  0.43880675940E+01 -0.17850739526E+02  0.72461480143E+02  0.69999882561E+02 0.  0.
        -12    1    1    2    0    0  0.35747037775E+01 -0.43880675940E+01  0.17850739526E+02  0.18726519857E+02  0.00000000000E+00 0.  1.
         11    1    3    3    0    0  0.12369270403E+02  0.16216584581E+01 -0.37667386157E+02  0.39679473366E+02  0.51100000000E-03 0. -1.
        -11    1    3    3    0    0 -0.16532776666E+02  0.88090971068E+01  0.99883862326E+01  0.21229713986E+02  0.51100000000E-03 0.  1.
         12    1    3    3    0    0  0.58880248561E+00 -0.60426879708E+01  0.98282603980E+01  0.11552292791E+02  0.00000000000E+00 0. -1.
</event>
<event>
 7    1  0.1920603E-013  0.7246174E+02  0.7816164E-02  0.1226708E+00
        -11   -1    0    0    0    0  0.00000000000E+00  0.00000000000E+00  0.45593999997E+02  0.45594000000E+02  0.51100000000E-03 0.  1.
         11   -1    0    0    0    0 -0.00000000000E+00 -0.00000000000E+00 -0.45593999997E+02  0.45594000000E+02  0.51100000000E-03 0. -1.
    9900012    2    1    2    0    0  0.89292991979E+01  0.14200115691E+02 -0.83244995732E+01  0.72461736012E+02  0.70000215877E+02 0.  0.
        -12    1    1    2    0    0 -0.89292991979E+01 -0.14200115691E+02  0.83244995732E+01  0.18726263988E+02  0.00000000000E+00 0.  1.
         11    1    3    3    0    0 -0.14176246690E+02 -0.39829336233E+01 -0.22513488915E+02  0.26901429588E+02  0.51100000000E-03 0. -1.
        -11    1    3    3    0    0 -0.54073473911E+00 -0.38756908165E+01  0.12588720294E+02  0.13182915165E+02  0.51100000000E-03 0.  1.
         12    1    3    3    0    0  0.23646280627E+02  0.22058740131E+02  0.16002690482E+01  0.32377391259E+02  0.00000000000E+00 0. -1.
</event>
<event>
 7    1  0.1920603E-013  0.7246141E+02  0.7816164E-02  0.1226708E+00
        -11   -1    0    0    0    0  0.00000000000E+00  0.00000000000E+00  0.45593999997E+02  0.45594000000E+02  0.51100000000E-03 0.  1.
         11   -1    0    0    0    0 -0.00000000000E+00 -0.00000000000E+00 -0.45593999997E+02  0.45594000000E+02  0.51100000000E-03 0. -1.
    9900012    2    1    2    0    0 -0.13529818519E+02 -0.95857352390E+01 -0.87030381294E+01  0.72461409763E+02  0.69999790878E+02 0.  0.
        -12    1    1    2    0    0  0.13529818519E+02  0.95857352390E+01  0.87030381294E+01  0.18726590237E+02  0.00000000000E+00 0.  1.
         11    1    3    3    0    0 -0.26652177231E+00 -0.36428138510E+02  0.65971373424E+01  0.37021649484E+02  0.51100000000E-03 0. -1.
        -11    1    3    3    0    0 -0.82213254707E+01  0.54233411276E+01 -0.33723198609E+01  0.10410348841E+02  0.51100000000E-03 0.  1.
         12    1    3    3    0    0 -0.50419712756E+01  0.21419062144E+02 -0.11927855611E+02  0.25029411438E+02  0.00000000000E+00 0. -1.
</event>
<event>
 7    1  0.1920603E-013  0.7246167E+02  0.7816164E-02  0.1226708E+00
        -11   -1    0    0    0    0  0.00000000000E+00  0.00000000000E+00  0.45593999997E+02  0.45594000000E+02  0.51100000000E-03 0.  1.
         11   -1    0    0    0    0 -0.00000000000E+00 -0.00000000000E+00 -0.45593999997E+02  0.45594000000E+02  0.51100000000E-03 0. -1.
    9900012    2    1    2    0    0  0.17313189245E+02 -0.17538679597E+01  0.69175706558E+01  0.72461672052E+02  0.70000132558E+02 0.  0.
        -12    1    1    2    0    0 -0.17313189245E+02  0.17538679597E+01 -0.69175706558E+01  0.18726327948E+02  0.00000000000E+00 0.  1.
         11    1    3    3    0    0 -0.81282960699E+01 -0.83613260491E+01 -0.19416386019E+02  0.22648995929E+02  0.51100000000E-03 0. -1.
        -11    1    3    3    0    0  0.11969471348E+01  0.14726787445E+02  0.17169780914E+02  0.22651982867E+02  0.51100000000E-03 0.  1.
        -12    1    3    3    0    0  0.24244538180E+02 -0.81193293559E+01  0.91641757607E+01  0.27160693256E+02  0.00000000000E+00 0.  1.
</event>
<event>
 7    1  0.1920603E-013  0.7246152E+02  0.7816164E-02  0.1226708E+00
        -11   -1    0    0    0    0  0.00000000000E+00  0.00000000000E+00  0.45593999997E+02  0.45594000000E+02  0.51100000000E-03 0.  1.
         11   -1    0    0    0    0 -0.00000000000E+00 -0.00000000000E+00 -0.45593999997E+02  0.45594000000E+02  0.51100000000E-03 0. -1.
    9900012    2    1    2    0    0  0.56961423257E+01 -0.17835638326E+02  0.35348583539E+00  0.72461521844E+02  0.69999936884E+02 0.  0.
        -12    1    1    2    0    0 -0.56961423257E+01  0.17835638326E+02 -0.35348583539E+00  0.18726478156E+02  0.00000000000E+00 0.  1.
         11    1    3    3    0    0 -0.23363111862E+02 -0.19809682496E+02 -0.10423316627E+02  0.32355896622E+02  0.51100000000E-03 0. -1.
        -11    1    3    3    0    0  0.87188173490E+01 -0.28473259997E+01  0.16104617410E+02  0.18533314423E+02  0.51100000000E-03 0.  1.
         12    1    3    3    0    0  0.20340436838E+02  0.48213701696E+01 -0.53278149480E+01  0.21572310799E+02  0.00000000000E+00 0. -1.
</event>
<event>
 7    1  0.1920603E-013  0.7246147E+02  0.7816164E-02  0.1226708E+00
        -11   -1    0    0    0    0  0.00000000000E+00  0.00000000000E+00  0.45593999997E+02  0.45594000000E+02  0.51100000000E-03 0.  1.
         11   -1    0    0    0    0 -0.00000000000E+00 -0.00000000000E+00 -0.45593999997E+02  0.45594000000E+02  0.51100000000E-03 0. -1.
    9900012    2    1    2    0    0  0.15293475545E+02  0.10316862132E+02 -0.32179010794E+01  0.72461469999E+02  0.69999869347E+02 0.  0.
        -12    1    1    2    0    0 -0.15293475545E+02 -0.10316862132E+02  0.32179010794E+01  0.18726530001E+02  0.00000000000E+00 0.  1.
         11    1    3    3    0    0 -0.22505569187E+02  0.11113044182E+02 -0.88235222944E+00  0.25115312882E+02  0.51100000000E-03 0. -1.
        -11    1    3    3    0    0  0.24774404032E+02 -0.10410615672E+02  0.81219408822E+01  0.28073438296E+02  0.51100000000E-03 0.  1.
         12    1    3    3    0    0  0.13024640701E+02  0.96144336228E+01 -0.10457489732E+02  0.19272718821E+02  0.00000000000E+00 0. -1.
</event>
<event>
 7    1  0.1920603E-013  0.7246184E+02  0.7816164E-02  0.1226707E+00
        -11   -1    0    0    0    0  0.00000000000E+00  0.00000000000E+00  0.45593999997E+02  0.45594000000E+02  0.51100000000E-03 0.  1.
         11   -1    0    0    0    0 -0.00000000000E+00 -0.00000000000E+00 -0.45593999997E+02  0.45594000000E+02  0.51100000000E-03 0. -1.
    9900012    2    1    2    0    0 -0.11233216054E+02  0.14181070098E+02 -0.48354248327E+01  0.72461835808E+02  0.70000345880E+02 0.  0.
        -12    1    1    2    0    0  0.11233216054E+02 -0.14181070098E+02  0.48354248327E+01  0.18726164192E+02  0.00000000000E+00 0.  1.
         11    1    3    3    0    0  0.43889852503E+01 -0.12321718178E+02  0.70113505791E+01  0.14840719915E+02  0.51100000000E-03 0. -1.
        -11    1    3    3    0    0 -0.24227610147E+02  0.22736756122E+02  0.92825524515E+01  0.34497868813E+02  0.51100000000E-03 0.  1.
        -12    1    3    3    0    0  0.86054088431E+01  0.37660321547E+01 -0.21129327863E+02  0.23123247080E+02  0.00000000000E+00 0.  1.
</event>
<event>
 7    1  0.1920603E-013  0.7246157E+02  0.7816164E-02  0.1226708E+00
        -11   -1    0    0    0    0  0.00000000000E+00  0.00000000000E+00  0.45593999997E+02  0.45594000000E+02  0.51100000000E-03 0.  1.
         11   -1    0    0    0    0 -0.00000000000E+00 -0.00000000000E+00 -0.45593999997E+02  0.45594000000E+02  0.51100000000E-03 0. -1.
    9900012    2    1    2    0    0 -0.71482604748E+01  0.78501091328E+01 -0.15425865458E+02  0.72461570379E+02  0.70000000111E+02 0.  0.
        -12    1    1    2    0    0  0.71482604748E+01 -0.78501091328E+01  0.15425865458E+02  0.18726429621E+02  0.00000000000E+00 0.  1.
         11    1    3    3    0    0  0.45440339520E-01 -0.18188484929E+02 -0.29198568005E+02  0.34400282305E+02  0.51100000000E-03 0. -1.
        -11    1    3    3    0    0  0.33034975089E+01 -0.93430615985E+00  0.77801130741E+01  0.85038922558E+01  0.51100000000E-03 0.  1.
         12    1    3    3    0    0 -0.10497198323E+02  0.26972900222E+02  0.59925894731E+01  0.29557395819E+02  0.00000000000E+00 0. -1.
</event>
<event>
 7    1  0.1920603E-013  0.7246156E+02  0.7816164E-02  0.1226708E+00
        -11   -1    0    0    0    0  0.00000000000E+00  0.00000000000E+00  0.45593999997E+02  0.45594000000E+02  0.51100000000E-03 0.  1.
         11   -1    0    0    0    0 -0.00000000000E+00 -0.00000000000E+00 -0.45593999997E+02  0.45594000000E+02  0.51100000000E-03 0. -1.
    9900012    2    1    2    0    0 -0.99909952145E+01 -0.41460059988E+01 -0.15286270425E+02  0.72461563750E+02  0.69999991475E+02 0.  0.
        -12    1    1    2    0    0  0.99909952145E+01  0.41460059988E+01  0.15286270425E+02  0.18726436250E+02  0.00000000000E+00 0.  1.
         11    1    3    3    0    0 -0.92955518188E+01 -0.26855604966E+02 -0.62118270932E+01  0.29089819487E+02  0.51100000000E-03 0. -1.
        -11    1    3    3    0    0  0.46564703487E+01  0.21910156314E+02  0.92729144444E+01  0.24243032161E+02  0.51100000000E-03 0.  1.
         12    1    3    3    0    0 -0.53519137445E+01  0.79944265320E+00 -0.18347357776E+02  0.19128712101E+02  0.00000000000E+00 0. -1.
</event>
<event>
 7    1  0.1920603E-013  0.7246159E+02  0.7816164E-02  0.1226708E+00
        -11   -1    0    0    0    0  0.00000000000E+00  0.00000000000E+00  0.45593999997E+02  0.45594000000E+02  0.51100000000E-03 0. -1.
         11   -1    0    0    0    0 -0.00000000000E+00 -0.00000000000E+00 -0.45593999997E+02  0.45594000000E+02  0.51100000000E-03 0.  1.
    9900012    2    1    2    0    0 -0.14532621681E+02 -0.82922625640E+01  0.84094997772E+01  0.72461590898E+02  0.70000026840E+02 0.  0.
        -12    1    1    2    0    0  0.14532621681E+02  0.82922625640E+01 -0.84094997772E+01  0.18726409102E+02  0.00000000000E+00 0.  1.
         11    1    3    3    0    0  0.18436545612E+02 -0.96733356713E+01 -0.17250564552E+02  0.27038151097E+02  0.51100000000E-03 0. -1.
        -11    1    3    3    0    0 -0.16757450841E+02  0.55994136218E+01  0.41305442615E+01  0.18144613189E+02  0.51100000000E-03 0.  1.
         12    1    3    3    0    0 -0.16211716451E+02 -0.42183405146E+01  0.21529520068E+02  0.27278826613E+02  0.00000000000E+00 0. -1.
</event>
<event>
 7    1  0.1920603E-013  0.7246154E+02  0.7816164E-02  0.1226708E+00
        -11   -1    0    0    0    0  0.00000000000E+00  0.00000000000E+00  0.45593999997E+02  0.45594000000E+02  0.51100000000E-03 0.  1.
         11   -1    0    0    0    0 -0.00000000000E+00 -0.00000000000E+00 -0.45593999997E+02  0.45594000000E+02  0.51100000000E-03 0. -1.
    9900012    2    1    2    0    0  0.81663397150E+01  0.11154380362E+02 -0.12632147935E+02  0.72461535650E+02  0.69999954869E+02 0.  0.
        -12    1    1    2    0    0 -0.81663397150E+01 -0.11154380362E+02  0.12632147935E+02  0.18726464350E+02  0.00000000000E+00 0.  1.
         11    1    3    3    0    0 -0.49751281042E+01  0.23387638590E+02 -0.94334552993E+01  0.25704544688E+02  0.51100000000E-03 0.  1.
        -11    1    3    3    0    0  0.26678963400E+02 -0.17226013465E+02 -0.52338374195E+01  0.32185333343E+02  0.51100000000E-03 0. -1.
         12    1    3    3    0    0 -0.13537495581E+02  0.49927552377E+01  0.20351447836E+01  0.14571657619E+02  0.00000000000E+00 0. -1.
</event>
<event>
 7    1  0.1920603E-013  0.7246160E+02  0.7816164E-02  0.1226708E+00
        -11   -1    0    0    0    0  0.00000000000E+00  0.00000000000E+00  0.45593999997E+02  0.45594000000E+02  0.51100000000E-03 0.  1.
         11   -1    0    0    0    0 -0.00000000000E+00 -0.00000000000E+00 -0.45593999997E+02  0.45594000000E+02  0.51100000000E-03 0. -1.
    9900012    2    1    2    0    0 -0.14044716507E+02 -0.12186727786E+02 -0.22153571547E+01  0.72461596095E+02  0.70000033610E+02 0.  0.
        -12    1    1    2    0    0  0.14044716507E+02  0.12186727786E+02  0.22153571547E+01  0.18726403905E+02  0.00000000000E+00 0.  1.
         11    1    3    3    0    0 -0.20379733978E+02 -0.19562306530E+02 -0.25947322166E+02  0.38357279904E+02  0.51100000000E-03 0. -1.
        -11    1    3    3    0    0  0.14489222262E+02  0.58747079961E+01  0.11862172264E+02  0.19625516219E+02  0.51100000000E-03 0.  1.
        -12    1    3    3    0    0 -0.81542047906E+01  0.15008707472E+01  0.11869792747E+02  0.14478799972E+02  0.00000000000E+00 0.  1.
</event>
<event>
 7    1  0.1920603E-013  0.7246234E+02  0.7816164E-02  0.1226706E+00
        -11   -1    0    0    0    0  0.00000000000E+00  0.00000000000E+00  0.45593999997E+02  0.45594000000E+02  0.51100000000E-03 0.  1.
         11   -1    0    0    0    0 -0.00000000000E+00 -0.00000000000E+00 -0.45593999997E+02  0.45594000000E+02  0.51100000000E-03 0. -1.
    9900012    2    1    2    0    0 -0.29266211966E+00 -0.12949098937E+02 -0.13523515424E+02  0.72462341566E+02  0.70001004717E+02 0.  0.
        -12    1    1    2    0    0  0.29266211966E+00  0.12949098937E+02  0.13523515424E+02  0.18725658434E+02  0.00000000000E+00 0.  1.
         11    1    3    3    0    0 -0.13269797873E+02 -0.20206777054E+02 -0.24987051565E+02  0.34767141394E+02  0.51100000000E-03 0. -1.
        -11    1    3    3    0    0  0.50287309891E+01  0.19981090676E+02  0.42028057080E+01  0.21028449683E+02  0.51100000000E-03 0.  1.
         12    1    3    3    0    0  0.79484047645E+01 -0.12723412559E+02  0.72607304334E+01  0.16666750489E+02  0.00000000000E+00 0. -1.
</event>
<event>
 7    1  0.1920603E-013  0.7246154E+02  0.7816164E-02  0.1226708E+00
        -11   -1    0    0    0    0  0.00000000000E+00  0.00000000000E+00  0.45593999997E+02  0.45594000000E+02  0.51100000000E-03 0. -1.
         11   -1    0    0    0    0 -0.00000000000E+00 -0.00000000000E+00 -0.45593999997E+02  0.45594000000E+02  0.51100000000E-03 0.  1.
    9900012    2    1    2    0    0 -0.14793865754E+02 -0.64519370065E+01  0.94970683284E+01  0.72461541128E+02  0.69999962005E+02 0.  0.
        -12    1    1    2    0    0  0.14793865754E+02  0.64519370065E+01 -0.94970683284E+01  0.18726458872E+02  0.00000000000E+00 0.  1.
         11    1    3    3    0    0 -0.25983749061E+02  0.56336731575E+01 -0.13022056703E+02  0.29605192949E+02  0.51100000000E-03 0. -1.
        -11    1    3    3    0    0  0.87517590238E+01  0.54027787483E+01  0.22997202094E+02  0.25192352185E+02  0.51100000000E-03 0.  1.
         12    1    3    3    0    0  0.24381242837E+01 -0.17488388912E+02 -0.47807706206E+00  0.17663995993E+02  0.00000000000E+00 0. -1.
</event>
<event>
 7    1  0.1920603E-013  0.7246156E+02  0.7816164E-02  0.1226708E+00
        -11   -1    0    0    0    0  0.00000000000E+00  0.00000000000E+00  0.45593999997E+02  0.45594000000E+02  0.51100000000E-03 0.  1.
         11   -1    0    0    0    0 -0.00000000000E+00 -0.00000000000E+00 -0.45593999997E+02  0.45594000000E+02  0.51100000000E-03 0. -1.
    9900012    2    1    2    0    0 -0.29221965091E+01  0.10406042615E+02 -0.15292309751E+02  0.72461556321E+02  0.69999981797E+02 0.  0.
        -12    1    1    2    0    0  0.29221965091E+01 -0.10406042615E+02  0.15292309751E+02  0.18726443679E+02  0.00000000000E+00 0.  1.
         11    1    3    3    0    0 -0.12335827666E+02  0.16667398733E+01  0.51674639573E+01  0.13477883737E+02  0.51100000000E-03 0. -1.
        -11    1    3    3    0    0  0.26093200101E+02 -0.34210048430E+01  0.43887591438E+01  0.26679947015E+02  0.51100000000E-03 0.  1.
        -12    1    3    3    0    0 -0.16679568944E+02  0.12160307585E+02 -0.24848532853E+02  0.32303725569E+02  0.00000000000E+00 0.  1.
</event>
<event>
 7    1  0.1920603E-013  0.7246156E+02  0.7816164E-02  0.1226708E+00
        -11   -1    0    0    0    0  0.00000000000E+00  0.00000000000E+00  0.45593999997E+02  0.45594000000E+02  0.51100000000E-03 0. -1.
         11   -1    0    0    0    0 -0.00000000000E+00 -0.00000000000E+00 -0.45593999997E+02  0.45594000000E+02  0.51100000000E-03 0.  1.
    9900012    2    1    2    0    0  0.16660367553E+02 -0.32456823112E+01  0.79105889763E+01  0.72461555633E+02  0.69999980901E+02 0.  0.
        -12    1    1    2    0    0 -0.16660367553E+02  0.32456823112E+01 -0.79105889763E+01  0.18726444367E+02  0.00000000000E+00 0.  1.
         11    1    3    3    0    0  0.11358551654E+02  0.16982902980E+02  0.10112060351E+02  0.22796698316E+02  0.51100000000E-03 0. -1.
        -11    1    3    3    0    0  0.10275360044E+02 -0.96163141342E+01 -0.22317208523E+02  0.26383978436E+02  0.51100000000E-03 0.  1.
        -12    1    3    3    0    0 -0.49735441448E+01 -0.10612271157E+02  0.20115737149E+02  0.23280878882E+02  0.00000000000E+00 0.  1.
</event>
<event>
 7    1  0.1920603E-013  0.7246155E+02  0.7816164E-02  0.1226708E+00
        -11   -1    0    0    0    0  0.00000000000E+00  0.00000000000E+00  0.45593999997E+02  0.45594000000E+02  0.51100000000E-03 0. -1.
         11   -1    0    0    0    0 -0.00000000000E+00 -0.00000000000E+00 -0.45593999997E+02  0.45594000000E+02  0.51100000000E-03 0.  1.
    9900012    2    1    2    0    0 -0.12231550117E+02  0.39016740112E+01  0.13632536399E+02  0.72461550068E+02  0.69999973652E+02 0.  0.
        -12    1    1    2    0    0  0.12231550117E+02 -0.39016740112E+01 -0.13632536399E+02  0.18726449932E+02  0.00000000000E+00 0.  1.
         11    1    3    3    0    0  0.14788600647E+02  0.83424033257E+01 -0.15251271104E+01  0.17047709972E+02  0.51100000000E-03 0. -1.
        -11    1    3    3    0    0 -0.30483706056E+02 -0.10024165377E+02  0.26956204596E+02  0.41909154047E+02  0.51100000000E-03 0.  1.
        -12    1    3    3    0    0  0.34635552916E+01  0.55834360623E+01 -0.11798541086E+02  0.13504686049E+02  0.00000000000E+00 0.  1.
</event>
<event>
 7    1  0.1920603E-013  0.7246145E+02  0.7816164E-02  0.1226708E+00
        -11   -1    0    0    0    0  0.00000000000E+00  0.00000000000E+00  0.45593999997E+02  0.45594000000E+02  0.51100000000E-03 0.  1.
         11   -1    0    0    0    0 -0.00000000000E+00 -0.00000000000E+00 -0.45593999997E+02  0.45594000000E+02  0.51100000000E-03 0. -1.
    9900012    2    1    2    0    0 -0.11518403680E+02  0.84547413756E+01  0.12104856499E+02  0.72461445968E+02  0.69999838041E+02 0.  0.
        -12    1    1    2    0    0  0.11518403680E+02 -0.84547413756E+01 -0.12104856499E+02  0.18726554032E+02  0.00000000000E+00 0.  1.
         11    1    3    3    0    0  0.10157506644E+02 -0.39028592318E+01 -0.10697840227E+02  0.15259457303E+02  0.51100000000E-03 0. -1.
        -11    1    3    3    0    0 -0.19763554749E+02  0.27345687659E+02  0.54237000142E+01  0.34173107145E+02  0.51100000000E-03 0.  1.
        -12    1    3    3    0    0 -0.19123555747E+01 -0.14988087052E+02  0.17378996712E+02  0.23028881519E+02  0.00000000000E+00 0.  1.
</event>
<event>
 7    1  0.1920603E-013  0.7246156E+02  0.7816164E-02  0.1226708E+00
        -11   -1    0    0    0    0  0.00000000000E+00  0.00000000000E+00  0.45593999997E+02  0.45594000000E+02  0.51100000000E-03 0.  1.
         11   -1    0    0    0    0 -0.00000000000E+00 -0.00000000000E+00 -0.45593999997E+02  0.45594000000E+02  0.51100000000E-03 0. -1.
    9900012    2    1    2    0    0 -0.43264612654E+01  0.14894894693E+02 -0.10493015810E+02  0.72461560515E+02  0.69999987261E+02 0.  0.
        -12    1    1    2    0    0  0.43264612654E+01 -0.14894894693E+02  0.10493015810E+02  0.18726439485E+02  0.00000000000E+00 0.  1.
         11    1    3    3    0    0 -0.23710902643E+02  0.27496559030E+02 -0.22907884563E+02  0.42930628205E+02  0.51100000000E-03 0. -1.
        -11    1    3    3    0    0  0.12691273003E+02 -0.19850343192E+00  0.62397911258E+01  0.14143649020E+02  0.51100000000E-03 0.  1.
         12    1    3    3    0    0  0.66931683751E+01 -0.12403160906E+02  0.61750776269E+01  0.15387283290E+02  0.00000000000E+00 0. -1.
</event>
<event>
 7    1  0.1920603E-013  0.7246156E+02  0.7816164E-02  0.1226708E+00
        -11   -1    0    0    0    0  0.00000000000E+00  0.00000000000E+00  0.45593999997E+02  0.45594000000E+02  0.51100000000E-03 0. -1.
         11   -1    0    0    0    0 -0.00000000000E+00 -0.00000000000E+00 -0.45593999997E+02  0.45594000000E+02  0.51100000000E-03 0.  1.
    9900012    2    1    2    0    0  0.11651449328E+02 -0.25914073257E+00  0.14657970617E+02  0.72461560724E+02  0.69999987533E+02 0.  0.
        -12    1    1    2    0    0 -0.11651449328E+02  0.25914073257E+00 -0.14657970617E+02  0.18726439276E+02  0.00000000000E+00 0.  1.
         11    1    3    3    0    0  0.28708917149E+02  0.26631337235E+01  0.22094140630E+02  0.36324169027E+02  0.51100000000E-03 0. -1.
        -11    1    3    3    0    0  0.32601943149E+01  0.55057394463E+01 -0.12067353927E+02  0.13658809058E+02  0.51100000000E-03 0.  1.
         12    1    3    3    0    0 -0.20317662136E+02 -0.84280139024E+01  0.46311839135E+01  0.22478582639E+02  0.00000000000E+00 0. -1.
</event>
<event>
 7    1  0.1920603E-013  0.7246151E+02  0.7816164E-02  0.1226708E+00
        -11   -1    0    0    0    0  0.00000000000E+00  0.00000000000E+00  0.45593999997E+02  0.45594000000E+02  0.51100000000E-03 0. -1.
         11   -1    0    0    0    0 -0.00000000000E+00 -0.00000000000E+00 -0.45593999997E+02  0.45594000000E+02  0.51100000000E-03 0.  1.
    9900012    2    1    2    0    0  0.17030552575E+02  0.57268546894E+01 -0.52768361162E+01  0.72461505800E+02  0.69999915984E+02 0.  0.
        -12    1    1    2    0    0 -0.17030552575E+02 -0.57268546894E+01  0.52768361162E+01  0.18726494200E+02  0.00000000000E+00 0.  1.
         11    1    3    3    0    0 -0.98172049218E+01 -0.21577497765E+02  0.10408704563E+02  0.25890288782E+02  0.51100000000E-03 0. -1.
        -11    1    3    3    0    0  0.83768159140E+01  0.23496968260E+02 -0.78805707488E+01  0.26160694904E+02  0.51100000000E-03 0.  1.
         12    1    3    3    0    0  0.18470941582E+02  0.38073841950E+01 -0.78049699308E+01  0.20410522114E+02  0.00000000000E+00 0. -1.
</event>
<event>
 7    1  0.1920603E-013  0.7246153E+02  0.7816164E-02  0.1226708E+00
        -11   -1    0    0    0    0  0.00000000000E+00  0.00000000000E+00  0.45593999997E+02  0.45594000000E+02  0.51100000000E-03 0.  1.
         11   -1    0    0    0    0 -0.00000000000E+00 -0.00000000000E+00 -0.45593999997E+02  0.45594000000E+02  0.51100000000E-03 0. -1.
    9900012    2    1    2    0    0 -0.15288238977E+02  0.87201178701E+01 -0.63961002952E+01  0.72461526609E+02  0.69999943092E+02 0.  0.
        -12    1    1    2    0    0  0.15288238977E+02 -0.87201178701E+01  0.63961002952E+01  0.18726473391E+02  0.00000000000E+00 0.  1.
         11    1    3    3    0    0 -0.22244193119E+02  0.15895170740E+02 -0.90488795758E+01  0.28798312489E+02  0.51100000000E-03 0.  1.
        -11    1    3    3    0    0  0.24745348759E+02 -0.69959200314E+01  0.29171841913E+00  0.25716925986E+02  0.51100000000E-03 0. -1.
         12    1    3    3    0    0 -0.17789394616E+02 -0.17913283854E+00  0.23610608615E+01  0.17946288134E+02  0.00000000000E+00 0. -1.
</event>
<event>
 7    1  0.1920603E-013  0.7246151E+02  0.7816164E-02  0.1226708E+00
        -11   -1    0    0    0    0  0.00000000000E+00  0.00000000000E+00  0.45593999997E+02  0.45594000000E+02  0.51100000000E-03 0. -1.
         11   -1    0    0    0    0 -0.00000000000E+00 -0.00000000000E+00 -0.45593999997E+02  0.45594000000E+02  0.51100000000E-03 0.  1.
    9900012    2    1    2    0    0 -0.35205682535E+01  0.99656577607E+01  0.15458738613E+02  0.72461512477E+02  0.69999924683E+02 0.  0.
        -12    1    1    2    0    0  0.35205682535E+01 -0.99656577607E+01 -0.15458738613E+02  0.18726487523E+02  0.00000000000E+00 0.  1.
         11    1    3    3    0    0  0.39423836868E+01 -0.37525592587E+01  0.27156554861E+01  0.60826700638E+01  0.51100000000E-03 0. -1.
        -11    1    3    3    0    0 -0.33844738202E+02  0.15933648988E+02  0.10119864953E+01  0.37421539132E+02  0.51100000000E-03 0.  1.
        -12    1    3    3    0    0  0.26381786262E+02 -0.22154319688E+01  0.11731096632E+02  0.28957303282E+02  0.00000000000E+00 0.  1.
</event>
<event>
 7    1  0.1920603E-013  0.7246149E+02  0.7816164E-02  0.1226708E+00
        -11   -1    0    0    0    0  0.00000000000E+00  0.00000000000E+00  0.45593999997E+02  0.45594000000E+02  0.51100000000E-03 0.  1.
         11   -1    0    0    0    0 -0.00000000000E+00 -0.00000000000E+00 -0.45593999997E+02  0.45594000000E+02  0.51100000000E-03 0. -1.
    9900012    2    1    2    0    0  0.12931404004E+02  0.12700703908E+02 -0.47066977571E+01  0.72461492235E+02  0.69999898313E+02 0.  0.
        -12    1    1    2    0    0 -0.12931404004E+02 -0.12700703908E+02  0.47066977571E+01  0.18726507765E+02  0.00000000000E+00 0.  1.
         11    1    3    3    0    0  0.13468036077E+02  0.27525704741E+02 -0.17097059606E+02  0.35090766089E+02  0.51100000000E-03 0. -1.
        -11    1    3    3    0    0  0.12780505476E+02 -0.14813955912E+02  0.58434194221E+00  0.19573861800E+02  0.51100000000E-03 0.  1.
        -12    1    3    3    0    0 -0.13317137549E+02 -0.11044920857E-01  0.11806019907E+02  0.17796864346E+02  0.00000000000E+00 0.  1.
</event>
<event>
 7    1  0.1920603E-013  0.7246158E+02  0.7816164E-02  0.1226708E+00
        -11   -1    0    0    0    0  0.00000000000E+00  0.00000000000E+00  0.45593999997E+02  0.45594000000E+02  0.51100000000E-03 0. -1.
         11   -1    0    0    0    0 -0.00000000000E+00 -0.00000000000E+00 -0.45593999997E+02  0.45594000000E+02  0.51100000000E-03 0.  1.
    9900012    2    1    2    0    0 -0.53163077777E+00 -0.15965613378E+02 -0.97721696772E+01  0.72461581709E+02  0.70000014869E+02 0.  0.
        -12    1    1    2    0    0  0.53163077777E+00  0.15965613378E+02  0.97721696772E+01  0.18726418291E+02  0.00000000000E+00 0.  1.
         11    1    3    3    0    0 -0.14604076554E+02  0.14583840814E+02 -0.18235486193E+02  0.27540886366E+02  0.51100000000E-03 0.  1.
        -11    1    3    3    0    0  0.59443194928E+01 -0.29676771761E+02 -0.34607583591E+01  0.30463462789E+02  0.51100000000E-03 0. -1.
         12    1    3    3    0    0  0.81281262831E+01 -0.87268243042E+00  0.11924074875E+02  0.14457232554E+02  0.00000000000E+00 0. -1.
</event>
<event>
 7    1  0.1920603E-013  0.7246143E+02  0.7816164E-02  0.1226708E+00
        -11   -1    0    0    0    0  0.00000000000E+00  0.00000000000E+00  0.45593999997E+02  0.45594000000E+02  0.51100000000E-03 0. -1.
         11   -1    0    0    0    0 -0.00000000000E+00 -0.00000000000E+00 -0.45593999997E+02  0.45594000000E+02  0.51100000000E-03 0.  1.
    9900012    2    1    2    0    0  0.25174697759E+01  0.97837626994E+01  0.15767837168E+02  0.72461431826E+02  0.69999819619E+02 0.  0.
        -12    1    1    2    0    0 -0.25174697759E+01 -0.97837626994E+01 -0.15767837168E+02  0.18726568174E+02  0.00000000000E+00 0.  1.
         11    1    3    3    0    0 -0.19215496023E+01  0.25532640063E+02  0.31701012273E+02  0.40749996821E+02  0.51100000000E-03 0. -1.
        -11    1    3    3    0    0  0.83055906968E+01 -0.19128720749E+02 -0.81571682524E+01  0.22392636925E+02  0.51100000000E-03 0.  1.
        -12    1    3    3    0    0 -0.38665713187E+01  0.33798433848E+01 -0.77760068534E+01  0.93187980798E+01  0.00000000000E+00 0.  1.
</event>
<event>
 7    1  0.1920603E-013  0.7246157E+02  0.7816164E-02  0.1226708E+00
        -11   -1    0    0    0    0  0.00000000000E+00  0.00000000000E+00  0.45593999997E+02  0.45594000000E+02  0.51100000000E-03 0.  1.
         11   -1    0    0    0    0 -0.00000000000E+00 -0.00000000000E+00 -0.45593999997E+02  0.45594000000E+02  0.51100000000E-03 0. -1.
    9900012    2    1    2    0    0 -0.57423545250E+01  0.17464889151E+02 -0.35612000711E+01  0.72461571230E+02  0.70000001219E+02 0.  0.
        -12    1    1    2    0    0  0.57423545250E+01 -0.17464889151E+02  0.35612000711E+01  0.18726428770E+02  0.00000000000E+00 0.  1.
         11    1    3    3    0    0 -0.28532150511E+02 -0.74404789666E+01  0.68332390694E+01  0.30267763322E+02  0.51100000000E-03 0. -1.
        -11    1    3    3    0    0  0.49986139536E+01  0.17488352482E+02  0.33832921053E+01  0.18500683224E+02  0.51100000000E-03 0.  1.
         12    1    3    3    0    0  0.17791182033E+02  0.74170156348E+01 -0.13777731246E+02  0.23693124685E+02  0.00000000000E+00 0. -1.
</event>
<event>
 7    1  0.1920603E-013  0.7246155E+02  0.7816164E-02  0.1226708E+00
        -11   -1    0    0    0    0  0.00000000000E+00  0.00000000000E+00  0.45593999997E+02  0.45594000000E+02  0.51100000000E-03 0.  1.
         11   -1    0    0    0    0 -0.00000000000E+00 -0.00000000000E+00 -0.45593999997E+02  0.45594000000E+02  0.51100000000E-03 0. -1.
    9900012    2    1    2    0    0 -0.77369402540E+01 -0.82024144601E+01 -0.14951257556E+02  0.72461549456E+02  0.69999972854E+02 0.  0.
        -12    1    1    2    0    0  0.77369402540E+01  0.82024144601E+01  0.14951257556E+02  0.18726450544E+02  0.00000000000E+00 0.  1.
         11    1    3    3    0    0 -0.12716541169E+02  0.20773850244E+02  0.39048032164E+01  0.24668010899E+02  0.51100000000E-03 0. -1.
        -11    1    3    3    0    0 -0.34695100191E+01 -0.21447557105E+02 -0.26401683568E+02  0.34191871856E+02  0.51100000000E-03 0.  1.
        -12    1    3    3    0    0  0.84491109340E+01 -0.75287075996E+01  0.75456227955E+01  0.13601666702E+02  0.00000000000E+00 0.  1.
</event>
<event>
 7    1  0.1920603E-013  0.7246154E+02  0.7816164E-02  0.1226708E+00
        -11   -1    0    0    0    0  0.00000000000E+00  0.00000000000E+00  0.45593999997E+02  0.45594000000E+02  0.51100000000E-03 0.  1.
         11   -1    0    0    0    0 -0.00000000000E+00 -0.00000000000E+00 -0.45593999997E+02  0.45594000000E+02  0.51100000000E-03 0. -1.
    9900012    2    1    2    0    0  0.10706764411E+02  0.25480487857E+01 -0.15151001369E+02  0.72461542800E+02  0.69999964183E+02 0.  0.
        -12    1    1    2    0    0 -0.10706764411E+02 -0.25480487857E+01  0.15151001369E+02  0.18726457200E+02  0.00000000000E+00 0.  1.
         11    1    3    3    0    0  0.33668107158E+02 -0.70689699950E+01 -0.16462966323E+02  0.38138445653E+02  0.51100000000E-03 0. -1.
        -11    1    3    3    0    0 -0.25654076338E+02  0.67731861044E+01  0.69778970695E+01  0.27435355484E+02  0.51100000000E-03 0.  1.
         12    1    3    3    0    0  0.26927335916E+01  0.28438326763E+01 -0.56659321154E+01  0.68877416634E+01  0.00000000000E+00 0. -1.
</event>
<event>
 7    1  0.1920603E-013  0.7246156E+02  0.7816164E-02  0.1226708E+00
        -11   -1    0    0    0    0  0.00000000000E+00  0.00000000000E+00  0.45593999997E+02  0.45594000000E+02  0.51100000000E-03 0. -1.
         11   -1    0    0    0    0 -0.00000000000E+00 -0.00000000000E+00 -0.45593999997E+02  0.45594000000E+02  0.51100000000E-03 0.  1.
    9900012    2    1    2    0    0 -0.18292256534E+00 -0.17818600599E+02  0.57570337492E+01  0.72461563458E+02  0.69999991094E+02 0.  0.
        -12    1    1    2    0    0  0.18292256534E+00  0.17818600599E+02 -0.57570337492E+01  0.18726436542E+02  0.00000000000E+00 0.  1.
         11    1    3    3    0    0  0.53205963144E+01 -0.38684378001E+02  0.25554013120E+01  0.39132083034E+02  0.51100000000E-03 0. -1.
        -11    1    3    3    0    0 -0.13710469270E+02  0.15341651266E+02  0.83165152961E+01  0.22192513560E+02  0.51100000000E-03 0.  1.
        -12    1    3    3    0    0  0.82069503902E+01  0.55241261355E+01 -0.51148828588E+01  0.11136966864E+02  0.00000000000E+00 0.  1.
</event>
<event>
 7    1  0.1920603E-013  0.7246156E+02  0.7816164E-02  0.1226708E+00
        -11   -1    0    0    0    0  0.00000000000E+00  0.00000000000E+00  0.45593999997E+02  0.45594000000E+02  0.51100000000E-03 0.  1.
         11   -1    0    0    0    0 -0.00000000000E+00 -0.00000000000E+00 -0.45593999997E+02  0.45594000000E+02  0.51100000000E-03 0. -1.
    9900012    2    1    2    0    0  0.18194091316E+02 -0.44331852563E+01  0.38603014826E-01  0.72461559320E+02  0.69999985704E+02 0.  0.
        -12    1    1    2    0    0 -0.18194091316E+02  0.44331852563E+01 -0.38603014826E-01  0.18726440680E+02  0.00000000000E+00 0.  1.
         11    1    3    3    0    0 -0.18851612415E+02 -0.11432707626E+02 -0.13229279106E+02  0.25711941200E+02  0.51100000000E-03 0. -1.
        -11    1    3    3    0    0  0.17982449009E+02  0.44414799506E+01  0.19143839012E+02  0.26637976442E+02  0.51100000000E-03 0.  1.
        -12    1    3    3    0    0  0.19063254722E+02  0.25580424196E+01 -0.58759568911E+01  0.20111641679E+02  0.00000000000E+00 0.  1.
</event>
<event>
 7    1  0.1920603E-013  0.7246153E+02  0.7816164E-02  0.1226708E+00
        -11   -1    0    0    0    0  0.00000000000E+00  0.00000000000E+00  0.45593999997E+02  0.45594000000E+02  0.51100000000E-03 0.  1.
         11   -1    0    0    0    0 -0.00000000000E+00 -0.00000000000E+00 -0.45593999997E+02  0.45594000000E+02  0.51100000000E-03 0. -1.
    9900012    2    1    2    0    0  0.88605307313E+01  0.11747456861E+02 -0.11583137728E+02  0.72461526035E+02  0.69999942344E+02 0.  0.
        -12    1    1    2    0    0 -0.88605307313E+01 -0.11747456861E+02  0.11583137728E+02  0.18726473965E+02  0.00000000000E+00 0.  1.
         11    1    3    3    0    0  0.54040928346E+01 -0.15225051293E+02 -0.16093748247E+02  0.22803840447E+02  0.51100000000E-03 0. -1.
        -11    1    3    3    0    0  0.25153416723E+01  0.46917274570E+01  0.21165164943E+02  0.21824377599E+02  0.51100000000E-03 0.  1.
        -12    1    3    3    0    0  0.94109622440E+00  0.22280780697E+02 -0.16654554423E+02  0.27833307989E+02  0.00000000000E+00 0.  1.
</event>
<event>
 7    1  0.1920603E-013  0.7246158E+02  0.7816164E-02  0.1226708E+00
        -11   -1    0    0    0    0  0.00000000000E+00  0.00000000000E+00  0.45593999997E+02  0.45594000000E+02  0.51100000000E-03 0.  1.
         11   -1    0    0    0    0 -0.00000000000E+00 -0.00000000000E+00 -0.45593999997E+02  0.45594000000E+02  0.51100000000E-03 0. -1.
    9900012    2    1    2    0    0  0.14499124901E+02 -0.11056222483E+02 -0.42677914626E+01  0.72461582231E+02  0.70000015550E+02 0.  0.
        -12    1    1    2    0    0 -0.14499124901E+02  0.11056222483E+02  0.42677914626E+01  0.18726417769E+02  0.00000000000E+00 0.  1.
         11    1    3    3    0    0  0.25446716703E+02 -0.12536052640E+02 -0.21617635947E+02  0.35665251870E+02  0.51100000000E-03 0. -1.
        -11    1    3    3    0    0 -0.12145357194E+02 -0.12018508576E+02  0.35426632014E+01  0.17450063397E+02  0.51100000000E-03 0.  1.
         12    1    3    3    0    0  0.11977653915E+01  0.13498338732E+02  0.13807181283E+02  0.19346266964E+02  0.00000000000E+00 0. -1.
</event>
<event>
 7    1  0.1920603E-013  0.7246159E+02  0.7816164E-02  0.1226708E+00
        -11   -1    0    0    0    0  0.00000000000E+00  0.00000000000E+00  0.45593999997E+02  0.45594000000E+02  0.51100000000E-03 0.  1.
         11   -1    0    0    0    0 -0.00000000000E+00 -0.00000000000E+00 -0.45593999997E+02  0.45594000000E+02  0.51100000000E-03 0. -1.
    9900012    2    1    2    0    0 -0.11092847246E+02 -0.50838029639E-01 -0.15087233893E+02  0.72461588943E+02  0.70000024293E+02 0.  0.
        -12    1    1    2    0    0  0.11092847246E+02  0.50838029639E-01  0.15087233893E+02  0.18726411057E+02  0.00000000000E+00 0.  1.
         11    1    3    3    0    0  0.16828306928E+02  0.26737726688E+00 -0.77312536158E+01  0.18521222622E+02  0.51100000000E-03 0. -1.
        -11    1    3    3    0    0 -0.20079609134E+02  0.20149252613E+02 -0.13046865752E+02  0.31295427622E+02  0.51100000000E-03 0.  1.
        -12    1    3    3    0    0 -0.78415450395E+01 -0.20467467909E+02  0.56908854741E+01  0.22644938699E+02  0.00000000000E+00 0.  1.
</event>
<event>
 7    1  0.1920603E-013  0.7246158E+02  0.7816164E-02  0.1226708E+00
        -11   -1    0    0    0    0  0.00000000000E+00  0.00000000000E+00  0.45593999997E+02  0.45594000000E+02  0.51100000000E-03 0.  1.
         11   -1    0    0    0    0 -0.00000000000E+00 -0.00000000000E+00 -0.45593999997E+02  0.45594000000E+02  0.51100000000E-03 0. -1.
    9900012    2    1    2    0    0  0.84064389123E+01 -0.80223011004E+01 -0.14685139289E+02  0.72461578930E+02  0.70000011250E+02 0.  0.
        -12    1    1    2    0    0 -0.84064389123E+01  0.80223011004E+01  0.14685139289E+02  0.18726421070E+02  0.00000000000E+00 0.  1.
         11    1    3    3    0    0  0.12578806676E+02 -0.22911491742E+02 -0.33644830558E+02  0.42604429990E+02  0.51100000000E-03 0. -1.
        -11    1    3    3    0    0 -0.92273554565E+01  0.26514923310E+01  0.10044618751E+02  0.13894922325E+02  0.51100000000E-03 0.  1.
         12    1    3    3    0    0  0.50549876931E+01  0.12237698311E+02  0.89150725178E+01  0.15962226616E+02  0.00000000000E+00 0. -1.
</event>
<event>
 7    1  0.1920603E-013  0.7246153E+02  0.7816164E-02  0.1226708E+00
        -11   -1    0    0    0    0  0.00000000000E+00  0.00000000000E+00  0.45593999997E+02  0.45594000000E+02  0.51100000000E-03 0.  1.
         11   -1    0    0    0    0 -0.00000000000E+00 -0.00000000000E+00 -0.45593999997E+02  0.45594000000E+02  0.51100000000E-03 0. -1.
    9900012    2    1    2    0    0  0.18329688350E+02 -0.40370531182E+00  0.38131809384E+01  0.72461526710E+02  0.69999943224E+02 0.  0.
        -12    1    1    2    0    0 -0.18329688350E+02  0.40370531182E+00 -0.38131809384E+01  0.18726473290E+02  0.00000000000E+00 0.  1.
         11    1    3    3    0    0 -0.13202190993E+02 -0.98758744044E+01 -0.20370738462E+02  0.26206825981E+02  0.51100000000E-03 0. -1.
        -11    1    3    3    0    0  0.29219284122E+02  0.30801795422E+01  0.25984211721E+02  0.39222867433E+02  0.51100000000E-03 0.  1.
         12    1    3    3    0    0  0.23125952213E+01  0.63919895504E+01 -0.18002923205E+01  0.70318332964E+01  0.00000000000E+00 0. -1.
</event>
<event>
 7    1  0.1920603E-013  0.7246141E+02  0.7816164E-02  0.1226708E+00
        -11   -1    0    0    0    0  0.00000000000E+00  0.00000000000E+00  0.45593999997E+02  0.45594000000E+02  0.51100000000E-03 0. -1.
         11   -1    0    0    0    0 -0.00000000000E+00 -0.00000000000E+00 -0.45593999997E+02  0.45594000000E+02  0.51100000000E-03 0.  1.
    9900012    2    1    2    0    0  0.85772268946E+01 -0.83983966837E+01  0.14373008688E+02  0.72461407496E+02  0.69999787925E+02 0.  0.
        -12    1    1    2    0    0 -0.85772268946E+01  0.83983966837E+01 -0.14373008688E+02  0.18726592504E+02  0.00000000000E+00 0.  1.
         11    1    3    3    0    0  0.33953135421E+02 -0.14808392979E+02  0.49572013951E+01  0.37372152111E+02  0.51100000000E-03 0. -1.
        -11    1    3    3    0    0 -0.32600007931E+01  0.32047149532E+01 -0.62895944681E+01  0.77753972205E+01  0.51100000000E-03 0.  1.
         12    1    3    3    0    0 -0.22115907733E+02  0.32052813422E+01  0.15705401761E+02  0.27313858164E+02  0.00000000000E+00 0. -1.
</event>
<event>
 7    1  0.1920603E-013  0.7246155E+02  0.7816164E-02  0.1226708E+00
        -11   -1    0    0    0    0  0.00000000000E+00  0.00000000000E+00  0.45593999997E+02  0.45594000000E+02  0.51100000000E-03 0.  1.
         11   -1    0    0    0    0 -0.00000000000E+00 -0.00000000000E+00 -0.45593999997E+02  0.45594000000E+02  0.51100000000E-03 0. -1.
    9900012    2    1    2    0    0 -0.94138567046E+01 -0.77928850839E-02 -0.16188244616E+02  0.72461547519E+02  0.69999970330E+02 0.  0.
        -12    1    1    2    0    0  0.94138567046E+01  0.77928850839E-02  0.16188244616E+02  0.18726452481E+02  0.00000000000E+00 0.  1.
         11    1    3    3    0    0 -0.20595641380E+02  0.24713253671E+02 -0.54920324633E+01  0.32635682492E+02  0.51100000000E-03 0.  1.
        -11    1    3    3    0    0  0.12915541112E+02 -0.29379062422E+02 -0.53664996322E+01  0.32538282523E+02  0.51100000000E-03 0. -1.
         12    1    3    3    0    0 -0.17337564364E+01  0.46580158660E+01 -0.53297125208E+01  0.72875825033E+01  0.00000000000E+00 0. -1.
</event>
<event>
 7    1  0.1920603E-013  0.7246190E+02  0.7816164E-02  0.1226707E+00
        -11   -1    0    0    0    0  0.00000000000E+00  0.00000000000E+00  0.45593999997E+02  0.45594000000E+02  0.51100000000E-03 0. -1.
         11   -1    0    0    0    0 -0.00000000000E+00 -0.00000000000E+00 -0.45593999997E+02  0.45594000000E+02  0.51100000000E-03 0.  1.
    9900012    2    1    2    0    0  0.34945739438E+01 -0.18027230083E+02  0.36706490668E+01  0.72461902273E+02  0.70000432462E+02 0.  0.
        -12    1    1    2    0    0 -0.34945739438E+01  0.18027230083E+02 -0.36706490668E+01  0.18726097727E+02  0.00000000000E+00 0.  1.
         11    1    3    3    0    0 -0.65346481346E+01 -0.23458626999E+01  0.12633586243E+02  0.14415692827E+02  0.51100000000E-03 0. -1.
        -11    1    3    3    0    0  0.19336500081E+02 -0.14668580614E+02 -0.27864762747E+02  0.36952841513E+02  0.51100000000E-03 0.  1.
        -12    1    3    3    0    0 -0.93072780028E+01 -0.10127867686E+01  0.18901825571E+02  0.21093367933E+02  0.00000000000E+00 0.  1.
</event>
<event>
 7    1  0.1920603E-013  0.7246168E+02  0.7816164E-02  0.1226708E+00
        -11   -1    0    0    0    0  0.00000000000E+00  0.00000000000E+00  0.45593999997E+02  0.45594000000E+02  0.51100000000E-03 0.  1.
         11   -1    0    0    0    0 -0.00000000000E+00 -0.00000000000E+00 -0.45593999997E+02  0.45594000000E+02  0.51100000000E-03 0. -1.
    9900012    2    1    2    0    0 -0.10274704389E+02  0.10244904487E+02 -0.11838384897E+02  0.72461682284E+02  0.70000145887E+02 0.  0.
        -12    1    1    2    0    0  0.10274704389E+02 -0.10244904487E+02  0.11838384897E+02  0.18726317716E+02  0.00000000000E+00 0.  1.
         11    1    3    3    0    0  0.15978626094E+02 -0.71502269902E+01  0.13448254074E+02  0.22074822213E+02  0.51100000000E-03 0.  1.
        -11    1    3    3    0    0 -0.17575020189E+02  0.59833576459E+01  0.28740613317E+01  0.18786754168E+02  0.51100000000E-03 0. -1.
         12    1    3    3    0    0 -0.86783102941E+01  0.11411773831E+02 -0.28160700303E+02  0.31600105903E+02  0.00000000000E+00 0. -1.
</event>
<event>
 7    1  0.1920603E-013  0.7246150E+02  0.7816164E-02  0.1226708E+00
        -11   -1    0    0    0    0  0.00000000000E+00  0.00000000000E+00  0.45593999997E+02  0.45594000000E+02  0.51100000000E-03 0.  1.
         11   -1    0    0    0    0 -0.00000000000E+00 -0.00000000000E+00 -0.45593999997E+02  0.45594000000E+02  0.51100000000E-03 0. -1.
    9900012    2    1    2    0    0 -0.17526421917E+02  0.10239336953E+01  0.65159848716E+01  0.72461495674E+02  0.69999902793E+02 0.  0.
        -12    1    1    2    0    0  0.17526421917E+02 -0.10239336953E+01 -0.65159848716E+01  0.18726504326E+02  0.00000000000E+00 0.  1.
         11    1    3    3    0    0 -0.23754252383E+02 -0.75516951956E+01 -0.24789250645E+02  0.35153940809E+02  0.51100000000E-03 0. -1.
        -11    1    3    3    0    0  0.11966943405E+02  0.50357878891E+01  0.16163244113E+02  0.20732036915E+02  0.51100000000E-03 0.  1.
        -12    1    3    3    0    0 -0.57391129394E+01  0.35398410017E+01  0.15141991404E+02  0.16575517950E+02  0.00000000000E+00 0.  1.
</event>
<event>
 7    1  0.1920603E-013  0.7246133E+02  0.7816164E-02  0.1226709E+00
        -11   -1    0    0    0    0  0.00000000000E+00  0.00000000000E+00  0.45593999997E+02  0.45594000000E+02  0.51100000000E-03 0. -1.
         11   -1    0    0    0    0 -0.00000000000E+00 -0.00000000000E+00 -0.45593999997E+02  0.45594000000E+02  0.51100000000E-03 0.  1.
    9900012    2    1    2    0    0 -0.99103100448E+01  0.13443603948E+02 -0.84701588508E+01  0.72461325889E+02  0.69999681616E+02 0.  0.
        -12    1    1    2    0    0  0.99103100448E+01 -0.13443603948E+02  0.84701588508E+01  0.18726674111E+02  0.00000000000E+00 0.  1.
         11    1    3    3    0    0 -0.15787367599E+02  0.15979457767E+02  0.47608872363E+00  0.22467992944E+02  0.51100000000E-03 0. -1.
        -11    1    3    3    0    0  0.88884608918E+01 -0.24776357360E+02 -0.80740392532E+01  0.27532939021E+02  0.51100000000E-03 0.  1.
        -12    1    3    3    0    0 -0.30114033376E+01  0.22240503541E+02 -0.87220832130E+00  0.22460393923E+02  0.00000000000E+00 0.  1.
</event>
<event>
 7    1  0.1920603E-013  0.7246152E+02  0.7816164E-02  0.1226708E+00
        -11   -1    0    0    0    0  0.00000000000E+00  0.00000000000E+00  0.45593999997E+02  0.45594000000E+02  0.51100000000E-03 0. -1.
         11   -1    0    0    0    0 -0.00000000000E+00 -0.00000000000E+00 -0.45593999997E+02  0.45594000000E+02  0.51100000000E-03 0.  1.
    9900012    2    1    2    0    0 -0.97702736426E+01  0.37268456122E+01  0.15534905162E+02  0.72461523992E+02  0.69999939683E+02 0.  0.
        -12    1    1    2    0    0  0.97702736426E+01 -0.37268456122E+01 -0.15534905162E+02  0.18726476008E+02  0.00000000000E+00 0.  1.
         11    1    3    3    0    0 -0.31228319396E+02  0.33180047025E+01  0.45417141146E+01  0.31730809237E+02  0.51100000000E-03 0. -1.
        -11    1    3    3    0    0  0.15535863982E+02  0.14739456836E+02  0.13066222577E+02  0.25086666383E+02  0.51100000000E-03 0.  1.
         12    1    3    3    0    0  0.59221817708E+01 -0.14330615926E+02 -0.20730315292E+01  0.15644048372E+02  0.00000000000E+00 0. -1.
</event>
<event>
 7    1  0.1920603E-013  0.7246160E+02  0.7816164E-02  0.1226708E+00
        -11   -1    0    0    0    0  0.00000000000E+00  0.00000000000E+00  0.45593999997E+02  0.45594000000E+02  0.51100000000E-03 0. -1.
         11   -1    0    0    0    0 -0.00000000000E+00 -0.00000000000E+00 -0.45593999997E+02  0.45594000000E+02  0.51100000000E-03 0.  1.
    9900012    2    1    2    0    0 -0.13900770060E+02  0.12543788916E+02  0.31650074841E+00  0.72461595610E+02  0.70000032979E+02 0.  0.
        -12    1    1    2    0    0  0.13900770060E+02 -0.12543788916E+02 -0.31650074841E+00  0.18726404390E+02  0.00000000000E+00 0.  1.
         11    1    3    3    0    0  0.10152441232E+01  0.31210967302E+01 -0.55878724639E+01  0.64804540244E+01  0.51100000000E-03 0. -1.
        -11    1    3    3    0    0 -0.17477363793E+02  0.21749901094E+02  0.28644742515E+02  0.39987969650E+02  0.51100000000E-03 0.  1.
        -12    1    3    3    0    0  0.25613496098E+01 -0.12327208907E+02 -0.22740369302E+02  0.25993171936E+02  0.00000000000E+00 0.  1.
</event>
<event>
 7    1  0.1920603E-013  0.7246161E+02  0.7816164E-02  0.1226708E+00
        -11   -1    0    0    0    0  0.00000000000E+00  0.00000000000E+00  0.45593999997E+02  0.45594000000E+02  0.51100000000E-03 0. -1.
         11   -1    0    0    0    0 -0.00000000000E+00 -0.00000000000E+00 -0.45593999997E+02  0.45594000000E+02  0.51100000000E-03 0.  1.
    9900012    2    1    2    0    0 -0.13175234413E+02 -0.13306167373E+02  0.19186165227E+00  0.72461609454E+02  0.70000051012E+02 0.  0.
        -12    1    1    2    0    0  0.13175234413E+02  0.13306167373E+02 -0.19186165227E+00  0.18726390546E+02  0.00000000000E+00 0.  1.
         11    1    3    3    0    0 -0.16852582798E+01 -0.26559151511E+01 -0.28004526364E+02  0.28180622383E+02  0.51100000000E-03 0. -1.
        -11    1    3    3    0    0 -0.18391969155E+02  0.29558510405E+01  0.12772171166E+02  0.22586056347E+02  0.51100000000E-03 0.  1.
         12    1    3    3    0    0  0.69019930221E+01 -0.13606103263E+02  0.15424216850E+02  0.21694930724E+02  0.00000000000E+00 0. -1.
</event>
<event>
 7    1  0.1920603E-013  0.7246160E+02  0.7816164E-02  0.1226708E+00
        -11   -1    0    0    0    0  0.00000000000E+00  0.00000000000E+00  0.45593999997E+02  0.45594000000E+02  0.51100000000E-03 0. -1.
         11   -1    0    0    0    0 -0.00000000000E+00 -0.00000000000E+00 -0.45593999997E+02  0.45594000000E+02  0.51100000000E-03 0.  1.
    9900012    2    1    2    0    0  0.83168997986E+01 -0.10500813765E+02 -0.13085875775E+02  0.72461600005E+02  0.70000038704E+02 0.  0.
        -12    1    1    2    0    0 -0.83168997986E+01  0.10500813765E+02  0.13085875775E+02  0.18726399995E+02  0.00000000000E+00 0.  1.
         11    1    3    3    0    0 -0.14251371167E+02 -0.10632574831E+02 -0.83386598093E+01  0.19638902091E+02  0.51100000000E-03 0.  1.
        -11    1    3    3    0    0  0.29601800111E+02  0.43177574780E+01  0.13502824113E+02  0.32821271438E+02  0.51100000000E-03 0. -1.
         12    1    3    3    0    0 -0.70335291455E+01 -0.41859964120E+01 -0.18250040079E+02  0.20001426476E+02  0.00000000000E+00 0. -1.
</event>
<event>
 8    1  0.1920603E-013  0.7246157E+02  0.7816164E-02  0.1226708E+00
        -11   -1    0    0    0    0  0.00000000000E+00  0.00000000000E+00  0.45593999997E+02  0.45594000000E+02  0.51100000000E-03 0.  1.
         11   -1    0    0    0    0 -0.00000000000E+00 -0.00000000000E+00 -0.45593999997E+02  0.45594000000E+02  0.51100000000E-03 0. -1.
    9900012    2    1    2    0    0  0.47844829285E+01  0.10501849522E+01 -0.18074431012E+02  0.72461568900E+02  0.69999998184E+02 0.  0.
         24    2    3    3    0    0  0.76872399775E+01 -0.58838015901E+01 -0.24485404235E+01  0.55121597020E+02  0.54209614721E+02 0.  0.
        -12    1    1    2    0    0 -0.47844829285E+01 -0.10501849522E+01  0.18074431012E+02  0.18726431100E+02  0.00000000000E+00 0.  1.
         11    1    3    3    0    0 -0.29027570489E+01  0.69339865423E+01 -0.15625890588E+02  0.17339971880E+02  0.51100000000E-03 0.  1.
        -11    1    4    4    0    0  0.28473090896E+02  0.48758598136E+01  0.72543636387E+01  0.29784504464E+02  0.51100000000E-03 0. -1.
         12    1    4    4    0    0 -0.20785850919E+02 -0.10759661404E+02 -0.97029040622E+01  0.25337092556E+02  0.00000000000E+00 0. -1.
</event>
<event>
 7    1  0.1920603E-013  0.7246156E+02  0.7816164E-02  0.1226708E+00
        -11   -1    0    0    0    0  0.00000000000E+00  0.00000000000E+00  0.45593999997E+02  0.45594000000E+02  0.51100000000E-03 0.  1.
         11   -1    0    0    0    0 -0.00000000000E+00 -0.00000000000E+00 -0.45593999997E+02  0.45594000000E+02  0.51100000000E-03 0. -1.
    9900012    2    1    2    0    0 -0.72646061150E+01 -0.99954441008E+01 -0.14071110092E+02  0.72461560295E+02  0.69999986975E+02 0.  0.
        -12    1    1    2    0    0  0.72646061150E+01  0.99954441008E+01  0.14071110092E+02  0.18726439705E+02  0.00000000000E+00 0.  1.
         11    1    3    3    0    0 -0.45767685426E+01 -0.20956449448E+02 -0.15587204272E+02  0.26515665578E+02  0.51100000000E-03 0. -1.
        -11    1    3    3    0    0  0.93454152559E+01  0.49939193960E+01  0.20273438930E+02  0.22875496575E+02  0.51100000000E-03 0.  1.
        -12    1    3    3    0    0 -0.12033252828E+02  0.59670859515E+01 -0.18757344751E+02  0.23070398143E+02  0.00000000000E+00 0.  1.
</event>
<event>
 7    1  0.1920603E-013  0.7246166E+02  0.7816164E-02  0.1226708E+00
        -11   -1    0    0    0    0  0.00000000000E+00  0.00000000000E+00  0.45593999997E+02  0.45594000000E+02  0.51100000000E-03 0.  1.
         11   -1    0    0    0    0 -0.00000000000E+00 -0.00000000000E+00 -0.45593999997E+02  0.45594000000E+02  0.51100000000E-03 0. -1.
    9900012    2    1    2    0    0 -0.33732194077E+01 -0.13164366449E+02 -0.12883975409E+02  0.72461655576E+02  0.70000111094E+02 0.  0.
        -12    1    1    2    0    0  0.33732194077E+01  0.13164366449E+02  0.12883975409E+02  0.18726344424E+02  0.00000000000E+00 0.  1.
         11    1    3    3    0    0 -0.12380094405E+02  0.10855546631E+02 -0.12554642557E+02  0.20705764418E+02  0.51100000000E-03 0. -1.
        -11    1    3    3    0    0  0.89766604102E+01 -0.32608283202E+02 -0.13180683210E+02  0.36298911494E+02  0.51100000000E-03 0.  1.
        -12    1    3    3    0    0  0.30214586837E-01  0.85883701222E+01  0.12851350359E+02  0.15456979664E+02  0.00000000000E+00 0.  1.
</event>
<event>
 7    1  0.1920603E-013  0.7246156E+02  0.7816164E-02  0.1226708E+00
        -11   -1    0    0    0    0  0.00000000000E+00  0.00000000000E+00  0.45593999997E+02  0.45594000000E+02  0.51100000000E-03 0.  1.
         11   -1    0    0    0    0 -0.00000000000E+00 -0.00000000000E+00 -0.45593999997E+02  0.45594000000E+02  0.51100000000E-03 0. -1.
    9900012    2    1    2    0    0  0.88693982693E+01 -0.15641335282E+02  0.52308753271E+01  0.72461557419E+02  0.69999983227E+02 0.  0.
        -12    1    1    2    0    0 -0.88693982693E+01  0.15641335282E+02 -0.52308753271E+01  0.18726442581E+02  0.00000000000E+00 0.  1.
         11    1    3    3    0    0 -0.42821303360E+01 -0.25757516130E+02 -0.77072960648E+01  0.27224780813E+02  0.51100000000E-03 0. -1.
        -11    1    3    3    0    0  0.27811915080E+01  0.24952874363E+02  0.92909661220E+01  0.26771309586E+02  0.51100000000E-03 0.  1.
         12    1    3    3    0    0  0.10370337097E+02 -0.14836693515E+02  0.36472052700E+01  0.18465467020E+02  0.00000000000E+00 0. -1.
</event>
<event>
 7    1  0.1920603E-013  0.7246159E+02  0.7816164E-02  0.1226708E+00
        -11   -1    0    0    0    0  0.00000000000E+00  0.00000000000E+00  0.45593999997E+02  0.45594000000E+02  0.51100000000E-03 0. -1.
         11   -1    0    0    0    0 -0.00000000000E+00 -0.00000000000E+00 -0.45593999997E+02  0.45594000000E+02  0.51100000000E-03 0.  1.
    9900012    2    1    2    0    0  0.57371883121E+01  0.10477229579E+02  0.14421891146E+02  0.72461585138E+02  0.70000019337E+02 0.  0.
        -12    1    1    2    0    0 -0.57371883121E+01 -0.10477229579E+02 -0.14421891146E+02  0.18726414862E+02  0.00000000000E+00 0.  1.
         11    1    3    3    0    0 -0.20916886958E+02 -0.14870746192E+02 -0.85335326665E+01  0.27045820978E+02  0.51100000000E-03 0. -1.
        -11    1    3    3    0    0  0.55958377782E+00  0.73543376441E+01  0.57365807486E+01  0.93438629663E+01  0.51100000000E-03 0.  1.
         12    1    3    3    0    0  0.26094491492E+02  0.17993638127E+02  0.17218843064E+02  0.36071901194E+02  0.00000000000E+00 0. -1.
</event>
<event>
 7    1  0.1920603E-013  0.7246158E+02  0.7816164E-02  0.1226708E+00
        -11   -1    0    0    0    0  0.00000000000E+00  0.00000000000E+00  0.45593999997E+02  0.45594000000E+02  0.51100000000E-03 0.  1.
         11   -1    0    0    0    0 -0.00000000000E+00 -0.00000000000E+00 -0.45593999997E+02  0.45594000000E+02  0.51100000000E-03 0. -1.
    9900012    2    1    2    0    0 -0.63723395783E+01 -0.34128833957E+01 -0.17274960792E+02  0.72461581359E+02  0.70000014413E+02 0.  0.
        -12    1    1    2    0    0  0.63723395783E+01  0.34128833957E+01  0.17274960792E+02  0.18726418641E+02  0.00000000000E+00 0.  1.
         11    1    3    3    0    0 -0.19183540503E+02  0.19250986020E+02 -0.67203563025E+01  0.27995926098E+02  0.51100000000E-03 0. -1.
        -11    1    3    3    0    0  0.23867815000E+01 -0.27343607493E+02  0.19620826966E+01  0.27517619182E+02  0.51100000000E-03 0.  1.
         12    1    3    3    0    0  0.10424419425E+02  0.46797380771E+01 -0.12516687186E+02  0.16948036079E+02  0.00000000000E+00 0. -1.
</event>
<event>
 7    1  0.1920603E-013  0.7246160E+02  0.7816164E-02  0.1226708E+00
        -11   -1    0    0    0    0  0.00000000000E+00  0.00000000000E+00  0.45593999997E+02  0.45594000000E+02  0.51100000000E-03 0.  1.
         11   -1    0    0    0    0 -0.00000000000E+00 -0.00000000000E+00 -0.45593999997E+02  0.45594000000E+02  0.51100000000E-03 0. -1.
    9900012    2    1    2    0    0  0.87639822879E+01  0.46229594155E+01 -0.15890212203E+02  0.72461601971E+02  0.70000041265E+02 0.  0.
        -12    1    1    2    0    0 -0.87639822879E+01 -0.46229594155E+01  0.15890212203E+02  0.18726398029E+02  0.00000000000E+00 0.  1.
         11    1    3    3    0    0  0.31119860107E+02  0.65309575118E+01 -0.26112655932E+02  0.41145715441E+02  0.51100000000E-03 0. -1.
        -11    1    3    3    0    0 -0.21796414434E+02 -0.78336194861E+01  0.57322867493E+01  0.23860184159E+02  0.51100000000E-03 0.  1.
        -12    1    3    3    0    0 -0.55946338422E+00  0.59256213897E+01  0.44901569805E+01  0.74557023708E+01  0.00000000000E+00 0.  1.
</event>
<event>
 7    1  0.1920603E-013  0.7246153E+02  0.7816164E-02  0.1226708E+00
        -11   -1    0    0    0    0  0.00000000000E+00  0.00000000000E+00  0.45593999997E+02  0.45594000000E+02  0.51100000000E-03 0.  1.
         11   -1    0    0    0    0 -0.00000000000E+00 -0.00000000000E+00 -0.45593999997E+02  0.45594000000E+02  0.51100000000E-03 0. -1.
    9900012    2    1    2    0    0  0.16061775677E+02 -0.29802996524E+01  0.91552150140E+01  0.72461527137E+02  0.69999943780E+02 0.  0.
        -12    1    1    2    0    0 -0.16061775677E+02  0.29802996524E+01 -0.91552150140E+01  0.18726472863E+02  0.00000000000E+00 0.  1.
         11    1    3    3    0    0  0.17300326650E+02  0.12938478808E+02 -0.18794106193E+02  0.28634314448E+02  0.51100000000E-03 0. -1.
        -11    1    3    3    0    0 -0.93115701985E+01  0.31639414327E+00  0.23322458751E+02  0.25114587937E+02  0.51100000000E-03 0.  1.
         12    1    3    3    0    0  0.80730192261E+01 -0.16235172604E+02  0.46268624564E+01  0.18712624752E+02  0.00000000000E+00 0. -1.
</event>
<event>
 7    1  0.1920603E-013  0.7246156E+02  0.7816164E-02  0.1226708E+00
        -11   -1    0    0    0    0  0.00000000000E+00  0.00000000000E+00  0.45593999997E+02  0.45594000000E+02  0.51100000000E-03 0.  1.
         11   -1    0    0    0    0 -0.00000000000E+00 -0.00000000000E+00 -0.45593999997E+02  0.45594000000E+02  0.51100000000E-03 0. -1.
    9900012    2    1    2    0    0  0.17562798729E+02 -0.30931303585E+01 -0.57149200056E+01  0.72461557058E+02  0.69999982757E+02 0.  0.
        -12    1    1    2    0    0 -0.17562798729E+02  0.30931303585E+01  0.57149200056E+01  0.18726442942E+02  0.00000000000E+00 0.  1.
         11    1    3    3    0    0 -0.22503147029E+02 -0.69314777144E+01  0.98836331083E+01  0.25536703256E+02  0.51100000000E-03 0. -1.
        -11    1    3    3    0    0  0.15826049609E+02  0.75653043378E+01  0.56893553012E+00  0.17550537424E+02  0.51100000000E-03 0.  1.
         12    1    3    3    0    0  0.24239896148E+02 -0.37269569820E+01 -0.16167488644E+02  0.29374316378E+02  0.00000000000E+00 0. -1.
</event>
<event>
 7    1  0.1920603E-013  0.7246157E+02  0.7816164E-02  0.1226708E+00
        -11   -1    0    0    0    0  0.00000000000E+00  0.00000000000E+00  0.45593999997E+02  0.45594000000E+02  0.51100000000E-03 0.  1.
         11   -1    0    0    0    0 -0.00000000000E+00 -0.00000000000E+00 -0.45593999997E+02  0.45594000000E+02  0.51100000000E-03 0. -1.
    9900012    2    1    2    0    0 -0.23155398159E+01  0.12342069284E+02 -0.13892110418E+02  0.72461571331E+02  0.70000001350E+02 0.  0.
        -12    1    1    2    0    0  0.23155398159E+01 -0.12342069284E+02  0.13892110418E+02  0.18726428669E+02  0.00000000000E+00 0.  1.
         11    1    3    3    0    0 -0.64384715999E+01 -0.73072012170E+01 -0.31261706868E+02  0.32743601249E+02  0.51100000000E-03 0. -1.
        -11    1    3    3    0    0  0.13821451521E+02  0.14110957444E+02  0.20141704093E+02  0.28210634275E+02  0.51100000000E-03 0.  1.
        -12    1    3    3    0    0 -0.96985197372E+01  0.55383130563E+01 -0.27721076430E+01  0.11507335808E+02  0.00000000000E+00 0.  1.
</event>
<event>
 7    1  0.1920603E-013  0.7246158E+02  0.7816164E-02  0.1226708E+00
        -11   -1    0    0    0    0  0.00000000000E+00  0.00000000000E+00  0.45593999997E+02  0.45594000000E+02  0.51100000000E-03 0.  1.
         11   -1    0    0    0    0 -0.00000000000E+00 -0.00000000000E+00 -0.45593999997E+02  0.45594000000E+02  0.51100000000E-03 0. -1.
    9900012    2    1    2    0    0  0.15665705982E+02 -0.62113562215E+01 -0.81660032152E+01  0.72461577529E+02  0.70000009425E+02 0.  0.
        -12    1    1    2    0    0 -0.15665705982E+02  0.62113562215E+01  0.81660032152E+01  0.18726422471E+02  0.00000000000E+00 0.  1.
         11    1    3    3    0    0  0.18015824598E+02 -0.22465703621E+02  0.13759955036E+02  0.31915734959E+02  0.51100000000E-03 0.  1.
        -11    1    3    3    0    0  0.71855451768E+01  0.18232943395E+02 -0.23587193035E+02  0.30666397895E+02  0.51100000000E-03 0. -1.
        -12    1    3    3    0    0 -0.95356637927E+01 -0.19785959951E+01  0.16612347842E+01  0.98794446750E+01  0.00000000000E+00 0.  1.
</event>
<event>
 7    1  0.1920603E-013  0.7246155E+02  0.7816164E-02  0.1226708E+00
        -11   -1    0    0    0    0  0.00000000000E+00  0.00000000000E+00  0.45593999997E+02  0.45594000000E+02  0.51100000000E-03 0. -1.
         11   -1    0    0    0    0 -0.00000000000E+00 -0.00000000000E+00 -0.45593999997E+02  0.45594000000E+02  0.51100000000E-03 0.  1.
    9900012    2    1    2    0    0  0.12054113388E+02 -0.14153672637E+02 -0.22476392239E+01  0.72461548634E+02  0.69999971784E+02 0.  0.
        -12    1    1    2    0    0 -0.12054113388E+02  0.14153672637E+02  0.22476392239E+01  0.18726451366E+02  0.00000000000E+00 0.  1.
         11    1    3    3    0    0  0.28087275828E+01 -0.40358884783E+02  0.85313752222E+01  0.41346256119E+02  0.51100000000E-03 0. -1.
        -11    1    3    3    0    0  0.21280393206E+01  0.58922574106E+01 -0.67653774238E+01  0.92204978548E+01  0.51100000000E-03 0.  1.
         12    1    3    3    0    0  0.71173464843E+01  0.20312954736E+02 -0.40136370224E+01  0.21894794661E+02  0.00000000000E+00 0. -1.
</event>
<event>
 7    1  0.1920603E-013  0.7246158E+02  0.7816164E-02  0.1226708E+00
        -11   -1    0    0    0    0  0.00000000000E+00  0.00000000000E+00  0.45593999997E+02  0.45594000000E+02  0.51100000000E-03 0. -1.
         11   -1    0    0    0    0 -0.00000000000E+00 -0.00000000000E+00 -0.45593999997E+02  0.45594000000E+02  0.51100000000E-03 0.  1.
    9900012    2    1    2    0    0 -0.95300865363E+01 -0.32418902941E+01  0.15790704494E+02  0.72461581482E+02  0.70000014575E+02 0.  0.
        -12    1    1    2    0    0  0.95300865363E+01  0.32418902941E+01 -0.15790704494E+02  0.18726418518E+02  0.00000000000E+00 0.  1.
         11    1    3    3    0    0 -0.14293684819E+02 -0.25278596335E+01  0.81811176301E+01  0.16662238324E+02  0.51100000000E-03 0. -1.
        -11    1    3    3    0    0  0.13110221525E+02 -0.12535917533E+02 -0.18524206930E+02  0.25926306707E+02  0.51100000000E-03 0.  1.
        -12    1    3    3    0    0 -0.83466232428E+01  0.11821886872E+02  0.26133793794E+02  0.29873036452E+02  0.00000000000E+00 0.  1.
</event>
<event>
 7    1  0.1920603E-013  0.7246158E+02  0.7816164E-02  0.1226708E+00
        -11   -1    0    0    0    0  0.00000000000E+00  0.00000000000E+00  0.45593999997E+02  0.45594000000E+02  0.51100000000E-03 0.  1.
         11   -1    0    0    0    0 -0.00000000000E+00 -0.00000000000E+00 -0.45593999997E+02  0.45594000000E+02  0.51100000000E-03 0. -1.
    9900012    2    1    2    0    0  0.15336517563E+02  0.89350513634E+01 -0.59694840428E+01  0.72461584071E+02  0.70000017946E+02 0.  0.
        -12    1    1    2    0    0 -0.15336517563E+02 -0.89350513634E+01  0.59694840428E+01  0.18726415929E+02  0.00000000000E+00 0.  1.
         11    1    3    3    0    0  0.27113172929E+02  0.12840665850E+01 -0.22172501972E+01  0.27233970918E+02  0.51100000000E-03 0. -1.
        -11    1    3    3    0    0 -0.72060963340E+01  0.20203641297E+02 -0.16268279229E+02  0.26921587162E+02  0.51100000000E-03 0.  1.
        -12    1    3    3    0    0 -0.45705590315E+01 -0.12552656518E+02  0.12516045383E+02  0.18306025990E+02  0.00000000000E+00 0.  1.
</event>
<event>
 7    1  0.1920603E-013  0.7246154E+02  0.7816164E-02  0.1226708E+00
        -11   -1    0    0    0    0  0.00000000000E+00  0.00000000000E+00  0.45593999997E+02  0.45594000000E+02  0.51100000000E-03 0.  1.
         11   -1    0    0    0    0 -0.00000000000E+00 -0.00000000000E+00 -0.45593999997E+02  0.45594000000E+02  0.51100000000E-03 0. -1.
    9900012    2    1    2    0    0  0.11405216006E+02  0.11120552389E+02 -0.98455353005E+01  0.72461542702E+02  0.69999964055E+02 0.  0.
        -12    1    1    2    0    0 -0.11405216006E+02 -0.11120552389E+02  0.98455353005E+01  0.18726457298E+02  0.00000000000E+00 0.  1.
         11    1    3    3    0    0 -0.14160160944E+02  0.21347434760E+02 -0.25183207290E+02  0.35922375457E+02  0.51100000000E-03 0. -1.
        -11    1    3    3    0    0  0.23091178235E+02 -0.66598964175E+01  0.39535493808E+01  0.24355436468E+02  0.51100000000E-03 0.  1.
         12    1    3    3    0    0  0.24741987155E+01 -0.35669859536E+01  0.11384122609E+02  0.12183730777E+02  0.00000000000E+00 0. -1.
</event>
<event>
 7    1  0.1920603E-013  0.7246158E+02  0.7816164E-02  0.1226708E+00
        -11   -1    0    0    0    0  0.00000000000E+00  0.00000000000E+00  0.45593999997E+02  0.45594000000E+02  0.51100000000E-03 0.  1.
         11   -1    0    0    0    0 -0.00000000000E+00 -0.00000000000E+00 -0.45593999997E+02  0.45594000000E+02  0.51100000000E-03 0. -1.
    9900012    2    1    2    0    0  0.70554781138E+01  0.13181637863E+02 -0.11275790369E+02  0.72461580251E+02  0.70000012970E+02 0.  0.
        -12    1    1    2    0    0 -0.70554781138E+01 -0.13181637863E+02  0.11275790369E+02  0.18726419749E+02  0.00000000000E+00 0.  1.
         11    1    3    3    0    0  0.30487471827E+01  0.19461541400E+02 -0.17852800878E+02  0.26585126527E+02  0.51100000000E-03 0. -1.
        -11    1    3    3    0    0  0.22889840508E+02 -0.70265201278E+01  0.11180828127E+02  0.26425890742E+02  0.51100000000E-03 0.  1.
        -12    1    3    3    0    0 -0.18883109577E+02  0.74661659144E+00 -0.46038176186E+01  0.19450562982E+02  0.00000000000E+00 0.  1.
</event>
<event>
 7    1  0.1920603E-013  0.7246158E+02  0.7816164E-02  0.1226708E+00
        -11   -1    0    0    0    0  0.00000000000E+00  0.00000000000E+00  0.45593999997E+02  0.45594000000E+02  0.51100000000E-03 0. -1.
         11   -1    0    0    0    0 -0.00000000000E+00 -0.00000000000E+00 -0.45593999997E+02  0.45594000000E+02  0.51100000000E-03 0.  1.
    9900012    2    1    2    0    0 -0.14998966063E+02 -0.41421240476E+01  0.10418868087E+02  0.72461575173E+02  0.70000006356E+02 0.  0.
        -12    1    1    2    0    0  0.14998966063E+02  0.41421240476E+01 -0.10418868087E+02  0.18726424827E+02  0.00000000000E+00 0.  1.
         11    1    3    3    0    0  0.20515709788E+02 -0.73837481233E+01  0.13941136788E+02  0.25879903007E+02  0.51100000000E-03 0. -1.
        -11    1    3    3    0    0 -0.23993295139E+02  0.48493029506E+01 -0.16217001149E+02  0.29362988221E+02  0.51100000000E-03 0.  1.
         12    1    3    3    0    0 -0.11521380712E+02 -0.16076788749E+01  0.12694732448E+02  0.17218683945E+02  0.00000000000E+00 0. -1.
</event>
<event>
 7    1  0.1920603E-013  0.7246159E+02  0.7816164E-02  0.1226708E+00
        -11   -1    0    0    0    0  0.00000000000E+00  0.00000000000E+00  0.45593999997E+02  0.45594000000E+02  0.51100000000E-03 0. -1.
         11   -1    0    0    0    0 -0.00000000000E+00 -0.00000000000E+00 -0.45593999997E+02  0.45594000000E+02  0.51100000000E-03 0.  1.
    9900012    2    1    2    0    0  0.13014797032E+02  0.13096759543E+02  0.31254365838E+01  0.72461590677E+02  0.70000026552E+02 0.  0.
        -12    1    1    2    0    0 -0.13014797032E+02 -0.13096759543E+02 -0.31254365838E+01  0.18726409323E+02  0.00000000000E+00 0.  1.
         11    1    3    3    0    0 -0.16300297444E+02  0.21169664691E+02  0.60229763129E+01  0.27388512990E+02  0.51100000000E-03 0.  1.
        -11    1    3    3    0    0  0.34838921623E+02 -0.11987455347E+02 -0.64867491560E+01  0.37410258759E+02  0.51100000000E-03 0. -1.
         12    1    3    3    0    0 -0.55238271471E+01  0.39145501988E+01  0.35892094269E+01  0.76628189278E+01  0.00000000000E+00 0. -1.
</event>
<event>
 7    1  0.1920603E-013  0.7246157E+02  0.7816164E-02  0.1226708E+00
        -11   -1    0    0    0    0  0.00000000000E+00  0.00000000000E+00  0.45593999997E+02  0.45594000000E+02  0.51100000000E-03 0. -1.
         11   -1    0    0    0    0 -0.00000000000E+00 -0.00000000000E+00 -0.45593999997E+02  0.45594000000E+02  0.51100000000E-03 0.  1.
    9900012    2    1    2    0    0  0.74546506361E+01 -0.62848977225E+01  0.15987728225E+02  0.72461569233E+02  0.69999998617E+02 0.  0.
        -12    1    1    2    0    0 -0.74546506361E+01  0.62848977225E+01 -0.15987728225E+02  0.18726430767E+02  0.00000000000E+00 0.  1.
         11    1    3    3    0    0  0.95029232670E+01  0.27271037041E+02 -0.68995713569E+01  0.29692071283E+02  0.51100000000E-03 0. -1.
        -11    1    3    3    0    0 -0.52713197273E+01 -0.15945558936E+02  0.17066888890E+02  0.23944234339E+02  0.51100000000E-03 0.  1.
         12    1    3    3    0    0  0.32230470964E+01 -0.17610375827E+02  0.58204106917E+01  0.18825263610E+02  0.00000000000E+00 0. -1.
</event>
<event>
 7    1  0.1920603E-013  0.7246192E+02  0.7816164E-02  0.1226707E+00
        -11   -1    0    0    0    0  0.00000000000E+00  0.00000000000E+00  0.45593999997E+02  0.45594000000E+02  0.51100000000E-03 0.  1.
         11   -1    0    0    0    0 -0.00000000000E+00 -0.00000000000E+00 -0.45593999997E+02  0.45594000000E+02  0.51100000000E-03 0. -1.
    9900012    2    1    2    0    0  0.38240186829E+01 -0.18006086258E+02 -0.34385962578E+01  0.72461916442E+02  0.70000450920E+02 0.  0.
        -12    1    1    2    0    0 -0.38240186829E+01  0.18006086258E+02  0.34385962578E+01  0.18726083558E+02  0.00000000000E+00 0.  1.
         11    1    3    3    0    0 -0.38577377817E+01 -0.30886523504E+02  0.57945256424E+01  0.31661269757E+02  0.51100000000E-03 0. -1.
        -11    1    3    3    0    0 -0.10184893644E+02  0.76714661080E+01 -0.16473179979E+02  0.20831445213E+02  0.51100000000E-03 0.  1.
        -12    1    3    3    0    0  0.17866650109E+02  0.52089711380E+01  0.72400580787E+01  0.19969201472E+02  0.00000000000E+00 0.  1.
</event>
<event>
 7    1  0.1920603E-013  0.7246227E+02  0.7816164E-02  0.1226706E+00
        -11   -1    0    0    0    0  0.00000000000E+00  0.00000000000E+00  0.45593999997E+02  0.45594000000E+02  0.51100000000E-03 0. -1.
         11   -1    0    0    0    0 -0.00000000000E+00 -0.00000000000E+00 -0.45593999997E+02  0.45594000000E+02  0.51100000000E-03 0.  1.
    9900012    2    1    2    0    0 -0.22050189424E+01 -0.18547745242E+02 -0.13311809475E+01  0.72462268911E+02  0.70000910072E+02 0.  0.
        -12    1    1    2    0    0  0.22050189424E+01  0.18547745242E+02  0.13311809475E+01  0.18725731089E+02  0.00000000000E+00 0.  1.
         11    1    3    3    0    0 -0.39922463605E+00  0.12680864348E+01  0.18181672179E+02  0.18230211930E+02  0.51100000000E-03 0. -1.
        -11    1    3    3    0    0  0.19073124217E+02 -0.17990420052E+02 -0.20452061781E+02  0.33252460246E+02  0.51100000000E-03 0.  1.
        -12    1    3    3    0    0 -0.20878918523E+02 -0.18254116243E+01  0.93920865445E+00  0.20979596736E+02  0.00000000000E+00 0.  1.
</event>
<event>
 7    1  0.1920603E-013  0.7246153E+02  0.7816164E-02  0.1226708E+00
        -11   -1    0    0    0    0  0.00000000000E+00  0.00000000000E+00  0.45593999997E+02  0.45594000000E+02  0.51100000000E-03 0.  1.
         11   -1    0    0    0    0 -0.00000000000E+00 -0.00000000000E+00 -0.45593999997E+02  0.45594000000E+02  0.51100000000E-03 0. -1.
    9900012    2    1    2    0    0 -0.36348367568E+01  0.16649659551E+02 -0.77625796624E+01  0.72461525574E+02  0.69999941743E+02 0.  0.
        -12    1    1    2    0    0  0.36348367568E+01 -0.16649659551E+02  0.77625796624E+01  0.18726474426E+02  0.00000000000E+00 0.  1.
         11    1    3    3    0    0 -0.10253707606E+02  0.20306684988E+02 -0.16709911286E+02  0.28226248605E+02  0.51100000000E-03 0.  1.
        -11    1    3    3    0    0  0.23483023619E+02 -0.96825161235E+01  0.57561576617E+01  0.26044900999E+02  0.51100000000E-03 0. -1.
         12    1    3    3    0    0 -0.16864152770E+02  0.60254906870E+01  0.31911739617E+01  0.18190375970E+02  0.00000000000E+00 0. -1.
</event>
<event>
 7    1  0.1920603E-013  0.7246158E+02  0.7816164E-02  0.1226708E+00
        -11   -1    0    0    0    0  0.00000000000E+00  0.00000000000E+00  0.45593999997E+02  0.45594000000E+02  0.51100000000E-03 0. -1.
         11   -1    0    0    0    0 -0.00000000000E+00 -0.00000000000E+00 -0.45593999997E+02  0.45594000000E+02  0.51100000000E-03 0.  1.
    9900012    2    1    2    0    0  0.22861893841E+01 -0.13344519372E+02  0.12937389216E+02  0.72461577520E+02  0.70000009413E+02 0.  0.
        -12    1    1    2    0    0 -0.22861893841E+01  0.13344519372E+02 -0.12937389216E+02  0.18726422480E+02  0.00000000000E+00 0.  1.
         11    1    3    3    0    0 -0.22912128766E+02 -0.52059452636E+01 -0.35206146015E+01  0.23758414049E+02  0.51100000000E-03 0.  1.
        -11    1    3    3    0    0  0.21485804127E+02  0.12037245987E+02  0.13165538379E+02  0.27926089432E+02  0.51100000000E-03 0. -1.
        -12    1    3    3    0    0  0.37125140238E+01 -0.20175820096E+02  0.32924654389E+01  0.20777074038E+02  0.00000000000E+00 0.  1.
</event>
<event>
 7    1  0.1920603E-013  0.7246156E+02  0.7816164E-02  0.1226708E+00
        -11   -1    0    0    0    0  0.00000000000E+00  0.00000000000E+00  0.45593999997E+02  0.45594000000E+02  0.51100000000E-03 0. -1.
         11   -1    0    0    0    0 -0.00000000000E+00 -0.00000000000E+00 -0.45593999997E+02  0.45594000000E+02  0.51100000000E-03 0.  1.
    9900012    2    1    2    0    0  0.39025513293E+01 -0.81870502429E+01  0.16383583620E+02  0.72461561183E+02  0.69999988130E+02 0.  0.
        -12    1    1    2    0    0 -0.39025513293E+01  0.81870502429E+01 -0.16383583620E+02  0.18726438817E+02  0.00000000000E+00 0.  1.
         11    1    3    3    0    0  0.29694893100E+02 -0.69807788865E+00  0.14295277253E+02  0.32964055287E+02  0.51100000000E-03 0. -1.
        -11    1    3    3    0    0 -0.19593963067E+02  0.45529169617E+01  0.11343304666E+02  0.23093787099E+02  0.51100000000E-03 0.  1.
         12    1    3    3    0    0 -0.61983787038E+01 -0.12041889316E+02 -0.92549982990E+01  0.16403718797E+02  0.00000000000E+00 0. -1.
</event>
<event>
 7    1  0.1920603E-013  0.7246153E+02  0.7816164E-02  0.1226708E+00
        -11   -1    0    0    0    0  0.00000000000E+00  0.00000000000E+00  0.45593999997E+02  0.45594000000E+02  0.51100000000E-03 0.  1.
         11   -1    0    0    0    0 -0.00000000000E+00 -0.00000000000E+00 -0.45593999997E+02  0.45594000000E+02  0.51100000000E-03 0. -1.
    9900012    2    1    2    0    0 -0.16172419371E+02  0.50692485753E+01 -0.79646992711E+01  0.72461525053E+02  0.69999941065E+02 0.  0.
        -12    1    1    2    0    0  0.16172419371E+02 -0.50692485753E+01  0.79646992711E+01  0.18726474947E+02  0.00000000000E+00 0.  1.
         11    1    3    3    0    0 -0.22538647178E+02  0.28561858839E+02 -0.10555917910E+02  0.37884004542E+02  0.51100000000E-03 0. -1.
        -11    1    3    3    0    0  0.10829448378E+01 -0.11041414555E+02  0.13304286485E+02  0.17323095683E+02  0.51100000000E-03 0.  1.
         12    1    3    3    0    0  0.52832829684E+01 -0.12451195708E+02 -0.10713067846E+02  0.17254424829E+02  0.00000000000E+00 0. -1.
</event>
<event>
 7    1  0.1920603E-013  0.7246156E+02  0.7816164E-02  0.1226708E+00
        -11   -1    0    0    0    0  0.00000000000E+00  0.00000000000E+00  0.45593999997E+02  0.45594000000E+02  0.51100000000E-03 0.  1.
         11   -1    0    0    0    0 -0.00000000000E+00 -0.00000000000E+00 -0.45593999997E+02  0.45594000000E+02  0.51100000000E-03 0. -1.
    9900012    2    1    2    0    0  0.52361176023E+01 -0.16007226449E+02  0.81872683948E+01  0.72461559070E+02  0.69999985378E+02 0.  0.
        -12    1    1    2    0    0 -0.52361176023E+01  0.16007226449E+02 -0.81872683948E+01  0.18726440930E+02  0.00000000000E+00 0.  1.
         11    1    3    3    0    0  0.58996719256E+00  0.23059218158E+02 -0.41837088544E+01  0.23443101829E+02  0.51100000000E-03 0.  1.
        -11    1    3    3    0    0 -0.11063540211E+01 -0.19416515820E+02  0.19303852789E+02  0.27401894799E+02  0.51100000000E-03 0. -1.
         12    1    3    3    0    0  0.57525044308E+01 -0.19649928787E+02 -0.69328755397E+01  0.21616562442E+02  0.00000000000E+00 0. -1.
</event>
<event>
 7    1  0.1920603E-013  0.7246159E+02  0.7816164E-02  0.1226708E+00
        -11   -1    0    0    0    0  0.00000000000E+00  0.00000000000E+00  0.45593999997E+02  0.45594000000E+02  0.51100000000E-03 0.  1.
         11   -1    0    0    0    0 -0.00000000000E+00 -0.00000000000E+00 -0.45593999997E+02  0.45594000000E+02  0.51100000000E-03 0. -1.
    9900012    2    1    2    0    0 -0.16606269435E+02  0.38849544066E+01 -0.77341765089E+01  0.72461587061E+02  0.70000021841E+02 0.  0.
        -12    1    1    2    0    0  0.16606269435E+02 -0.38849544066E+01  0.77341765089E+01  0.18726412939E+02  0.00000000000E+00 0.  1.
         11    1    3    3    0    0 -0.16569500194E+02  0.16323685501E+02 -0.10044982099E+02  0.25335996342E+02  0.51100000000E-03 0. -1.
        -11    1    3    3    0    0  0.19080078810E+02 -0.53124254455E+01 -0.11106229263E+02  0.22707258756E+02  0.51100000000E-03 0.  1.
         12    1    3    3    0    0 -0.19116848051E+02 -0.71263056488E+01  0.13417034853E+02  0.24418331963E+02  0.00000000000E+00 0. -1.
</event>
<event>
 7    1  0.1920603E-013  0.7246210E+02  0.7816164E-02  0.1226707E+00
        -11   -1    0    0    0    0  0.00000000000E+00  0.00000000000E+00  0.45593999997E+02  0.45594000000E+02  0.51100000000E-03 0.  1.
         11   -1    0    0    0    0 -0.00000000000E+00 -0.00000000000E+00 -0.45593999997E+02  0.45594000000E+02  0.51100000000E-03 0. -1.
    9900012    2    1    2    0    0 -0.28041325157E+01  0.63083870584E+01 -0.17406905898E+02  0.72462101373E+02  0.70000691826E+02 0.  0.
        -12    1    1    2    0    0  0.28041325157E+01 -0.63083870584E+01  0.17406905898E+02  0.18725898627E+02  0.00000000000E+00 0.  1.
         11    1    3    3    0    0 -0.13641511411E+02 -0.55968097585E+01 -0.17558311164E+02  0.22928353718E+02  0.51100000000E-03 0. -1.
        -11    1    3    3    0    0  0.26240902755E+02  0.12395492840E+02 -0.10431010220E+02  0.30838923370E+02  0.51100000000E-03 0.  1.
        -12    1    3    3    0    0 -0.15403523860E+02 -0.49029602301E+00  0.10582415487E+02  0.18694824285E+02  0.00000000000E+00 0.  1.
</event>
<event>
 7    1  0.1920603E-013  0.7246162E+02  0.7816164E-02  0.1226708E+00
        -11   -1    0    0    0    0  0.00000000000E+00  0.00000000000E+00  0.45593999997E+02  0.45594000000E+02  0.51100000000E-03 0.  1.
         11   -1    0    0    0    0 -0.00000000000E+00 -0.00000000000E+00 -0.45593999997E+02  0.45594000000E+02  0.51100000000E-03 0. -1.
    9900012    2    1    2    0    0 -0.34268322634E+01 -0.16069910374E+02 -0.89828841716E+01  0.72461617358E+02  0.70000061310E+02 0.  0.
        -12    1    1    2    0    0  0.34268322634E+01  0.16069910374E+02  0.89828841716E+01  0.18726382642E+02  0.00000000000E+00 0.  1.
         11    1    3    3    0    0 -0.14788077080E+02  0.17202697690E+02  0.11685616861E+02  0.25518104812E+02  0.51100000000E-03 0. -1.
        -11    1    3    3    0    0  0.71535554618E+01 -0.93080000506E+01 -0.19279931563E+02  0.22572726508E+02  0.51100000000E-03 0.  1.
         12    1    3    3    0    0  0.42076893551E+01 -0.23964608013E+02 -0.13885694697E+01  0.24370786038E+02  0.00000000000E+00 0. -1.
</event>
<event>
 7    1  0.1920603E-013  0.7246153E+02  0.7816164E-02  0.1226708E+00
        -11   -1    0    0    0    0  0.00000000000E+00  0.00000000000E+00  0.45593999997E+02  0.45594000000E+02  0.51100000000E-03 0. -1.
         11   -1    0    0    0    0 -0.00000000000E+00 -0.00000000000E+00 -0.45593999997E+02  0.45594000000E+02  0.51100000000E-03 0.  1.
    9900012    2    1    2    0    0  0.47246467117E+00 -0.36404562832E+01  0.18363131336E+02  0.72461528435E+02  0.69999945470E+02 0.  0.
        -12    1    1    2    0    0 -0.47246467117E+00  0.36404562832E+01 -0.18363131336E+02  0.18726471565E+02  0.00000000000E+00 0.  1.
         11    1    3    3    0    0 -0.72203233240E+01 -0.16382082813E+02  0.24557555200E+01  0.18070319356E+02  0.51100000000E-03 0. -1.
        -11    1    3    3    0    0  0.17895364226E+02  0.58675434943E+01  0.30164067147E+02  0.35560414432E+02  0.51100000000E-03 0.  1.
        -12    1    3    3    0    0 -0.10202576231E+02  0.68740830356E+01 -0.14256691331E+02  0.18830794647E+02  0.00000000000E+00 0.  1.
</event>
<event>
 7    1  0.1920603E-013  0.7246149E+02  0.7816164E-02  0.1226708E+00
        -11   -1    0    0    0    0  0.00000000000E+00  0.00000000000E+00  0.45593999997E+02  0.45594000000E+02  0.51100000000E-03 0. -1.
         11   -1    0    0    0    0 -0.00000000000E+00 -0.00000000000E+00 -0.45593999997E+02  0.45594000000E+02  0.51100000000E-03 0.  1.
    9900012    2    1    2    0    0  0.10659879155E+02 -0.28510363347E+01  0.15130127051E+02  0.72461490011E+02  0.69999895416E+02 0.  0.
        -12    1    1    2    0    0 -0.10659879155E+02  0.28510363347E+01 -0.15130127051E+02  0.18726509989E+02  0.00000000000E+00 0.  1.
         11    1    3    3    0    0 -0.13779320744E+02 -0.58425025869E+01  0.11860570080E+02  0.19096534751E+02  0.51100000000E-03 0. -1.
        -11    1    3    3    0    0  0.72953972418E+01 -0.38452645810E+01 -0.21181305363E+02  0.22730080901E+02  0.51100000000E-03 0.  1.
         12    1    3    3    0    0  0.17143802657E+02  0.68367308332E+01  0.24450862335E+02  0.30634874359E+02  0.00000000000E+00 0. -1.
</event>
<event>
 7    1  0.1920603E-013  0.7246148E+02  0.7816164E-02  0.1226708E+00
        -11   -1    0    0    0    0  0.00000000000E+00  0.00000000000E+00  0.45593999997E+02  0.45594000000E+02  0.51100000000E-03 0.  1.
         11   -1    0    0    0    0 -0.00000000000E+00 -0.00000000000E+00 -0.45593999997E+02  0.45594000000E+02  0.51100000000E-03 0. -1.
    9900012    2    1    2    0    0 -0.12929911058E+02  0.54772302002E+01  0.12389504413E+02  0.72461482165E+02  0.69999885196E+02 0.  0.
        -12    1    1    2    0    0  0.12929911058E+02 -0.54772302002E+01 -0.12389504413E+02  0.18726517835E+02  0.00000000000E+00 0.  1.
         11    1    3    3    0    0 -0.24386214507E+02  0.55511339398E+00 -0.18980586435E+02  0.30907252717E+02  0.51100000000E-03 0. -1.
        -11    1    3    3    0    0  0.17076431174E+02  0.43751812330E+01  0.31281880548E+02  0.35906862343E+02  0.51100000000E-03 0.  1.
        -12    1    3    3    0    0 -0.56201277243E+01  0.54693557321E+00  0.88210299068E-01  0.56473671048E+01  0.00000000000E+00 0.  1.
</event>
<event>
 7    1  0.1920603E-013  0.7246161E+02  0.7816164E-02  0.1226708E+00
        -11   -1    0    0    0    0  0.00000000000E+00  0.00000000000E+00  0.45593999997E+02  0.45594000000E+02  0.51100000000E-03 0.  1.
         11   -1    0    0    0    0 -0.00000000000E+00 -0.00000000000E+00 -0.45593999997E+02  0.45594000000E+02  0.51100000000E-03 0. -1.
    9900012    2    1    2    0    0  0.11483553995E+02  0.44828688391E+01 -0.14096432264E+02  0.72461614124E+02  0.70000057097E+02 0.  0.
        -12    1    1    2    0    0 -0.11483553995E+02 -0.44828688391E+01  0.14096432264E+02  0.18726385876E+02  0.00000000000E+00 0.  1.
         11    1    3    3    0    0  0.19652269906E+02 -0.17334339318E+02 -0.21024339710E+02  0.33596337487E+02  0.51100000000E-03 0. -1.
        -11    1    3    3    0    0 -0.31919438565E+01  0.13898624669E+02 -0.11421053397E+02  0.18270214400E+02  0.51100000000E-03 0.  1.
         12    1    3    3    0    0 -0.49767720545E+01  0.79185834886E+01  0.18348960843E+02  0.20595062237E+02  0.00000000000E+00 0. -1.
</event>
<event>
 7    1  0.1920603E-013  0.7246141E+02  0.7816164E-02  0.1226708E+00
        -11   -1    0    0    0    0  0.00000000000E+00  0.00000000000E+00  0.45593999997E+02  0.45594000000E+02  0.51100000000E-03 0.  1.
         11   -1    0    0    0    0 -0.00000000000E+00 -0.00000000000E+00 -0.45593999997E+02  0.45594000000E+02  0.51100000000E-03 0. -1.
    9900012    2    1    2    0    0 -0.16211140006E+02  0.24839856448E+01 -0.90395742136E+01  0.72461410696E+02  0.69999792094E+02 0.  0.
        -12    1    1    2    0    0  0.16211140006E+02 -0.24839856448E+01  0.90395742136E+01  0.18726589304E+02  0.00000000000E+00 0.  1.
         11    1    3    3    0    0 -0.17899684527E+02 -0.31244013954E+01 -0.36854794153E+02  0.41090588248E+02  0.51100000000E-03 0. -1.
        -11    1    3    3    0    0 -0.39494086587E+01 -0.19704793124E+01  0.13642831393E+02  0.14339019009E+02  0.51100000000E-03 0.  1.
         12    1    3    3    0    0  0.56379531798E+01  0.75788663526E+01  0.14172388547E+02  0.17031803439E+02  0.00000000000E+00 0. -1.
</event>
<event>
 7    1  0.1920603E-013  0.7246156E+02  0.7816164E-02  0.1226708E+00
        -11   -1    0    0    0    0  0.00000000000E+00  0.00000000000E+00  0.45593999997E+02  0.45594000000E+02  0.51100000000E-03 0. -1.
         11   -1    0    0    0    0 -0.00000000000E+00 -0.00000000000E+00 -0.45593999997E+02  0.45594000000E+02  0.51100000000E-03 0.  1.
    9900012    2    1    2    0    0  0.67769168879E+01  0.59993667975E+01  0.16393916207E+02  0.72461561656E+02  0.69999988747E+02 0.  0.
        -12    1    1    2    0    0 -0.67769168879E+01 -0.59993667975E+01 -0.16393916207E+02  0.18726438344E+02  0.00000000000E+00 0.  1.
         11    1    3    3    0    0 -0.62134177996E+01 -0.10934131673E+02  0.17026279387E+02  0.21167332998E+02  0.51100000000E-03 0. -1.
        -11    1    3    3    0    0  0.18335335592E+02  0.17893123356E+02  0.18374183987E+02  0.31527115823E+02  0.51100000000E-03 0.  1.
         12    1    3    3    0    0 -0.53450009042E+01 -0.95962488606E+00 -0.19006547168E+02  0.19767112835E+02  0.00000000000E+00 0. -1.
</event>
<event>
 7    1  0.1920603E-013  0.7246158E+02  0.7816164E-02  0.1226708E+00
        -11   -1    0    0    0    0  0.00000000000E+00  0.00000000000E+00  0.45593999997E+02  0.45594000000E+02  0.51100000000E-03 0.  1.
         11   -1    0    0    0    0 -0.00000000000E+00 -0.00000000000E+00 -0.45593999997E+02  0.45594000000E+02  0.51100000000E-03 0. -1.
    9900012    2    1    2    0    0  0.64259694984E+01  0.17585782580E+02 -0.35493187577E+00  0.72461579905E+02  0.70000012519E+02 0.  0.
        -12    1    1    2    0    0 -0.64259694984E+01 -0.17585782580E+02  0.35493187577E+00  0.18726420095E+02  0.00000000000E+00 0.  1.
         11    1    3    3    0    0  0.39346705961E-01 -0.18692955270E+02 -0.13784482404E+02  0.23225849399E+02  0.51100000000E-03 0. -1.
        -11    1    3    3    0    0  0.35075875867E+00 -0.97656878592E+00  0.11392556118E+02  0.11439713871E+02  0.51100000000E-03 0.  1.
         12    1    3    3    0    0  0.60358640338E+01  0.37255306636E+02  0.20369944102E+01  0.37796016634E+02  0.00000000000E+00 0. -1.
</event>
<event>
 8    1  0.1920603E-013  0.7246157E+02  0.7816164E-02  0.1226708E+00
        -11   -1    0    0    0    0  0.00000000000E+00  0.00000000000E+00  0.45593999997E+02  0.45594000000E+02  0.51100000000E-03 0. -1.
         11   -1    0    0    0    0 -0.00000000000E+00 -0.00000000000E+00 -0.45593999997E+02  0.45594000000E+02  0.51100000000E-03 0.  1.
    9900012    2    1    2    0    0 -0.13643199079E+02 -0.11842888024E+02  0.49283247446E+01  0.72461567808E+02  0.69999996761E+02 0.  0.
        -24    2    3    3    0    0 -0.71238280719E+01 -0.24589165919E+02  0.11781864952E+02  0.56588924294E+02  0.49072578941E+02 0.  0.
        -12    1    1    2    0    0  0.13643199079E+02  0.11842888024E+02 -0.49283247446E+01  0.18726432192E+02  0.00000000000E+00 0.  1.
         11    1    4    4    0    0  0.13632193544E+02 -0.18690712172E+02  0.22695776848E+02  0.32407988356E+02  0.51100000000E-03 0. -1.
        -11    1    3    3    0    0 -0.65193710070E+01  0.12746277895E+02 -0.68535402072E+01  0.15872643515E+02  0.51100000000E-03 0.  1.
        -12    1    4    4    0    0 -0.20756021616E+02 -0.58984537472E+01 -0.10913911896E+02  0.24180935937E+02  0.00000000000E+00 0.  1.
</event>
<event>
 7    1  0.1920603E-013  0.7246161E+02  0.7816164E-02  0.1226708E+00
        -11   -1    0    0    0    0  0.00000000000E+00  0.00000000000E+00  0.45593999997E+02  0.45594000000E+02  0.51100000000E-03 0. -1.
         11   -1    0    0    0    0 -0.00000000000E+00 -0.00000000000E+00 -0.45593999997E+02  0.45594000000E+02  0.51100000000E-03 0.  1.
    9900012    2    1    2    0    0  0.18679105188E+02 -0.12837498494E+01  0.34736498353E+00  0.72461610954E+02  0.70000052966E+02 0.  0.
        -12    1    1    2    0    0 -0.18679105188E+02  0.12837498494E+01 -0.34736498353E+00  0.18726389046E+02  0.00000000000E+00 0.  1.
         11    1    3    3    0    0  0.86005970722E+00  0.28263694987E+02 -0.86004057407E+01  0.29555763164E+02  0.51100000000E-03 0. -1.
        -11    1    3    3    0    0  0.15448804960E+02 -0.79106280925E+01 -0.36793892300E+01  0.17742083217E+02  0.51100000000E-03 0.  1.
         12    1    3    3    0    0  0.23702405202E+01 -0.21636816744E+02  0.12627159954E+02  0.25163764572E+02  0.00000000000E+00 0. -1.
</event>
<event>
 7    1  0.1920603E-013  0.7246159E+02  0.7816164E-02  0.1226708E+00
        -11   -1    0    0    0    0  0.00000000000E+00  0.00000000000E+00  0.45593999997E+02  0.45594000000E+02  0.51100000000E-03 0.  1.
         11   -1    0    0    0    0 -0.00000000000E+00 -0.00000000000E+00 -0.45593999997E+02  0.45594000000E+02  0.51100000000E-03 0. -1.
    9900012    2    1    2    0    0 -0.12042290266E+00 -0.18695448267E+02  0.10696434349E+01  0.72461590182E+02  0.70000025908E+02 0.  0.
        -12    1    1    2    0    0  0.12042290266E+00  0.18695448267E+02 -0.10696434349E+01  0.18726409818E+02  0.00000000000E+00 0.  1.
         11    1    3    3    0    0  0.12237713910E+02 -0.28180022912E+02 -0.19835806913E+02  0.36569585303E+02  0.51100000000E-03 0. -1.
        -11    1    3    3    0    0 -0.12405237620E+02  0.10101734718E+02  0.10558666145E+01  0.16032773287E+02  0.51100000000E-03 0.  1.
         12    1    3    3    0    0  0.47100806801E-01 -0.61716007342E+00  0.19849583734E+02  0.19859231592E+02  0.00000000000E+00 0. -1.
</event>
<event>
 7    1  0.1920603E-013  0.7246162E+02  0.7816164E-02  0.1226708E+00
        -11   -1    0    0    0    0  0.00000000000E+00  0.00000000000E+00  0.45593999997E+02  0.45594000000E+02  0.51100000000E-03 0.  1.
         11   -1    0    0    0    0 -0.00000000000E+00 -0.00000000000E+00 -0.45593999997E+02  0.45594000000E+02  0.51100000000E-03 0. -1.
    9900012    2    1    2    0    0  0.93762745478E-01  0.92608212848E+01 -0.16275928310E+02  0.72461616349E+02  0.70000059994E+02 0.  0.
        -12    1    1    2    0    0 -0.93762745478E-01 -0.92608212848E+01  0.16275928310E+02  0.18726383651E+02  0.00000000000E+00 0.  1.
         11    1    3    3    0    0  0.10532950624E+02  0.15525811652E+02  0.15649547841E+02  0.24431582515E+02  0.51100000000E-03 0.  1.
        -11    1    3    3    0    0 -0.60508256446E+01 -0.19389014046E+02 -0.25957684365E+02  0.32959789661E+02  0.51100000000E-03 0. -1.
         12    1    3    3    0    0 -0.43883622340E+01  0.13124023679E+02 -0.59677917859E+01  0.15070244173E+02  0.00000000000E+00 0. -1.
</event>
<event>
 7    1  0.1920603E-013  0.7246154E+02  0.7816164E-02  0.1226708E+00
        -11   -1    0    0    0    0  0.00000000000E+00  0.00000000000E+00  0.45593999997E+02  0.45594000000E+02  0.51100000000E-03 0.  1.
         11   -1    0    0    0    0 -0.00000000000E+00 -0.00000000000E+00 -0.45593999997E+02  0.45594000000E+02  0.51100000000E-03 0. -1.
    9900012    2    1    2    0    0  0.64558570736E+01  0.28237211781E+01 -0.17350180813E+02  0.72461541015E+02  0.69999961859E+02 0.  0.
        -12    1    1    2    0    0 -0.64558570736E+01 -0.28237211781E+01  0.17350180813E+02  0.18726458985E+02  0.00000000000E+00 0.  1.
         11    1    3    3    0    0  0.34681824688E+02  0.33177810888E+01  0.42792697850E+01  0.35101976942E+02  0.51100000000E-03 0. -1.
        -11    1    3    3    0    0 -0.22432074478E+02 -0.12659979556E+01 -0.10525233948E+02  0.24810910224E+02  0.51100000000E-03 0.  1.
         12    1    3    3    0    0 -0.57938931363E+01  0.77193804487E+00 -0.11104216650E+02  0.12548653849E+02  0.00000000000E+00 0. -1.
</event>
<event>
 7    1  0.1920603E-013  0.7246159E+02  0.7816164E-02  0.1226708E+00
        -11   -1    0    0    0    0  0.00000000000E+00  0.00000000000E+00  0.45593999997E+02  0.45594000000E+02  0.51100000000E-03 0. -1.
         11   -1    0    0    0    0 -0.00000000000E+00 -0.00000000000E+00 -0.45593999997E+02  0.45594000000E+02  0.51100000000E-03 0.  1.
    9900012    2    1    2    0    0  0.18184274554E+02 -0.23227508638E-01  0.44732731686E+01  0.72461586745E+02  0.70000021430E+02 0.  0.
        -12    1    1    2    0    0 -0.18184274554E+02  0.23227508638E-01 -0.44732731686E+01  0.18726413255E+02  0.00000000000E+00 0.  1.
         11    1    3    3    0    0  0.22125198731E+01  0.34343556661E+01  0.89329372103E+01  0.98228005423E+01  0.51100000000E-03 0. -1.
        -11    1    3    3    0    0 -0.66146113782E+01 -0.25427405837E+02 -0.13929093228E+02  0.29737614055E+02  0.51100000000E-03 0.  1.
        -12    1    3    3    0    0  0.22586366059E+02  0.21969822662E+02  0.94694291862E+01  0.32901172147E+02  0.00000000000E+00 0.  1.
</event>
<event>
 7    1  0.1920603E-013  0.7246152E+02  0.7816164E-02  0.1226708E+00
        -11   -1    0    0    0    0  0.00000000000E+00  0.00000000000E+00  0.45593999997E+02  0.45594000000E+02  0.51100000000E-03 0.  1.
         11   -1    0    0    0    0 -0.00000000000E+00 -0.00000000000E+00 -0.45593999997E+02  0.45594000000E+02  0.51100000000E-03 0. -1.
    9900012    2    1    2    0    0  0.17975841841E+02  0.18874907246E+01 -0.48976953549E+01  0.72461523265E+02  0.69999938735E+02 0.  0.
        -12    1    1    2    0    0 -0.17975841841E+02 -0.18874907246E+01  0.48976953549E+01  0.18726476735E+02  0.00000000000E+00 0.  1.
         11    1    3    3    0    0  0.30420728307E+02  0.24127915702E+02  0.28043745358E+01  0.38928672514E+02  0.51100000000E-03 0. -1.
        -11    1    3    3    0    0 -0.20266373890E+01 -0.17818796102E+02 -0.11831968500E+02  0.21485163078E+02  0.51100000000E-03 0.  1.
        -12    1    3    3    0    0 -0.10418249077E+02 -0.44216288759E+01  0.41298986095E+01  0.12047687673E+02  0.00000000000E+00 0.  1.
</event>
<event>
 7    1  0.1920603E-013  0.7246158E+02  0.7816164E-02  0.1226708E+00
        -11   -1    0    0    0    0  0.00000000000E+00  0.00000000000E+00  0.45593999997E+02  0.45594000000E+02  0.51100000000E-03 0. -1.
         11   -1    0    0    0    0 -0.00000000000E+00 -0.00000000000E+00 -0.45593999997E+02  0.45594000000E+02  0.51100000000E-03 0.  1.
    9900012    2    1    2    0    0 -0.18703359377E+02  0.89823311737E+00 -0.23757555746E+00  0.72461577040E+02  0.70000008788E+02 0.  0.
        -12    1    1    2    0    0  0.18703359377E+02 -0.89823311737E+00  0.23757555746E+00  0.18726422960E+02  0.00000000000E+00 0.  1.
         11    1    3    3    0    0 -0.14599461384E+02 -0.22056212257E+02 -0.12226422263E+02  0.29139426443E+02  0.51100000000E-03 0. -1.
        -11    1    3    3    0    0  0.11593463970E+02  0.22884791401E+02  0.98486434046E+01  0.27479407954E+02  0.51100000000E-03 0.  1.
         12    1    3    3    0    0 -0.15697361964E+02  0.69653973465E-01  0.21402033006E+01  0.15842742643E+02  0.00000000000E+00 0. -1.
</event>
<event>
 7    1  0.1920603E-013  0.7246159E+02  0.7816164E-02  0.1226708E+00
        -11   -1    0    0    0    0  0.00000000000E+00  0.00000000000E+00  0.45593999997E+02  0.45594000000E+02  0.51100000000E-03 0.  1.
         11   -1    0    0    0    0 -0.00000000000E+00 -0.00000000000E+00 -0.45593999997E+02  0.45594000000E+02  0.51100000000E-03 0. -1.
    9900012    2    1    2    0    0 -0.10545127981E+01 -0.17911983839E+02  0.53597757800E+01  0.72461591943E+02  0.70000028202E+02 0.  0.
        -12    1    1    2    0    0  0.10545127981E+01  0.17911983839E+02 -0.53597757800E+01  0.18726408057E+02  0.00000000000E+00 0.  1.
         11    1    3    3    0    0 -0.10409674776E+02 -0.29943818180E+02  0.99266667955E+01  0.33219456499E+02  0.51100000000E-03 0.  1.
        -11    1    3    3    0    0  0.12654699148E+02  0.11892683012E+02 -0.18234718133E+02  0.25180990159E+02  0.51100000000E-03 0. -1.
        -12    1    3    3    0    0 -0.32995371699E+01  0.13915132905E+00  0.13667827117E+02  0.14061145285E+02  0.00000000000E+00 0.  1.
</event>
<event>
 7    1  0.1920603E-013  0.7246155E+02  0.7816164E-02  0.1226708E+00
        -11   -1    0    0    0    0  0.00000000000E+00  0.00000000000E+00  0.45593999997E+02  0.45594000000E+02  0.51100000000E-03 0. -1.
         11   -1    0    0    0    0 -0.00000000000E+00 -0.00000000000E+00 -0.45593999997E+02  0.45594000000E+02  0.51100000000E-03 0.  1.
    9900012    2    1    2    0    0  0.31591589747E+01 -0.18453709630E+02  0.40031193421E+00  0.72461549878E+02  0.69999973404E+02 0.  0.
        -12    1    1    2    0    0 -0.31591589747E+01  0.18453709630E+02 -0.40031193421E+00  0.18726450122E+02  0.00000000000E+00 0.  1.
         11    1    3    3    0    0 -0.19951673780E+02  0.89242503909E+01  0.11452458576E+02  0.24675298161E+02  0.51100000000E-03 0. -1.
        -11    1    3    3    0    0  0.78553413561E+01 -0.28748570338E+02 -0.12670461904E+02  0.32384059187E+02  0.51100000000E-03 0.  1.
        -12    1    3    3    0    0  0.15255491398E+02  0.13706103170E+01  0.16183152624E+01  0.15402192530E+02  0.00000000000E+00 0.  1.
</event>
<event>
 7    1  0.1920603E-013  0.7246164E+02  0.7816164E-02  0.1226708E+00
        -11   -1    0    0    0    0  0.00000000000E+00  0.00000000000E+00  0.45593999997E+02  0.45594000000E+02  0.51100000000E-03 0.  1.
         11   -1    0    0    0    0 -0.00000000000E+00 -0.00000000000E+00 -0.45593999997E+02  0.45594000000E+02  0.51100000000E-03 0. -1.
    9900012    2    1    2    0    0  0.71510819848E+01 -0.47796264477E+01 -0.16634118881E+02  0.72461635871E+02  0.70000085426E+02 0.  0.
        -12    1    1    2    0    0 -0.71510819848E+01  0.47796264477E+01  0.16634118881E+02  0.18726364129E+02  0.00000000000E+00 0.  1.
         11    1    3    3    0    0  0.21667220851E+02 -0.52302875094E+00 -0.21209718583E+02  0.30324811313E+02  0.51100000000E-03 0. -1.
        -11    1    3    3    0    0  0.55234109113E+01 -0.10368369853E+02  0.14741372380E+02  0.18849913035E+02  0.51100000000E-03 0.  1.
         12    1    3    3    0    0 -0.20039549778E+02  0.61117721562E+01 -0.10165772678E+02  0.23286911524E+02  0.00000000000E+00 0. -1.
</event>
<event>
 7    1  0.1920603E-013  0.7246169E+02  0.7816164E-02  0.1226708E+00
        -11   -1    0    0    0    0  0.00000000000E+00  0.00000000000E+00  0.45593999997E+02  0.45594000000E+02  0.51100000000E-03 0.  1.
         11   -1    0    0    0    0 -0.00000000000E+00 -0.00000000000E+00 -0.45593999997E+02  0.45594000000E+02  0.51100000000E-03 0. -1.
    9900012    2    1    2    0    0 -0.17388884321E+02 -0.59801660242E+01 -0.35410220854E+01  0.72461694411E+02  0.70000161685E+02 0.  0.
        -12    1    1    2    0    0  0.17388884321E+02  0.59801660242E+01  0.35410220854E+01  0.18726305589E+02  0.00000000000E+00 0.  1.
         11    1    3    3    0    0  0.16831159593E+02 -0.10519495940E+02  0.10987261498E+02  0.22686287567E+02  0.51100000000E-03 0. -1.
        -11    1    3    3    0    0 -0.31937319856E+02  0.60725967188E+01  0.24256745245E+01  0.32599888461E+02  0.51100000000E-03 0.  1.
         12    1    3    3    0    0 -0.22827240569E+01 -0.15332668026E+01 -0.16953958108E+02  0.17175518383E+02  0.00000000000E+00 0. -1.
</event>
<event>
 7    1  0.1920603E-013  0.7246160E+02  0.7816164E-02  0.1226708E+00
        -11   -1    0    0    0    0  0.00000000000E+00  0.00000000000E+00  0.45593999997E+02  0.45594000000E+02  0.51100000000E-03 0. -1.
         11   -1    0    0    0    0 -0.00000000000E+00 -0.00000000000E+00 -0.45593999997E+02  0.45594000000E+02  0.51100000000E-03 0.  1.
    9900012    2    1    2    0    0 -0.18447948320E+02  0.36106105239E+00  0.31970379616E+01  0.72461595807E+02  0.70000033235E+02 0.  0.
        -12    1    1    2    0    0  0.18447948320E+02 -0.36106105239E+00 -0.31970379616E+01  0.18726404193E+02  0.00000000000E+00 0.  1.
         11    1    3    3    0    0  0.16561056916E+02  0.21744425576E+01 -0.16892040501E+02  0.23755795907E+02  0.51100000000E-03 0. -1.
        -11    1    3    3    0    0 -0.25611738151E+02 -0.50840872931E+01 -0.19550544903E+00  0.26112205907E+02  0.51100000000E-03 0.  1.
         12    1    3    3    0    0 -0.93972670853E+01  0.32707057879E+01  0.20284583912E+02  0.22593593992E+02  0.00000000000E+00 0. -1.
</event>
<event>
 7    1  0.1920603E-013  0.7246157E+02  0.7816164E-02  0.1226708E+00
        -11   -1    0    0    0    0  0.00000000000E+00  0.00000000000E+00  0.45593999997E+02  0.45594000000E+02  0.51100000000E-03 0.  1.
         11   -1    0    0    0    0 -0.00000000000E+00 -0.00000000000E+00 -0.45593999997E+02  0.45594000000E+02  0.51100000000E-03 0. -1.
    9900012    2    1    2    0    0  0.53262144681E+01 -0.13212956651E+02 -0.12154354945E+02  0.72461571399E+02  0.70000001439E+02 0.  0.
        -12    1    1    2    0    0 -0.53262144681E+01  0.13212956651E+02  0.12154354945E+02  0.18726428601E+02  0.00000000000E+00 0.  1.
         11    1    3    3    0    0 -0.52793902253E+01  0.16052891494E+01 -0.20187321894E+01  0.58757292584E+01  0.51100000000E-03 0. -1.
        -11    1    3    3    0    0  0.49514695266E+01 -0.18564520482E+02 -0.35480671543E+02  0.40348934615E+02  0.51100000000E-03 0.  1.
        -12    1    3    3    0    0  0.56541351668E+01  0.37462746821E+01  0.25345048787E+02  0.26236907526E+02  0.00000000000E+00 0.  1.
</event>
<event>
 7    1  0.1920603E-013  0.7246159E+02  0.7816164E-02  0.1226708E+00
        -11   -1    0    0    0    0  0.00000000000E+00  0.00000000000E+00  0.45593999997E+02  0.45594000000E+02  0.51100000000E-03 0.  1.
         11   -1    0    0    0    0 -0.00000000000E+00 -0.00000000000E+00 -0.45593999997E+02  0.45594000000E+02  0.51100000000E-03 0. -1.
    9900012    2    1    2    0    0  0.11779173732E+01  0.16999785487E+02 -0.77651906942E+01  0.72461591309E+02  0.70000027375E+02 0.  0.
        -12    1    1    2    0    0 -0.11779173732E+01 -0.16999785487E+02  0.77651906942E+01  0.18726408691E+02  0.00000000000E+00 0.  1.
         11    1    3    3    0    0  0.32644793751E+02  0.11197440122E+02 -0.12871672300E+02  0.36834021941E+02  0.51100000000E-03 0. -1.
        -11    1    3    3    0    0 -0.17666098933E+02  0.44473084516E+01  0.10171298188E+02  0.20864441307E+02  0.51100000000E-03 0.  1.
         12    1    3    3    0    0 -0.13800777444E+02  0.13550369136E+01 -0.50648165820E+01  0.14763128060E+02  0.00000000000E+00 0. -1.
</event>
<event>
 7    1  0.1920603E-013  0.7246153E+02  0.7816164E-02  0.1226708E+00
        -11   -1    0    0    0    0  0.00000000000E+00  0.00000000000E+00  0.45593999997E+02  0.45594000000E+02  0.51100000000E-03 0.  1.
         11   -1    0    0    0    0 -0.00000000000E+00 -0.00000000000E+00 -0.45593999997E+02  0.45594000000E+02  0.51100000000E-03 0. -1.
    9900012    2    1    2    0    0 -0.18467921877E+01  0.78197392956E+01 -0.16915132384E+02  0.72461530295E+02  0.69999947893E+02 0.  0.
        -12    1    1    2    0    0  0.18467921877E+01 -0.78197392956E+01  0.16915132384E+02  0.18726469705E+02  0.00000000000E+00 0.  1.
         11    1    3    3    0    0  0.32141145238E+02  0.77428041678E+01  0.15787422328E+01  0.33098287885E+02  0.51100000000E-03 0. -1.
        -11    1    3    3    0    0 -0.19420381138E+02  0.21878684985E+01 -0.13758816732E+02  0.23900690581E+02  0.51100000000E-03 0.  1.
         12    1    3    3    0    0 -0.14567556288E+02 -0.21109333708E+01 -0.47350578854E+01  0.15462551829E+02  0.00000000000E+00 0. -1.
</event>
<event>
 7    1  0.1920603E-013  0.7246133E+02  0.7816164E-02  0.1226709E+00
        -11   -1    0    0    0    0  0.00000000000E+00  0.00000000000E+00  0.45593999997E+02  0.45594000000E+02  0.51100000000E-03 0. -1.
         11   -1    0    0    0    0 -0.00000000000E+00 -0.00000000000E+00 -0.45593999997E+02  0.45594000000E+02  0.51100000000E-03 0.  1.
    9900012    2    1    2    0    0  0.16649379297E+02  0.63945702428E+01 -0.57092647429E+01  0.72461332825E+02  0.69999690652E+02 0.  0.
        -12    1    1    2    0    0 -0.16649379297E+02 -0.63945702428E+01  0.57092647429E+01  0.18726667175E+02  0.00000000000E+00 0.  1.
         11    1    3    3    0    0  0.55178380914E+01  0.27511447681E+02 -0.32179819034E+01  0.28243259346E+02  0.51100000000E-03 0. -1.
        -11    1    3    3    0    0 -0.45914888562E+01 -0.21548239062E+02 -0.12734773296E+02  0.25447648766E+02  0.51100000000E-03 0.  1.
        -12    1    3    3    0    0  0.15723030062E+02  0.43136162356E+00  0.10243490456E+02  0.18770424713E+02  0.00000000000E+00 0.  1.
</event>
<event>
 7    1  0.1920603E-013  0.7246129E+02  0.7816164E-02  0.1226709E+00
        -11   -1    0    0    0    0  0.00000000000E+00  0.00000000000E+00  0.45593999997E+02  0.45594000000E+02  0.51100000000E-03 0.  1.
         11   -1    0    0    0    0 -0.00000000000E+00 -0.00000000000E+00 -0.45593999997E+02  0.45594000000E+02  0.51100000000E-03 0. -1.
    9900012    2    1    2    0    0 -0.34968090097E+01  0.16484287633E+02 -0.81688680438E+01  0.72461286002E+02  0.69999629656E+02 0.  0.
        -12    1    1    2    0    0  0.34968090097E+01 -0.16484287633E+02  0.81688680438E+01  0.18726713998E+02  0.00000000000E+00 0.  1.
         11    1    3    3    0    0 -0.50190848430E+01 -0.52013737269E+01  0.23067132633E+02  0.24173086470E+02  0.51100000000E-03 0.  1.
        -11    1    3    3    0    0  0.72776712139E+00  0.29124945120E+02 -0.22670645594E+02  0.36915447243E+02  0.51100000000E-03 0. -1.
        -12    1    3    3    0    0  0.79450871191E+00 -0.74392837593E+01 -0.85653550828E+01  0.11372752290E+02  0.00000000000E+00 0.  1.
</event>
<event>
 7    1  0.1920603E-013  0.7246156E+02  0.7816164E-02  0.1226708E+00
        -11   -1    0    0    0    0  0.00000000000E+00  0.00000000000E+00  0.45593999997E+02  0.45594000000E+02  0.51100000000E-03 0. -1.
         11   -1    0    0    0    0 -0.00000000000E+00 -0.00000000000E+00 -0.45593999997E+02  0.45594000000E+02  0.51100000000E-03 0.  1.
    9900012    2    1    2    0    0  0.17379320567E+02  0.57711257977E+01 -0.39157179869E+01  0.72461560838E+02  0.69999987681E+02 0.  0.
        -12    1    1    2    0    0 -0.17379320567E+02 -0.57711257977E+01  0.39157179869E+01  0.18726439162E+02  0.00000000000E+00 0.  1.
         11    1    3    3    0    0  0.26622474049E+02  0.13506293517E+02  0.15217003429E+02  0.33507212397E+02  0.51100000000E-03 0. -1.
        -11    1    3    3    0    0 -0.11247593926E+02 -0.86236737277E+01 -0.27158593687E+02  0.30634381485E+02  0.51100000000E-03 0.  1.
        -12    1    3    3    0    0  0.20044404442E+01  0.88850600844E+00  0.80258722710E+01  0.83199669550E+01  0.00000000000E+00 0.  1.
</event>
<event>
 7    1  0.1920603E-013  0.7246158E+02  0.7816164E-02  0.1226708E+00
        -11   -1    0    0    0    0  0.00000000000E+00  0.00000000000E+00  0.45593999997E+02  0.45594000000E+02  0.51100000000E-03 0.  1.
         11   -1    0    0    0    0 -0.00000000000E+00 -0.00000000000E+00 -0.45593999997E+02  0.45594000000E+02  0.51100000000E-03 0. -1.
    9900012    2    1    2    0    0  0.26222954262E+01 -0.65179257331E+01 -0.17358539272E+02  0.72461583503E+02  0.70000017206E+02 0.  0.
        -12    1    1    2    0    0 -0.26222954262E+01  0.65179257331E+01  0.17358539272E+02  0.18726416497E+02  0.00000000000E+00 0.  1.
         11    1    3    3    0    0 -0.64352860522E+01  0.59497285623E+01 -0.12288411845E+02  0.15093615951E+02  0.51100000000E-03 0. -1.
        -11    1    3    3    0    0  0.19904843578E+02 -0.27818182784E+02  0.71541941617E+01  0.34946195582E+02  0.51100000000E-03 0.  1.
        -12    1    3    3    0    0 -0.10847262100E+02  0.15350528489E+02 -0.12224321589E+02  0.22421771970E+02  0.00000000000E+00 0.  1.
</event>
<event>
 7    1  0.1920603E-013  0.7246155E+02  0.7816164E-02  0.1226708E+00
        -11   -1    0    0    0    0  0.00000000000E+00  0.00000000000E+00  0.45593999997E+02  0.45594000000E+02  0.51100000000E-03 0.  1.
         11   -1    0    0    0    0 -0.00000000000E+00 -0.00000000000E+00 -0.45593999997E+02  0.45594000000E+02  0.51100000000E-03 0. -1.
    9900012    2    1    2    0    0  0.25376192776E+01  0.15483788469E+02 -0.10222175323E+02  0.72461545844E+02  0.69999968148E+02 0.  0.
        -12    1    1    2    0    0 -0.25376192776E+01 -0.15483788469E+02  0.10222175323E+02  0.18726454156E+02  0.00000000000E+00 0.  1.
         11    1    3    3    0    0  0.24786982458E+02 -0.97831541482E+01 -0.13537957808E+01  0.26682154481E+02  0.51100000000E-03 0. -1.
        -11    1    3    3    0    0 -0.49500194739E+01  0.20483894247E+02  0.66024405722E+01  0.22083587527E+02  0.51100000000E-03 0.  1.
        -12    1    3    3    0    0 -0.17299343707E+02  0.47830483702E+01 -0.15470820114E+02  0.23695803835E+02  0.00000000000E+00 0.  1.
</event>
<event>
 7    1  0.1920603E-013  0.7246151E+02  0.7816164E-02  0.1226708E+00
        -11   -1    0    0    0    0  0.00000000000E+00  0.00000000000E+00  0.45593999997E+02  0.45594000000E+02  0.51100000000E-03 0. -1.
         11   -1    0    0    0    0 -0.00000000000E+00 -0.00000000000E+00 -0.45593999997E+02  0.45594000000E+02  0.51100000000E-03 0.  1.
    9900012    2    1    2    0    0 -0.15783159104E+02  0.73061355567E+01  0.69421598211E+01  0.72461513115E+02  0.69999925513E+02 0.  0.
        -12    1    1    2    0    0  0.15783159104E+02 -0.73061355567E+01 -0.69421598211E+01  0.18726486885E+02  0.00000000000E+00 0.  1.
         11    1    3    3    0    0 -0.19645110072E+02 -0.12960640828E+02 -0.11735066149E+01  0.23564500386E+02  0.51100000000E-03 0. -1.
        -11    1    3    3    0    0  0.18588066024E+02  0.31672533232E+01 -0.86881122451E+01  0.20761285769E+02  0.51100000000E-03 0.  1.
         12    1    3    3    0    0 -0.14726115057E+02  0.17099523061E+02  0.16803778681E+02  0.28135726960E+02  0.00000000000E+00 0. -1.
</event>
<event>
 7    1  0.1920603E-013  0.7246164E+02  0.7816164E-02  0.1226708E+00
        -11   -1    0    0    0    0  0.00000000000E+00  0.00000000000E+00  0.45593999997E+02  0.45594000000E+02  0.51100000000E-03 0.  1.
         11   -1    0    0    0    0 -0.00000000000E+00 -0.00000000000E+00 -0.45593999997E+02  0.45594000000E+02  0.51100000000E-03 0. -1.
    9900012    2    1    2    0    0  0.16725865927E+02  0.25735612947E+01 -0.80186409802E+01  0.72461643923E+02  0.70000095916E+02 0.  0.
        -12    1    1    2    0    0 -0.16725865927E+02 -0.25735612947E+01  0.80186409802E+01  0.18726356077E+02  0.00000000000E+00 0.  1.
         11    1    3    3    0    0 -0.63250749352E+01 -0.23040999953E+02  0.12091808806E+01  0.23923970624E+02  0.51100000000E-03 0. -1.
        -11    1    3    3    0    0  0.41059267169E+01  0.27984959831E+02 -0.80539602100E+01  0.29408891279E+02  0.51100000000E-03 0.  1.
         12    1    3    3    0    0  0.18945014145E+02 -0.23703985838E+01 -0.11738616507E+01  0.19128782020E+02  0.00000000000E+00 0. -1.
</event>
<event>
 7    1  0.1920603E-013  0.7246157E+02  0.7816164E-02  0.1226708E+00
        -11   -1    0    0    0    0  0.00000000000E+00  0.00000000000E+00  0.45593999997E+02  0.45594000000E+02  0.51100000000E-03 0. -1.
         11   -1    0    0    0    0 -0.00000000000E+00 -0.00000000000E+00 -0.45593999997E+02  0.45594000000E+02  0.51100000000E-03 0.  1.
    9900012    2    1    2    0    0  0.10433065668E+02 -0.52113571366E+01  0.14651689873E+02  0.72461571655E+02  0.70000001773E+02 0.  0.
        -12    1    1    2    0    0 -0.10433065668E+02  0.52113571366E+01 -0.14651689873E+02  0.18726428345E+02  0.00000000000E+00 0.  1.
         11    1    3    3    0    0  0.11766737169E+02 -0.27700454966E+02  0.15650232528E+02  0.33921985310E+02  0.51100000000E-03 0. -1.
        -11    1    3    3    0    0 -0.30544868563E+01  0.20166609111E+02 -0.14311346913E+02  0.24916594144E+02  0.51100000000E-03 0.  1.
         12    1    3    3    0    0  0.17208153551E+01  0.23224887182E+01  0.13312804258E+02  0.13622992202E+02  0.00000000000E+00 0. -1.
</event>
<event>
 7    1  0.1920603E-013  0.7246176E+02  0.7816164E-02  0.1226708E+00
        -11   -1    0    0    0    0  0.00000000000E+00  0.00000000000E+00  0.45593999997E+02  0.45594000000E+02  0.51100000000E-03 0.  1.
         11   -1    0    0    0    0 -0.00000000000E+00 -0.00000000000E+00 -0.45593999997E+02  0.45594000000E+02  0.51100000000E-03 0. -1.
    9900012    2    1    2    0    0 -0.17381868178E+02  0.41226823198E+01 -0.56166129652E+01  0.72461756595E+02  0.70000242691E+02 0.  0.
        -12    1    1    2    0    0  0.17381868178E+02 -0.41226823198E+01  0.56166129652E+01  0.18726243405E+02  0.00000000000E+00 0.  1.
         11    1    3    3    0    0  0.51972517018E+01 -0.99804439024E+01 -0.26613326897E+02  0.28894460620E+02  0.51100000000E-03 0. -1.
        -11    1    3    3    0    0 -0.16606152678E+02  0.14721774484E+02  0.48805405103E+00  0.22197593287E+02  0.51100000000E-03 0.  1.
         12    1    3    3    0    0 -0.59729672013E+01 -0.61864826208E+00  0.20508659881E+02  0.21369702688E+02  0.00000000000E+00 0. -1.
</event>
<event>
 7    1  0.1920603E-013  0.7246162E+02  0.7816164E-02  0.1226708E+00
        -11   -1    0    0    0    0  0.00000000000E+00  0.00000000000E+00  0.45593999997E+02  0.45594000000E+02  0.51100000000E-03 0.  1.
         11   -1    0    0    0    0 -0.00000000000E+00 -0.00000000000E+00 -0.45593999997E+02  0.45594000000E+02  0.51100000000E-03 0. -1.
    9900012    2    1    2    0    0 -0.10482244277E+02 -0.99930652255E+01 -0.11871746671E+02  0.72461623770E+02  0.70000069661E+02 0.  0.
        -12    1    1    2    0    0  0.10482244277E+02  0.99930652255E+01  0.11871746671E+02  0.18726376230E+02  0.00000000000E+00 0.  1.
         11    1    3    3    0    0  0.77922291071E+01  0.10382111469E+02 -0.45201468727E+01  0.13745501120E+02  0.51100000000E-03 0. -1.
        -11    1    3    3    0    0 -0.22762092593E+02  0.66099086159E+00  0.15334887385E+02  0.27453752740E+02  0.51100000000E-03 0.  1.
        -12    1    3    3    0    0  0.44876192089E+01 -0.21036167557E+02 -0.22686487184E+02  0.31262369910E+02  0.00000000000E+00 0.  1.
</event>
<event>
 7    1  0.1920603E-013  0.7246145E+02  0.7816164E-02  0.1226708E+00
        -11   -1    0    0    0    0  0.00000000000E+00  0.00000000000E+00  0.45593999997E+02  0.45594000000E+02  0.51100000000E-03 0.  1.
         11   -1    0    0    0    0 -0.00000000000E+00 -0.00000000000E+00 -0.45593999997E+02  0.45594000000E+02  0.51100000000E-03 0. -1.
    9900012    2    1    2    0    0 -0.14696705874E+02  0.11274732991E+02 -0.27515426027E+01  0.72461447882E+02  0.69999840534E+02 0.  0.
        -12    1    1    2    0    0  0.14696705874E+02 -0.11274732991E+02  0.27515426027E+01  0.18726552118E+02  0.00000000000E+00 0.  1.
         11    1    3    3    0    0  0.12984462620E+02  0.95048019747E+01 -0.13200119760E+02  0.20812993346E+02  0.51100000000E-03 0. -1.
        -11    1    3    3    0    0 -0.32714887303E+02  0.14809988965E+02  0.11293759596E+02  0.37645034606E+02  0.51100000000E-03 0.  1.
         12    1    3    3    0    0  0.50337188099E+01 -0.13040057949E+02 -0.84518243943E+00  0.14003419929E+02  0.00000000000E+00 0. -1.
</event>
<event>
 7    1  0.1920603E-013  0.7246148E+02  0.7816164E-02  0.1226708E+00
        -11   -1    0    0    0    0  0.00000000000E+00  0.00000000000E+00  0.45593999997E+02  0.45594000000E+02  0.51100000000E-03 0. -1.
         11   -1    0    0    0    0 -0.00000000000E+00 -0.00000000000E+00 -0.45593999997E+02  0.45594000000E+02  0.51100000000E-03 0.  1.
    9900012    2    1    2    0    0  0.14911860448E+02 -0.10860951941E+02  0.32184841669E+01  0.72461481385E+02  0.69999884180E+02 0.  0.
        -12    1    1    2    0    0 -0.14911860448E+02  0.10860951941E+02 -0.32184841669E+01  0.18726518615E+02  0.00000000000E+00 0.  1.
         11    1    3    3    0    0 -0.40374580774E+01  0.10194903392E+02 -0.18220145646E+02  0.21265249365E+02  0.51100000000E-03 0.  1.
        -11    1    3    3    0    0  0.27855990740E+02 -0.52467535072E+01  0.13108115210E+02  0.31229910776E+02  0.51100000000E-03 0. -1.
         12    1    3    3    0    0 -0.89066722145E+01 -0.15809101826E+02  0.83305146031E+01  0.19966321245E+02  0.00000000000E+00 0. -1.
</event>
<event>
 7    1  0.1920603E-013  0.7246156E+02  0.7816164E-02  0.1226708E+00
        -11   -1    0    0    0    0  0.00000000000E+00  0.00000000000E+00  0.45593999997E+02  0.45594000000E+02  0.51100000000E-03 0.  1.
         11   -1    0    0    0    0 -0.00000000000E+00 -0.00000000000E+00 -0.45593999997E+02  0.45594000000E+02  0.51100000000E-03 0. -1.
    9900012    2    1    2    0    0  0.36749103160E+01 -0.15067138238E+02 -0.10495514760E+02  0.72461562790E+02  0.69999990224E+02 0.  0.
        -12    1    1    2    0    0 -0.36749103160E+01  0.15067138238E+02  0.10495514760E+02  0.18726437210E+02  0.00000000000E+00 0.  1.
         11    1    3    3    0    0  0.21183123698E+02 -0.13022882671E+02 -0.87782738725E+01  0.26370026452E+02  0.51100000000E-03 0. -1.
        -11    1    3    3    0    0 -0.13638008791E+02 -0.14412080878E+02  0.15047169374E+02  0.24902222099E+02  0.51100000000E-03 0.  1.
        -12    1    3    3    0    0 -0.38702045904E+01  0.12367825311E+02 -0.16764410261E+02  0.21189314239E+02  0.00000000000E+00 0.  1.
</event>
<event>
 7    1  0.1920603E-013  0.7246153E+02  0.7816164E-02  0.1226708E+00
        -11   -1    0    0    0    0  0.00000000000E+00  0.00000000000E+00  0.45593999997E+02  0.45594000000E+02  0.51100000000E-03 0.  1.
         11   -1    0    0    0    0 -0.00000000000E+00 -0.00000000000E+00 -0.45593999997E+02  0.45594000000E+02  0.51100000000E-03 0. -1.
    9900012    2    1    2    0    0 -0.15305614723E+02  0.67081281135E+01  0.84510202393E+01  0.72461532957E+02  0.69999951361E+02 0.  0.
        -12    1    1    2    0    0  0.15305614723E+02 -0.67081281135E+01 -0.84510202393E+01  0.18726467043E+02  0.00000000000E+00 0.  1.
         11    1    3    3    0    0 -0.13968483356E+02  0.11615223854E+02 -0.16880917423E+02  0.24799139617E+02  0.51100000000E-03 0. -1.
        -11    1    3    3    0    0  0.23534916404E+01  0.17965571992E+01  0.35116301751E+02  0.35240902224E+02  0.51100000000E-03 0.  1.
        -12    1    3    3    0    0 -0.36906230067E+01 -0.67036529401E+01 -0.97843640885E+01  0.12421491116E+02  0.00000000000E+00 0.  1.
</event>
<event>
 7    1  0.1920603E-013  0.7246161E+02  0.7816164E-02  0.1226708E+00
        -11   -1    0    0    0    0  0.00000000000E+00  0.00000000000E+00  0.45593999997E+02  0.45594000000E+02  0.51100000000E-03 0. -1.
         11   -1    0    0    0    0 -0.00000000000E+00 -0.00000000000E+00 -0.45593999997E+02  0.45594000000E+02  0.51100000000E-03 0.  1.
    9900012    2    1    2    0    0  0.14197141962E+02  0.11034686118E+02 -0.52301414017E+01  0.72461614426E+02  0.70000057489E+02 0.  0.
        -12    1    1    2    0    0 -0.14197141962E+02 -0.11034686118E+02  0.52301414017E+01  0.18726385574E+02  0.00000000000E+00 0.  1.
         11    1    3    3    0    0 -0.23078340128E+01 -0.25534091469E+02  0.16675929537E+00  0.25638715528E+02  0.51100000000E-03 0. -1.
        -11    1    3    3    0    0  0.21180994362E+02  0.24069252195E+02 -0.83992988765E+01  0.33143802517E+02  0.51100000000E-03 0.  1.
         12    1    3    3    0    0 -0.46760183880E+01  0.12499525392E+02  0.30023981795E+01  0.13679096382E+02  0.00000000000E+00 0. -1.
</event>
<event>
 7    1  0.1920603E-013  0.7246152E+02  0.7816164E-02  0.1226708E+00
        -11   -1    0    0    0    0  0.00000000000E+00  0.00000000000E+00  0.45593999997E+02  0.45594000000E+02  0.51100000000E-03 0.  1.
         11   -1    0    0    0    0 -0.00000000000E+00 -0.00000000000E+00 -0.45593999997E+02  0.45594000000E+02  0.51100000000E-03 0. -1.
    9900012    2    1    2    0    0  0.54815850213E+01  0.16702949702E+02 -0.64532726659E+01  0.72461520587E+02  0.69999935247E+02 0.  0.
        -12    1    1    2    0    0 -0.54815850213E+01 -0.16702949702E+02  0.64532726659E+01  0.18726479413E+02  0.00000000000E+00 0.  1.
         11    1    3    3    0    0 -0.66654459759E+00  0.77147627641E+00 -0.19791382503E+02  0.19817625463E+02  0.51100000000E-03 0. -1.
        -11    1    3    3    0    0  0.13626650072E+02  0.31131691655E+02  0.91459805474E+01  0.35192567084E+02  0.51100000000E-03 0.  1.
        -12    1    3    3    0    0 -0.74785204535E+01 -0.15200218230E+02  0.41921292894E+01  0.17451328040E+02  0.00000000000E+00 0.  1.
</event>
<event>
 7    1  0.1920603E-013  0.7246156E+02  0.7816164E-02  0.1226708E+00
        -11   -1    0    0    0    0  0.00000000000E+00  0.00000000000E+00  0.45593999997E+02  0.45594000000E+02  0.51100000000E-03 0.  1.
         11   -1    0    0    0    0 -0.00000000000E+00 -0.00000000000E+00 -0.45593999997E+02  0.45594000000E+02  0.51100000000E-03 0. -1.
    9900012    2    1    2    0    0 -0.25135589085E+00  0.32153933009E+01 -0.18446612352E+02  0.72461563042E+02  0.69999990553E+02 0.  0.
        -12    1    1    2    0    0  0.25135589085E+00 -0.32153933009E+01  0.18446612352E+02  0.18726436958E+02  0.00000000000E+00 0.  1.
         11    1    3    3    0    0  0.27028268172E+01  0.41545715748E+01 -0.14069181074E+02  0.14916688444E+02  0.51100000000E-03 0. -1.
        -11    1    3    3    0    0 -0.21032483858E+02 -0.10745622440E+02  0.16051260471E+02  0.28556553395E+02  0.51100000000E-03 0.  1.
        -12    1    3    3    0    0  0.18078301150E+02  0.98064441657E+01 -0.20428691749E+02  0.28988321204E+02  0.00000000000E+00 0.  1.
</event>
<event>
 7    1  0.1920603E-013  0.7246159E+02  0.7816164E-02  0.1226708E+00
        -11   -1    0    0    0    0  0.00000000000E+00  0.00000000000E+00  0.45593999997E+02  0.45594000000E+02  0.51100000000E-03 0.  1.
         11   -1    0    0    0    0 -0.00000000000E+00 -0.00000000000E+00 -0.45593999997E+02  0.45594000000E+02  0.51100000000E-03 0. -1.
    9900012    2    1    2    0    0  0.73068139652E+01  0.42582567830E+01 -0.16707964178E+02  0.72461592225E+02  0.70000028569E+02 0.  0.
        -12    1    1    2    0    0 -0.73068139652E+01 -0.42582567830E+01  0.16707964178E+02  0.18726407775E+02  0.00000000000E+00 0.  1.
         11    1    3    3    0    0 -0.50796427564E+01  0.14277710533E+02 -0.96920133904E+01  0.17988632866E+02  0.51100000000E-03 0. -1.
        -11    1    3    3    0    0  0.39895720781E+01 -0.13543548269E+02 -0.28132414714E+02  0.31476612635E+02  0.51100000000E-03 0.  1.
        -12    1    3    3    0    0  0.83968846435E+01  0.35240945196E+01  0.21116463926E+02  0.22996346724E+02  0.00000000000E+00 0.  1.
</event>
<event>
 7    1  0.1920603E-013  0.7246159E+02  0.7816164E-02  0.1226708E+00
        -11   -1    0    0    0    0  0.00000000000E+00  0.00000000000E+00  0.45593999997E+02  0.45594000000E+02  0.51100000000E-03 0. -1.
         11   -1    0    0    0    0 -0.00000000000E+00 -0.00000000000E+00 -0.45593999997E+02  0.45594000000E+02  0.51100000000E-03 0.  1.
    9900012    2    1    2    0    0  0.17061527884E+02  0.11485383256E+01 -0.76330476645E+01  0.72461593760E+02  0.70000030568E+02 0.  0.
        -12    1    1    2    0    0 -0.17061527884E+02 -0.11485383256E+01  0.76330476645E+01  0.18726406240E+02  0.00000000000E+00 0.  1.
         11    1    3    3    0    0  0.17851432340E+02  0.35685732121E+01  0.24223322035E+02  0.30301446863E+02  0.51100000000E-03 0. -1.
        -11    1    3    3    0    0 -0.12856539420E+02 -0.69503705577E+01 -0.15026221100E+02  0.20961526126E+02  0.51100000000E-03 0.  1.
        -12    1    3    3    0    0  0.12066634965E+02  0.45303356711E+01 -0.16830148600E+02  0.21198620770E+02  0.00000000000E+00 0.  1.
</event>
<event>
 7    1  0.1920603E-013  0.7246155E+02  0.7816164E-02  0.1226708E+00
        -11   -1    0    0    0    0  0.00000000000E+00  0.00000000000E+00  0.45593999997E+02  0.45594000000E+02  0.51100000000E-03 0.  1.
         11   -1    0    0    0    0 -0.00000000000E+00 -0.00000000000E+00 -0.45593999997E+02  0.45594000000E+02  0.51100000000E-03 0. -1.
    9900012    2    1    2    0    0 -0.34235782165E+01  0.14879850040E+02 -0.10842005925E+02  0.72461550323E+02  0.69999973984E+02 0.  0.
        -12    1    1    2    0    0  0.34235782165E+01 -0.14879850040E+02  0.10842005925E+02  0.18726449677E+02  0.00000000000E+00 0.  1.
         11    1    3    3    0    0  0.38665613529E+01  0.32001890257E+02 -0.24808978697E+02  0.40676242464E+02  0.51100000000E-03 0. -1.
        -11    1    3    3    0    0 -0.13809161627E+01 -0.15121027133E+02 -0.13525998942E+01  0.15244078120E+02  0.51100000000E-03 0.  1.
         12    1    3    3    0    0 -0.59092234067E+01 -0.20010130844E+01  0.15319572666E+02  0.16541229740E+02  0.00000000000E+00 0. -1.
</event>
<event>
 7    1  0.1920603E-013  0.7246156E+02  0.7816164E-02  0.1226708E+00
        -11   -1    0    0    0    0  0.00000000000E+00  0.00000000000E+00  0.45593999997E+02  0.45594000000E+02  0.51100000000E-03 0. -1.
         11   -1    0    0    0    0 -0.00000000000E+00 -0.00000000000E+00 -0.45593999997E+02  0.45594000000E+02  0.51100000000E-03 0.  1.
    9900012    2    1    2    0    0  0.46577388784E+01  0.17659162872E+02 -0.41399208383E+01  0.72461561221E+02  0.69999988180E+02 0.  0.
        -12    1    1    2    0    0 -0.46577388784E+01 -0.17659162872E+02  0.41399208383E+01  0.18726438779E+02  0.00000000000E+00 0.  1.
         11    1    3    3    0    0  0.10391202802E+02  0.34041710085E+00  0.46000063580E+01  0.11368950621E+02  0.51100000000E-03 0. -1.
        -11    1    3    3    0    0 -0.20142972193E+02 -0.13940770991E+02 -0.10443024793E+02  0.26629705062E+02  0.51100000000E-03 0.  1.
        -12    1    3    3    0    0  0.14409508270E+02  0.31259516762E+02  0.17030975970E+01  0.34462905539E+02  0.00000000000E+00 0.  1.
</event>
<event>
 7    1  0.1920603E-013  0.7246167E+02  0.7816164E-02  0.1226708E+00
        -11   -1    0    0    0    0  0.00000000000E+00  0.00000000000E+00  0.45593999997E+02  0.45594000000E+02  0.51100000000E-03 0.  1.
         11   -1    0    0    0    0 -0.00000000000E+00 -0.00000000000E+00 -0.45593999997E+02  0.45594000000E+02  0.51100000000E-03 0. -1.
    9900012    2    1    2    0    0 -0.16491658502E+02  0.85559674195E+01 -0.23443761950E+01  0.72461668849E+02  0.70000128386E+02 0.  0.
        -12    1    1    2    0    0  0.16491658502E+02 -0.85559674195E+01  0.23443761950E+01  0.18726331151E+02  0.00000000000E+00 0.  1.
         11    1    3    3    0    0 -0.24957413747E+02  0.12087359983E+02 -0.17486609608E+02  0.32783506343E+02  0.51100000000E-03 0. -1.
        -11    1    3    3    0    0  0.10421545795E+02 -0.18434908968E+02  0.57118550416E+01  0.21933530808E+02  0.51100000000E-03 0.  1.
         12    1    3    3    0    0 -0.19557905494E+01  0.14903516405E+02  0.94303783710E+01  0.17744631699E+02  0.00000000000E+00 0. -1.
</event>
<event>
 7    1  0.1920603E-013  0.7246164E+02  0.7816164E-02  0.1226708E+00
        -11   -1    0    0    0    0  0.00000000000E+00  0.00000000000E+00  0.45593999997E+02  0.45594000000E+02  0.51100000000E-03 0. -1.
         11   -1    0    0    0    0 -0.00000000000E+00 -0.00000000000E+00 -0.45593999997E+02  0.45594000000E+02  0.51100000000E-03 0.  1.
    9900012    2    1    2    0    0 -0.11215537411E+02 -0.91955220703E+01  0.11846126586E+02  0.72461638350E+02  0.70000088655E+02 0.  0.
        -12    1    1    2    0    0  0.11215537411E+02  0.91955220703E+01 -0.11846126586E+02  0.18726361650E+02  0.00000000000E+00 0.  1.
         11    1    3    3    0    0 -0.25372783517E+02 -0.15021672928E+02  0.13181369087E+02  0.32298255251E+02  0.51100000000E-03 0. -1.
        -11    1    3    3    0    0  0.17529181827E+02  0.12467034453E+02 -0.13861732571E+02  0.25589974476E+02  0.51100000000E-03 0.  1.
        -12    1    3    3    0    0 -0.33719357197E+01 -0.66408835956E+01  0.12526490070E+02  0.14573408623E+02  0.00000000000E+00 0.  1.
</event>
<event>
 7    1  0.1920603E-013  0.7246159E+02  0.7816164E-02  0.1226708E+00
        -11   -1    0    0    0    0  0.00000000000E+00  0.00000000000E+00  0.45593999997E+02  0.45594000000E+02  0.51100000000E-03 0. -1.
         11   -1    0    0    0    0 -0.00000000000E+00 -0.00000000000E+00 -0.45593999997E+02  0.45594000000E+02  0.51100000000E-03 0.  1.
    9900012    2    1    2    0    0  0.16519188495E+02  0.41026558537E+01 -0.78078762552E+01  0.72461593372E+02  0.70000030063E+02 0.  0.
        -12    1    1    2    0    0 -0.16519188495E+02 -0.41026558537E+01  0.78078762552E+01  0.18726406628E+02  0.00000000000E+00 0.  1.
         11    1    3    3    0    0 -0.12010101011E+02  0.29550053802E+01 -0.24853098456E+02  0.27760603131E+02  0.51100000000E-03 0. -1.
        -11    1    3    3    0    0  0.19070235525E+02 -0.11828867736E+02  0.17252280718E+01  0.22507163460E+02  0.51100000000E-03 0.  1.
         12    1    3    3    0    0  0.94590539810E+01  0.12976518209E+02  0.15319994129E+02  0.22193826780E+02  0.00000000000E+00 0. -1.
</event>
<event>
 7    1  0.1920603E-013  0.7246167E+02  0.7816164E-02  0.1226708E+00
        -11   -1    0    0    0    0  0.00000000000E+00  0.00000000000E+00  0.45593999997E+02  0.45594000000E+02  0.51100000000E-03 0. -1.
         11   -1    0    0    0    0 -0.00000000000E+00 -0.00000000000E+00 -0.45593999997E+02  0.45594000000E+02  0.51100000000E-03 0.  1.
    9900012    2    1    2    0    0  0.11732545450E+02  0.14169455687E+02 -0.34999246747E+01  0.72461666404E+02  0.70000125201E+02 0.  0.
        -12    1    1    2    0    0 -0.11732545450E+02 -0.14169455687E+02  0.34999246747E+01  0.18726333596E+02  0.00000000000E+00 0.  1.
         11    1    3    3    0    0  0.81263850789E+01 -0.25013847812E+02 -0.23565031388E+01  0.26406132320E+02  0.51100000000E-03 0. -1.
        -11    1    3    3    0    0  0.10647236625E+02  0.10985613396E+02 -0.62876138744E+01  0.16540297395E+02  0.51100000000E-03 0.  1.
         12    1    3    3    0    0 -0.70410762537E+01  0.28197690103E+02  0.51441923385E+01  0.29515236688E+02  0.00000000000E+00 0. -1.
</event>
<event>
 7    1  0.1920603E-013  0.7246159E+02  0.7816164E-02  0.1226708E+00
        -11   -1    0    0    0    0  0.00000000000E+00  0.00000000000E+00  0.45593999997E+02  0.45594000000E+02  0.51100000000E-03 0.  1.
         11   -1    0    0    0    0 -0.00000000000E+00 -0.00000000000E+00 -0.45593999997E+02  0.45594000000E+02  0.51100000000E-03 0. -1.
    9900012    2    1    2    0    0 -0.39203353931E+01 -0.18306581912E+02  0.42223423989E+00  0.72461594776E+02  0.70000031891E+02 0.  0.
        -12    1    1    2    0    0  0.39203353931E+01  0.18306581912E+02 -0.42223423989E+00  0.18726405224E+02  0.00000000000E+00 0.  1.
         11    1    3    3    0    0 -0.27736027316E+02 -0.26263066524E+01 -0.12429473257E+02  0.30506991062E+02  0.51100000000E-03 0. -1.
        -11    1    3    3    0    0  0.21182864520E+02  0.27077535971E+01  0.64827293388E+01  0.22317514619E+02  0.51100000000E-03 0.  1.
         12    1    3    3    0    0  0.26328274034E+01 -0.18388028856E+02  0.63689781583E+01  0.19637089095E+02  0.00000000000E+00 0. -1.
</event>
<event>
 7    1  0.1920603E-013  0.7246157E+02  0.7816164E-02  0.1226708E+00
        -11   -1    0    0    0    0  0.00000000000E+00  0.00000000000E+00  0.45593999997E+02  0.45594000000E+02  0.51100000000E-03 0. -1.
         11   -1    0    0    0    0 -0.00000000000E+00 -0.00000000000E+00 -0.45593999997E+02  0.45594000000E+02  0.51100000000E-03 0.  1.
    9900012    2    1    2    0    0  0.34042331730E+01  0.59563651925E+01  0.17424467959E+02  0.72461570190E+02  0.69999999864E+02 0.  0.
        -12    1    1    2    0    0 -0.34042331730E+01 -0.59563651925E+01 -0.17424467959E+02  0.18726429810E+02  0.00000000000E+00 0.  1.
         11    1    3    3    0    0 -0.21263209362E+02 -0.26946490120E+01  0.24999379548E+02  0.32929533609E+02  0.51100000000E-03 0. -1.
        -11    1    3    3    0    0  0.10779612356E+02  0.77187409354E+01  0.10362658988E+02  0.16827468786E+02  0.51100000000E-03 0.  1.
         12    1    3    3    0    0  0.13887830178E+02  0.93227326908E+00 -0.17937570578E+02  0.22704567795E+02  0.00000000000E+00 0. -1.
</event>
<event>
 7    1  0.1920603E-013  0.7246158E+02  0.7816164E-02  0.1226708E+00
        -11   -1    0    0    0    0  0.00000000000E+00  0.00000000000E+00  0.45593999997E+02  0.45594000000E+02  0.51100000000E-03 0. -1.
         11   -1    0    0    0    0 -0.00000000000E+00 -0.00000000000E+00 -0.45593999997E+02  0.45594000000E+02  0.51100000000E-03 0.  1.
    9900012    2    1    2    0    0 -0.16498297345E+02 -0.77120804822E+01 -0.43599038892E+01  0.72461581160E+02  0.70000014155E+02 0.  0.
        -12    1    1    2    0    0  0.16498297345E+02  0.77120804822E+01  0.43599038892E+01  0.18726418840E+02  0.00000000000E+00 0.  1.
         11    1    3    3    0    0 -0.15725961822E+02 -0.62250783540E+01  0.35979426743E+01  0.17291693599E+02  0.51100000000E-03 0. -1.
        -11    1    3    3    0    0  0.21044882301E+02  0.15949731117E+02 -0.65451862267E+01  0.27205154967E+02  0.51100000000E-03 0.  1.
        -12    1    3    3    0    0 -0.21817217824E+02 -0.17436733246E+02 -0.14126603368E+01  0.27964732594E+02  0.00000000000E+00 0.  1.
</event>
<event>
 7    1  0.1920603E-013  0.7246157E+02  0.7816164E-02  0.1226708E+00
        -11   -1    0    0    0    0  0.00000000000E+00  0.00000000000E+00  0.45593999997E+02  0.45594000000E+02  0.51100000000E-03 0.  1.
         11   -1    0    0    0    0 -0.00000000000E+00 -0.00000000000E+00 -0.45593999997E+02  0.45594000000E+02  0.51100000000E-03 0. -1.
    9900012    2    1    2    0    0  0.25669866677E+00 -0.18205785941E+02 -0.43775017254E+01  0.72461573291E+02  0.70000003904E+02 0.  0.
        -12    1    1    2    0    0 -0.25669866677E+00  0.18205785941E+02  0.43775017254E+01  0.18726426709E+02  0.00000000000E+00 0.  1.
         11    1    3    3    0    0  0.17295598138E+02 -0.18545430359E+02 -0.14289168144E+02  0.29107576826E+02  0.51100000000E-03 0. -1.
        -11    1    3    3    0    0 -0.51329367737E+01  0.13361129086E+02  0.18775199114E+02  0.23608788880E+02  0.51100000000E-03 0.  1.
         12    1    3    3    0    0 -0.11905962698E+02 -0.13021484668E+02 -0.88635326951E+01  0.19745207584E+02  0.00000000000E+00 0. -1.
</event>
<event>
 7    1  0.1920603E-013  0.7246166E+02  0.7816164E-02  0.1226708E+00
        -11   -1    0    0    0    0  0.00000000000E+00  0.00000000000E+00  0.45593999997E+02  0.45594000000E+02  0.51100000000E-03 0. -1.
         11   -1    0    0    0    0 -0.00000000000E+00 -0.00000000000E+00 -0.45593999997E+02  0.45594000000E+02  0.51100000000E-03 0.  1.
    9900012    2    1    2    0    0  0.17772436984E+02  0.26608221802E+01  0.52665196920E+01  0.72461662379E+02  0.70000119958E+02 0.  0.
        -12    1    1    2    0    0 -0.17772436984E+02 -0.26608221802E+01 -0.52665196920E+01  0.18726337621E+02  0.00000000000E+00 0.  1.
         11    1    3    3    0    0  0.25829344648E+02 -0.13680626734E+02 -0.77204741021E+01  0.30231114988E+02  0.51100000000E-03 0.  1.
        -11    1    3    3    0    0 -0.13911658886E+02  0.23458736917E+02  0.12425312743E+01  0.27301840138E+02  0.51100000000E-03 0. -1.
         12    1    3    3    0    0  0.58547512218E+01 -0.71172880025E+01  0.11744462520E+02  0.14928707253E+02  0.00000000000E+00 0. -1.
</event>
<event>
 7    1  0.1920603E-013  0.7246154E+02  0.7816164E-02  0.1226708E+00
        -11   -1    0    0    0    0  0.00000000000E+00  0.00000000000E+00  0.45593999997E+02  0.45594000000E+02  0.51100000000E-03 0. -1.
         11   -1    0    0    0    0 -0.00000000000E+00 -0.00000000000E+00 -0.45593999997E+02  0.45594000000E+02  0.51100000000E-03 0.  1.
    9900012    2    1    2    0    0  0.44772278005E+01 -0.15312489728E+02  0.98062500674E+01  0.72461536083E+02  0.69999955434E+02 0.  0.
        -12    1    1    2    0    0 -0.44772278005E+01  0.15312489728E+02 -0.98062500674E+01  0.18726463917E+02  0.00000000000E+00 0.  1.
         11    1    3    3    0    0  0.79891295575E+01  0.14516024699E+01  0.30086777186E+02  0.31163239602E+02  0.51100000000E-03 0. -1.
        -11    1    3    3    0    0  0.50065516038E+01 -0.23796896162E+02 -0.17340688720E+02  0.29867328496E+02  0.51100000000E-03 0.  1.
         12    1    3    3    0    0 -0.85184533608E+01  0.70328039645E+01 -0.29398383986E+01  0.11430967985E+02  0.00000000000E+00 0. -1.
</event>
<event>
 7    1  0.1920603E-013  0.7246160E+02  0.7816164E-02  0.1226708E+00
        -11   -1    0    0    0    0  0.00000000000E+00  0.00000000000E+00  0.45593999997E+02  0.45594000000E+02  0.51100000000E-03 0. -1.
         11   -1    0    0    0    0 -0.00000000000E+00 -0.00000000000E+00 -0.45593999997E+02  0.45594000000E+02  0.51100000000E-03 0.  1.
    9900012    2    1    2    0    0  0.10691167200E+02 -0.71019255505E+01  0.13635970390E+02  0.72461599088E+02  0.70000037510E+02 0.  0.
        -12    1    1    2    0    0 -0.10691167200E+02  0.71019255505E+01 -0.13635970390E+02  0.18726400912E+02  0.00000000000E+00 0.  1.
         11    1    3    3    0    0 -0.88130868531E+01  0.33315786173E+01  0.31547032003E+02  0.32923929663E+02  0.51100000000E-03 0. -1.
        -11    1    3    3    0    0  0.21211474857E+02  0.36853952899E+00 -0.19088587671E+02  0.28538336786E+02  0.51100000000E-03 0.  1.
         12    1    3    3    0    0 -0.17072208038E+01 -0.10802043697E+02  0.11775260582E+01  0.10999332640E+02  0.00000000000E+00 0. -1.
</event>
<event>
 7    1  0.1920603E-013  0.7246156E+02  0.7816164E-02  0.1226708E+00
        -11   -1    0    0    0    0  0.00000000000E+00  0.00000000000E+00  0.45593999997E+02  0.45594000000E+02  0.51100000000E-03 0.  1.
         11   -1    0    0    0    0 -0.00000000000E+00 -0.00000000000E+00 -0.45593999997E+02  0.45594000000E+02  0.51100000000E-03 0. -1.
    9900012    2    1    2    0    0 -0.13686568917E+02  0.83078056417E+01 -0.97127547386E+01  0.72461563929E+02  0.69999991708E+02 0.  0.
        -12    1    1    2    0    0  0.13686568917E+02 -0.83078056417E+01  0.97127547386E+01  0.18726436071E+02  0.00000000000E+00 0.  1.
         11    1    3    3    0    0 -0.18101514106E+02 -0.26927370109E+02 -0.23249451291E+00  0.32446912455E+02  0.51100000000E-03 0. -1.
        -11    1    3    3    0    0 -0.45029815538E+01  0.12152025633E+02  0.12959541041E+01  0.13024134027E+02  0.51100000000E-03 0.  1.
         12    1    3    3    0    0  0.89179267426E+01  0.23083150118E+02 -0.10776214330E+02  0.26990517447E+02  0.00000000000E+00 0. -1.
</event>
<event>
 7    1  0.1920603E-013  0.7246153E+02  0.7816164E-02  0.1226708E+00
        -11   -1    0    0    0    0  0.00000000000E+00  0.00000000000E+00  0.45593999997E+02  0.45594000000E+02  0.51100000000E-03 0.  1.
         11   -1    0    0    0    0 -0.00000000000E+00 -0.00000000000E+00 -0.45593999997E+02  0.45594000000E+02  0.51100000000E-03 0. -1.
    9900012    2    1    2    0    0  0.47329394325E+01 -0.84837680051E+00 -0.18098627266E+02  0.72461527621E+02  0.69999944410E+02 0.  0.
        -12    1    1    2    0    0 -0.47329394325E+01  0.84837680051E+00  0.18098627266E+02  0.18726472379E+02  0.00000000000E+00 0.  1.
         11    1    3    3    0    0  0.28210549537E+02  0.65622579367E+01 -0.17686944554E+02  0.33937093899E+02  0.51100000000E-03 0. -1.
        -11    1    3    3    0    0 -0.16966130878E+02  0.83371558350E+01  0.67041581811E+01  0.20057504869E+02  0.51100000000E-03 0.  1.
         12    1    3    3    0    0 -0.65114792268E+01 -0.15747790572E+02 -0.71158408930E+01  0.18466928852E+02  0.00000000000E+00 0. -1.
</event>
<event>
 7    1  0.1920603E-013  0.7246155E+02  0.7816164E-02  0.1226708E+00
        -11   -1    0    0    0    0  0.00000000000E+00  0.00000000000E+00  0.45593999997E+02  0.45594000000E+02  0.51100000000E-03 0.  1.
         11   -1    0    0    0    0 -0.00000000000E+00 -0.00000000000E+00 -0.45593999997E+02  0.45594000000E+02  0.51100000000E-03 0. -1.
    9900012    2    1    2    0    0  0.35874282624E+00  0.12193855977E+02 -0.14207782706E+02  0.72461550538E+02  0.69999974264E+02 0.  0.
        -12    1    1    2    0    0 -0.35874282624E+00 -0.12193855977E+02  0.14207782706E+02  0.18726449462E+02  0.00000000000E+00 0.  1.
         11    1    3    3    0    0  0.44274413587E+01  0.32358194454E+02 -0.18648335664E+02  0.37608714530E+02  0.51100000000E-03 0. -1.
        -11    1    3    3    0    0 -0.98673418246E+01 -0.60164678422E+01  0.12947860018E+02  0.17355385311E+02  0.51100000000E-03 0.  1.
         12    1    3    3    0    0  0.57986432922E+01 -0.14147870634E+02 -0.85073070602E+01  0.17497450698E+02  0.00000000000E+00 0. -1.
</event>
<event>
 7    1  0.1920603E-013  0.7246162E+02  0.7816164E-02  0.1226708E+00
        -11   -1    0    0    0    0  0.00000000000E+00  0.00000000000E+00  0.45593999997E+02  0.45594000000E+02  0.51100000000E-03 0.  1.
         11   -1    0    0    0    0 -0.00000000000E+00 -0.00000000000E+00 -0.45593999997E+02  0.45594000000E+02  0.51100000000E-03 0. -1.
    9900012    2    1    2    0    0 -0.11649087876E+02 -0.12014610404E+02  0.84038825740E+01  0.72461618774E+02  0.70000063154E+02 0.  0.
        -12    1    1    2    0    0  0.11649087876E+02  0.12014610404E+02 -0.84038825740E+01  0.18726381226E+02  0.00000000000E+00 0.  1.
         11    1    3    3    0    0 -0.76163187548E+01  0.12966663443E+02  0.22773500833E+01  0.15209503472E+02  0.51100000000E-03 0. -1.
        -11    1    3    3    0    0 -0.35916017901E+01 -0.63873179474E+01  0.27766753726E+02  0.28717417131E+02  0.51100000000E-03 0.  1.
        -12    1    3    3    0    0 -0.44116733111E+00 -0.18593955899E+02 -0.21640221235E+02  0.28534698171E+02  0.00000000000E+00 0.  1.
</event>
<event>
 7    1  0.1920603E-013  0.7246157E+02  0.7816164E-02  0.1226708E+00
        -11   -1    0    0    0    0  0.00000000000E+00  0.00000000000E+00  0.45593999997E+02  0.45594000000E+02  0.51100000000E-03 0. -1.
         11   -1    0    0    0    0 -0.00000000000E+00 -0.00000000000E+00 -0.45593999997E+02  0.45594000000E+02  0.51100000000E-03 0.  1.
    9900012    2    1    2    0    0 -0.14453035941E+02  0.94096027583E+01  0.72971472763E+01  0.72461568670E+02  0.69999997884E+02 0.  0.
        -12    1    1    2    0    0  0.14453035941E+02 -0.94096027583E+01 -0.72971472763E+01  0.18726431330E+02  0.00000000000E+00 0.  1.
         11    1    3    3    0    0  0.10029612676E+00  0.83474731947E+01 -0.47960838058E+00  0.83618414544E+01  0.51100000000E-03 0. -1.
        -11    1    3    3    0    0 -0.11452406216E+02 -0.22023035312E+02  0.24923889021E+02  0.35176297939E+02  0.51100000000E-03 0.  1.
        -12    1    3    3    0    0 -0.31009258515E+01  0.23085164876E+02 -0.17147133365E+02  0.28923429277E+02  0.00000000000E+00 0.  1.
</event>
<event>
 7    1  0.1920603E-013  0.7246154E+02  0.7816164E-02  0.1226708E+00
        -11   -1    0    0    0    0  0.00000000000E+00  0.00000000000E+00  0.45593999997E+02  0.45594000000E+02  0.51100000000E-03 0.  1.
         11   -1    0    0    0    0 -0.00000000000E+00 -0.00000000000E+00 -0.45593999997E+02  0.45594000000E+02  0.51100000000E-03 0. -1.
    9900012    2    1    2    0    0  0.11355044185E+02 -0.13146711881E+02 -0.69933694345E+01  0.72461540704E+02  0.69999961453E+02 0.  0.
        -12    1    1    2    0    0 -0.11355044185E+02  0.13146711881E+02  0.69933694345E+01  0.18726459296E+02  0.00000000000E+00 0.  1.
         11    1    3    3    0    0  0.11629918356E+02 -0.24380606272E+01 -0.11561089971E+02  0.16578840194E+02  0.51100000000E-03 0. -1.
        -11    1    3    3    0    0 -0.66840386639E+01 -0.28228328189E+02  0.16849756880E+02  0.33547417075E+02  0.51100000000E-03 0.  1.
        -12    1    3    3    0    0  0.64091644922E+01  0.17519676935E+02 -0.12282036344E+02  0.22335283435E+02  0.00000000000E+00 0.  1.
</event>
<event>
 7    1  0.1920603E-013  0.7246157E+02  0.7816164E-02  0.1226708E+00
        -11   -1    0    0    0    0  0.00000000000E+00  0.00000000000E+00  0.45593999997E+02  0.45594000000E+02  0.51100000000E-03 0. -1.
         11   -1    0    0    0    0 -0.00000000000E+00 -0.00000000000E+00 -0.45593999997E+02  0.45594000000E+02  0.51100000000E-03 0.  1.
    9900012    2    1    2    0    0  0.73741827937E+01 -0.15008425158E+02 -0.84289872512E+01  0.72461568848E+02  0.69999998116E+02 0.  0.
        -12    1    1    2    0    0 -0.73741827937E+01  0.15008425158E+02  0.84289872512E+01  0.18726431152E+02  0.00000000000E+00 0.  1.
         11    1    3    3    0    0 -0.18792458905E+02 -0.23391572638E+02 -0.18768889978E+02  0.35391996460E+02  0.51100000000E-03 0. -1.
        -11    1    3    3    0    0  0.23840840411E+02  0.20630983469E+01 -0.92203490384E+00  0.23947697070E+02  0.51100000000E-03 0.  1.
         12    1    3    3    0    0  0.23258012877E+01  0.63200491325E+01  0.11261937631E+02  0.13121875318E+02  0.00000000000E+00 0. -1.
</event>
<event>
 7    1  0.1920603E-013  0.7246154E+02  0.7816164E-02  0.1226708E+00
        -11   -1    0    0    0    0  0.00000000000E+00  0.00000000000E+00  0.45593999997E+02  0.45594000000E+02  0.51100000000E-03 0. -1.
         11   -1    0    0    0    0 -0.00000000000E+00 -0.00000000000E+00 -0.45593999997E+02  0.45594000000E+02  0.51100000000E-03 0.  1.
    9900012    2    1    2    0    0 -0.34698215804E+01 -0.13687335411E+02  0.12300296964E+02  0.72461544973E+02  0.69999967015E+02 0.  0.
        -12    1    1    2    0    0  0.34698215804E+01  0.13687335411E+02 -0.12300296964E+02  0.18726455027E+02  0.00000000000E+00 0.  1.
         11    1    3    3    0    0  0.11631890844E+02 -0.18135063420E+01  0.42424574122E+01  0.12513518091E+02  0.51100000000E-03 0. -1.
        -11    1    3    3    0    0 -0.15024846396E+02 -0.28865357361E+02 -0.11060721174E+02  0.34369963893E+02  0.51100000000E-03 0.  1.
        -12    1    3    3    0    0 -0.76866027759E-01  0.16991528292E+02  0.19118560726E+02  0.25578062990E+02  0.00000000000E+00 0.  1.
</event>
<event>
 7    1  0.1920603E-013  0.7246159E+02  0.7816164E-02  0.1226708E+00
        -11   -1    0    0    0    0  0.00000000000E+00  0.00000000000E+00  0.45593999997E+02  0.45594000000E+02  0.51100000000E-03 0.  1.
         11   -1    0    0    0    0 -0.00000000000E+00 -0.00000000000E+00 -0.45593999997E+02  0.45594000000E+02  0.51100000000E-03 0. -1.
    9900012    2    1    2    0    0 -0.56239214366E+01  0.15715914707E+01 -0.17792700085E+02  0.72461586345E+02  0.70000020909E+02 0.  0.
        -12    1    1    2    0    0  0.56239214366E+01 -0.15715914707E+01  0.17792700085E+02  0.18726413655E+02  0.00000000000E+00 0.  1.
         11    1    3    3    0    0 -0.13138975621E+02  0.12809665283E+02  0.18002492630E+02  0.25706223881E+02  0.51100000000E-03 0. -1.
        -11    1    3    3    0    0  0.37917573092E+01 -0.11883587852E+02 -0.18615895848E+01  0.12612002211E+02  0.51100000000E-03 0.  1.
         12    1    3    3    0    0  0.37232968752E+01  0.64551404004E+00 -0.33933603130E+02  0.34143360253E+02  0.00000000000E+00 0. -1.
</event>
<event>
 7    1  0.1920603E-013  0.7246157E+02  0.7816164E-02  0.1226708E+00
        -11   -1    0    0    0    0  0.00000000000E+00  0.00000000000E+00  0.45593999997E+02  0.45594000000E+02  0.51100000000E-03 0.  1.
         11   -1    0    0    0    0 -0.00000000000E+00 -0.00000000000E+00 -0.45593999997E+02  0.45594000000E+02  0.51100000000E-03 0. -1.
    9900012    2    1    2    0    0 -0.26000366602E+01 -0.17405988744E+02 -0.63992758078E+01  0.72461565058E+02  0.69999993179E+02 0.  0.
        -12    1    1    2    0    0  0.26000366602E+01  0.17405988744E+02  0.63992758078E+01  0.18726434942E+02  0.00000000000E+00 0.  1.
         11    1    3    3    0    0  0.15298411154E+02  0.16430585394E+02 -0.18576399560E+02  0.29139117027E+02  0.51100000000E-03 0. -1.
        -11    1    3    3    0    0 -0.57169814742E+01 -0.24745997437E+02  0.30177915770E+01  0.25576460517E+02  0.51100000000E-03 0.  1.
        -12    1    3    3    0    0 -0.12181466340E+02 -0.90905767001E+01  0.91593321757E+01  0.17745987514E+02  0.00000000000E+00 0.  1.
</event>
<event>
 7    1  0.1920603E-013  0.7246156E+02  0.7816164E-02  0.1226708E+00
        -11   -1    0    0    0    0  0.00000000000E+00  0.00000000000E+00  0.45593999997E+02  0.45594000000E+02  0.51100000000E-03 0.  1.
         11   -1    0    0    0    0 -0.00000000000E+00 -0.00000000000E+00 -0.45593999997E+02  0.45594000000E+02  0.51100000000E-03 0. -1.
    9900012    2    1    2    0    0 -0.52600041298E+01  0.27124384842E+01 -0.17766669494E+02  0.72461561180E+02  0.69999988126E+02 0.  0.
        -12    1    1    2    0    0  0.52600041298E+01 -0.27124384842E+01  0.17766669494E+02  0.18726438820E+02  0.00000000000E+00 0.  1.
         11    1    3    3    0    0  0.43972853156E+01  0.19686899643E+01 -0.12755030793E+02  0.13634612906E+02  0.51100000000E-03 0. -1.
        -11    1    3    3    0    0 -0.32797886482E+02 -0.81757711680E+01 -0.34645909581E+01  0.33978640094E+02  0.51100000000E-03 0.  1.
        -12    1    3    3    0    0  0.23140597036E+02  0.89195196879E+01 -0.15470477437E+01  0.24848308179E+02  0.00000000000E+00 0.  1.
</event>
<event>
 7    1  0.1920603E-013  0.7246160E+02  0.7816164E-02  0.1226708E+00
        -11   -1    0    0    0    0  0.00000000000E+00  0.00000000000E+00  0.45593999997E+02  0.45594000000E+02  0.51100000000E-03 0.  1.
         11   -1    0    0    0    0 -0.00000000000E+00 -0.00000000000E+00 -0.45593999997E+02  0.45594000000E+02  0.51100000000E-03 0. -1.
    9900012    2    1    2    0    0  0.59970382393E+01  0.84970999992E+01 -0.15572829130E+02  0.72461596631E+02  0.70000034308E+02 0.  0.
        -12    1    1    2    0    0 -0.59970382393E+01 -0.84970999992E+01  0.15572829130E+02  0.18726403369E+02  0.00000000000E+00 0.  1.
         11    1    3    3    0    0 -0.86786248054E+01  0.15567652544E+02 -0.16681179999E+02  0.24411720559E+02  0.51100000000E-03 0. -1.
        -11    1    3    3    0    0  0.12505037945E+01 -0.24639427436E+02  0.60306531262E+01  0.25397518019E+02  0.51100000000E-03 0.  1.
        -12    1    3    3    0    0  0.13425159250E+02  0.17568874891E+02 -0.49223022576E+01  0.22652358053E+02  0.00000000000E+00 0.  1.
</event>
<event>
 7    1  0.1920603E-013  0.7246164E+02  0.7816164E-02  0.1226708E+00
        -11   -1    0    0    0    0  0.00000000000E+00  0.00000000000E+00  0.45593999997E+02  0.45594000000E+02  0.51100000000E-03 0. -1.
         11   -1    0    0    0    0 -0.00000000000E+00 -0.00000000000E+00 -0.45593999997E+02  0.45594000000E+02  0.51100000000E-03 0.  1.
    9900012    2    1    2    0    0 -0.11398162823E+02  0.14005808844E+02 -0.49594249321E+01  0.72461636424E+02  0.70000086146E+02 0.  0.
        -12    1    1    2    0    0  0.11398162823E+02 -0.14005808844E+02  0.49594249321E+01  0.18726363576E+02  0.00000000000E+00 0.  1.
         11    1    3    3    0    0  0.11422028047E+02 -0.23422805295E+01  0.11692497548E+02  0.16512525608E+02  0.51100000000E-03 0. -1.
        -11    1    3    3    0    0 -0.10105741494E+02 -0.87338667540E+01 -0.23478411528E+02  0.27011890859E+02  0.51100000000E-03 0.  1.
        -12    1    3    3    0    0 -0.12714449376E+02  0.25081956128E+02  0.68264890483E+01  0.28937219957E+02  0.00000000000E+00 0.  1.
</event>
<event>
 7    1  0.1920603E-013  0.7246089E+02  0.7816164E-02  0.1226710E+00
        -11   -1    0    0    0    0  0.00000000000E+00  0.00000000000E+00  0.45593999997E+02  0.45594000000E+02  0.51100000000E-03 0.  1.
         11   -1    0    0    0    0 -0.00000000000E+00 -0.00000000000E+00 -0.45593999997E+02  0.45594000000E+02  0.51100000000E-03 0. -1.
    9900012    2    1    2    0    0 -0.16426113632E+02  0.44668284457E+01 -0.78060779396E+01  0.72460890820E+02  0.69999114853E+02 0.  0.
        -12    1    1    2    0    0  0.16426113632E+02 -0.44668284457E+01  0.78060779396E+01  0.18727109180E+02  0.00000000000E+00 0.  1.
         11    1    3    3    0    0 -0.34932742980E+02  0.88057212500E+01 -0.14112533818E+02  0.38691095485E+02  0.51100000000E-03 0. -1.
        -11    1    3    3    0    0  0.34949459683E+01 -0.40604979517E+01  0.15339184083E+02  0.16247857075E+02  0.51100000000E-03 0.  1.
         12    1    3    3    0    0  0.15011683379E+02 -0.27839485257E+00 -0.90327282049E+01  0.17521938260E+02  0.00000000000E+00 0. -1.
</event>
<event>
 7    1  0.1920603E-013  0.7246205E+02  0.7816164E-02  0.1226707E+00
        -11   -1    0    0    0    0  0.00000000000E+00  0.00000000000E+00  0.45593999997E+02  0.45594000000E+02  0.51100000000E-03 0.  1.
         11   -1    0    0    0    0 -0.00000000000E+00 -0.00000000000E+00 -0.45593999997E+02  0.45594000000E+02  0.51100000000E-03 0. -1.
    9900012    2    1    2    0    0 -0.31099875034E+01 -0.14535306461E+02  0.11389212911E+02  0.72462046702E+02  0.70000620607E+02 0.  0.
        -12    1    1    2    0    0  0.31099875034E+01  0.14535306461E+02 -0.11389212911E+02  0.18725953298E+02  0.00000000000E+00 0.  1.
         11    1    3    3    0    0  0.94274570207E+01  0.24246200395E-01 -0.20579920571E+02  0.22636489673E+02  0.51100000000E-03 0. -1.
        -11    1    3    3    0    0 -0.53167630102E+01  0.98679145704E+01  0.16745060548E+02  0.20150453094E+02  0.51100000000E-03 0.  1.
         12    1    3    3    0    0 -0.72206815139E+01 -0.24427467232E+02  0.15224072933E+02  0.29675103935E+02  0.00000000000E+00 0. -1.
</event>
<event>
 7    1  0.1920603E-013  0.7246157E+02  0.7816164E-02  0.1226708E+00
        -11   -1    0    0    0    0  0.00000000000E+00  0.00000000000E+00  0.45593999997E+02  0.45594000000E+02  0.51100000000E-03 0.  1.
         11   -1    0    0    0    0 -0.00000000000E+00 -0.00000000000E+00 -0.45593999997E+02  0.45594000000E+02  0.51100000000E-03 0. -1.
    9900012    2    1    2    0    0 -0.17859321081E+02 -0.50957157752E+01  0.23994954313E+01  0.72461568224E+02  0.69999997303E+02 0.  0.
        -12    1    1    2    0    0  0.17859321081E+02  0.50957157752E+01 -0.23994954313E+01  0.18726431776E+02  0.00000000000E+00 0.  1.
         11    1    3    3    0    0  0.10203314051E+02 -0.36631298212E+01 -0.75025795116E+01  0.13183885516E+02  0.51100000000E-03 0. -1.
        -11    1    3    3    0    0 -0.34590735955E+02 -0.17765691440E+02  0.13798646757E+02  0.41261864461E+02  0.51100000000E-03 0.  1.
        -12    1    3    3    0    0  0.65281008222E+01  0.16333105487E+02 -0.38965718139E+01  0.18015818246E+02  0.00000000000E+00 0.  1.
</event>
<event>
 7    1  0.1920603E-013  0.7246159E+02  0.7816164E-02  0.1226708E+00
        -11   -1    0    0    0    0  0.00000000000E+00  0.00000000000E+00  0.45593999997E+02  0.45594000000E+02  0.51100000000E-03 0.  1.
         11   -1    0    0    0    0 -0.00000000000E+00 -0.00000000000E+00 -0.45593999997E+02  0.45594000000E+02  0.51100000000E-03 0. -1.
    9900012    2    1    2    0    0  0.91694125008E+01 -0.82268731530E+01 -0.14103862415E+02  0.72461588104E+02  0.70000023200E+02 0.  0.
        -12    1    1    2    0    0 -0.91694125008E+01  0.82268731530E+01  0.14103862415E+02  0.18726411896E+02  0.00000000000E+00 0.  1.
         11    1    3    3    0    0 -0.13896705055E+02 -0.12190445919E+02 -0.10541589229E+02  0.21280283993E+02  0.51100000000E-03 0. -1.
        -11    1    3    3    0    0  0.25637685320E+02 -0.14292823012E+02  0.66624410208E+01  0.30099232861E+02  0.51100000000E-03 0.  1.
        -12    1    3    3    0    0 -0.25715677648E+01  0.18256395778E+02 -0.10224714206E+02  0.21082071249E+02  0.00000000000E+00 0.  1.
</event>
<event>
 7    1  0.1920603E-013  0.7246152E+02  0.7816164E-02  0.1226708E+00
        -11   -1    0    0    0    0  0.00000000000E+00  0.00000000000E+00  0.45593999997E+02  0.45594000000E+02  0.51100000000E-03 0.  1.
         11   -1    0    0    0    0 -0.00000000000E+00 -0.00000000000E+00 -0.45593999997E+02  0.45594000000E+02  0.51100000000E-03 0. -1.
    9900012    2    1    2    0    0 -0.44966554316E+00 -0.15647718115E+02 -0.10277542554E+02  0.72461517088E+02  0.69999930689E+02 0.  0.
        -12    1    1    2    0    0  0.44966554316E+00  0.15647718115E+02  0.10277542554E+02  0.18726482912E+02  0.00000000000E+00 0.  1.
         11    1    3    3    0    0 -0.33131446167E+01 -0.24229538805E+02  0.16852330583E+02  0.29699301747E+02  0.51100000000E-03 0. -1.
        -11    1    3    3    0    0 -0.12387964435E+02  0.92297079954E+00 -0.21428110906E+02  0.24768477450E+02  0.51100000000E-03 0.  1.
         12    1    3    3    0    0  0.15251443508E+02  0.76588498907E+01 -0.57017622308E+01  0.17993737890E+02  0.00000000000E+00 0. -1.
</event>
<event>
 7    1  0.1920603E-013  0.7246161E+02  0.7816164E-02  0.1226708E+00
        -11   -1    0    0    0    0  0.00000000000E+00  0.00000000000E+00  0.45593999997E+02  0.45594000000E+02  0.51100000000E-03 0.  1.
         11   -1    0    0    0    0 -0.00000000000E+00 -0.00000000000E+00 -0.45593999997E+02  0.45594000000E+02  0.51100000000E-03 0. -1.
    9900012    2    1    2    0    0  0.11307854495E+02  0.14002874586E+02 -0.51700623771E+01  0.72461611802E+02  0.70000054072E+02 0.  0.
        -12    1    1    2    0    0 -0.11307854495E+02 -0.14002874586E+02  0.51700623771E+01  0.18726388198E+02  0.00000000000E+00 0.  1.
         11    1    3    3    0    0 -0.42874500576E+01 -0.66069110071E+01 -0.83361482991E+01  0.11468429264E+02  0.51100000000E-03 0. -1.
        -11    1    3    3    0    0  0.29266626555E+02 -0.18407011919E+01  0.14082945075E+02  0.32530800068E+02  0.51100000000E-03 0.  1.
        -12    1    3    3    0    0 -0.13671322003E+02  0.22450486785E+02 -0.10916859153E+02  0.28462382471E+02  0.00000000000E+00 0.  1.
</event>
<event>
 7    1  0.1920603E-013  0.7246170E+02  0.7816164E-02  0.1226708E+00
        -11   -1    0    0    0    0  0.00000000000E+00  0.00000000000E+00  0.45593999997E+02  0.45594000000E+02  0.51100000000E-03 0.  1.
         11   -1    0    0    0    0 -0.00000000000E+00 -0.00000000000E+00 -0.45593999997E+02  0.45594000000E+02  0.51100000000E-03 0. -1.
    9900012    2    1    2    0    0 -0.51296887008E+01  0.14322038827E+02 -0.10919701748E+02  0.72461697946E+02  0.70000166290E+02 0.  0.
        -12    1    1    2    0    0  0.51296887008E+01 -0.14322038827E+02  0.10919701748E+02  0.18726302054E+02  0.00000000000E+00 0.  1.
         11    1    3    3    0    0 -0.26107740962E+02  0.24086130601E+01 -0.14967814863E+02  0.30190247383E+02  0.51100000000E-03 0. -1.
        -11    1    3    3    0    0  0.26149317247E+02  0.15986462095E+02 -0.50289794094E+01  0.31058724973E+02  0.51100000000E-03 0.  1.
         12    1    3    3    0    0 -0.51712649860E+01 -0.40730363275E+01  0.90770925237E+01  0.11212725590E+02  0.00000000000E+00 0. -1.
</event>
<event>
 7    1  0.1920603E-013  0.7246150E+02  0.7816164E-02  0.1226708E+00
        -11   -1    0    0    0    0  0.00000000000E+00  0.00000000000E+00  0.45593999997E+02  0.45594000000E+02  0.51100000000E-03 0. -1.
         11   -1    0    0    0    0 -0.00000000000E+00 -0.00000000000E+00 -0.45593999997E+02  0.45594000000E+02  0.51100000000E-03 0.  1.
    9900012    2    1    2    0    0 -0.13047199847E+02  0.35557938870E+01  0.12954093462E+02  0.72461504561E+02  0.69999914370E+02 0.  0.
        -12    1    1    2    0    0  0.13047199847E+02 -0.35557938870E+01 -0.12954093462E+02  0.18726495439E+02  0.00000000000E+00 0.  1.
         11    1    3    3    0    0 -0.19899825151E+02  0.18823285945E+02  0.18000831572E+02  0.32777264565E+02  0.51100000000E-03 0. -1.
        -11    1    3    3    0    0  0.16978991816E+02  0.26287228601E+01  0.32944981561E+01  0.17494286648E+02  0.51100000000E-03 0.  1.
        -12    1    3    3    0    0 -0.10126366512E+02 -0.17896214918E+02 -0.83412362662E+01  0.22189953348E+02  0.00000000000E+00 0.  1.
</event>
<event>
 8    1  0.1920603E-013  0.7246155E+02  0.7816164E-02  0.1226708E+00
        -11   -1    0    0    0    0  0.00000000000E+00  0.00000000000E+00  0.45593999997E+02  0.45594000000E+02  0.51100000000E-03 0. -1.
         11   -1    0    0    0    0 -0.00000000000E+00 -0.00000000000E+00 -0.45593999997E+02  0.45594000000E+02  0.51100000000E-03 0.  1.
    9900012    2    1    2    0    0 -0.11621040466E+02  0.66432156257E+01  0.13095763322E+02  0.72461550461E+02  0.69999974163E+02 0.  0.
         24    2    3    3    0    0 -0.14225720466E+02  0.18757364874E+02  0.91838869785E+01  0.59467715511E+02  0.53831733655E+02 0.  0.
        -12    1    1    2    0    0  0.11621040466E+02 -0.66432156257E+01 -0.13095763322E+02  0.18726449539E+02  0.00000000000E+00 0.  1.
         11    1    3    3    0    0  0.26046799996E+01 -0.12114149248E+02  0.39118763431E+01  0.12993834950E+02  0.51100000000E-03 0. -1.
        -11    1    4    4    0    0 -0.25727351630E+02  0.21444337024E+02 -0.11698106564E+02  0.35476779867E+02  0.51100000000E-03 0.  1.
         12    1    4    4    0    0  0.11501631164E+02 -0.26869721502E+01  0.20881993543E+02  0.23990935644E+02  0.00000000000E+00 0. -1.
</event>
<event>
 7    1  0.1920603E-013  0.7246159E+02  0.7816164E-02  0.1226708E+00
        -11   -1    0    0    0    0  0.00000000000E+00  0.00000000000E+00  0.45593999997E+02  0.45594000000E+02  0.51100000000E-03 0.  1.
         11   -1    0    0    0    0 -0.00000000000E+00 -0.00000000000E+00 -0.45593999997E+02  0.45594000000E+02  0.51100000000E-03 0. -1.
    9900012    2    1    2    0    0 -0.99404669258E+01 -0.15225368729E+02 -0.44781206087E+01  0.72461593515E+02  0.70000030250E+02 0.  0.
        -12    1    1    2    0    0  0.99404669258E+01  0.15225368729E+02  0.44781206087E+01  0.18726406485E+02  0.00000000000E+00 0.  1.
         11    1    3    3    0    0 -0.11229014690E+02 -0.30331568602E+02 -0.33863672256E+01  0.32520183087E+02  0.51100000000E-03 0. -1.
        -11    1    3    3    0    0  0.12501143492E+02  0.13089174922E+02 -0.13883936472E+02  0.22811593126E+02  0.51100000000E-03 0.  1.
        -12    1    3    3    0    0 -0.11212595728E+02  0.20170249513E+01  0.12792183089E+02  0.17129817302E+02  0.00000000000E+00 0.  1.
</event>
<event>
 7    1  0.1920603E-013  0.7246158E+02  0.7816164E-02  0.1226708E+00
        -11   -1    0    0    0    0  0.00000000000E+00  0.00000000000E+00  0.45593999997E+02  0.45594000000E+02  0.51100000000E-03 0.  1.
         11   -1    0    0    0    0 -0.00000000000E+00 -0.00000000000E+00 -0.45593999997E+02  0.45594000000E+02  0.51100000000E-03 0. -1.
    9900012    2    1    2    0    0  0.59375502381E+01 -0.55843062649E+01 -0.16859415651E+02  0.72461578148E+02  0.70000010231E+02 0.  0.
        -12    1    1    2    0    0 -0.59375502381E+01  0.55843062649E+01  0.16859415651E+02  0.18726421852E+02  0.00000000000E+00 0.  1.
         11    1    3    3    0    0 -0.70520765060E+01 -0.28511517548E+02 -0.13172742718E+02  0.32189432535E+02  0.51100000000E-03 0. -1.
        -11    1    3    3    0    0  0.21948344907E+02  0.21219310818E+02 -0.53723733129E+01  0.30997602988E+02  0.51100000000E-03 0.  1.
         12    1    3    3    0    0 -0.89587181630E+01  0.17079004658E+01  0.16857003804E+01  0.92745426247E+01  0.00000000000E+00 0. -1.
</event>
<event>
 7    1  0.1920603E-013  0.7246203E+02  0.7816164E-02  0.1226707E+00
        -11   -1    0    0    0    0  0.00000000000E+00  0.00000000000E+00  0.45593999997E+02  0.45594000000E+02  0.51100000000E-03 0.  1.
         11   -1    0    0    0    0 -0.00000000000E+00 -0.00000000000E+00 -0.45593999997E+02  0.45594000000E+02  0.51100000000E-03 0. -1.
    9900012    2    1    2    0    0  0.50775809094E+01 -0.17465191153E+02  0.44550330256E+01  0.72462027418E+02  0.70000595485E+02 0.  0.
        -12    1    1    2    0    0 -0.50775809094E+01  0.17465191153E+02 -0.44550330256E+01  0.18725972582E+02  0.00000000000E+00 0.  1.
         11    1    3    3    0    0  0.20641192097E-01  0.32961924385E+01 -0.89277516382E+01  0.95168303665E+01  0.51100000000E-03 0. -1.
        -11    1    3    3    0    0  0.15261610492E+02 -0.24978455602E+02  0.30692849518E+02  0.42413335295E+02  0.51100000000E-03 0.  1.
        -12    1    3    3    0    0 -0.10204670774E+02  0.42170720104E+01 -0.17310064854E+02  0.20531861757E+02  0.00000000000E+00 0.  1.
</event>
<event>
 7    1  0.1920603E-013  0.7246120E+02  0.7816164E-02  0.1226709E+00
        -11   -1    0    0    0    0  0.00000000000E+00  0.00000000000E+00  0.45593999997E+02  0.45594000000E+02  0.51100000000E-03 0. -1.
         11   -1    0    0    0    0 -0.00000000000E+00 -0.00000000000E+00 -0.45593999997E+02  0.45594000000E+02  0.51100000000E-03 0.  1.
    9900012    2    1    2    0    0  0.14982370938E+02 -0.33610326026E+01  0.10720302183E+02  0.72461204813E+02  0.69999523891E+02 0.  0.
        -12    1    1    2    0    0 -0.14982370938E+02  0.33610326026E+01 -0.10720302183E+02  0.18726795187E+02  0.00000000000E+00 0.  1.
         11    1    3    3    0    0  0.23573021147E+01  0.12670241078E+02  0.36941009445E+02  0.39124545509E+02  0.51100000000E-03 0. -1.
        -11    1    3    3    0    0  0.73383100380E+01 -0.11303286951E+02 -0.16517135728E+02  0.21317384057E+02  0.51100000000E-03 0.  1.
         12    1    3    3    0    0  0.52867587850E+01 -0.47279867289E+01 -0.97035715335E+01  0.12019275247E+02  0.00000000000E+00 0. -1.
</event>
<event>
 7    1  0.1920603E-013  0.7246156E+02  0.7816164E-02  0.1226708E+00
        -11   -1    0    0    0    0  0.00000000000E+00  0.00000000000E+00  0.45593999997E+02  0.45594000000E+02  0.51100000000E-03 0.  1.
         11   -1    0    0    0    0 -0.00000000000E+00 -0.00000000000E+00 -0.45593999997E+02  0.45594000000E+02  0.51100000000E-03 0. -1.
    9900012    2    1    2    0    0  0.14427172247E+02 -0.10441909365E+02 -0.57881709625E+01  0.72461556308E+02  0.69999981781E+02 0.  0.
        -12    1    1    2    0    0 -0.14427172247E+02  0.10441909365E+02  0.57881709625E+01  0.18726443692E+02  0.00000000000E+00 0.  1.
         11    1    3    3    0    0  0.67254322818E+01 -0.26442998147E+02  0.12486947453E+02  0.30006456761E+02  0.51100000000E-03 0.  1.
        -11    1    3    3    0    0  0.92399335865E+00  0.14352303881E+02 -0.27414470773E+02  0.30957965024E+02  0.51100000000E-03 0. -1.
         12    1    3    3    0    0  0.67777466068E+01  0.16487849014E+01  0.91393523576E+01  0.11497134523E+02  0.00000000000E+00 0. -1.
</event>
<event>
 7    1  0.1920603E-013  0.7246156E+02  0.7816164E-02  0.1226708E+00
        -11   -1    0    0    0    0  0.00000000000E+00  0.00000000000E+00  0.45593999997E+02  0.45594000000E+02  0.51100000000E-03 0.  1.
         11   -1    0    0    0    0 -0.00000000000E+00 -0.00000000000E+00 -0.45593999997E+02  0.45594000000E+02  0.51100000000E-03 0. -1.
    9900012    2    1    2    0    0  0.51708138044E+01  0.11606383518E+02 -0.13756240894E+02  0.72461558338E+02  0.69999984425E+02 0.  0.
        -12    1    1    2    0    0 -0.51708138044E+01 -0.11606383518E+02  0.13756240894E+02  0.18726441662E+02  0.00000000000E+00 0.  1.
         11    1    3    3    0    0 -0.22653332456E+01  0.19719908183E+02  0.86092762911E+01  0.21636223145E+02  0.51100000000E-03 0. -1.
        -11    1    3    3    0    0  0.17085130528E+02 -0.12528509383E+02  0.47457814928E+01  0.21711464132E+02  0.51100000000E-03 0.  1.
        -12    1    3    3    0    0 -0.96489834777E+01  0.44149847191E+01 -0.27111298678E+02  0.29113871062E+02  0.00000000000E+00 0.  1.
</event>
<event>
 7    1  0.1920603E-013  0.7246162E+02  0.7816164E-02  0.1226708E+00
        -11   -1    0    0    0    0  0.00000000000E+00  0.00000000000E+00  0.45593999997E+02  0.45594000000E+02  0.51100000000E-03 0. -1.
         11   -1    0    0    0    0 -0.00000000000E+00 -0.00000000000E+00 -0.45593999997E+02  0.45594000000E+02  0.51100000000E-03 0.  1.
    9900012    2    1    2    0    0  0.17555577736E+02 -0.37227572401E+01  0.53497635363E+01  0.72461622854E+02  0.70000068469E+02 0.  0.
        -12    1    1    2    0    0 -0.17555577736E+02  0.37227572401E+01 -0.53497635363E+01  0.18726377146E+02  0.00000000000E+00 0.  1.
         11    1    3    3    0    0  0.30488043647E+02 -0.16214173448E+02  0.14740395066E+02  0.37545964803E+02  0.51100000000E-03 0. -1.
        -11    1    3    3    0    0 -0.55987148609E+01  0.65991102349E+01 -0.19361276501E+02  0.21207378244E+02  0.51100000000E-03 0.  1.
         12    1    3    3    0    0 -0.73337510498E+01  0.58923059728E+01  0.99706449708E+01  0.13708279807E+02  0.00000000000E+00 0. -1.
</event>
<event>
 7    1  0.1920603E-013  0.7246152E+02  0.7816164E-02  0.1226708E+00
        -11   -1    0    0    0    0  0.00000000000E+00  0.00000000000E+00  0.45593999997E+02  0.45594000000E+02  0.51100000000E-03 0. -1.
         11   -1    0    0    0    0 -0.00000000000E+00 -0.00000000000E+00 -0.45593999997E+02  0.45594000000E+02  0.51100000000E-03 0.  1.
    9900012    2    1    2    0    0  0.54320706703E+01 -0.13452325268E+02 -0.11840974977E+02  0.72461517808E+02  0.69999931627E+02 0.  0.
        -12    1    1    2    0    0 -0.54320706703E+01  0.13452325268E+02  0.11840974977E+02  0.18726482192E+02  0.00000000000E+00 0.  1.
         11    1    3    3    0    0 -0.19350253826E+02 -0.19844945125E+02  0.12465396649E+02  0.30391450838E+02  0.51100000000E-03 0. -1.
        -11    1    3    3    0    0  0.16793499708E+02 -0.72913449800E+01 -0.10847745754E+02  0.21280482426E+02  0.51100000000E-03 0.  1.
         12    1    3    3    0    0  0.79888247881E+01  0.13683964837E+02 -0.13458625872E+02  0.20789584544E+02  0.00000000000E+00 0. -1.
</event>
<event>
 7    1  0.1920603E-013  0.7246160E+02  0.7816164E-02  0.1226708E+00
        -11   -1    0    0    0    0  0.00000000000E+00  0.00000000000E+00  0.45593999997E+02  0.45594000000E+02  0.51100000000E-03 0. -1.
         11   -1    0    0    0    0 -0.00000000000E+00 -0.00000000000E+00 -0.45593999997E+02  0.45594000000E+02  0.51100000000E-03 0.  1.
    9900012    2    1    2    0    0 -0.14128596218E+02 -0.12186207666E+02 -0.15990816894E+01  0.72461602839E+02  0.70000042396E+02 0.  0.
        -12    1    1    2    0    0  0.14128596218E+02  0.12186207666E+02  0.15990816894E+01  0.18726397161E+02  0.00000000000E+00 0.  1.
         11    1    3    3    0    0 -0.12006151021E+02  0.83105170585E+00  0.32842699415E+02  0.34978296333E+02  0.51100000000E-03 0. -1.
        -11    1    3    3    0    0 -0.61321984075E-01 -0.29652137347E+01 -0.16920408966E+02  0.17178372820E+02  0.51100000000E-03 0.  1.
         12    1    3    3    0    0 -0.20611232132E+01 -0.10052045637E+02 -0.17521372138E+02  0.20304933686E+02  0.00000000000E+00 0. -1.
</event>
<event>
 7    1  0.1920603E-013  0.7246157E+02  0.7816164E-02  0.1226708E+00
        -11   -1    0    0    0    0  0.00000000000E+00  0.00000000000E+00  0.45593999997E+02  0.45594000000E+02  0.51100000000E-03 0. -1.
         11   -1    0    0    0    0 -0.00000000000E+00 -0.00000000000E+00 -0.45593999997E+02  0.45594000000E+02  0.51100000000E-03 0.  1.
    9900012    2    1    2    0    0  0.15441862420E+02 -0.71288233534E+01  0.78363164300E+01  0.72461572349E+02  0.70000002676E+02 0.  0.
        -12    1    1    2    0    0 -0.15441862420E+02  0.71288233534E+01 -0.78363164300E+01  0.18726427651E+02  0.00000000000E+00 0.  1.
         11    1    3    3    0    0 -0.11660747172E+02  0.73145415145E+01 -0.80302909259E+01  0.15936157467E+02  0.51100000000E-03 0.  1.
        -11    1    3    3    0    0  0.33229212075E+02  0.42618806940E+01  0.15311461485E+02  0.36834562781E+02  0.51100000000E-03 0. -1.
        -12    1    3    3    0    0 -0.61266024836E+01 -0.18705245562E+02  0.55514587083E+00  0.19690852101E+02  0.00000000000E+00 0.  1.
</event>
<event>
 7    1  0.1920603E-013  0.7246157E+02  0.7816164E-02  0.1226708E+00
        -11   -1    0    0    0    0  0.00000000000E+00  0.00000000000E+00  0.45593999997E+02  0.45594000000E+02  0.51100000000E-03 0.  1.
         11   -1    0    0    0    0 -0.00000000000E+00 -0.00000000000E+00 -0.45593999997E+02  0.45594000000E+02  0.51100000000E-03 0. -1.
    9900012    2    1    2    0    0  0.13627331687E+02  0.95115397476E+00 -0.12808987938E+02  0.72461573892E+02  0.70000004686E+02 0.  0.
        -12    1    1    2    0    0 -0.13627331687E+02 -0.95115397476E+00  0.12808987938E+02  0.18726426108E+02  0.00000000000E+00 0.  1.
         11    1    3    3    0    0 -0.79273478722E+01  0.33177620299E+01 -0.64331529169E+01  0.10734796034E+02  0.51100000000E-03 0. -1.
        -11    1    3    3    0    0  0.15189757156E+02 -0.28573695421E+02 -0.11369482794E+02  0.34299415909E+02  0.51100000000E-03 0.  1.
        -12    1    3    3    0    0  0.63649224028E+01  0.26207087366E+02  0.49936477729E+01  0.27427361949E+02  0.00000000000E+00 0.  1.
</event>
<event>
 7    1  0.1920603E-013  0.7246124E+02  0.7816164E-02  0.1226709E+00
        -11   -1    0    0    0    0  0.00000000000E+00  0.00000000000E+00  0.45593999997E+02  0.45594000000E+02  0.51100000000E-03 0.  1.
         11   -1    0    0    0    0 -0.00000000000E+00 -0.00000000000E+00 -0.45593999997E+02  0.45594000000E+02  0.51100000000E-03 0. -1.
    9900012    2    1    2    0    0 -0.30460719891E+00 -0.14224302067E+02 -0.12176540343E+02  0.72461236009E+02  0.69999564530E+02 0.  0.
        -12    1    1    2    0    0  0.30460719891E+00  0.14224302067E+02  0.12176540343E+02  0.18726763991E+02  0.00000000000E+00 0.  1.
         11    1    3    3    0    0 -0.36105653732E+00 -0.31465143436E+02  0.39545274945E-01  0.31467239748E+02  0.51100000000E-03 0. -1.
        -11    1    3    3    0    0 -0.43518117363E+01  0.86211437484E+01  0.11712861998E+02  0.15180695681E+02  0.51100000000E-03 0.  1.
        -12    1    3    3    0    0  0.44082610747E+01  0.86196976204E+01 -0.23928947617E+02  0.25813300580E+02  0.00000000000E+00 0.  1.
</event>
<event>
 7    1  0.1920603E-013  0.7246166E+02  0.7816164E-02  0.1226708E+00
        -11   -1    0    0    0    0  0.00000000000E+00  0.00000000000E+00  0.45593999997E+02  0.45594000000E+02  0.51100000000E-03 0. -1.
         11   -1    0    0    0    0 -0.00000000000E+00 -0.00000000000E+00 -0.45593999997E+02  0.45594000000E+02  0.51100000000E-03 0.  1.
    9900012    2    1    2    0    0 -0.90832290963E+01  0.38066656635E+01  0.15927333611E+02  0.72461662658E+02  0.70000120321E+02 0.  0.
        -12    1    1    2    0    0  0.90832290963E+01 -0.38066656635E+01 -0.15927333611E+02  0.18726337342E+02  0.00000000000E+00 0.  1.
         11    1    3    3    0    0 -0.35985157632E+01 -0.29359914759E+02  0.12455366769E+02  0.32095016310E+02  0.51100000000E-03 0. -1.
        -11    1    3    3    0    0  0.59715639400E+01  0.19114322481E+02 -0.45579675486E+01  0.20537574546E+02  0.51100000000E-03 0.  1.
         12    1    3    3    0    0 -0.11456277273E+02  0.14052257942E+02  0.80299343907E+01  0.19829071802E+02  0.00000000000E+00 0. -1.
</event>
<event>
 7    1  0.1920603E-013  0.7246154E+02  0.7816164E-02  0.1226708E+00
        -11   -1    0    0    0    0  0.00000000000E+00  0.00000000000E+00  0.45593999997E+02  0.45594000000E+02  0.51100000000E-03 0. -1.
         11   -1    0    0    0    0 -0.00000000000E+00 -0.00000000000E+00 -0.45593999997E+02  0.45594000000E+02  0.51100000000E-03 0.  1.
    9900012    2    1    2    0    0 -0.16699689763E+01 -0.62169606484E+01  0.17585248106E+02  0.72461538854E+02  0.69999959043E+02 0.  0.
        -12    1    1    2    0    0  0.16699689763E+01  0.62169606484E+01 -0.17585248106E+02  0.18726461146E+02  0.00000000000E+00 0.  1.
         11    1    3    3    0    0 -0.14011317326E+02  0.11889247766E+02  0.12829416753E+02  0.22411273059E+02  0.51100000000E-03 0.  1.
        -11    1    3    3    0    0 -0.12007216736E+01 -0.22029285851E+02 -0.14340551180E+02  0.26313163551E+02  0.51100000000E-03 0. -1.
        -12    1    3    3    0    0  0.13542070023E+02  0.39230774361E+01  0.19096382534E+02  0.23737102245E+02  0.00000000000E+00 0.  1.
</event>
<event>
 7    1  0.1920603E-013  0.7246126E+02  0.7816164E-02  0.1226709E+00
        -11   -1    0    0    0    0  0.00000000000E+00  0.00000000000E+00  0.45593999997E+02  0.45594000000E+02  0.51100000000E-03 0.  1.
         11   -1    0    0    0    0 -0.00000000000E+00 -0.00000000000E+00 -0.45593999997E+02  0.45594000000E+02  0.51100000000E-03 0. -1.
    9900012    2    1    2    0    0  0.15452003953E+02  0.87840609007E+01 -0.58963296717E+01  0.72461258274E+02  0.69999593535E+02 0.  0.
        -12    1    1    2    0    0 -0.15452003953E+02 -0.87840609007E+01  0.58963296717E+01  0.18726741726E+02  0.00000000000E+00 0.  1.
         11    1    3    3    0    0 -0.56619861275E+01  0.18139458859E+02  0.95260656187E+00  0.19026442498E+02  0.51100000000E-03 0. -1.
        -11    1    3    3    0    0  0.32740702321E+02 -0.90462503832E+01 -0.17011889775E+02  0.37989375205E+02  0.51100000000E-03 0.  1.
        -12    1    3    3    0    0 -0.11626712241E+02 -0.30914757549E+00  0.10162953541E+02  0.15445440571E+02  0.00000000000E+00 0.  1.
</event>
<event>
 7    1  0.1920603E-013  0.7246157E+02  0.7816164E-02  0.1226708E+00
        -11   -1    0    0    0    0  0.00000000000E+00  0.00000000000E+00  0.45593999997E+02  0.45594000000E+02  0.51100000000E-03 0.  1.
         11   -1    0    0    0    0 -0.00000000000E+00 -0.00000000000E+00 -0.45593999997E+02  0.45594000000E+02  0.51100000000E-03 0. -1.
    9900012    2    1    2    0    0 -0.18482852526E+02 -0.39263810219E-01 -0.30103042754E+01  0.72461566517E+02  0.69999995080E+02 0.  0.
        -12    1    1    2    0    0  0.18482852526E+02  0.39263810219E-01  0.30103042754E+01  0.18726433483E+02  0.00000000000E+00 0.  1.
         11    1    3    3    0    0 -0.15457208509E+02 -0.86523680406E+01 -0.20773045766E+01  0.17835469216E+02  0.51100000000E-03 0. -1.
        -11    1    3    3    0    0  0.23892538910E+02 -0.24218069247E+01 -0.67766246003E+01  0.24952779517E+02  0.51100000000E-03 0.  1.
        -12    1    3    3    0    0 -0.26918182928E+02  0.11034911155E+02  0.58436249014E+01  0.29673317785E+02  0.00000000000E+00 0.  1.
</event>
<event>
 7    1  0.1920603E-013  0.7246163E+02  0.7816164E-02  0.1226708E+00
        -11   -1    0    0    0    0  0.00000000000E+00  0.00000000000E+00  0.45593999997E+02  0.45594000000E+02  0.51100000000E-03 0.  1.
         11   -1    0    0    0    0 -0.00000000000E+00 -0.00000000000E+00 -0.45593999997E+02  0.45594000000E+02  0.51100000000E-03 0. -1.
    9900012    2    1    2    0    0  0.27178629960E+01  0.16658311331E+02  0.81111462199E+01  0.72461633330E+02  0.70000082116E+02 0.  0.
        -12    1    1    2    0    0 -0.27178629960E+01 -0.16658311331E+02 -0.81111462199E+01  0.18726366670E+02  0.00000000000E+00 0.  1.
         11    1    3    3    0    0  0.19585828361E+02  0.27395998212E+02 -0.60777134450E+01  0.34221104476E+02  0.51100000000E-03 0. -1.
        -11    1    3    3    0    0  0.51776507401E+01 -0.95144944441E+01 -0.17988868841E+01  0.10980421941E+02  0.51100000000E-03 0.  1.
         12    1    3    3    0    0 -0.22045616105E+02 -0.12231924368E+01  0.15987746549E+02  0.27260106913E+02  0.00000000000E+00 0. -1.
</event>
<event>
 7    1  0.1920603E-013  0.7246158E+02  0.7816164E-02  0.1226708E+00
        -11   -1    0    0    0    0  0.00000000000E+00  0.00000000000E+00  0.45593999997E+02  0.45594000000E+02  0.51100000000E-03 0.  1.
         11   -1    0    0    0    0 -0.00000000000E+00 -0.00000000000E+00 -0.45593999997E+02  0.45594000000E+02  0.51100000000E-03 0. -1.
    9900012    2    1    2    0    0  0.14217728451E+02 -0.38858280809E+01 -0.11551426615E+02  0.72461576982E+02  0.70000008713E+02 0.  0.
        -12    1    1    2    0    0 -0.14217728451E+02  0.38858280809E+01  0.11551426615E+02  0.18726423018E+02  0.00000000000E+00 0.  1.
         11    1    3    3    0    0  0.70446991244E+01 -0.28406958696E+02 -0.13445237982E+02  0.32208034910E+02  0.51100000000E-03 0. -1.
        -11    1    3    3    0    0  0.55908224661E+01  0.13274139226E+02  0.16401903650E+02  0.21828479371E+02  0.51100000000E-03 0.  1.
         12    1    3    3    0    0  0.15822068609E+01  0.11246991390E+02 -0.14508092283E+02  0.18425062702E+02  0.00000000000E+00 0. -1.
</event>
<event>
 7    1  0.1920603E-013  0.7246154E+02  0.7816164E-02  0.1226708E+00
        -11   -1    0    0    0    0  0.00000000000E+00  0.00000000000E+00  0.45593999997E+02  0.45594000000E+02  0.51100000000E-03 0. -1.
         11   -1    0    0    0    0 -0.00000000000E+00 -0.00000000000E+00 -0.45593999997E+02  0.45594000000E+02  0.51100000000E-03 0.  1.
    9900012    2    1    2    0    0  0.14531793516E+02 -0.97197427067E+01  0.67107173740E+01  0.72461544149E+02  0.69999965941E+02 0.  0.
        -12    1    1    2    0    0 -0.14531793516E+02  0.97197427067E+01 -0.67107173740E+01  0.18726455851E+02  0.00000000000E+00 0.  1.
         11    1    3    3    0    0  0.90287026500E+01  0.74696048095E+01  0.19217904693E+02  0.22508672298E+02  0.51100000000E-03 0. -1.
        -11    1    3    3    0    0 -0.95204547998E+01 -0.26363343628E+02 -0.15602606959E+02  0.32079686579E+02  0.51100000000E-03 0.  1.
        -12    1    3    3    0    0  0.15023545666E+02  0.91739961113E+01  0.30954196401E+01  0.17873185272E+02  0.00000000000E+00 0.  1.
</event>
<event>
 7    1  0.1920603E-013  0.7246151E+02  0.7816164E-02  0.1226708E+00
        -11   -1    0    0    0    0  0.00000000000E+00  0.00000000000E+00  0.45593999997E+02  0.45594000000E+02  0.51100000000E-03 0. -1.
         11   -1    0    0    0    0 -0.00000000000E+00 -0.00000000000E+00 -0.45593999997E+02  0.45594000000E+02  0.51100000000E-03 0.  1.
    9900012    2    1    2    0    0 -0.32610804663E+01 -0.29580992270E+01  0.18201545244E+02  0.72461514849E+02  0.69999927772E+02 0.  0.
        -12    1    1    2    0    0  0.32610804663E+01  0.29580992270E+01 -0.18201545244E+02  0.18726485151E+02  0.00000000000E+00 0.  1.
         11    1    3    3    0    0 -0.14434290189E+02 -0.23354210483E+02  0.23569705581E+02  0.36184235545E+02  0.51100000000E-03 0. -1.
        -11    1    3    3    0    0 -0.66289635535E+01  0.15867388217E+02 -0.49838721417E+01  0.17904081892E+02  0.51100000000E-03 0.  1.
         12    1    3    3    0    0  0.17802173276E+02  0.45287230393E+01 -0.38428819488E+00  0.18373197412E+02  0.00000000000E+00 0. -1.
</event>
<event>
 7    1  0.1920603E-013  0.7246150E+02  0.7816164E-02  0.1226708E+00
        -11   -1    0    0    0    0  0.00000000000E+00  0.00000000000E+00  0.45593999997E+02  0.45594000000E+02  0.51100000000E-03 0.  1.
         11   -1    0    0    0    0 -0.00000000000E+00 -0.00000000000E+00 -0.45593999997E+02  0.45594000000E+02  0.51100000000E-03 0. -1.
    9900012    2    1    2    0    0 -0.15294334653E+02  0.10189218043E+02 -0.35978877436E+01  0.72461504518E+02  0.69999914315E+02 0.  0.
        -12    1    1    2    0    0  0.15294334653E+02 -0.10189218043E+02  0.35978877436E+01  0.18726495482E+02  0.00000000000E+00 0.  1.
         11    1    3    3    0    0 -0.16419933011E+02  0.32437499662E+02  0.29863398366E+01  0.36479087301E+02  0.51100000000E-03 0. -1.
        -11    1    3    3    0    0  0.37148134425E+01 -0.23452308827E+02  0.48175757571E+01  0.24228488699E+02  0.51100000000E-03 0.  1.
        -12    1    3    3    0    0 -0.25892150839E+01  0.12040272077E+01 -0.11401803337E+02  0.11753928518E+02  0.00000000000E+00 0.  1.
</event>
<event>
 7    1  0.1920603E-013  0.7246160E+02  0.7816164E-02  0.1226708E+00
        -11   -1    0    0    0    0  0.00000000000E+00  0.00000000000E+00  0.45593999997E+02  0.45594000000E+02  0.51100000000E-03 0.  1.
         11   -1    0    0    0    0 -0.00000000000E+00 -0.00000000000E+00 -0.45593999997E+02  0.45594000000E+02  0.51100000000E-03 0. -1.
    9900012    2    1    2    0    0 -0.18642784423E+02 -0.13587324615E+01  0.11307476022E+01  0.72461597381E+02  0.70000035285E+02 0.  0.
        -12    1    1    2    0    0  0.18642784423E+02  0.13587324615E+01 -0.11307476022E+01  0.18726402619E+02  0.00000000000E+00 0.  1.
         11    1    3    3    0    0  0.15794909011E+01  0.36415916406E+01 -0.21619525895E+02  0.21980898102E+02  0.51100000000E-03 0. -1.
        -11    1    3    3    0    0 -0.23734226014E+02 -0.17404256421E+02  0.72336877959E+01  0.30307554594E+02  0.51100000000E-03 0.  1.
        -12    1    3    3    0    0  0.35119506907E+01  0.12403932319E+02  0.15516585702E+02  0.20173144684E+02  0.00000000000E+00 0.  1.
</event>
<event>
 7    1  0.1920603E-013  0.7246159E+02  0.7816164E-02  0.1226708E+00
        -11   -1    0    0    0    0  0.00000000000E+00  0.00000000000E+00  0.45593999997E+02  0.45594000000E+02  0.51100000000E-03 0.  1.
         11   -1    0    0    0    0 -0.00000000000E+00 -0.00000000000E+00 -0.45593999997E+02  0.45594000000E+02  0.51100000000E-03 0. -1.
    9900012    2    1    2    0    0 -0.16744776419E+02  0.74845505604E+01 -0.37778885608E+01  0.72461588801E+02  0.70000024109E+02 0.  0.
        -12    1    1    2    0    0  0.16744776419E+02 -0.74845505604E+01  0.37778885608E+01  0.18726411199E+02  0.00000000000E+00 0.  1.
         11    1    3    3    0    0 -0.17406662145E+02  0.26011147941E+02 -0.95580762332E+01  0.32725044320E+02  0.51100000000E-03 0. -1.
        -11    1    3    3    0    0  0.46678066140E+01 -0.12986940433E+00  0.17128162954E+02  0.17753288458E+02  0.51100000000E-03 0.  1.
         12    1    3    3    0    0 -0.40059208878E+01 -0.18396727976E+02 -0.11347975281E+02  0.21983256023E+02  0.00000000000E+00 0. -1.
</event>
<event>
 7    1  0.1920603E-013  0.7246157E+02  0.7816164E-02  0.1226708E+00
        -11   -1    0    0    0    0  0.00000000000E+00  0.00000000000E+00  0.45593999997E+02  0.45594000000E+02  0.51100000000E-03 0.  1.
         11   -1    0    0    0    0 -0.00000000000E+00 -0.00000000000E+00 -0.45593999997E+02  0.45594000000E+02  0.51100000000E-03 0. -1.
    9900012    2    1    2    0    0  0.16799905346E+02  0.80112449996E+01 -0.20644938737E+01  0.72461574793E+02  0.70000005861E+02 0.  0.
        -12    1    1    2    0    0 -0.16799905346E+02 -0.80112449996E+01  0.20644938737E+01  0.18726425207E+02  0.00000000000E+00 0.  1.
         11    1    3    3    0    0  0.12425892007E+02 -0.61341818878E+01  0.62946929467E+01  0.15220188539E+02  0.51100000000E-03 0. -1.
        -11    1    3    3    0    0 -0.19429890885E+02  0.23753573096E+02 -0.17683172224E+01  0.30738897844E+02  0.51100000000E-03 0.  1.
        -12    1    3    3    0    0  0.23803904224E+02 -0.96081462084E+01 -0.65908695980E+01  0.26502488410E+02  0.00000000000E+00 0.  1.
</event>
<event>
 7    1  0.1920603E-013  0.7246153E+02  0.7816164E-02  0.1226708E+00
        -11   -1    0    0    0    0  0.00000000000E+00  0.00000000000E+00  0.45593999997E+02  0.45594000000E+02  0.51100000000E-03 0.  1.
         11   -1    0    0    0    0 -0.00000000000E+00 -0.00000000000E+00 -0.45593999997E+02  0.45594000000E+02  0.51100000000E-03 0. -1.
    9900012    2    1    2    0    0  0.17863380541E+02  0.27963826513E+01 -0.48744888241E+01  0.72461527786E+02  0.69999944625E+02 0.  0.
        -12    1    1    2    0    0 -0.17863380541E+02 -0.27963826513E+01  0.48744888241E+01  0.18726472214E+02  0.00000000000E+00 0.  1.
         11    1    3    3    0    0  0.16107813538E+02  0.12597854469E+02 -0.79146096407E+00  0.20464457113E+02  0.51100000000E-03 0. -1.
        -11    1    3    3    0    0 -0.19489429502E+02  0.52272562681E+01 -0.13549572993E+02  0.24305410898E+02  0.51100000000E-03 0.  1.
        -12    1    3    3    0    0  0.21244996504E+02 -0.15028728086E+02  0.94665451328E+01  0.27691659775E+02  0.00000000000E+00 0.  1.
</event>
<event>
 7    1  0.1920603E-013  0.7246162E+02  0.7816164E-02  0.1226708E+00
        -11   -1    0    0    0    0  0.00000000000E+00  0.00000000000E+00  0.45593999997E+02  0.45594000000E+02  0.51100000000E-03 0. -1.
         11   -1    0    0    0    0 -0.00000000000E+00 -0.00000000000E+00 -0.45593999997E+02  0.45594000000E+02  0.51100000000E-03 0.  1.
    9900012    2    1    2    0    0  0.10039154973E+02 -0.14926009486E+02  0.52064424648E+01  0.72461616609E+02  0.70000060334E+02 0.  0.
        -12    1    1    2    0    0 -0.10039154973E+02  0.14926009486E+02 -0.52064424648E+01  0.18726383391E+02  0.00000000000E+00 0.  1.
         11    1    3    3    0    0  0.14275923645E+02 -0.17088041698E+02  0.22111003049E+02  0.31379923854E+02  0.51100000000E-03 0. -1.
        -11    1    3    3    0    0  0.36459948247E+01  0.18697149624E+02 -0.73159855373E+01  0.20405889516E+02  0.51100000000E-03 0.  1.
        -12    1    3    3    0    0 -0.78827634962E+01 -0.16535117412E+02 -0.95885750466E+01  0.20675803239E+02  0.00000000000E+00 0.  1.
</event>
<event>
 7    1  0.1920603E-013  0.7246166E+02  0.7816164E-02  0.1226708E+00
        -11   -1    0    0    0    0  0.00000000000E+00  0.00000000000E+00  0.45593999997E+02  0.45594000000E+02  0.51100000000E-03 0. -1.
         11   -1    0    0    0    0 -0.00000000000E+00 -0.00000000000E+00 -0.45593999997E+02  0.45594000000E+02  0.51100000000E-03 0.  1.
    9900012    2    1    2    0    0 -0.40067869108E+01 -0.94502901584E+01  0.15662491613E+02  0.72461655750E+02  0.70000111322E+02 0.  0.
        -12    1    1    2    0    0  0.40067869108E+01  0.94502901584E+01 -0.15662491613E+02  0.18726344250E+02  0.00000000000E+00 0.  1.
         11    1    3    3    0    0 -0.19068630589E+02 -0.24037554474E+01 -0.93436649725E+01  0.21370418530E+02  0.51100000000E-03 0.  1.
        -11    1    3    3    0    0  0.17068194362E+02 -0.70833387924E+01  0.35706096423E+02  0.40204754311E+02  0.51100000000E-03 0. -1.
         12    1    3    3    0    0 -0.20063506839E+01  0.36804081318E-01 -0.10699939837E+02  0.10886482909E+02  0.00000000000E+00 0. -1.
</event>
<event>
 7    1  0.1920603E-013  0.7246155E+02  0.7816164E-02  0.1226708E+00
        -11   -1    0    0    0    0  0.00000000000E+00  0.00000000000E+00  0.45593999997E+02  0.45594000000E+02  0.51100000000E-03 0.  1.
         11   -1    0    0    0    0 -0.00000000000E+00 -0.00000000000E+00 -0.45593999997E+02  0.45594000000E+02  0.51100000000E-03 0. -1.
    9900012    2    1    2    0    0 -0.53453445785E+00  0.17026144083E+02 -0.77784683171E+01  0.72461551357E+02  0.69999975330E+02 0.  0.
        -12    1    1    2    0    0  0.53453445785E+00 -0.17026144083E+02  0.77784683171E+01  0.18726448643E+02  0.00000000000E+00 0.  1.
         11    1    3    3    0    0  0.22906476709E+02  0.23793650160E+02 -0.96773707000E+01  0.34416507189E+02  0.51100000000E-03 0. -1.
        -11    1    3    3    0    0 -0.25566020140E+01 -0.11603978250E+02  0.95905437356E+01  0.15269808594E+02  0.51100000000E-03 0.  1.
         12    1    3    3    0    0 -0.20884409153E+02  0.48364721736E+01 -0.76916413527E+01  0.22775235574E+02  0.00000000000E+00 0. -1.
</event>
<event>
 7    1  0.1920603E-013  0.7246152E+02  0.7816164E-02  0.1226708E+00
        -11   -1    0    0    0    0  0.00000000000E+00  0.00000000000E+00  0.45593999997E+02  0.45594000000E+02  0.51100000000E-03 0. -1.
         11   -1    0    0    0    0 -0.00000000000E+00 -0.00000000000E+00 -0.45593999997E+02  0.45594000000E+02  0.51100000000E-03 0.  1.
    9900012    2    1    2    0    0 -0.13167625661E+02 -0.12597958275E+01  0.13255474136E+02  0.72461520201E+02  0.69999934745E+02 0.  0.
        -12    1    1    2    0    0  0.13167625661E+02  0.12597958275E+01 -0.13255474136E+02  0.18726479799E+02  0.00000000000E+00 0.  1.
         11    1    3    3    0    0  0.33684559750E+00 -0.40686837427E+01  0.17830716498E+02  0.18292132283E+02  0.51100000000E-03 0. -1.
        -11    1    3    3    0    0 -0.29031417052E+02 -0.11243692515E+02 -0.97015067658E+01  0.32609247633E+02  0.51100000000E-03 0.  1.
        -12    1    3    3    0    0  0.15526945793E+02  0.14052580430E+02  0.51262644037E+01  0.21560140286E+02  0.00000000000E+00 0.  1.
</event>
<event>
 7    1  0.1920603E-013  0.7246157E+02  0.7816164E-02  0.1226708E+00
        -11   -1    0    0    0    0  0.00000000000E+00  0.00000000000E+00  0.45593999997E+02  0.45594000000E+02  0.51100000000E-03 0. -1.
         11   -1    0    0    0    0 -0.00000000000E+00 -0.00000000000E+00 -0.45593999997E+02  0.45594000000E+02  0.51100000000E-03 0.  1.
    9900012    2    1    2    0    0  0.37889903421E+01  0.17699514938E+02  0.48010464718E+01  0.72461566168E+02  0.69999994624E+02 0.  0.
        -12    1    1    2    0    0 -0.37889903421E+01 -0.17699514938E+02 -0.48010464718E+01  0.18726433832E+02  0.00000000000E+00 0.  1.
         11    1    3    3    0    0  0.73698557337E+01 -0.16053840961E+02 -0.13209845929E+02  0.22057665626E+02  0.51100000000E-03 0. -1.
        -11    1    3    3    0    0 -0.17493428760E+02  0.13894051709E+02  0.12263033260E+02  0.25484244302E+02  0.51100000000E-03 0.  1.
         12    1    3    3    0    0  0.13912563368E+02  0.19859304190E+02  0.57478591412E+01  0.24919656239E+02  0.00000000000E+00 0. -1.
</event>
<event>
 7    1  0.1920603E-013  0.7246151E+02  0.7816164E-02  0.1226708E+00
        -11   -1    0    0    0    0  0.00000000000E+00  0.00000000000E+00  0.45593999997E+02  0.45594000000E+02  0.51100000000E-03 0. -1.
         11   -1    0    0    0    0 -0.00000000000E+00 -0.00000000000E+00 -0.45593999997E+02  0.45594000000E+02  0.51100000000E-03 0.  1.
    9900012    2    1    2    0    0  0.21970632599E+01  0.16753986488E+02 -0.80720668819E+01  0.72461510367E+02  0.69999921934E+02 0.  0.
        -12    1    1    2    0    0 -0.21970632599E+01 -0.16753986488E+02  0.80720668819E+01  0.18726489633E+02  0.00000000000E+00 0.  1.
         11    1    3    3    0    0  0.17794660312E+02  0.68164819852E+01 -0.68630690615E+01  0.20253791731E+02  0.51100000000E-03 0.  1.
        -11    1    3    3    0    0 -0.18062659388E+02  0.15108651730E+02 -0.21032129722E+02  0.31573430320E+02  0.51100000000E-03 0. -1.
        -12    1    3    3    0    0  0.24650623358E+01 -0.51711472267E+01  0.19823131901E+02  0.20634288317E+02  0.00000000000E+00 0.  1.
</event>
<event>
 7    1  0.1920603E-013  0.7246152E+02  0.7816164E-02  0.1226708E+00
        -11   -1    0    0    0    0  0.00000000000E+00  0.00000000000E+00  0.45593999997E+02  0.45594000000E+02  0.51100000000E-03 0.  1.
         11   -1    0    0    0    0 -0.00000000000E+00 -0.00000000000E+00 -0.45593999997E+02  0.45594000000E+02  0.51100000000E-03 0. -1.
    9900012    2    1    2    0    0  0.15279084785E+02 -0.99328274226E+01 -0.43092629515E+01  0.72461515022E+02  0.69999927997E+02 0.  0.
        -12    1    1    2    0    0 -0.15279084785E+02  0.99328274226E+01  0.43092629515E+01  0.18726484978E+02  0.00000000000E+00 0.  1.
         11    1    3    3    0    0  0.82786799823E+00  0.24777836906E+01 -0.99152899319E+01  0.10253670179E+02  0.51100000000E-03 0. -1.
        -11    1    3    3    0    0  0.49984104180E+01 -0.35995401254E+02  0.80551217896E+00  0.36349716206E+02  0.51100000000E-03 0.  1.
        -12    1    3    3    0    0  0.94528063683E+01  0.23584790141E+02  0.48005148014E+01  0.25858128637E+02  0.00000000000E+00 0.  1.
</event>
<event>
 7    1  0.1920603E-013  0.7246151E+02  0.7816164E-02  0.1226708E+00
        -11   -1    0    0    0    0  0.00000000000E+00  0.00000000000E+00  0.45593999997E+02  0.45594000000E+02  0.51100000000E-03 0.  1.
         11   -1    0    0    0    0 -0.00000000000E+00 -0.00000000000E+00 -0.45593999997E+02  0.45594000000E+02  0.51100000000E-03 0. -1.
    9900012    2    1    2    0    0 -0.11458486204E+02 -0.13675461788E+02 -0.56891242056E+01  0.72461513533E+02  0.69999926057E+02 0.  0.
        -12    1    1    2    0    0  0.11458486204E+02  0.13675461788E+02  0.56891242056E+01  0.18726486467E+02  0.00000000000E+00 0.  1.
         11    1    3    3    0    0 -0.65971924114E+01  0.17907404392E+01 -0.24799541263E+02  0.25724442582E+02  0.51100000000E-03 0. -1.
        -11    1    3    3    0    0  0.14568877312E+02 -0.12790961204E+01  0.17237729137E+02  0.22605919116E+02  0.51100000000E-03 0.  1.
         12    1    3    3    0    0 -0.19430171105E+02 -0.14187106106E+02  0.18726879203E+01  0.24131151835E+02  0.00000000000E+00 0. -1.
</event>
<event>
 7    1  0.1920603E-013  0.7246162E+02  0.7816164E-02  0.1226708E+00
        -11   -1    0    0    0    0  0.00000000000E+00  0.00000000000E+00  0.45593999997E+02  0.45594000000E+02  0.51100000000E-03 0. -1.
         11   -1    0    0    0    0 -0.00000000000E+00 -0.00000000000E+00 -0.45593999997E+02  0.45594000000E+02  0.51100000000E-03 0.  1.
    9900012    2    1    2    0    0  0.69211729760E+01 -0.16790514009E+02  0.45665404464E+01  0.72461620540E+02  0.70000065454E+02 0.  0.
        -12    1    1    2    0    0 -0.69211729760E+01  0.16790514009E+02 -0.45665404464E+01  0.18726379460E+02  0.00000000000E+00 0.  1.
         11    1    3    3    0    0 -0.13031934877E+02 -0.48284290905E-01  0.75133532962E+01  0.15042743634E+02  0.51100000000E-03 0. -1.
        -11    1    3    3    0    0  0.11761381672E+02 -0.31760296876E+02  0.10718785189E+02  0.35523779538E+02  0.51100000000E-03 0.  1.
        -12    1    3    3    0    0  0.81917261808E+01  0.15018067158E+02 -0.13665598039E+02  0.21895097368E+02  0.00000000000E+00 0.  1.
</event>
<event>
 7    1  0.1920603E-013  0.7246156E+02  0.7816164E-02  0.1226708E+00
        -11   -1    0    0    0    0  0.00000000000E+00  0.00000000000E+00  0.45593999997E+02  0.45594000000E+02  0.51100000000E-03 0.  1.
         11   -1    0    0    0    0 -0.00000000000E+00 -0.00000000000E+00 -0.45593999997E+02  0.45594000000E+02  0.51100000000E-03 0. -1.
    9900012    2    1    2    0    0 -0.78134724503E+01 -0.12041858855E+02 -0.12025924452E+02  0.72461559459E+02  0.69999985885E+02 0.  0.
        -12    1    1    2    0    0  0.78134724503E+01  0.12041858855E+02  0.12025924452E+02  0.18726440541E+02  0.00000000000E+00 0.  1.
         11    1    3    3    0    0 -0.16304198880E+02  0.37145026415E+01 -0.17580763341E+02  0.24263298846E+02  0.51100000000E-03 0. -1.
        -11    1    3    3    0    0  0.17089448045E+02 -0.27890303038E+02  0.13241522886E+01  0.32736395917E+02  0.51100000000E-03 0.  1.
        -12    1    3    3    0    0 -0.85987216155E+01  0.12133941542E+02  0.42306866005E+01  0.15461864696E+02  0.00000000000E+00 0.  1.
</event>
<event>
 7    1  0.1920603E-013  0.7246155E+02  0.7816164E-02  0.1226708E+00
        -11   -1    0    0    0    0  0.00000000000E+00  0.00000000000E+00  0.45593999997E+02  0.45594000000E+02  0.51100000000E-03 0.  1.
         11   -1    0    0    0    0 -0.00000000000E+00 -0.00000000000E+00 -0.45593999997E+02  0.45594000000E+02  0.51100000000E-03 0. -1.
    9900012    2    1    2    0    0 -0.85237050775E+01 -0.15750375827E+02 -0.54728314750E+01  0.72461554227E+02  0.69999979069E+02 0.  0.
        -12    1    1    2    0    0  0.85237050775E+01  0.15750375827E+02  0.54728314750E+01  0.18726445773E+02  0.00000000000E+00 0.  1.
         11    1    3    3    0    0 -0.26187537707E+01  0.37223301781E+00 -0.21548689124E+02  0.21710422196E+02  0.51100000000E-03 0. -1.
        -11    1    3    3    0    0 -0.67998536637E+01 -0.30612332075E+02  0.35164661159E+01  0.31555006245E+02  0.51100000000E-03 0.  1.
         12    1    3    3    0    0  0.89490235691E+00  0.14489723230E+02  0.12559391533E+02  0.19196125786E+02  0.00000000000E+00 0. -1.
</event>
<event>
 7    1  0.1920603E-013  0.7246161E+02  0.7816164E-02  0.1226708E+00
        -11   -1    0    0    0    0  0.00000000000E+00  0.00000000000E+00  0.45593999997E+02  0.45594000000E+02  0.51100000000E-03 0.  1.
         11   -1    0    0    0    0 -0.00000000000E+00 -0.00000000000E+00 -0.45593999997E+02  0.45594000000E+02  0.51100000000E-03 0. -1.
    9900012    2    1    2    0    0 -0.41517733587E+01  0.68181311288E+01 -0.16939705224E+02  0.72461608271E+02  0.70000049472E+02 0.  0.
        -12    1    1    2    0    0  0.41517733587E+01 -0.68181311288E+01  0.16939705224E+02  0.18726391729E+02  0.00000000000E+00 0.  1.
         11    1    3    3    0    0  0.27227531115E+02  0.84658371692E+01 -0.19971233281E+02  0.34811765376E+02  0.51100000000E-03 0.  1.
        -11    1    3    3    0    0 -0.33383557641E+02  0.12196910626E+01  0.63973255330E+00  0.33411956319E+02  0.51100000000E-03 0. -1.
        -12    1    3    3    0    0  0.20042531669E+01 -0.28673971029E+01  0.23917955036E+01  0.42378865763E+01  0.00000000000E+00 0.  1.
</event>
<event>
 7    1  0.1920603E-013  0.7246160E+02  0.7816164E-02  0.1226708E+00
        -11   -1    0    0    0    0  0.00000000000E+00  0.00000000000E+00  0.45593999997E+02  0.45594000000E+02  0.51100000000E-03 0. -1.
         11   -1    0    0    0    0 -0.00000000000E+00 -0.00000000000E+00 -0.45593999997E+02  0.45594000000E+02  0.51100000000E-03 0.  1.
    9900012    2    1    2    0    0  0.66962346030E+00  0.12818381700E+02  0.13635206716E+02  0.72461597057E+02  0.70000034864E+02 0.  0.
        -12    1    1    2    0    0 -0.66962346030E+00 -0.12818381700E+02 -0.13635206716E+02  0.18726402943E+02  0.00000000000E+00 0.  1.
         11    1    3    3    0    0  0.12572242466E+02  0.81575824466E+01  0.25738143585E+02  0.29783543568E+02  0.51100000000E-03 0. -1.
        -11    1    3    3    0    0 -0.24665377643E+02 -0.35591698653E+01 -0.33237420759E+01  0.25141515588E+02  0.51100000000E-03 0.  1.
         12    1    3    3    0    0  0.12762758637E+02  0.82199691188E+01 -0.87791947932E+01  0.17536537901E+02  0.00000000000E+00 0. -1.
</event>
<event>
 7    1  0.1920603E-013  0.7246154E+02  0.7816164E-02  0.1226708E+00
        -11   -1    0    0    0    0  0.00000000000E+00  0.00000000000E+00  0.45593999997E+02  0.45594000000E+02  0.51100000000E-03 0.  1.
         11   -1    0    0    0    0 -0.00000000000E+00 -0.00000000000E+00 -0.45593999997E+02  0.45594000000E+02  0.51100000000E-03 0. -1.
    9900012    2    1    2    0    0  0.39910901035E+01 -0.18216247109E+02  0.17088028859E+01  0.72461535671E+02  0.69999954897E+02 0.  0.
        -12    1    1    2    0    0 -0.39910901035E+01  0.18216247109E+02 -0.17088028859E+01  0.18726464329E+02  0.00000000000E+00 0.  1.
         11    1    3    3    0    0 -0.81688899236E+01 -0.31791425965E+02 -0.12352741148E+02  0.35071580256E+02  0.51100000000E-03 0. -1.
        -11    1    3    3    0    0  0.99891028174E+01  0.10510866754E+02 -0.69256782941E+01  0.16069396849E+02  0.51100000000E-03 0.  1.
         12    1    3    3    0    0  0.21708772096E+01  0.30643121028E+01  0.20987222328E+02  0.21320558566E+02  0.00000000000E+00 0. -1.
</event>
<event>
 7    1  0.1920603E-013  0.7246121E+02  0.7816164E-02  0.1226709E+00
        -11   -1    0    0    0    0  0.00000000000E+00  0.00000000000E+00  0.45593999997E+02  0.45594000000E+02  0.51100000000E-03 0.  1.
         11   -1    0    0    0    0 -0.00000000000E+00 -0.00000000000E+00 -0.45593999997E+02  0.45594000000E+02  0.51100000000E-03 0. -1.
    9900012    2    1    2    0    0 -0.66167692544E+01  0.12611908998E+02 -0.12159386289E+02  0.72461212799E+02  0.69999534295E+02 0.  0.
        -12    1    1    2    0    0  0.66167692544E+01 -0.12611908998E+02  0.12159386289E+02  0.18726787201E+02  0.00000000000E+00 0.  1.
         11    1    3    3    0    0  0.20775566607E+02  0.58795200033E+01  0.10311366808E+01  0.21616108957E+02  0.51100000000E-03 0. -1.
        -11    1    3    3    0    0 -0.11639394467E+02 -0.16412222643E+02 -0.10564107076E+02  0.22725248386E+02  0.51100000000E-03 0.  1.
         12    1    3    3    0    0 -0.15752941395E+02  0.23144611637E+02 -0.26264158935E+01  0.28119855456E+02  0.00000000000E+00 0. -1.
</event>
<event>
 7    1  0.1920603E-013  0.7246159E+02  0.7816164E-02  0.1226708E+00
        -11   -1    0    0    0    0  0.00000000000E+00  0.00000000000E+00  0.45593999997E+02  0.45594000000E+02  0.51100000000E-03 0. -1.
         11   -1    0    0    0    0 -0.00000000000E+00 -0.00000000000E+00 -0.45593999997E+02  0.45594000000E+02  0.51100000000E-03 0.  1.
    9900012    2    1    2    0    0 -0.83676621164E+01  0.16121624293E+02  0.45556517546E+01  0.72461588116E+02  0.70000023216E+02 0.  0.
        -12    1    1    2    0    0  0.83676621164E+01 -0.16121624293E+02 -0.45556517546E+01  0.18726411884E+02  0.00000000000E+00 0.  1.
         11    1    3    3    0    0  0.19304215009E+02 -0.16524139013E+02  0.45646105159E+01  0.25817349916E+02  0.51100000000E-03 0. -1.
        -11    1    3    3    0    0 -0.22913532650E+02  0.13911436357E+02 -0.33972156458E+01  0.27020346305E+02  0.51100000000E-03 0.  1.
         12    1    3    3    0    0 -0.47583444758E+01  0.18734326950E+02  0.33882568845E+01  0.19623891895E+02  0.00000000000E+00 0. -1.
</event>
<event>
 7    1  0.1920603E-013  0.7246154E+02  0.7816164E-02  0.1226708E+00
        -11   -1    0    0    0    0  0.00000000000E+00  0.00000000000E+00  0.45593999997E+02  0.45594000000E+02  0.51100000000E-03 0.  1.
         11   -1    0    0    0    0 -0.00000000000E+00 -0.00000000000E+00 -0.45593999997E+02  0.45594000000E+02  0.51100000000E-03 0. -1.
    9900012    2    1    2    0    0 -0.36189816848E+01  0.11450198353E+02 -0.14369285393E+02  0.72461536547E+02  0.69999956038E+02 0.  0.
        -12    1    1    2    0    0  0.36189816848E+01 -0.11450198353E+02  0.14369285393E+02  0.18726463453E+02  0.00000000000E+00 0.  1.
         11    1    3    3    0    0 -0.53707214243E+01 -0.16105361204E+01 -0.94471238564E+01  0.10985746430E+02  0.51100000000E-03 0. -1.
        -11    1    3    3    0    0 -0.14479673498E+02  0.26614944633E+02  0.13743141368E+02  0.33269958782E+02  0.51100000000E-03 0.  1.
        -12    1    3    3    0    0  0.16231413238E+02 -0.13554210160E+02 -0.18665302904E+02  0.28205831335E+02  0.00000000000E+00 0.  1.
</event>
<event>
 7    1  0.1920603E-013  0.7246156E+02  0.7816164E-02  0.1226708E+00
        -11   -1    0    0    0    0  0.00000000000E+00  0.00000000000E+00  0.45593999997E+02  0.45594000000E+02  0.51100000000E-03 0.  1.
         11   -1    0    0    0    0 -0.00000000000E+00 -0.00000000000E+00 -0.45593999997E+02  0.45594000000E+02  0.51100000000E-03 0. -1.
    9900012    2    1    2    0    0 -0.25508808047E+01 -0.15164416093E+02 -0.10687047300E+02  0.72461561783E+02  0.69999988912E+02 0.  0.
        -12    1    1    2    0    0  0.25508808047E+01  0.15164416093E+02  0.10687047300E+02  0.18726438217E+02  0.00000000000E+00 0.  1.
         11    1    3    3    0    0 -0.19094615449E+02 -0.14270997478E+02 -0.29046389139E+02  0.37576035320E+02  0.51100000000E-03 0. -1.
        -11    1    3    3    0    0 -0.56622713272E+00  0.68468279241E+01  0.14017887664E+02  0.15610920556E+02  0.51100000000E-03 0.  1.
         12    1    3    3    0    0  0.17109961777E+02 -0.77402465391E+01  0.43414541751E+01  0.19274605906E+02  0.00000000000E+00 0. -1.
</event>
<event>
 7    1  0.1920603E-013  0.7246153E+02  0.7816164E-02  0.1226708E+00
        -11   -1    0    0    0    0  0.00000000000E+00  0.00000000000E+00  0.45593999997E+02  0.45594000000E+02  0.51100000000E-03 0.  1.
         11   -1    0    0    0    0 -0.00000000000E+00 -0.00000000000E+00 -0.45593999997E+02  0.45594000000E+02  0.51100000000E-03 0. -1.
    9900012    2    1    2    0    0  0.55032160925E+01 -0.15882873423E+02 -0.82540711500E+01  0.72461528200E+02  0.69999945165E+02 0.  0.
        -12    1    1    2    0    0 -0.55032160925E+01  0.15882873423E+02  0.82540711500E+01  0.18726471800E+02  0.00000000000E+00 0.  1.
         11    1    3    3    0    0  0.58323766726E+01  0.46873210803E+01  0.34022870647E+01  0.82196808997E+01  0.51100000000E-03 0. -1.
        -11    1    3    3    0    0 -0.22038653903E+02 -0.14849949752E+02  0.14092347768E+02  0.30080185161E+02  0.51100000000E-03 0.  1.
        -12    1    3    3    0    0  0.21709493323E+02 -0.57202447512E+01 -0.25748705983E+02  0.34161662139E+02  0.00000000000E+00 0.  1.
</event>
<event>
 7    1  0.1920603E-013  0.7246159E+02  0.7816164E-02  0.1226708E+00
        -11   -1    0    0    0    0  0.00000000000E+00  0.00000000000E+00  0.45593999997E+02  0.45594000000E+02  0.51100000000E-03 0. -1.
         11   -1    0    0    0    0 -0.00000000000E+00 -0.00000000000E+00 -0.45593999997E+02  0.45594000000E+02  0.51100000000E-03 0.  1.
    9900012    2    1    2    0    0  0.22838678029E+01 -0.13732807140E+02  0.12524867358E+02  0.72461592271E+02  0.70000028629E+02 0.  0.
        -12    1    1    2    0    0 -0.22838678029E+01  0.13732807140E+02 -0.12524867358E+02  0.18726407729E+02  0.00000000000E+00 0.  1.
         11    1    3    3    0    0 -0.13522572864E+02 -0.16948590591E+02 -0.16309966003E+02  0.27131710067E+02  0.51100000000E-03 0.  1.
        -11    1    3    3    0    0  0.12295333071E+02  0.12004416972E+02  0.31160289131E+02  0.35584334490E+02  0.51100000000E-03 0. -1.
        -12    1    3    3    0    0  0.35111075962E+01 -0.87886335205E+01 -0.23254557696E+01  0.97455477140E+01  0.00000000000E+00 0.  1.
</event>
<event>
 7    1  0.1920603E-013  0.7246158E+02  0.7816164E-02  0.1226708E+00
        -11   -1    0    0    0    0  0.00000000000E+00  0.00000000000E+00  0.45593999997E+02  0.45594000000E+02  0.51100000000E-03 0. -1.
         11   -1    0    0    0    0 -0.00000000000E+00 -0.00000000000E+00 -0.45593999997E+02  0.45594000000E+02  0.51100000000E-03 0.  1.
    9900012    2    1    2    0    0 -0.13506930649E+01  0.18273372836E+02  0.38650098781E+01  0.72461579415E+02  0.70000011882E+02 0.  0.
        -12    1    1    2    0    0  0.13506930649E+01 -0.18273372836E+02 -0.38650098781E+01  0.18726420585E+02  0.00000000000E+00 0.  1.
         11    1    3    3    0    0 -0.13279636861E+01  0.66650251265E+01  0.12332255040E+02  0.14080858004E+02  0.51100000000E-03 0. -1.
        -11    1    3    3    0    0 -0.23727666425E+02  0.10391412849E+02 -0.19286787679E+02  0.32294949981E+02  0.51100000000E-03 0.  1.
        -12    1    3    3    0    0  0.23704937047E+02  0.12169348604E+01  0.10819542517E+02  0.26085771430E+02  0.00000000000E+00 0.  1.
</event>
<event>
 7    1  0.1920603E-013  0.7246157E+02  0.7816164E-02  0.1226708E+00
        -11   -1    0    0    0    0  0.00000000000E+00  0.00000000000E+00  0.45593999997E+02  0.45594000000E+02  0.51100000000E-03 0.  1.
         11   -1    0    0    0    0 -0.00000000000E+00 -0.00000000000E+00 -0.45593999997E+02  0.45594000000E+02  0.51100000000E-03 0. -1.
    9900012    2    1    2    0    0  0.52180283043E+01  0.16873948361E+02 -0.62226466584E+01  0.72461567235E+02  0.69999996014E+02 0.  0.
        -12    1    1    2    0    0 -0.52180283043E+01 -0.16873948361E+02  0.62226466584E+01  0.18726432765E+02  0.00000000000E+00 0.  1.
         11    1    3    3    0    0 -0.90968886030E+01 -0.88620325959E+01 -0.21145457141E+01  0.12874793506E+02  0.51100000000E-03 0. -1.
        -11    1    3    3    0    0  0.12399709321E+02  0.26994277960E+02  0.19715562278E+02  0.35653151755E+02  0.51100000000E-03 0.  1.
        -12    1    3    3    0    0  0.19152075864E+01 -0.12582970029E+01 -0.23823663222E+02  0.23933621974E+02  0.00000000000E+00 0.  1.
</event>
<event>
 7    1  0.1920603E-013  0.7246158E+02  0.7816164E-02  0.1226708E+00
        -11   -1    0    0    0    0  0.00000000000E+00  0.00000000000E+00  0.45593999997E+02  0.45594000000E+02  0.51100000000E-03 0. -1.
         11   -1    0    0    0    0 -0.00000000000E+00 -0.00000000000E+00 -0.45593999997E+02  0.45594000000E+02  0.51100000000E-03 0.  1.
    9900012    2    1    2    0    0  0.11995776655E+02  0.77592808212E-02  0.14379843677E+02  0.72461584915E+02  0.70000019046E+02 0.  0.
        -12    1    1    2    0    0 -0.11995776655E+02 -0.77592808212E-02 -0.14379843677E+02  0.18726415085E+02  0.00000000000E+00 0.  1.
         11    1    3    3    0    0  0.25451602244E+02  0.26754530151E+02  0.17416411550E+02  0.40827935680E+02  0.51100000000E-03 0. -1.
        -11    1    3    3    0    0 -0.56171911884E+01 -0.14269504744E+02  0.31447778631E+01  0.15654431659E+02  0.51100000000E-03 0.  1.
         12    1    3    3    0    0 -0.78386344004E+01 -0.12477266126E+02 -0.61813457358E+01  0.15979217576E+02  0.00000000000E+00 0. -1.
</event>
<event>
 7    1  0.1920603E-013  0.7246173E+02  0.7816164E-02  0.1226708E+00
        -11   -1    0    0    0    0  0.00000000000E+00  0.00000000000E+00  0.45593999997E+02  0.45594000000E+02  0.51100000000E-03 0.  1.
         11   -1    0    0    0    0 -0.00000000000E+00 -0.00000000000E+00 -0.45593999997E+02  0.45594000000E+02  0.51100000000E-03 0. -1.
    9900012    2    1    2    0    0  0.81777047152E+01  0.15482283036E+02 -0.66405709728E+01  0.72461731678E+02  0.70000210232E+02 0.  0.
        -12    1    1    2    0    0 -0.81777047152E+01 -0.15482283036E+02  0.66405709728E+01  0.18726268322E+02  0.00000000000E+00 0.  1.
         11    1    3    3    0    0  0.14592178820E+02 -0.11182246137E+02 -0.28369569317E+01  0.18601683694E+02  0.51100000000E-03 0. -1.
        -11    1    3    3    0    0 -0.90508605201E+01  0.27896581327E+02  0.16295631378E+02  0.33551228415E+02  0.51100000000E-03 0.  1.
        -12    1    3    3    0    0  0.26363864157E+01 -0.12320521540E+01 -0.20099245419E+02  0.20308819569E+02  0.00000000000E+00 0.  1.
</event>
<event>
 7    1  0.1920603E-013  0.7246164E+02  0.7816164E-02  0.1226708E+00
        -11   -1    0    0    0    0  0.00000000000E+00  0.00000000000E+00  0.45593999997E+02  0.45594000000E+02  0.51100000000E-03 0.  1.
         11   -1    0    0    0    0 -0.00000000000E+00 -0.00000000000E+00 -0.45593999997E+02  0.45594000000E+02  0.51100000000E-03 0. -1.
    9900012    2    1    2    0    0 -0.85651267417E+01  0.16651608316E+02 -0.19746781378E+00  0.72461642929E+02  0.70000094620E+02 0.  0.
        -12    1    1    2    0    0  0.85651267417E+01 -0.16651608316E+02  0.19746781378E+00  0.18726357071E+02  0.00000000000E+00 0.  1.
         11    1    3    3    0    0  0.14806577856E+02 -0.89437784108E+01  0.11910065424E+02  0.21001799417E+02  0.51100000000E-03 0.  1.
        -11    1    3    3    0    0 -0.11310893988E+02  0.24618353013E+02 -0.22725311588E+02  0.35361552779E+02  0.51100000000E-03 0. -1.
        -12    1    3    3    0    0 -0.12060810610E+02  0.97703371330E+00  0.10617778350E+02  0.16098290733E+02  0.00000000000E+00 0.  1.
</event>
<event>
 7    1  0.1920603E-013  0.7246160E+02  0.7816164E-02  0.1226708E+00
        -11   -1    0    0    0    0  0.00000000000E+00  0.00000000000E+00  0.45593999997E+02  0.45594000000E+02  0.51100000000E-03 0.  1.
         11   -1    0    0    0    0 -0.00000000000E+00 -0.00000000000E+00 -0.45593999997E+02  0.45594000000E+02  0.51100000000E-03 0. -1.
    9900012    2    1    2    0    0 -0.48398409341E+01 -0.12062741749E+02 -0.13481258561E+02  0.72461598019E+02  0.70000036116E+02 0.  0.
        -12    1    1    2    0    0  0.48398409341E+01  0.12062741749E+02  0.13481258561E+02  0.18726401981E+02  0.00000000000E+00 0.  1.
         11    1    3    3    0    0  0.63801927301E+01  0.10356478453E+02 -0.25214755893E+02  0.27995489284E+02  0.51100000000E-03 0. -1.
        -11    1    3    3    0    0 -0.22524733033E+02 -0.12449872263E+02  0.62807420066E+00  0.25744074950E+02  0.51100000000E-03 0.  1.
        -12    1    3    3    0    0  0.11304699369E+02 -0.99693479383E+01  0.11105423131E+02  0.18722033785E+02  0.00000000000E+00 0.  1.
</event>
<event>
 7    1  0.1920603E-013  0.7246151E+02  0.7816164E-02  0.1226708E+00
        -11   -1    0    0    0    0  0.00000000000E+00  0.00000000000E+00  0.45593999997E+02  0.45594000000E+02  0.51100000000E-03 0.  1.
         11   -1    0    0    0    0 -0.00000000000E+00 -0.00000000000E+00 -0.45593999997E+02  0.45594000000E+02  0.51100000000E-03 0. -1.
    9900012    2    1    2    0    0 -0.12946356293E+02  0.10746033657E+02 -0.82216741086E+01  0.72461513256E+02  0.69999925697E+02 0.  0.
        -12    1    1    2    0    0  0.12946356293E+02 -0.10746033657E+02  0.82216741086E+01  0.18726486744E+02  0.00000000000E+00 0.  1.
         11    1    3    3    0    0 -0.30470000997E+02 -0.46025783317E+01  0.83192061100E+00  0.30826884049E+02  0.51100000000E-03 0. -1.
        -11    1    3    3    0    0  0.56881296912E+00  0.84563661583E+01  0.11388732331E+02  0.14196369295E+02  0.51100000000E-03 0.  1.
         12    1    3    3    0    0  0.16954831734E+02  0.68922458304E+01 -0.20442327051E+02  0.27438259911E+02  0.00000000000E+00 0. -1.
</event>
<event>
 7    1  0.1920603E-013  0.7246140E+02  0.7816164E-02  0.1226708E+00
        -11   -1    0    0    0    0  0.00000000000E+00  0.00000000000E+00  0.45593999997E+02  0.45594000000E+02  0.51100000000E-03 0. -1.
         11   -1    0    0    0    0 -0.00000000000E+00 -0.00000000000E+00 -0.45593999997E+02  0.45594000000E+02  0.51100000000E-03 0.  1.
    9900012    2    1    2    0    0 -0.15974846613E+02 -0.78254995062E+01  0.58524520019E+01  0.72461404974E+02  0.69999784639E+02 0.  0.
        -12    1    1    2    0    0  0.15974846613E+02  0.78254995062E+01 -0.58524520019E+01  0.18726595026E+02  0.00000000000E+00 0.  1.
         11    1    3    3    0    0  0.15362317788E+02 -0.60266199288E+01  0.20568632316E+02  0.26370240636E+02  0.51100000000E-03 0. -1.
        -11    1    3    3    0    0 -0.20212101056E+02  0.13401122170E+02 -0.45081658526E+01  0.24666630579E+02  0.51100000000E-03 0.  1.
         12    1    3    3    0    0 -0.11125063345E+02 -0.15200001747E+02 -0.10208014462E+02  0.21424533759E+02  0.00000000000E+00 0. -1.
</event>
<event>
 7    1  0.1920603E-013  0.7246157E+02  0.7816164E-02  0.1226708E+00
        -11   -1    0    0    0    0  0.00000000000E+00  0.00000000000E+00  0.45593999997E+02  0.45594000000E+02  0.51100000000E-03 0. -1.
         11   -1    0    0    0    0 -0.00000000000E+00 -0.00000000000E+00 -0.45593999997E+02  0.45594000000E+02  0.51100000000E-03 0.  1.
    9900012    2    1    2    0    0 -0.11105842376E+02 -0.14442370717E+02 -0.43309702771E+01  0.72461571874E+02  0.70000002057E+02 0.  0.
        -12    1    1    2    0    0  0.11105842376E+02  0.14442370717E+02  0.43309702771E+01  0.18726428126E+02  0.00000000000E+00 0.  1.
         11    1    3    3    0    0 -0.78244370798E+01 -0.33428014123E+02 -0.16318900292E+02  0.38012635411E+02  0.51100000000E-03 0. -1.
        -11    1    3    3    0    0 -0.57632097138E+01  0.25070424344E+02  0.95681106834E+01  0.27446120041E+02  0.51100000000E-03 0.  1.
        -12    1    3    3    0    0  0.24818044172E+01 -0.60847809386E+01  0.24198193318E+01  0.70028164216E+01  0.00000000000E+00 0.  1.
</event>
<event>
 7    1  0.1920603E-013  0.7246160E+02  0.7816164E-02  0.1226708E+00
        -11   -1    0    0    0    0  0.00000000000E+00  0.00000000000E+00  0.45593999997E+02  0.45594000000E+02  0.51100000000E-03 0.  1.
         11   -1    0    0    0    0 -0.00000000000E+00 -0.00000000000E+00 -0.45593999997E+02  0.45594000000E+02  0.51100000000E-03 0. -1.
    9900012    2    1    2    0    0 -0.30573213072E+00  0.12635905347E+02 -0.13817326296E+02  0.72461599330E+02  0.70000037825E+02 0.  0.
        -12    1    1    2    0    0  0.30573213072E+00 -0.12635905347E+02  0.13817326296E+02  0.18726400670E+02  0.00000000000E+00 0.  1.
         11    1    3    3    0    0 -0.15854897134E+02 -0.13567461172E+02 -0.24908248237E+02  0.32494224045E+02  0.51100000000E-03 0. -1.
        -11    1    3    3    0    0 -0.38282451773E+01  0.16089888800E+02  0.49031109788E+01  0.17250521159E+02  0.51100000000E-03 0.  1.
         12    1    3    3    0    0  0.19377410180E+02  0.10113477719E+02  0.61878109623E+01  0.22716854126E+02  0.00000000000E+00 0. -1.
</event>
<event>
 7    1  0.1920603E-013  0.7246155E+02  0.7816164E-02  0.1226708E+00
        -11   -1    0    0    0    0  0.00000000000E+00  0.00000000000E+00  0.45593999997E+02  0.45594000000E+02  0.51100000000E-03 0.  1.
         11   -1    0    0    0    0 -0.00000000000E+00 -0.00000000000E+00 -0.45593999997E+02  0.45594000000E+02  0.51100000000E-03 0. -1.
    9900012    2    1    2    0    0 -0.10629480983E+01  0.88639063136E+01 -0.16461508891E+02  0.72461548955E+02  0.69999972201E+02 0.  0.
        -12    1    1    2    0    0  0.10629480983E+01 -0.88639063136E+01  0.16461508891E+02  0.18726451045E+02  0.00000000000E+00 0.  1.
         11    1    3    3    0    0  0.12498368237E+02  0.13819658576E+01 -0.31913041941E+02  0.34301039116E+02  0.51100000000E-03 0. -1.
        -11    1    3    3    0    0 -0.19051486611E+02 -0.48528730966E+01  0.31797302806E+01  0.19915325865E+02  0.51100000000E-03 0.  1.
        -12    1    3    3    0    0  0.54901702758E+01  0.12334813553E+02  0.12271802770E+02  0.18245183974E+02  0.00000000000E+00 0.  1.
</event>
<event>
 7    1  0.1920603E-013  0.7246162E+02  0.7816164E-02  0.1226708E+00
        -11   -1    0    0    0    0  0.00000000000E+00  0.00000000000E+00  0.45593999997E+02  0.45594000000E+02  0.51100000000E-03 0. -1.
         11   -1    0    0    0    0 -0.00000000000E+00 -0.00000000000E+00 -0.45593999997E+02  0.45594000000E+02  0.51100000000E-03 0.  1.
    9900012    2    1    2    0    0 -0.42224509565E+01 -0.10353274204E+02  0.15021917999E+02  0.72461617563E+02  0.70000061576E+02 0.  0.
        -12    1    1    2    0    0  0.42224509565E+01  0.10353274204E+02 -0.15021917999E+02  0.18726382437E+02  0.00000000000E+00 0.  1.
         11    1    3    3    0    0 -0.54506448079E+01  0.82147634771E+01  0.29433571729E+02  0.31040731512E+02  0.51100000000E-03 0. -1.
        -11    1    3    3    0    0 -0.19174397007E+01 -0.67655128587E-01 -0.21333131551E+02  0.21419235613E+02  0.51100000000E-03 0.  1.
         12    1    3    3    0    0  0.31456335522E+01 -0.18500382553E+02  0.69214778204E+01  0.20001650438E+02  0.00000000000E+00 0. -1.
</event>
<event>
 7    1  0.1920603E-013  0.7246157E+02  0.7816164E-02  0.1226708E+00
        -11   -1    0    0    0    0  0.00000000000E+00  0.00000000000E+00  0.45593999997E+02  0.45594000000E+02  0.51100000000E-03 0. -1.
         11   -1    0    0    0    0 -0.00000000000E+00 -0.00000000000E+00 -0.45593999997E+02  0.45594000000E+02  0.51100000000E-03 0.  1.
    9900012    2    1    2    0    0 -0.18309157121E+01  0.72020704029E+00  0.18622789032E+02  0.72461568897E+02  0.69999998179E+02 0.  0.
        -12    1    1    2    0    0  0.18309157121E+01 -0.72020704029E+00 -0.18622789032E+02  0.18726431103E+02  0.00000000000E+00 0.  1.
         11    1    3    3    0    0  0.12593228036E+02  0.25259725475E+02  0.20843475510E+02  0.35086943370E+02  0.51100000000E-03 0. -1.
        -11    1    3    3    0    0 -0.21124548334E+02 -0.16884987261E+02 -0.27825924639E+01  0.27186249433E+02  0.51100000000E-03 0.  1.
        -12    1    3    3    0    0  0.67004045861E+01 -0.76545311733E+01  0.56190598574E+00  0.10188376094E+02  0.00000000000E+00 0.  1.
</event>
<event>
 7    1  0.1920603E-013  0.7246153E+02  0.7816164E-02  0.1226708E+00
        -11   -1    0    0    0    0  0.00000000000E+00  0.00000000000E+00  0.45593999997E+02  0.45594000000E+02  0.51100000000E-03 0. -1.
         11   -1    0    0    0    0 -0.00000000000E+00 -0.00000000000E+00 -0.45593999997E+02  0.45594000000E+02  0.51100000000E-03 0.  1.
    9900012    2    1    2    0    0  0.17042231843E+02  0.77528136718E+01 -0.36980305467E+00  0.72461533694E+02  0.69999952321E+02 0.  0.
        -12    1    1    2    0    0 -0.17042231843E+02 -0.77528136718E+01  0.36980305467E+00  0.18726466306E+02  0.00000000000E+00 0.  1.
         11    1    3    3    0    0  0.33917821596E+02  0.17664702329E+02 -0.77394605515E+01  0.39017426621E+02  0.51100000000E-03 0.  1.
        -11    1    3    3    0    0 -0.22176261608E+02 -0.94241412533E+00  0.53397800548E+01  0.22829541707E+02  0.51100000000E-03 0. -1.
         12    1    3    3    0    0  0.53006718540E+01 -0.89694745318E+01  0.20298774420E+01  0.10614565366E+02  0.00000000000E+00 0. -1.
</event>
<event>
 7    1  0.1920603E-013  0.7246156E+02  0.7816164E-02  0.1226708E+00
        -11   -1    0    0    0    0  0.00000000000E+00  0.00000000000E+00  0.45593999997E+02  0.45594000000E+02  0.51100000000E-03 0. -1.
         11   -1    0    0    0    0 -0.00000000000E+00 -0.00000000000E+00 -0.45593999997E+02  0.45594000000E+02  0.51100000000E-03 0.  1.
    9900012    2    1    2    0    0 -0.93469485181E+01  0.47399883606E+01  0.15519231931E+02  0.72461561578E+02  0.69999988645E+02 0.  0.
        -12    1    1    2    0    0  0.93469485181E+01 -0.47399883606E+01 -0.15519231931E+02  0.18726438422E+02  0.00000000000E+00 0.  1.
         11    1    3    3    0    0 -0.28386819674E+02  0.39749219266E+01  0.15675427087E+02  0.32670025255E+02  0.51100000000E-03 0. -1.
        -11    1    3    3    0    0  0.26215752962E+02 -0.89415911575E+01  0.49112813830E+00  0.27703049704E+02  0.51100000000E-03 0.  1.
         12    1    3    3    0    0 -0.71758818064E+01  0.97066575915E+01 -0.64732329468E+00  0.12088486619E+02  0.00000000000E+00 0. -1.
</event>
<event>
 7    1  0.1920603E-013  0.7246162E+02  0.7816164E-02  0.1226708E+00
        -11   -1    0    0    0    0  0.00000000000E+00  0.00000000000E+00  0.45593999997E+02  0.45594000000E+02  0.51100000000E-03 0.  1.
         11   -1    0    0    0    0 -0.00000000000E+00 -0.00000000000E+00 -0.45593999997E+02  0.45594000000E+02  0.51100000000E-03 0. -1.
    9900012    2    1    2    0    0  0.47833017164E+01  0.56750447979E+01 -0.17192766587E+02  0.72461619365E+02  0.70000063924E+02 0.  0.
        -12    1    1    2    0    0 -0.47833017164E+01 -0.56750447979E+01  0.17192766587E+02  0.18726380635E+02  0.00000000000E+00 0.  1.
         11    1    3    3    0    0  0.87302986819E+01 -0.27115566727E+02  0.12959886341E+01  0.28515814223E+02  0.51100000000E-03 0. -1.
        -11    1    3    3    0    0  0.31359631066E+01  0.26741299679E+02 -0.47396070797E+01  0.27338530477E+02  0.51100000000E-03 0.  1.
         12    1    3    3    0    0 -0.70829600720E+01  0.60493118464E+01 -0.13749148141E+02  0.16607274665E+02  0.00000000000E+00 0. -1.
</event>
<event>
 7    1  0.1920603E-013  0.7246155E+02  0.7816164E-02  0.1226708E+00
        -11   -1    0    0    0    0  0.00000000000E+00  0.00000000000E+00  0.45593999997E+02  0.45594000000E+02  0.51100000000E-03 0.  1.
         11   -1    0    0    0    0 -0.00000000000E+00 -0.00000000000E+00 -0.45593999997E+02  0.45594000000E+02  0.51100000000E-03 0. -1.
    9900012    2    1    2    0    0  0.12857713834E+01  0.27558449324E+01 -0.18477884377E+02  0.72461545440E+02  0.69999967623E+02 0.  0.
        -12    1    1    2    0    0 -0.12857713834E+01 -0.27558449324E+01  0.18477884377E+02  0.18726454560E+02  0.00000000000E+00 0.  1.
         11    1    3    3    0    0  0.46471883513E+01  0.23172273105E+02 -0.33875056663E+02  0.41304601010E+02  0.51100000000E-03 0. -1.
        -11    1    3    3    0    0 -0.19683291469E+01 -0.30315310106E+01  0.13071396739E+02  0.13561928803E+02  0.51100000000E-03 0.  1.
         12    1    3    3    0    0 -0.13930878210E+01 -0.17384897162E+02  0.23257755468E+01  0.17595015627E+02  0.00000000000E+00 0. -1.
</event>
<event>
 7    1  0.1920603E-013  0.7246151E+02  0.7816164E-02  0.1226708E+00
        -11   -1    0    0    0    0  0.00000000000E+00  0.00000000000E+00  0.45593999997E+02  0.45594000000E+02  0.51100000000E-03 0. -1.
         11   -1    0    0    0    0 -0.00000000000E+00 -0.00000000000E+00 -0.45593999997E+02  0.45594000000E+02  0.51100000000E-03 0.  1.
    9900012    2    1    2    0    0  0.13643557334E+02 -0.87289586937E+01  0.93989356281E+01  0.72461511607E+02  0.69999923549E+02 0.  0.
        -12    1    1    2    0    0 -0.13643557334E+02  0.87289586937E+01 -0.93989356281E+01  0.18726488393E+02  0.00000000000E+00 0.  1.
         11    1    3    3    0    0 -0.54592155456E+01 -0.18095756475E+02 -0.19235269474E+02  0.26967666358E+02  0.51100000000E-03 0.  1.
        -11    1    3    3    0    0  0.48087711381E+00  0.15661911460E+02  0.11841953778E+02  0.19640737841E+02  0.51100000000E-03 0. -1.
         12    1    3    3    0    0  0.18621895766E+02 -0.62951136789E+01  0.16792251324E+02  0.25853107408E+02  0.00000000000E+00 0. -1.
</event>
<event>
 7    1  0.1920603E-013  0.7246155E+02  0.7816164E-02  0.1226708E+00
        -11   -1    0    0    0    0  0.00000000000E+00  0.00000000000E+00  0.45593999997E+02  0.45594000000E+02  0.51100000000E-03 0.  1.
         11   -1    0    0    0    0 -0.00000000000E+00 -0.00000000000E+00 -0.45593999997E+02  0.45594000000E+02  0.51100000000E-03 0. -1.
    9900012    2    1    2    0    0  0.22988097406E+01  0.14832491964E+02 -0.11197885480E+02  0.72461548566E+02  0.69999971694E+02 0.  0.
        -12    1    1    2    0    0 -0.22988097406E+01 -0.14832491964E+02  0.11197885480E+02  0.18726451434E+02  0.00000000000E+00 0.  1.
         11    1    3    3    0    0  0.17334563501E+02  0.19073601974E+02 -0.28507562056E+02  0.38431373625E+02  0.51100000000E-03 0. -1.
        -11    1    3    3    0    0  0.67019423565E+01  0.86402533057E+00  0.58207004611E+01  0.89186952656E+01  0.51100000000E-03 0.  1.
         12    1    3    3    0    0 -0.21737696117E+02 -0.51051353398E+01  0.11488976115E+02  0.25111479675E+02  0.00000000000E+00 0. -1.
</event>
<event>
 7    1  0.1920603E-013  0.7246159E+02  0.7816164E-02  0.1226708E+00
        -11   -1    0    0    0    0  0.00000000000E+00  0.00000000000E+00  0.45593999997E+02  0.45594000000E+02  0.51100000000E-03 0.  1.
         11   -1    0    0    0    0 -0.00000000000E+00 -0.00000000000E+00 -0.45593999997E+02  0.45594000000E+02  0.51100000000E-03 0. -1.
    9900012    2    1    2    0    0  0.45791158195E+01  0.15229349677E+01 -0.18093948712E+02  0.72461585164E+02  0.70000019370E+02 0.  0.
        -12    1    1    2    0    0 -0.45791158195E+01 -0.15229349677E+01  0.18093948712E+02  0.18726414836E+02  0.00000000000E+00 0.  1.
         11    1    3    3    0    0  0.12005760559E+02  0.23425703395E+02 -0.13094028126E+02  0.29399922431E+02  0.51100000000E-03 0. -1.
        -11    1    3    3    0    0  0.45244311678E+01 -0.19937445311E+02 -0.16566753706E+02  0.26314055778E+02  0.51100000000E-03 0.  1.
        -12    1    3    3    0    0 -0.11951075907E+02 -0.19653231165E+01  0.11566833119E+02  0.16747606954E+02  0.00000000000E+00 0.  1.
</event>
<event>
 7    1  0.1920603E-013  0.7246157E+02  0.7816164E-02  0.1226708E+00
        -11   -1    0    0    0    0  0.00000000000E+00  0.00000000000E+00  0.45593999997E+02  0.45594000000E+02  0.51100000000E-03 0.  1.
         11   -1    0    0    0    0 -0.00000000000E+00 -0.00000000000E+00 -0.45593999997E+02  0.45594000000E+02  0.51100000000E-03 0. -1.
    9900012    2    1    2    0    0  0.13238743157E+02 -0.12781073335E+02 -0.34726292335E+01  0.72461566550E+02  0.69999995122E+02 0.  0.
        -12    1    1    2    0    0 -0.13238743157E+02  0.12781073335E+02  0.34726292335E+01  0.18726433450E+02  0.00000000000E+00 0.  1.
         11    1    3    3    0    0 -0.57875301379E+00  0.21630067515E+01  0.21329456201E+02  0.21446660703E+02  0.51100000000E-03 0. -1.
        -11    1    3    3    0    0  0.76480108893E+01  0.99915596234E+01 -0.21775809395E+02  0.25149735771E+02  0.51100000000E-03 0.  1.
         12    1    3    3    0    0  0.61694852811E+01 -0.24935639710E+02 -0.30262760391E+01  0.25865170076E+02  0.00000000000E+00 0. -1.
</event>
<event>
 7    1  0.1920603E-013  0.7246177E+02  0.7816164E-02  0.1226707E+00
        -11   -1    0    0    0    0  0.00000000000E+00  0.00000000000E+00  0.45593999997E+02  0.45594000000E+02  0.51100000000E-03 0.  1.
         11   -1    0    0    0    0 -0.00000000000E+00 -0.00000000000E+00 -0.45593999997E+02  0.45594000000E+02  0.51100000000E-03 0. -1.
    9900012    2    1    2    0    0 -0.65172176799E+01 -0.17536575815E+02 -0.81619672662E+00  0.72461767205E+02  0.70000256512E+02 0.  0.
        -12    1    1    2    0    0  0.65172176799E+01  0.17536575815E+02  0.81619672662E+00  0.18726232795E+02  0.00000000000E+00 0.  1.
         11    1    3    3    0    0 -0.16824533550E+02 -0.37909813523E+02  0.38620060524E+01  0.41654939462E+02  0.51100000000E-03 0. -1.
        -11    1    3    3    0    0 -0.26440049532E+01  0.14872293298E+02  0.19893315573E+01  0.15235921713E+02  0.51100000000E-03 0.  1.
        -12    1    3    3    0    0  0.12951320824E+02  0.55009444100E+01 -0.66675343363E+01  0.15570906030E+02  0.00000000000E+00 0.  1.
</event>
<event>
 7    1  0.1920603E-013  0.7246152E+02  0.7816164E-02  0.1226708E+00
        -11   -1    0    0    0    0  0.00000000000E+00  0.00000000000E+00  0.45593999997E+02  0.45594000000E+02  0.51100000000E-03 0.  1.
         11   -1    0    0    0    0 -0.00000000000E+00 -0.00000000000E+00 -0.45593999997E+02  0.45594000000E+02  0.51100000000E-03 0. -1.
    9900012    2    1    2    0    0  0.33481898675E+01 -0.17271499836E+02 -0.64160627745E+01  0.72461522929E+02  0.69999938298E+02 0.  0.
        -12    1    1    2    0    0 -0.33481898675E+01  0.17271499836E+02  0.64160627745E+01  0.18726477071E+02  0.00000000000E+00 0.  1.
         11    1    3    3    0    0 -0.70646795540E+01 -0.25446069552E+02 -0.12663056467E+02  0.29287627972E+02  0.51100000000E-03 0. -1.
        -11    1    3    3    0    0  0.17948975256E+02  0.16434329482E+02 -0.74890021886E+01  0.25462483231E+02  0.51100000000E-03 0.  1.
         12    1    3    3    0    0 -0.75361058342E+01 -0.82597597648E+01  0.13735995881E+02  0.17711411727E+02  0.00000000000E+00 0. -1.
</event>
<event>
 7    1  0.1920603E-013  0.7246155E+02  0.7816164E-02  0.1226708E+00
        -11   -1    0    0    0    0  0.00000000000E+00  0.00000000000E+00  0.45593999997E+02  0.45594000000E+02  0.51100000000E-03 0. -1.
         11   -1    0    0    0    0 -0.00000000000E+00 -0.00000000000E+00 -0.45593999997E+02  0.45594000000E+02  0.51100000000E-03 0.  1.
    9900012    2    1    2    0    0 -0.87163877824E+01  0.13908406311E+02  0.90144802103E+01  0.72461547171E+02  0.69999969878E+02 0.  0.
        -12    1    1    2    0    0  0.87163877824E+01 -0.13908406311E+02 -0.90144802103E+01  0.18726452829E+02  0.00000000000E+00 0.  1.
         11    1    3    3    0    0 -0.12880044100E+02  0.55908698943E+01 -0.56783089581E+01  0.15145842831E+02  0.51100000000E-03 0. -1.
        -11    1    3    3    0    0  0.21191082050E+02 -0.69627542549E+01  0.23865891691E+02  0.32666843921E+02  0.51100000000E-03 0.  1.
        -12    1    3    3    0    0 -0.17027425732E+02  0.15280290671E+02 -0.91731025228E+01  0.24648860419E+02  0.00000000000E+00 0.  1.
</event>
<event>
 7    1  0.1920603E-013  0.7246160E+02  0.7816164E-02  0.1226708E+00
        -11   -1    0    0    0    0  0.00000000000E+00  0.00000000000E+00  0.45593999997E+02  0.45594000000E+02  0.51100000000E-03 0.  1.
         11   -1    0    0    0    0 -0.00000000000E+00 -0.00000000000E+00 -0.45593999997E+02  0.45594000000E+02  0.51100000000E-03 0. -1.
    9900012    2    1    2    0    0  0.16760336014E+02 -0.83636424561E+00  0.83108125528E+01  0.72461602222E+02  0.70000041592E+02 0.  0.
        -12    1    1    2    0    0 -0.16760336014E+02  0.83636424561E+00 -0.83108125528E+01  0.18726397778E+02  0.00000000000E+00 0.  1.
         11    1    3    3    0    0 -0.18913071627E+02  0.69992767728E+01  0.17273442705E+02  0.26553078481E+02  0.51100000000E-03 0.  1.
        -11    1    3    3    0    0  0.38758612364E+00 -0.96781454122E+01 -0.22197149678E+01  0.99369943355E+01  0.51100000000E-03 0. -1.
         12    1    3    3    0    0  0.35285821517E+02  0.18425043938E+01 -0.67429151840E+01  0.35971529405E+02  0.00000000000E+00 0. -1.
</event>
<event>
 7    1  0.1920603E-013  0.7246144E+02  0.7816164E-02  0.1226708E+00
        -11   -1    0    0    0    0  0.00000000000E+00  0.00000000000E+00  0.45593999997E+02  0.45594000000E+02  0.51100000000E-03 0. -1.
         11   -1    0    0    0    0 -0.00000000000E+00 -0.00000000000E+00 -0.45593999997E+02  0.45594000000E+02  0.51100000000E-03 0.  1.
    9900012    2    1    2    0    0  0.14122467803E+02 -0.11293571296E+02  0.48677853422E+01  0.72461436418E+02  0.69999825600E+02 0.  0.
        -12    1    1    2    0    0 -0.14122467803E+02  0.11293571296E+02 -0.48677853422E+01  0.18726563582E+02  0.00000000000E+00 0.  1.
         11    1    3    3    0    0 -0.64813926135E+01 -0.34573119025E+02  0.10621789538E+02  0.36744134533E+02  0.51100000000E-03 0. -1.
        -11    1    3    3    0    0  0.11014503652E+02  0.97514529862E+01 -0.10951536531E+02  0.18339745873E+02  0.51100000000E-03 0.  1.
         12    1    3    3    0    0  0.95893567647E+01  0.13528094743E+02  0.51975323353E+01  0.17377556011E+02  0.00000000000E+00 0. -1.
</event>
<event>
 7    1  0.1920603E-013  0.7246148E+02  0.7816164E-02  0.1226708E+00
        -11   -1    0    0    0    0  0.00000000000E+00  0.00000000000E+00  0.45593999997E+02  0.45594000000E+02  0.51100000000E-03 0. -1.
         11   -1    0    0    0    0 -0.00000000000E+00 -0.00000000000E+00 -0.45593999997E+02  0.45594000000E+02  0.51100000000E-03 0.  1.
    9900012    2    1    2    0    0 -0.14813842525E+02  0.10115906327E+02  0.53759868516E+01  0.72461475341E+02  0.69999876306E+02 0.  0.
        -12    1    1    2    0    0  0.14813842525E+02 -0.10115906327E+02 -0.53759868516E+01  0.18726524659E+02  0.00000000000E+00 0.  1.
         11    1    3    3    0    0 -0.64747901323E+01  0.17441961709E+02  0.18854650801E+02  0.26488540779E+02  0.51100000000E-03 0. -1.
        -11    1    3    3    0    0 -0.33850159021E+01  0.59300956352E+01 -0.26119775004E+02  0.26997537174E+02  0.51100000000E-03 0.  1.
        -12    1    3    3    0    0 -0.49540364902E+01 -0.13256151017E+02  0.12641111055E+02  0.18975397389E+02  0.00000000000E+00 0.  1.
</event>
<event>
 7    1  0.1920603E-013  0.7246157E+02  0.7816164E-02  0.1226708E+00
        -11   -1    0    0    0    0  0.00000000000E+00  0.00000000000E+00  0.45593999997E+02  0.45594000000E+02  0.51100000000E-03 0. -1.
         11   -1    0    0    0    0 -0.00000000000E+00 -0.00000000000E+00 -0.45593999997E+02  0.45594000000E+02  0.51100000000E-03 0.  1.
    9900012    2    1    2    0    0 -0.10017780122E+02 -0.10520539379E+02  0.11817002763E+02  0.72461568901E+02  0.69999998185E+02 0.  0.
        -12    1    1    2    0    0  0.10017780122E+02  0.10520539379E+02 -0.11817002763E+02  0.18726431099E+02  0.00000000000E+00 0.  1.
         11    1    3    3    0    0 -0.35018592967E+02  0.51499161367E+01  0.19291226807E+02  0.40310977681E+02  0.51100000000E-03 0. -1.
        -11    1    3    3    0    0  0.12927493830E+02 -0.11774356590E+02 -0.11911718362E+00  0.17486273446E+02  0.51100000000E-03 0.  1.
         12    1    3    3    0    0  0.12073319014E+02 -0.38960989251E+01 -0.73551068608E+01  0.14664317775E+02  0.00000000000E+00 0. -1.
</event>
<event>
 7    1  0.1920603E-013  0.7246159E+02  0.7816164E-02  0.1226708E+00
        -11   -1    0    0    0    0  0.00000000000E+00  0.00000000000E+00  0.45593999997E+02  0.45594000000E+02  0.51100000000E-03 0.  1.
         11   -1    0    0    0    0 -0.00000000000E+00 -0.00000000000E+00 -0.45593999997E+02  0.45594000000E+02  0.51100000000E-03 0. -1.
    9900012    2    1    2    0    0  0.33533185901E+01 -0.46827739960E+01 -0.17818675940E+02  0.72461592707E+02  0.70000029197E+02 0.  0.
        -12    1    1    2    0    0 -0.33533185901E+01  0.46827739960E+01  0.17818675940E+02  0.18726407293E+02  0.00000000000E+00 0.  1.
         11    1    3    3    0    0 -0.15481416664E+02 -0.20772213668E+02 -0.32270159347E+01  0.26106948399E+02  0.51100000000E-03 0. -1.
        -11    1    3    3    0    0  0.39336446902E+01  0.24530118410E+02 -0.15365937362E+02  0.29211509735E+02  0.51100000000E-03 0.  1.
        -12    1    3    3    0    0  0.14901090564E+02 -0.84406787378E+01  0.77427735662E+00  0.17143134573E+02  0.00000000000E+00 0.  1.
</event>
<event>
 7    1  0.1920603E-013  0.7246154E+02  0.7816164E-02  0.1226708E+00
        -11   -1    0    0    0    0  0.00000000000E+00  0.00000000000E+00  0.45593999997E+02  0.45594000000E+02  0.51100000000E-03 0.  1.
         11   -1    0    0    0    0 -0.00000000000E+00 -0.00000000000E+00 -0.45593999997E+02  0.45594000000E+02  0.51100000000E-03 0. -1.
    9900012    2    1    2    0    0 -0.81100453285E+01  0.90567164544E+01 -0.14243718917E+02  0.72461535391E+02  0.69999954531E+02 0.  0.
        -12    1    1    2    0    0  0.81100453285E+01 -0.90567164544E+01  0.14243718917E+02  0.18726464609E+02  0.00000000000E+00 0.  1.
         11    1    3    3    0    0 -0.71248039542E+01  0.20485195780E+02  0.49452443639E+01  0.22245483129E+02  0.51100000000E-03 0. -1.
        -11    1    3    3    0    0  0.21748510620E+02 -0.22795047506E+01 -0.99776373261E+01  0.24036370420E+02  0.51100000000E-03 0.  1.
        -12    1    3    3    0    0 -0.22733751994E+02 -0.91489745754E+01 -0.92113259552E+01  0.26179681842E+02  0.00000000000E+00 0.  1.
</event>
<event>
 7    1  0.1920603E-013  0.7246158E+02  0.7816164E-02  0.1226708E+00
        -11   -1    0    0    0    0  0.00000000000E+00  0.00000000000E+00  0.45593999997E+02  0.45594000000E+02  0.51100000000E-03 0.  1.
         11   -1    0    0    0    0 -0.00000000000E+00 -0.00000000000E+00 -0.45593999997E+02  0.45594000000E+02  0.51100000000E-03 0. -1.
    9900012    2    1    2    0    0  0.18560941070E+02  0.24701247239E+01 -0.26246724187E+00  0.72461576460E+02  0.70000008032E+02 0.  0.
        -12    1    1    2    0    0 -0.18560941070E+02 -0.24701247239E+01  0.26246724187E+00  0.18726423540E+02  0.00000000000E+00 0.  1.
         11    1    3    3    0    0  0.87900811731E+01  0.48251501451E+01 -0.20280912926E+02  0.22624390164E+02  0.51100000000E-03 0. -1.
        -11    1    3    3    0    0 -0.13416708845E+02 -0.13821560761E+02  0.12251203078E+02  0.22828394495E+02  0.51100000000E-03 0.  1.
        -12    1    3    3    0    0  0.23187568742E+02  0.11466535339E+02  0.77672426054E+01  0.27008791801E+02  0.00000000000E+00 0.  1.
</event>
<event>
 7    1  0.1920603E-013  0.7246154E+02  0.7816164E-02  0.1226708E+00
        -11   -1    0    0    0    0  0.00000000000E+00  0.00000000000E+00  0.45593999997E+02  0.45594000000E+02  0.51100000000E-03 0.  1.
         11   -1    0    0    0    0 -0.00000000000E+00 -0.00000000000E+00 -0.45593999997E+02  0.45594000000E+02  0.51100000000E-03 0. -1.
    9900012    2    1    2    0    0  0.17454460155E+02  0.64289492590E+01 -0.21658225080E+01  0.72461538641E+02  0.69999958766E+02 0.  0.
        -12    1    1    2    0    0 -0.17454460155E+02 -0.64289492590E+01  0.21658225080E+01  0.18726461359E+02  0.00000000000E+00 0.  1.
         11    1    3    3    0    0  0.16545487009E+02 -0.18912890458E+02  0.16215468232E+02  0.29906386878E+02  0.51100000000E-03 0. -1.
        -11    1    3    3    0    0  0.13172449923E+02  0.21012803910E+02 -0.84803826319E+01  0.26210079263E+02  0.51100000000E-03 0.  1.
         12    1    3    3    0    0 -0.12263476777E+02  0.43290358062E+01 -0.99009081082E+01  0.16345072500E+02  0.00000000000E+00 0. -1.
</event>
<event>
 7    1  0.1920603E-013  0.7246161E+02  0.7816164E-02  0.1226708E+00
        -11   -1    0    0    0    0  0.00000000000E+00  0.00000000000E+00  0.45593999997E+02  0.45594000000E+02  0.51100000000E-03 0. -1.
         11   -1    0    0    0    0 -0.00000000000E+00 -0.00000000000E+00 -0.45593999997E+02  0.45594000000E+02  0.51100000000E-03 0.  1.
    9900012    2    1    2    0    0 -0.18363013053E+02 -0.28075107187E+00  0.36603902454E+01  0.72461614169E+02  0.70000057155E+02 0.  0.
        -12    1    1    2    0    0  0.18363013053E+02  0.28075107187E+00 -0.36603902454E+01  0.18726385831E+02  0.00000000000E+00 0.  1.
         11    1    3    3    0    0 -0.21905632875E+02  0.31632400899E+01  0.32928630929E+02  0.39675654684E+02  0.51100000000E-03 0. -1.
        -11    1    3    3    0    0 -0.10697460773E+01 -0.79584903408E+01 -0.19380832486E+02  0.20978526957E+02  0.51100000000E-03 0.  1.
         12    1    3    3    0    0  0.46123658996E+01  0.45144991790E+01 -0.98874081969E+01  0.11807432527E+02  0.00000000000E+00 0. -1.
</event>
<event>
 7    1  0.1920603E-013  0.7246156E+02  0.7816164E-02  0.1226708E+00
        -11   -1    0    0    0    0  0.00000000000E+00  0.00000000000E+00  0.45593999997E+02  0.45594000000E+02  0.51100000000E-03 0.  1.
         11   -1    0    0    0    0 -0.00000000000E+00 -0.00000000000E+00 -0.45593999997E+02  0.45594000000E+02  0.51100000000E-03 0. -1.
    9900012    2    1    2    0    0 -0.15278298963E+02  0.96077128763E+01  0.49944942188E+01  0.72461560445E+02  0.69999987169E+02 0.  0.
        -12    1    1    2    0    0  0.15278298963E+02 -0.96077128763E+01 -0.49944942188E+01  0.18726439555E+02  0.00000000000E+00 0.  1.
         11    1    3    3    0    0  0.49221899144E+01  0.23132017008E+02 -0.20196830708E+02  0.31100323718E+02  0.51100000000E-03 0. -1.
        -11    1    3    3    0    0 -0.38527199290E+01 -0.12523946688E+02  0.20490088456E+02  0.24321521677E+02  0.51100000000E-03 0.  1.
        -12    1    3    3    0    0 -0.16347768949E+02 -0.10003574432E+01  0.47012364712E+01  0.17039715050E+02  0.00000000000E+00 0.  1.
</event>
<event>
 7    1  0.1920603E-013  0.7246159E+02  0.7816164E-02  0.1226708E+00
        -11   -1    0    0    0    0  0.00000000000E+00  0.00000000000E+00  0.45593999997E+02  0.45594000000E+02  0.51100000000E-03 0.  1.
         11   -1    0    0    0    0 -0.00000000000E+00 -0.00000000000E+00 -0.45593999997E+02  0.45594000000E+02  0.51100000000E-03 0. -1.
    9900012    2    1    2    0    0 -0.65166441733E+01  0.12236351834E+02 -0.12589024709E+02  0.72461588154E+02  0.70000023265E+02 0.  0.
        -12    1    1    2    0    0  0.65166441733E+01 -0.12236351834E+02  0.12589024709E+02  0.18726411846E+02  0.00000000000E+00 0.  1.
         11    1    3    3    0    0 -0.68320031676E+01  0.78431224962E+01 -0.28408362578E+02  0.30252700745E+02  0.51100000000E-03 0. -1.
        -11    1    3    3    0    0  0.20495221624E+00 -0.16225668964E+02  0.14136672774E+02  0.21521149043E+02  0.51100000000E-03 0.  1.
        -12    1    3    3    0    0  0.11040677800E+00  0.20618898302E+02  0.16826650941E+01  0.20687738366E+02  0.00000000000E+00 0.  1.
</event>
<event>
 7    1  0.1920603E-013  0.7246158E+02  0.7816164E-02  0.1226708E+00
        -11   -1    0    0    0    0  0.00000000000E+00  0.00000000000E+00  0.45593999997E+02  0.45594000000E+02  0.51100000000E-03 0. -1.
         11   -1    0    0    0    0 -0.00000000000E+00 -0.00000000000E+00 -0.45593999997E+02  0.45594000000E+02  0.51100000000E-03 0.  1.
    9900012    2    1    2    0    0 -0.11542175945E+02  0.11131485564E+02  0.96719738602E+01  0.72461578165E+02  0.70000010253E+02 0.  0.
        -12    1    1    2    0    0  0.11542175945E+02 -0.11131485564E+02 -0.96719738602E+01  0.18726421835E+02  0.00000000000E+00 0.  1.
         11    1    3    3    0    0  0.57217232655E+01 -0.20091097540E+02  0.16755616485E+02  0.26779488448E+02  0.51100000000E-03 0. -1.
        -11    1    3    3    0    0  0.21151440734E+01  0.24488316493E+02 -0.29743341059E+01  0.24758799299E+02  0.51100000000E-03 0.  1.
         12    1    3    3    0    0 -0.19379043284E+02  0.67342666110E+01 -0.41093085188E+01  0.20923290417E+02  0.00000000000E+00 0. -1.
</event>
<event>
 7    1  0.1920603E-013  0.7246154E+02  0.7816164E-02  0.1226708E+00
        -11   -1    0    0    0    0  0.00000000000E+00  0.00000000000E+00  0.45593999997E+02  0.45594000000E+02  0.51100000000E-03 0.  1.
         11   -1    0    0    0    0 -0.00000000000E+00 -0.00000000000E+00 -0.45593999997E+02  0.45594000000E+02  0.51100000000E-03 0. -1.
    9900012    2    1    2    0    0  0.75112303161E+01  0.14521243482E+02 -0.91321074385E+01  0.72461535321E+02  0.69999954440E+02 0.  0.
        -12    1    1    2    0    0 -0.75112303161E+01 -0.14521243482E+02  0.91321074385E+01  0.18726464679E+02  0.00000000000E+00 0.  1.
         11    1    3    3    0    0  0.29680016550E+01 -0.22869570368E+02 -0.80991430941E+01  0.24442225794E+02  0.51100000000E-03 0. -1.
        -11    1    3    3    0    0  0.12151314199E+02  0.12912731363E+02 -0.10601132302E+02  0.20658583552E+02  0.51100000000E-03 0.  1.
         12    1    3    3    0    0 -0.76080855380E+01  0.24478082487E+02  0.95681679580E+01  0.27360725975E+02  0.00000000000E+00 0. -1.
</event>
<event>
 7    1  0.1920603E-013  0.7246152E+02  0.7816164E-02  0.1226708E+00
        -11   -1    0    0    0    0  0.00000000000E+00  0.00000000000E+00  0.45593999997E+02  0.45594000000E+02  0.51100000000E-03 0. -1.
         11   -1    0    0    0    0 -0.00000000000E+00 -0.00000000000E+00 -0.45593999997E+02  0.45594000000E+02  0.51100000000E-03 0.  1.
    9900012    2    1    2    0    0 -0.79075357877E+01 -0.12797516947E+02  0.11152375113E+02  0.72461520542E+02  0.69999935188E+02 0.  0.
        -12    1    1    2    0    0  0.79075357877E+01  0.12797516947E+02 -0.11152375113E+02  0.18726479458E+02  0.00000000000E+00 0.  1.
         11    1    3    3    0    0 -0.27631385418E+02  0.15502655748E+02  0.12491110379E+01  0.31707823545E+02  0.51100000000E-03 0. -1.
        -11    1    3    3    0    0  0.38859447437E+01 -0.84578391516E+01  0.12105539981E+02  0.15270222924E+02  0.51100000000E-03 0.  1.
         12    1    3    3    0    0  0.15837904886E+02 -0.19842333543E+02 -0.22022759060E+01  0.25483474072E+02  0.00000000000E+00 0. -1.
</event>
<event>
 7    1  0.1920603E-013  0.7246179E+02  0.7816164E-02  0.1226707E+00
        -11   -1    0    0    0    0  0.00000000000E+00  0.00000000000E+00  0.45593999997E+02  0.45594000000E+02  0.51100000000E-03 0.  1.
         11   -1    0    0    0    0 -0.00000000000E+00 -0.00000000000E+00 -0.45593999997E+02  0.45594000000E+02  0.51100000000E-03 0. -1.
    9900012    2    1    2    0    0  0.22931618120E+01  0.76927526903E+01 -0.16918450354E+02  0.72461788493E+02  0.70000284243E+02 0.  0.
        -12    1    1    2    0    0 -0.22931618120E+01 -0.76927526903E+01  0.16918450354E+02  0.18726211507E+02  0.00000000000E+00 0.  1.
         11    1    3    3    0    0  0.14747731847E+02  0.19724786138E+02 -0.28575262311E+02  0.37724108992E+02  0.51100000000E-03 0. -1.
        -11    1    3    3    0    0 -0.14958984121E+02 -0.18733946643E+02  0.40827254586E+01  0.24318729617E+02  0.51100000000E-03 0.  1.
         12    1    3    3    0    0  0.25044140856E+01  0.67019131954E+01  0.75740864990E+01  0.10418949884E+02  0.00000000000E+00 0. -1.
</event>
<event>
 7    1  0.1920603E-013  0.7246127E+02  0.7816164E-02  0.1226709E+00
        -11   -1    0    0    0    0  0.00000000000E+00  0.00000000000E+00  0.45593999997E+02  0.45594000000E+02  0.51100000000E-03 0.  1.
         11   -1    0    0    0    0 -0.00000000000E+00 -0.00000000000E+00 -0.45593999997E+02  0.45594000000E+02  0.51100000000E-03 0. -1.
    9900012    2    1    2    0    0  0.14957346797E+02  0.52342398640E+01 -0.99785233660E+01  0.72461269940E+02  0.69999608732E+02 0.  0.
        -12    1    1    2    0    0 -0.14957346797E+02 -0.52342398640E+01  0.99785233660E+01  0.18726730060E+02  0.00000000000E+00 0.  1.
         11    1    3    3    0    0 -0.52069312379E+01  0.20369182984E+02 -0.20088668211E+02  0.29078692183E+02  0.51100000000E-03 0. -1.
        -11    1    3    3    0    0  0.26328435615E+02 -0.10659407293E+02  0.17007068614E+02  0.33106643878E+02  0.51100000000E-03 0.  1.
        -12    1    3    3    0    0 -0.61641575800E+01 -0.44755358263E+01 -0.68969237695E+01  0.10275933879E+02  0.00000000000E+00 0.  1.
</event>
<event>
 7    1  0.1920603E-013  0.7246157E+02  0.7816164E-02  0.1226708E+00
        -11   -1    0    0    0    0  0.00000000000E+00  0.00000000000E+00  0.45593999997E+02  0.45594000000E+02  0.51100000000E-03 0. -1.
         11   -1    0    0    0    0 -0.00000000000E+00 -0.00000000000E+00 -0.45593999997E+02  0.45594000000E+02  0.51100000000E-03 0.  1.
    9900012    2    1    2    0    0  0.21363122798E+01 -0.18266576826E+01  0.18514281571E+02  0.72461571335E+02  0.70000001356E+02 0.  0.
        -12    1    1    2    0    0 -0.21363122798E+01  0.18266576826E+01 -0.18514281571E+02  0.18726428665E+02  0.00000000000E+00 0.  1.
         11    1    3    3    0    0 -0.54230790022E+01  0.29264316973E+02  0.20984790795E+01  0.29836448322E+02  0.51100000000E-03 0. -1.
        -11    1    3    3    0    0  0.27004763067E+01 -0.13363728411E+02 -0.48917267964E+01  0.14484847277E+02  0.51100000000E-03 0.  1.
         12    1    3    3    0    0  0.48589149753E+01 -0.17727246244E+02  0.21307529288E+02  0.28140275736E+02  0.00000000000E+00 0. -1.
</event>
<event>
 7    1  0.1920603E-013  0.7246151E+02  0.7816164E-02  0.1226708E+00
        -11   -1    0    0    0    0  0.00000000000E+00  0.00000000000E+00  0.45593999997E+02  0.45594000000E+02  0.51100000000E-03 0. -1.
         11   -1    0    0    0    0 -0.00000000000E+00 -0.00000000000E+00 -0.45593999997E+02  0.45594000000E+02  0.51100000000E-03 0.  1.
    9900012    2    1    2    0    0 -0.10593396596E+02 -0.80311886803E+01  0.13189447757E+02  0.72461506062E+02  0.69999916326E+02 0.  0.
        -12    1    1    2    0    0  0.10593396596E+02  0.80311886803E+01 -0.13189447757E+02  0.18726493938E+02  0.00000000000E+00 0.  1.
         11    1    3    3    0    0 -0.14694154977E+02 -0.19721359814E+02  0.26123405241E+02  0.35878719668E+02  0.51100000000E-03 0. -1.
        -11    1    3    3    0    0  0.10554748572E+02  0.19467228555E+01 -0.20162281407E+02  0.22840972814E+02  0.51100000000E-03 0.  1.
        -12    1    3    3    0    0 -0.64539901911E+01  0.97434482779E+01  0.72283239232E+01  0.13741813580E+02  0.00000000000E+00 0.  1.
</event>
<event>
 7    1  0.1920603E-013  0.7246149E+02  0.7816164E-02  0.1226708E+00
        -11   -1    0    0    0    0  0.00000000000E+00  0.00000000000E+00  0.45593999997E+02  0.45594000000E+02  0.51100000000E-03 0.  1.
         11   -1    0    0    0    0 -0.00000000000E+00 -0.00000000000E+00 -0.45593999997E+02  0.45594000000E+02  0.51100000000E-03 0. -1.
    9900012    2    1    2    0    0 -0.15282978327E+02  0.10196902834E+02 -0.36243599916E+01  0.72461488331E+02  0.69999893227E+02 0.  0.
        -12    1    1    2    0    0  0.15282978327E+02 -0.10196902834E+02  0.36243599916E+01  0.18726511669E+02  0.00000000000E+00 0.  1.
         11    1    3    3    0    0 -0.30093425621E+02  0.99887215755E+01 -0.11778569766E+02  0.33824895126E+02  0.51100000000E-03 0. -1.
        -11    1    3    3    0    0  0.19356441864E+02  0.38083518455E+00  0.18845320523E+02  0.27017827132E+02  0.51100000000E-03 0.  1.
        -12    1    3    3    0    0 -0.45459945698E+01 -0.17265392585E+00 -0.10691110749E+02  0.11618766072E+02  0.00000000000E+00 0.  1.
</event>
<event>
 7    1  0.1920603E-013  0.7246157E+02  0.7816164E-02  0.1226708E+00
        -11   -1    0    0    0    0  0.00000000000E+00  0.00000000000E+00  0.45593999997E+02  0.45594000000E+02  0.51100000000E-03 0.  1.
         11   -1    0    0    0    0 -0.00000000000E+00 -0.00000000000E+00 -0.45593999997E+02  0.45594000000E+02  0.51100000000E-03 0. -1.
    9900012    2    1    2    0    0 -0.58994141799E+01  0.17768661494E+02  0.38806887604E+00  0.72461574382E+02  0.70000005325E+02 0.  0.
        -12    1    1    2    0    0  0.58994141799E+01 -0.17768661494E+02 -0.38806887604E+00  0.18726425618E+02  0.00000000000E+00 0.  1.
         11    1    3    3    0    0 -0.18530614653E+02  0.60522111757E+01 -0.15267775412E+02  0.24761217778E+02  0.51100000000E-03 0. -1.
        -11    1    3    3    0    0  0.14879558111E+02  0.17519705548E+02  0.26572312725E+02  0.35134443726E+02  0.51100000000E-03 0.  1.
         12    1    3    3    0    0 -0.22483576379E+01 -0.58032552298E+01 -0.10916468437E+02  0.12565912879E+02  0.00000000000E+00 0. -1.
</event>
<event>
 7    1  0.1920603E-013  0.7246156E+02  0.7816164E-02  0.1226708E+00
        -11   -1    0    0    0    0  0.00000000000E+00  0.00000000000E+00  0.45593999997E+02  0.45594000000E+02  0.51100000000E-03 0.  1.
         11   -1    0    0    0    0 -0.00000000000E+00 -0.00000000000E+00 -0.45593999997E+02  0.45594000000E+02  0.51100000000E-03 0. -1.
    9900012    2    1    2    0    0  0.12844854953E+02  0.92982381323E+01 -0.99615241131E+01  0.72461561637E+02  0.69999988722E+02 0.  0.
        -12    1    1    2    0    0 -0.12844854953E+02 -0.92982381323E+01  0.99615241131E+01  0.18726438363E+02  0.00000000000E+00 0.  1.
         11    1    3    3    0    0 -0.56738307611E+01  0.83859990930E+01 -0.49145584291E+01  0.11254786586E+02  0.51100000000E-03 0. -1.
        -11    1    3    3    0    0 -0.20941871233E+01 -0.23870532660E+02 -0.13999447074E+02  0.27751981332E+02  0.51100000000E-03 0.  1.
        -12    1    3    3    0    0  0.20612872837E+02  0.24782771699E+02  0.89524813901E+01  0.33454793718E+02  0.00000000000E+00 0.  1.
</event>
<event>
 7    1  0.1920603E-013  0.7246160E+02  0.7816164E-02  0.1226708E+00
        -11   -1    0    0    0    0  0.00000000000E+00  0.00000000000E+00  0.45593999997E+02  0.45594000000E+02  0.51100000000E-03 0. -1.
         11   -1    0    0    0    0 -0.00000000000E+00 -0.00000000000E+00 -0.45593999997E+02  0.45594000000E+02  0.51100000000E-03 0.  1.
    9900012    2    1    2    0    0 -0.11420012481E+02  0.14701042349E+02  0.20348438246E+01  0.72461603641E+02  0.70000043440E+02 0.  0.
        -12    1    1    2    0    0  0.11420012481E+02 -0.14701042349E+02 -0.20348438246E+01  0.18726396359E+02  0.00000000000E+00 0.  1.
         11    1    3    3    0    0  0.77472469169E+01 -0.27603309104E+01  0.16392557146E+02  0.18339988865E+02  0.51100000000E-03 0. -1.
        -11    1    3    3    0    0 -0.21640406756E+02  0.89046656408E+01 -0.28827716442E+02  0.37130008218E+02  0.51100000000E-03 0.  1.
        -12    1    3    3    0    0  0.24731473586E+01  0.85567076184E+01  0.14470003120E+02  0.16991606558E+02  0.00000000000E+00 0.  1.
</event>
<event>
 7    1  0.1920603E-013  0.7246159E+02  0.7816164E-02  0.1226708E+00
        -11   -1    0    0    0    0  0.00000000000E+00  0.00000000000E+00  0.45593999997E+02  0.45594000000E+02  0.51100000000E-03 0.  1.
         11   -1    0    0    0    0 -0.00000000000E+00 -0.00000000000E+00 -0.45593999997E+02  0.45594000000E+02  0.51100000000E-03 0. -1.
    9900012    2    1    2    0    0 -0.95201860109E+00 -0.18109474342E+02 -0.46710846740E+01  0.72461589976E+02  0.70000025638E+02 0.  0.
        -12    1    1    2    0    0  0.95201860109E+00  0.18109474342E+02  0.46710846740E+01  0.18726410024E+02  0.00000000000E+00 0.  1.
         11    1    3    3    0    0 -0.13326403806E+02  0.74883553875E+01 -0.24118214616E+02  0.28554452916E+02  0.51100000000E-03 0. -1.
        -11    1    3    3    0    0  0.48715155945E+01 -0.25907395731E+02  0.23551285615E+02  0.35349510211E+02  0.51100000000E-03 0.  1.
        -12    1    3    3    0    0  0.75028696102E+01  0.30956600138E+00 -0.41041556730E+01  0.85576268489E+01  0.00000000000E+00 0.  1.
</event>
<event>
 7    1  0.1920603E-013  0.7246160E+02  0.7816164E-02  0.1226708E+00
        -11   -1    0    0    0    0  0.00000000000E+00  0.00000000000E+00  0.45593999997E+02  0.45594000000E+02  0.51100000000E-03 0. -1.
         11   -1    0    0    0    0 -0.00000000000E+00 -0.00000000000E+00 -0.45593999997E+02  0.45594000000E+02  0.51100000000E-03 0.  1.
    9900012    2    1    2    0    0  0.10413414300E+02  0.15310614142E+02  0.27971058765E+01  0.72461604082E+02  0.70000044015E+02 0.  0.
        -12    1    1    2    0    0 -0.10413414300E+02 -0.15310614142E+02 -0.27971058765E+01  0.18726395918E+02  0.00000000000E+00 0.  1.
         11    1    3    3    0    0 -0.22530170029E+02  0.61928750792E+01  0.73462078130E+01  0.24493407945E+02  0.51100000000E-03 0. -1.
        -11    1    3    3    0    0  0.39860119989E+02  0.82424163975E+01 -0.48417410423E+01  0.40990353135E+02  0.51100000000E-03 0.  1.
        -12    1    3    3    0    0 -0.69165356601E+01  0.87532266554E+00  0.29263910583E+00  0.69778430014E+01  0.00000000000E+00 0.  1.
</event>
<event>
 7    1  0.1920603E-013  0.7246155E+02  0.7816164E-02  0.1226708E+00
        -11   -1    0    0    0    0  0.00000000000E+00  0.00000000000E+00  0.45593999997E+02  0.45594000000E+02  0.51100000000E-03 0.  1.
         11   -1    0    0    0    0 -0.00000000000E+00 -0.00000000000E+00 -0.45593999997E+02  0.45594000000E+02  0.51100000000E-03 0. -1.
    9900012    2    1    2    0    0 -0.47652848042E+01 -0.16628057323E+02  0.71749443909E+01  0.72461546609E+02  0.69999969146E+02 0.  0.
        -12    1    1    2    0    0  0.47652848042E+01  0.16628057323E+02 -0.71749443909E+01  0.18726453391E+02  0.00000000000E+00 0.  1.
         11    1    3    3    0    0  0.62507226142E+01 -0.26058646480E+02 -0.22601536669E+02  0.35056440915E+02  0.51100000000E-03 0. -1.
        -11    1    3    3    0    0  0.41852179834E+01  0.18443594656E+01  0.11875146393E+02  0.12725439620E+02  0.51100000000E-03 0.  1.
         12    1    3    3    0    0 -0.15201225402E+02  0.75862296922E+01  0.17901334667E+02  0.24679666074E+02  0.00000000000E+00 0. -1.
</event>
<event>
 7    1  0.1920603E-013  0.7246158E+02  0.7816164E-02  0.1226708E+00
        -11   -1    0    0    0    0  0.00000000000E+00  0.00000000000E+00  0.45593999997E+02  0.45594000000E+02  0.51100000000E-03 0. -1.
         11   -1    0    0    0    0 -0.00000000000E+00 -0.00000000000E+00 -0.45593999997E+02  0.45594000000E+02  0.51100000000E-03 0.  1.
    9900012    2    1    2    0    0  0.31513746107E+01 -0.57736570349E+01  0.17533188869E+02  0.72461575103E+02  0.70000006265E+02 0.  0.
        -12    1    1    2    0    0 -0.31513746107E+01  0.57736570349E+01 -0.17533188869E+02  0.18726424897E+02  0.00000000000E+00 0.  1.
         11    1    3    3    0    0  0.26550181888E+02  0.14161370774E+02  0.17269694365E+01  0.30140321899E+02  0.51100000000E-03 0. -1.
        -11    1    3    3    0    0 -0.10696759457E+02  0.45737883789E+01  0.53129857327E+01  0.12789371395E+02  0.51100000000E-03 0.  1.
         12    1    3    3    0    0 -0.12702047820E+02 -0.24508816187E+02  0.10493233700E+02  0.29531881810E+02  0.00000000000E+00 0. -1.
</event>
<event>
 7    1  0.1920603E-013  0.7246168E+02  0.7816164E-02  0.1226708E+00
        -11   -1    0    0    0    0  0.00000000000E+00  0.00000000000E+00  0.45593999997E+02  0.45594000000E+02  0.51100000000E-03 0.  1.
         11   -1    0    0    0    0 -0.00000000000E+00 -0.00000000000E+00 -0.45593999997E+02  0.45594000000E+02  0.51100000000E-03 0. -1.
    9900012    2    1    2    0    0  0.16266711505E+02  0.42681679988E+01 -0.82372311835E+01  0.72461677916E+02  0.70000140196E+02 0.  0.
        -12    1    1    2    0    0 -0.16266711505E+02 -0.42681679988E+01  0.82372311835E+01  0.18726322084E+02  0.00000000000E+00 0.  1.
         11    1    3    3    0    0  0.17082396188E+02 -0.58869007211E+01 -0.21486130711E+00  0.18069588409E+02  0.51100000000E-03 0. -1.
        -11    1    3    3    0    0 -0.24782448909E+02 -0.47191974730E+01 -0.64490088857E+00  0.25236015853E+02  0.51100000000E-03 0.  1.
        -12    1    3    3    0    0  0.23966764225E+02  0.14874266193E+02 -0.73774689879E+01  0.29156073653E+02  0.00000000000E+00 0.  1.
</event>
<event>
 7    1  0.1920603E-013  0.7246156E+02  0.7816164E-02  0.1226708E+00
        -11   -1    0    0    0    0  0.00000000000E+00  0.00000000000E+00  0.45593999997E+02  0.45594000000E+02  0.51100000000E-03 0.  1.
         11   -1    0    0    0    0 -0.00000000000E+00 -0.00000000000E+00 -0.45593999997E+02  0.45594000000E+02  0.51100000000E-03 0. -1.
    9900012    2    1    2    0    0  0.43104308488E+01  0.17909927383E+02  0.33666176664E+01  0.72461563407E+02  0.69999991028E+02 0.  0.
        -12    1    1    2    0    0 -0.43104308488E+01 -0.17909927383E+02 -0.33666176664E+01  0.18726436593E+02  0.00000000000E+00 0.  1.
         11    1    3    3    0    0  0.10091167409E+02  0.42668742678E+02 -0.38457534222E+01  0.44014123654E+02  0.51100000000E-03 0. -1.
        -11    1    3    3    0    0 -0.16293759778E+01 -0.66475810984E+01  0.71061249334E+01  0.98662157065E+01  0.51100000000E-03 0.  1.
         12    1    3    3    0    0 -0.41513605828E+01 -0.18111234197E+02  0.10624615523E+00  0.18581224046E+02  0.00000000000E+00 0. -1.
</event>
<event>
 7    1  0.1920603E-013  0.7246166E+02  0.7816164E-02  0.1226708E+00
        -11   -1    0    0    0    0  0.00000000000E+00  0.00000000000E+00  0.45593999997E+02  0.45594000000E+02  0.51100000000E-03 0. -1.
         11   -1    0    0    0    0 -0.00000000000E+00 -0.00000000000E+00 -0.45593999997E+02  0.45594000000E+02  0.51100000000E-03 0.  1.
    9900012    2    1    2    0    0 -0.97759882718E+01 -0.12803981308E+02 -0.95479826187E+01  0.72461658763E+02  0.70000115247E+02 0.  0.
        -12    1    1    2    0    0  0.97759882718E+01  0.12803981308E+02  0.95479826187E+01  0.18726341237E+02  0.00000000000E+00 0.  1.
         11    1    3    3    0    0  0.11826939210E+02  0.10773803015E+02  0.99571704318E+01  0.18844006096E+02  0.51100000000E-03 0. -1.
        -11    1    3    3    0    0 -0.43606113703E+01 -0.67246831787E+01 -0.27162470496E+02  0.28320241861E+02  0.51100000000E-03 0.  1.
         12    1    3    3    0    0 -0.17242316111E+02 -0.16853101144E+02  0.76573174453E+01  0.25297410806E+02  0.00000000000E+00 0. -1.
</event>
<event>
 7    1  0.1920603E-013  0.7246163E+02  0.7816164E-02  0.1226708E+00
        -11   -1    0    0    0    0  0.00000000000E+00  0.00000000000E+00  0.45593999997E+02  0.45594000000E+02  0.51100000000E-03 0.  1.
         11   -1    0    0    0    0 -0.00000000000E+00 -0.00000000000E+00 -0.45593999997E+02  0.45594000000E+02  0.51100000000E-03 0. -1.
    9900012    2    1    2    0    0  0.71405884658E+01 -0.17066575958E+02  0.29018967351E+01  0.72461627601E+02  0.70000074653E+02 0.  0.
        -12    1    1    2    0    0 -0.71405884658E+01  0.17066575958E+02 -0.29018967351E+01  0.18726372399E+02  0.00000000000E+00 0.  1.
         11    1    3    3    0    0  0.13302604780E+02  0.12542013240E+02 -0.57605860480E+01  0.19168874300E+02  0.51100000000E-03 0. -1.
        -11    1    3    3    0    0 -0.15486468228E+02 -0.25867511934E+02 -0.10277841800E+02  0.31852674992E+02  0.51100000000E-03 0.  1.
         12    1    3    3    0    0  0.93244519145E+01 -0.37410772641E+01  0.18940324583E+02  0.21440078309E+02  0.00000000000E+00 0. -1.
</event>
<event>
 7    1  0.1920603E-013  0.7246159E+02  0.7816164E-02  0.1226708E+00
        -11   -1    0    0    0    0  0.00000000000E+00  0.00000000000E+00  0.45593999997E+02  0.45594000000E+02  0.51100000000E-03 0. -1.
         11   -1    0    0    0    0 -0.00000000000E+00 -0.00000000000E+00 -0.45593999997E+02  0.45594000000E+02  0.51100000000E-03 0.  1.
    9900012    2    1    2    0    0  0.36964615569E+00  0.26919040229E+01  0.18528230803E+02  0.72461592917E+02  0.70000029471E+02 0.  0.
        -12    1    1    2    0    0 -0.36964615569E+00 -0.26919040229E+01 -0.18528230803E+02  0.18726407083E+02  0.00000000000E+00 0.  1.
         11    1    3    3    0    0 -0.29164267549E+01  0.31824327328E+01  0.21710076750E+02  0.22135059428E+02  0.51100000000E-03 0. -1.
        -11    1    3    3    0    0  0.38270209209E+01 -0.65891636750E+00 -0.26609832071E+02  0.26891698031E+02  0.51100000000E-03 0.  1.
        -12    1    3    3    0    0 -0.54094801034E+00  0.16838765758E+00  0.23427986123E+02  0.23434835458E+02  0.00000000000E+00 0.  1.
</event>
<event>
 7    1  0.1920603E-013  0.7246159E+02  0.7816164E-02  0.1226708E+00
        -11   -1    0    0    0    0  0.00000000000E+00  0.00000000000E+00  0.45593999997E+02  0.45594000000E+02  0.51100000000E-03 0. -1.
         11   -1    0    0    0    0 -0.00000000000E+00 -0.00000000000E+00 -0.45593999997E+02  0.45594000000E+02  0.51100000000E-03 0.  1.
    9900012    2    1    2    0    0 -0.18255030273E+01  0.77958828498E+01  0.16928387252E+02  0.72461586952E+02  0.70000021699E+02 0.  0.
        -12    1    1    2    0    0  0.18255030273E+01 -0.77958828498E+01 -0.16928387252E+02  0.18726413048E+02  0.00000000000E+00 0.  1.
         11    1    3    3    0    0 -0.99881235181E+01  0.18477108297E+02  0.33819158042E+02  0.39810822566E+02  0.51100000000E-03 0. -1.
        -11    1    3    3    0    0  0.10848585655E+02 -0.88173992486E+01  0.14186799282E+01  0.14051725631E+02  0.51100000000E-03 0.  1.
         12    1    3    3    0    0 -0.26859651642E+01 -0.18638261984E+01 -0.18309450719E+02  0.18599038754E+02  0.00000000000E+00 0. -1.
</event>
<event>
 7    1  0.1920603E-013  0.7246157E+02  0.7816164E-02  0.1226708E+00
        -11   -1    0    0    0    0  0.00000000000E+00  0.00000000000E+00  0.45593999997E+02  0.45594000000E+02  0.51100000000E-03 0. -1.
         11   -1    0    0    0    0 -0.00000000000E+00 -0.00000000000E+00 -0.45593999997E+02  0.45594000000E+02  0.51100000000E-03 0.  1.
    9900012    2    1    2    0    0  0.11662283957E+02 -0.13872215467E+01  0.14585809745E+02  0.72461572241E+02  0.70000002536E+02 0.  0.
        -12    1    1    2    0    0 -0.11662283957E+02  0.13872215467E+01 -0.14585809745E+02  0.18726427759E+02  0.00000000000E+00 0.  1.
         11    1    3    3    0    0  0.14733751710E+02  0.61102995708E+01  0.71318616125E+01  0.17472339586E+02  0.51100000000E-03 0.  1.
        -11    1    3    3    0    0 -0.13799948427E+02 -0.12793862601E+02  0.26497029103E+02  0.32499446894E+02  0.51100000000E-03 0. -1.
        -12    1    3    3    0    0  0.10728480673E+02  0.52963414839E+01 -0.19043080971E+02  0.22489785760E+02  0.00000000000E+00 0.  1.
</event>
<event>
 7    1  0.1920603E-013  0.7246156E+02  0.7816164E-02  0.1226708E+00
        -11   -1    0    0    0    0  0.00000000000E+00  0.00000000000E+00  0.45593999997E+02  0.45594000000E+02  0.51100000000E-03 0. -1.
         11   -1    0    0    0    0 -0.00000000000E+00 -0.00000000000E+00 -0.45593999997E+02  0.45594000000E+02  0.51100000000E-03 0.  1.
    9900012    2    1    2    0    0  0.31364651299E+01 -0.17678798093E+02 -0.53199998462E+01  0.72461555760E+02  0.69999981066E+02 0.  0.
        -12    1    1    2    0    0 -0.31364651299E+01  0.17678798093E+02  0.53199998462E+01  0.18726444240E+02  0.00000000000E+00 0.  1.
         11    1    3    3    0    0 -0.20644317090E+02 -0.21775895163E+02 -0.11095350219E+02  0.31991940157E+02  0.51100000000E-03 0. -1.
        -11    1    3    3    0    0  0.64234366871E+01  0.13836727662E+02  0.12223293429E+02  0.19548004343E+02  0.51100000000E-03 0.  1.
        -12    1    3    3    0    0  0.17357345533E+02 -0.97396305930E+01 -0.64479430560E+01  0.20921611260E+02  0.00000000000E+00 0.  1.
</event>
<event>
 7    1  0.1920603E-013  0.7246157E+02  0.7816164E-02  0.1226708E+00
        -11   -1    0    0    0    0  0.00000000000E+00  0.00000000000E+00  0.45593999997E+02  0.45594000000E+02  0.51100000000E-03 0. -1.
         11   -1    0    0    0    0 -0.00000000000E+00 -0.00000000000E+00 -0.45593999997E+02  0.45594000000E+02  0.51100000000E-03 0.  1.
    9900012    2    1    2    0    0  0.16843420128E+02 -0.67468487412E+01 -0.46323341849E+01  0.72461567090E+02  0.69999995826E+02 0.  0.
        -12    1    1    2    0    0 -0.16843420128E+02  0.67468487412E+01  0.46323341849E+01  0.18726432910E+02  0.00000000000E+00 0.  1.
         11    1    3    3    0    0 -0.10714144699E+02 -0.11403593323E+02  0.16893121245E+02  0.23026341068E+02  0.51100000000E-03 0. -1.
        -11    1    3    3    0    0  0.11975448321E+02  0.19559748503E+02 -0.11520232551E+02  0.25665363475E+02  0.51100000000E-03 0.  1.
        -12    1    3    3    0    0  0.15582116506E+02 -0.14903003921E+02 -0.10005222878E+02  0.23769862548E+02  0.00000000000E+00 0.  1.
</event>
<event>
 7    1  0.1920603E-013  0.7246162E+02  0.7816164E-02  0.1226708E+00
        -11   -1    0    0    0    0  0.00000000000E+00  0.00000000000E+00  0.45593999997E+02  0.45594000000E+02  0.51100000000E-03 0.  1.
         11   -1    0    0    0    0 -0.00000000000E+00 -0.00000000000E+00 -0.45593999997E+02  0.45594000000E+02  0.51100000000E-03 0. -1.
    9900012    2    1    2    0    0 -0.34481655781E+01 -0.82293229649E+01 -0.16464076089E+02  0.72461617440E+02  0.70000061416E+02 0.  0.
        -12    1    1    2    0    0  0.34481655781E+01  0.82293229649E+01  0.16464076089E+02  0.18726382560E+02  0.00000000000E+00 0.  1.
         11    1    3    3    0    0 -0.44113564483E+01  0.20559634800E+01 -0.62770495054E+00  0.49072462044E+01  0.51100000000E-03 0. -1.
        -11    1    3    3    0    0  0.13604914497E+02  0.21336439320E+02 -0.21284711625E+02  0.33066240949E+02  0.51100000000E-03 0.  1.
        -12    1    3    3    0    0 -0.12641723627E+02 -0.31621725764E+02  0.54483404860E+01  0.34488130286E+02  0.00000000000E+00 0.  1.
</event>
<event>
 7    1  0.1920603E-013  0.7246167E+02  0.7816164E-02  0.1226708E+00
        -11   -1    0    0    0    0  0.00000000000E+00  0.00000000000E+00  0.45593999997E+02  0.45594000000E+02  0.51100000000E-03 0.  1.
         11   -1    0    0    0    0 -0.00000000000E+00 -0.00000000000E+00 -0.45593999997E+02  0.45594000000E+02  0.51100000000E-03 0. -1.
    9900012    2    1    2    0    0 -0.58711820934E+01  0.16139644693E+02  0.74643607726E+01  0.72461665822E+02  0.70000124442E+02 0.  0.
        -12    1    1    2    0    0  0.58711820934E+01 -0.16139644693E+02 -0.74643607726E+01  0.18726334178E+02  0.00000000000E+00 0.  1.
         11    1    3    3    0    0 -0.11511755823E+02 -0.91334120119E+01 -0.14854970918E+02  0.20895212331E+02  0.51100000000E-03 0. -1.
        -11    1    3    3    0    0  0.12880390672E+02  0.30783132010E+01  0.24774586021E+02  0.28092002221E+02  0.51100000000E-03 0.  1.
        -12    1    3    3    0    0 -0.72398169429E+01  0.22194743504E+02 -0.24552543300E+01  0.23474451270E+02  0.00000000000E+00 0.  1.
</event>
<event>
 7    1  0.1920603E-013  0.7246156E+02  0.7816164E-02  0.1226708E+00
        -11   -1    0    0    0    0  0.00000000000E+00  0.00000000000E+00  0.45593999997E+02  0.45594000000E+02  0.51100000000E-03 0.  1.
         11   -1    0    0    0    0 -0.00000000000E+00 -0.00000000000E+00 -0.45593999997E+02  0.45594000000E+02  0.51100000000E-03 0. -1.
    9900012    2    1    2    0    0 -0.87473574114E+00  0.12904085647E+02 -0.13542492376E+02  0.72461556431E+02  0.69999981940E+02 0.  0.
        -12    1    1    2    0    0  0.87473574114E+00 -0.12904085647E+02  0.13542492376E+02  0.18726443569E+02  0.00000000000E+00 0.  1.
         11    1    3    3    0    0 -0.22909624508E+02 -0.41301616192E+01 -0.48913464411E+01  0.23787273916E+02  0.51100000000E-03 0. -1.
        -11    1    3    3    0    0  0.15618042784E+01  0.24512268971E+02 -0.10681138189E+02  0.26783899567E+02  0.51100000000E-03 0.  1.
        -12    1    3    3    0    0  0.20473084488E+02 -0.74780217051E+01  0.20299922544E+01  0.21890382948E+02  0.00000000000E+00 0.  1.
</event>
<event>
 7    1  0.1920603E-013  0.7246159E+02  0.7816164E-02  0.1226708E+00
        -11   -1    0    0    0    0  0.00000000000E+00  0.00000000000E+00  0.45593999997E+02  0.45594000000E+02  0.51100000000E-03 0.  1.
         11   -1    0    0    0    0 -0.00000000000E+00 -0.00000000000E+00 -0.45593999997E+02  0.45594000000E+02  0.51100000000E-03 0. -1.
    9900012    2    1    2    0    0 -0.10421109164E+01 -0.13541291234E+02 -0.12892856861E+02  0.72461592937E+02  0.70000029497E+02 0.  0.
        -12    1    1    2    0    0  0.10421109164E+01  0.13541291234E+02  0.12892856861E+02  0.18726407063E+02  0.00000000000E+00 0.  1.
         11    1    3    3    0    0  0.90239773014E+01 -0.57992595255E+01 -0.35569461665E+02  0.37151718409E+02  0.51100000000E-03 0. -1.
        -11    1    3    3    0    0  0.18764375928E+01  0.41389499719E+01  0.16901255601E+02  0.17501553247E+02  0.51100000000E-03 0.  1.
        -12    1    3    3    0    0 -0.11942525811E+02 -0.11880981680E+02  0.57753492029E+01  0.17808321281E+02  0.00000000000E+00 0.  1.
</event>
<event>
 7    1  0.1920603E-013  0.7246161E+02  0.7816164E-02  0.1226708E+00
        -11   -1    0    0    0    0  0.00000000000E+00  0.00000000000E+00  0.45593999997E+02  0.45594000000E+02  0.51100000000E-03 0.  1.
         11   -1    0    0    0    0 -0.00000000000E+00 -0.00000000000E+00 -0.45593999997E+02  0.45594000000E+02  0.51100000000E-03 0. -1.
    9900012    2    1    2    0    0  0.18427697208E+02 -0.24830649423E+01 -0.22208003344E+01  0.72461612467E+02  0.70000054938E+02 0.  0.
        -12    1    1    2    0    0 -0.18427697208E+02  0.24830649423E+01  0.22208003344E+01  0.18726387533E+02  0.00000000000E+00 0.  1.
         11    1    3    3    0    0 -0.99968120554E+01 -0.35740596416E+01  0.14804578492E+02  0.18217730324E+02  0.51100000000E-03 0.  1.
        -11    1    3    3    0    0  0.23490654062E+02  0.84261703404E+01 -0.29698659068E+02  0.38792029149E+02  0.51100000000E-03 0. -1.
        -12    1    3    3    0    0  0.49338552021E+01 -0.73351756412E+01  0.12673280241E+02  0.15451852993E+02  0.00000000000E+00 0.  1.
</event>
<event>
 7    1  0.1920603E-013  0.7246156E+02  0.7816164E-02  0.1226708E+00
        -11   -1    0    0    0    0  0.00000000000E+00  0.00000000000E+00  0.45593999997E+02  0.45594000000E+02  0.51100000000E-03 0. -1.
         11   -1    0    0    0    0 -0.00000000000E+00 -0.00000000000E+00 -0.45593999997E+02  0.45594000000E+02  0.51100000000E-03 0.  1.
    9900012    2    1    2    0    0  0.10910211746E+02  0.12610564160E+02  0.85217664737E+01  0.72461560066E+02  0.69999986676E+02 0.  0.
        -12    1    1    2    0    0 -0.10910211746E+02 -0.12610564160E+02 -0.85217664737E+01  0.18726439934E+02  0.00000000000E+00 0.  1.
         11    1    3    3    0    0 -0.13395254901E+01 -0.18229691918E+02 -0.17477730371E+02  0.25290058425E+02  0.51100000000E-03 0. -1.
        -11    1    3    3    0    0  0.15466464801E+02  0.17785089762E+02  0.83955386128E+01  0.25020112312E+02  0.51100000000E-03 0.  1.
        -12    1    3    3    0    0 -0.32167275649E+01  0.13055166316E+02  0.17603958231E+02  0.22151389329E+02  0.00000000000E+00 0.  1.
</event>
<event>
 7    1  0.1920603E-013  0.7246156E+02  0.7816164E-02  0.1226708E+00
        -11   -1    0    0    0    0  0.00000000000E+00  0.00000000000E+00  0.45593999997E+02  0.45594000000E+02  0.51100000000E-03 0.  1.
         11   -1    0    0    0    0 -0.00000000000E+00 -0.00000000000E+00 -0.45593999997E+02  0.45594000000E+02  0.51100000000E-03 0. -1.
    9900012    2    1    2    0    0 -0.38895707219E+01  0.77764291659E+01 -0.16585468400E+02  0.72461564860E+02  0.69999992921E+02 0.  0.
        -12    1    1    2    0    0  0.38895707219E+01 -0.77764291659E+01  0.16585468400E+02  0.18726435140E+02  0.00000000000E+00 0.  1.
         11    1    3    3    0    0 -0.27237233906E+01  0.12466266452E+02 -0.80152837380E+01  0.15068883237E+02  0.51100000000E-03 0. -1.
        -11    1    3    3    0    0  0.20204620465E+02 -0.25701993313E+01 -0.23605099366E+02  0.31177449047E+02  0.51100000000E-03 0.  1.
        -12    1    3    3    0    0 -0.21370467796E+02 -0.21196379548E+01  0.15034914703E+02  0.26215232576E+02  0.00000000000E+00 0.  1.
</event>
<event>
 7    1  0.1920603E-013  0.7246156E+02  0.7816164E-02  0.1226708E+00
        -11   -1    0    0    0    0  0.00000000000E+00  0.00000000000E+00  0.45593999997E+02  0.45594000000E+02  0.51100000000E-03 0.  1.
         11   -1    0    0    0    0 -0.00000000000E+00 -0.00000000000E+00 -0.45593999997E+02  0.45594000000E+02  0.51100000000E-03 0. -1.
    9900012    2    1    2    0    0  0.10756353991E+02 -0.14524202072E+02  0.49018509165E+01  0.72461555078E+02  0.69999980178E+02 0.  0.
        -12    1    1    2    0    0 -0.10756353991E+02  0.14524202072E+02 -0.49018509165E+01  0.18726444922E+02  0.00000000000E+00 0.  1.
         11    1    3    3    0    0  0.14801256939E+02 -0.62358456842E+01  0.23147313974E+02  0.28173766572E+02  0.51100000000E-03 0. -1.
        -11    1    3    3    0    0 -0.47564709822E+01 -0.22263985743E+02 -0.19846809769E+02  0.30202730599E+02  0.51100000000E-03 0.  1.
         12    1    3    3    0    0  0.71156803405E+00  0.13975629355E+02  0.16013467112E+01  0.14085057906E+02  0.00000000000E+00 0. -1.
</event>
<event>
 7    1  0.1920603E-013  0.7246169E+02  0.7816164E-02  0.1226708E+00
        -11   -1    0    0    0    0  0.00000000000E+00  0.00000000000E+00  0.45593999997E+02  0.45594000000E+02  0.51100000000E-03 0.  1.
         11   -1    0    0    0    0 -0.00000000000E+00 -0.00000000000E+00 -0.45593999997E+02  0.45594000000E+02  0.51100000000E-03 0. -1.
    9900012    2    1    2    0    0 -0.18406990965E+02  0.34399439335E+01  0.15499138435E+00  0.72461693557E+02  0.70000160572E+02 0.  0.
        -12    1    1    2    0    0  0.18406990965E+02 -0.34399439335E+01 -0.15499138435E+00  0.18726306443E+02  0.00000000000E+00 0.  1.
         11    1    3    3    0    0 -0.19558119617E+02 -0.13098571891E+02 -0.24615237337E+02  0.34058809991E+02  0.51100000000E-03 0. -1.
        -11    1    3    3    0    0  0.48954285438E+01  0.17251109249E+02  0.28104966632E+02  0.33338493376E+02  0.51100000000E-03 0.  1.
        -12    1    3    3    0    0 -0.37442998920E+01 -0.71259342399E+00 -0.33347379106E+01  0.50643901905E+01  0.00000000000E+00 0.  1.
</event>
<event>
 7    1  0.1920603E-013  0.7246158E+02  0.7816164E-02  0.1226708E+00
        -11   -1    0    0    0    0  0.00000000000E+00  0.00000000000E+00  0.45593999997E+02  0.45594000000E+02  0.51100000000E-03 0. -1.
         11   -1    0    0    0    0 -0.00000000000E+00 -0.00000000000E+00 -0.45593999997E+02  0.45594000000E+02  0.51100000000E-03 0.  1.
    9900012    2    1    2    0    0 -0.14869447599E+01  0.31852614002E+01  0.18393531591E+02  0.72461577509E+02  0.70000009398E+02 0.  0.
        -12    1    1    2    0    0  0.14869447599E+01 -0.31852614002E+01 -0.18393531591E+02  0.18726422491E+02  0.00000000000E+00 0.  1.
         11    1    3    3    0    0  0.20928578274E+02 -0.11449147041E+01  0.71191344861E+01  0.22135905095E+02  0.51100000000E-03 0. -1.
        -11    1    3    3    0    0 -0.24130724539E+02 -0.11129007107E+02 -0.58312879407E+01  0.27205708689E+02  0.51100000000E-03 0.  1.
        -12    1    3    3    0    0  0.17152015047E+01  0.15459183212E+02  0.17105685046E+02  0.23119963725E+02  0.00000000000E+00 0.  1.
</event>
<event>
 7    1  0.1920603E-013  0.7246158E+02  0.7816164E-02  0.1226708E+00
        -11   -1    0    0    0    0  0.00000000000E+00  0.00000000000E+00  0.45593999997E+02  0.45594000000E+02  0.51100000000E-03 0.  1.
         11   -1    0    0    0    0 -0.00000000000E+00 -0.00000000000E+00 -0.45593999997E+02  0.45594000000E+02  0.51100000000E-03 0. -1.
    9900012    2    1    2    0    0  0.14520606926E+02  0.23084509806E+01 -0.11597490748E+02  0.72461581146E+02  0.70000014137E+02 0.  0.
        -12    1    1    2    0    0 -0.14520606926E+02 -0.23084509806E+01  0.11597490748E+02  0.18726418854E+02  0.00000000000E+00 0.  1.
         11    1    3    3    0    0  0.18998399292E+02  0.24391401954E+01 -0.32776465026E+02  0.37962945624E+02  0.51100000000E-03 0. -1.
        -11    1    3    3    0    0  0.42980259671E+01  0.10529413056E+02  0.16256474687E+02  0.19839721168E+02  0.51100000000E-03 0.  1.
         12    1    3    3    0    0 -0.87758183331E+01 -0.10660102271E+02  0.49224995909E+01  0.14658914355E+02  0.00000000000E+00 0. -1.
</event>
<event>
 7    1  0.1920603E-013  0.7246157E+02  0.7816164E-02  0.1226708E+00
        -11   -1    0    0    0    0  0.00000000000E+00  0.00000000000E+00  0.45593999997E+02  0.45594000000E+02  0.51100000000E-03 0.  1.
         11   -1    0    0    0    0 -0.00000000000E+00 -0.00000000000E+00 -0.45593999997E+02  0.45594000000E+02  0.51100000000E-03 0. -1.
    9900012    2    1    2    0    0  0.19149647264E+00  0.11280104801E+02  0.14946633589E+02  0.72461567054E+02  0.69999995779E+02 0.  0.
        -12    1    1    2    0    0 -0.19149647264E+00 -0.11280104801E+02 -0.14946633589E+02  0.18726432946E+02  0.00000000000E+00 0.  1.
         11    1    3    3    0    0 -0.43657921661E+01 -0.49156151409E+01 -0.34472185149E+01  0.74233906810E+01  0.51100000000E-03 0. -1.
        -11    1    3    3    0    0  0.27120693939E+02  0.22366645244E+02  0.21851653466E+02  0.41391951133E+02  0.51100000000E-03 0.  1.
        -12    1    3    3    0    0 -0.22563405300E+02 -0.61709253012E+01 -0.34578013613E+01  0.23646225239E+02  0.00000000000E+00 0.  1.
</event>
<event>
 7    1  0.1920603E-013  0.7246160E+02  0.7816164E-02  0.1226708E+00
        -11   -1    0    0    0    0  0.00000000000E+00  0.00000000000E+00  0.45593999997E+02  0.45594000000E+02  0.51100000000E-03 0.  1.
         11   -1    0    0    0    0 -0.00000000000E+00 -0.00000000000E+00 -0.45593999997E+02  0.45594000000E+02  0.51100000000E-03 0. -1.
    9900012    2    1    2    0    0  0.40433776838E+01  0.62831915676E+01 -0.17171218642E+02  0.72461597542E+02  0.70000035495E+02 0.  0.
        -12    1    1    2    0    0 -0.40433776838E+01 -0.62831915676E+01  0.17171218642E+02  0.18726402458E+02  0.00000000000E+00 0.  1.
         11    1    3    3    0    0 -0.24290347359E+02  0.20702239392E+02 -0.21886667401E+02  0.38699223517E+02  0.51100000000E-03 0. -1.
        -11    1    3    3    0    0  0.22396894653E+02 -0.61576031571E+01  0.26176218875E+01  0.23374963344E+02  0.51100000000E-03 0.  1.
         12    1    3    3    0    0  0.59368303894E+01 -0.82614446673E+01  0.20978268712E+01  0.10387410680E+02  0.00000000000E+00 0. -1.
</event>
<event>
 7    1  0.1920603E-013  0.7246155E+02  0.7816164E-02  0.1226708E+00
        -11   -1    0    0    0    0  0.00000000000E+00  0.00000000000E+00  0.45593999997E+02  0.45594000000E+02  0.51100000000E-03 0.  1.
         11   -1    0    0    0    0 -0.00000000000E+00 -0.00000000000E+00 -0.45593999997E+02  0.45594000000E+02  0.51100000000E-03 0. -1.
    9900012    2    1    2    0    0  0.31495865976E+01  0.18104440142E+02 -0.36040459548E+01  0.72461553572E+02  0.69999978216E+02 0.  0.
        -12    1    1    2    0    0 -0.31495865976E+01 -0.18104440142E+02  0.36040459548E+01  0.18726446428E+02  0.00000000000E+00 0.  1.
         11    1    3    3    0    0  0.84164182637E+01 -0.97073538730E+01 -0.27565027743E+02  0.30412161553E+02  0.51100000000E-03 0. -1.
        -11    1    3    3    0    0 -0.13639529909E+01  0.36963263349E+01  0.15814079422E+02  0.16297493807E+02  0.51100000000E-03 0.  1.
         12    1    3    3    0    0 -0.39028786752E+01  0.24115467680E+02  0.81469023660E+01  0.25751898212E+02  0.00000000000E+00 0. -1.
</event>
<event>
 7    1  0.1920603E-013  0.7246159E+02  0.7816164E-02  0.1226708E+00
        -11   -1    0    0    0    0  0.00000000000E+00  0.00000000000E+00  0.45593999997E+02  0.45594000000E+02  0.51100000000E-03 0. -1.
         11   -1    0    0    0    0 -0.00000000000E+00 -0.00000000000E+00 -0.45593999997E+02  0.45594000000E+02  0.51100000000E-03 0.  1.
    9900012    2    1    2    0    0  0.11939162237E+01  0.98478703661E+00  0.18662344094E+02  0.72461592749E+02  0.70000029251E+02 0.  0.
        -12    1    1    2    0    0 -0.11939162237E+01 -0.98478703661E+00 -0.18662344094E+02  0.18726407251E+02  0.00000000000E+00 0.  1.
         11    1    3    3    0    0  0.26144477388E+02  0.62340376008E+01  0.33230402645E+02  0.42739403165E+02  0.51100000000E-03 0. -1.
        -11    1    3    3    0    0 -0.22627337355E+01  0.32719143432E+00 -0.20102405697E+00  0.22950880430E+01  0.51100000000E-03 0.  1.
         12    1    3    3    0    0 -0.22687827428E+02 -0.55764419985E+01 -0.14367034495E+02  0.27427101541E+02  0.00000000000E+00 0. -1.
</event>
<event>
 7    1  0.1920603E-013  0.7246155E+02  0.7816164E-02  0.1226708E+00
        -11   -1    0    0    0    0  0.00000000000E+00  0.00000000000E+00  0.45593999997E+02  0.45594000000E+02  0.51100000000E-03 0.  1.
         11   -1    0    0    0    0 -0.00000000000E+00 -0.00000000000E+00 -0.45593999997E+02  0.45594000000E+02  0.51100000000E-03 0. -1.
    9900012    2    1    2    0    0  0.95962603608E+01 -0.52657249712E+01 -0.15194208231E+02  0.72461547155E+02  0.69999969857E+02 0.  0.
        -12    1    1    2    0    0 -0.95962603608E+01  0.52657249712E+01  0.15194208231E+02  0.18726452845E+02  0.00000000000E+00 0.  1.
         11    1    3    3    0    0 -0.16395181249E+02 -0.29436006789E+02 -0.50750235991E+01  0.34073983164E+02  0.51100000000E-03 0. -1.
        -11    1    3    3    0    0  0.16717392189E+02  0.83634908440E+01 -0.46525484070E+01  0.19263057588E+02  0.51100000000E-03 0.  1.
         12    1    3    3    0    0  0.92740494207E+01  0.15806790974E+02 -0.54666362249E+01  0.19124506403E+02  0.00000000000E+00 0. -1.
</event>
<event>
 7    1  0.1920603E-013  0.7246153E+02  0.7816164E-02  0.1226708E+00
        -11   -1    0    0    0    0  0.00000000000E+00  0.00000000000E+00  0.45593999997E+02  0.45594000000E+02  0.51100000000E-03 0.  1.
         11   -1    0    0    0    0 -0.00000000000E+00 -0.00000000000E+00 -0.45593999997E+02  0.45594000000E+02  0.51100000000E-03 0. -1.
    9900012    2    1    2    0    0  0.12860599703E+02 -0.40500990077E+01 -0.12995469001E+02  0.72461533669E+02  0.69999952289E+02 0.  0.
        -12    1    1    2    0    0 -0.12860599703E+02  0.40500990077E+01  0.12995469001E+02  0.18726466331E+02  0.00000000000E+00 0.  1.
         11    1    3    3    0    0 -0.53138741307E+01 -0.67620433507E+01 -0.28063576412E+01  0.90464430593E+01  0.51100000000E-03 0. -1.
        -11    1    3    3    0    0  0.23689774269E+02  0.17696115091E+02 -0.27134140313E+02  0.40132523781E+02  0.51100000000E-03 0.  1.
        -12    1    3    3    0    0 -0.55153004360E+01 -0.14984170748E+02  0.16945028954E+02  0.23282566829E+02  0.00000000000E+00 0.  1.
</event>
<event>
 7    1  0.1920603E-013  0.7246161E+02  0.7816164E-02  0.1226708E+00
        -11   -1    0    0    0    0  0.00000000000E+00  0.00000000000E+00  0.45593999997E+02  0.45594000000E+02  0.51100000000E-03 0. -1.
         11   -1    0    0    0    0 -0.00000000000E+00 -0.00000000000E+00 -0.45593999997E+02  0.45594000000E+02  0.51100000000E-03 0.  1.
    9900012    2    1    2    0    0 -0.16774467216E+01 -0.10881576046E+02  0.15147774093E+02  0.72461612609E+02  0.70000055123E+02 0.  0.
        -12    1    1    2    0    0  0.16774467216E+01  0.10881576046E+02 -0.15147774093E+02  0.18726387391E+02  0.00000000000E+00 0.  1.
         11    1    3    3    0    0 -0.96808131897E+01  0.11964191967E+02  0.30570293762E+02  0.34225763606E+02  0.51100000000E-03 0. -1.
        -11    1    3    3    0    0  0.16156721135E+02 -0.79944320191E+01 -0.73222307847E+01  0.19456763479E+02  0.51100000000E-03 0.  1.
         12    1    3    3    0    0 -0.81533546668E+01 -0.14851335994E+02 -0.81002888846E+01  0.18779085525E+02  0.00000000000E+00 0. -1.
</event>
<event>
 7    1  0.1920603E-013  0.7246169E+02  0.7816164E-02  0.1226708E+00
        -11   -1    0    0    0    0  0.00000000000E+00  0.00000000000E+00  0.45593999997E+02  0.45594000000E+02  0.51100000000E-03 0.  1.
         11   -1    0    0    0    0 -0.00000000000E+00 -0.00000000000E+00 -0.45593999997E+02  0.45594000000E+02  0.51100000000E-03 0. -1.
    9900012    2    1    2    0    0 -0.11006785166E+02 -0.10409858032E+02 -0.11007274223E+02  0.72461693644E+02  0.70000160685E+02 0.  0.
        -12    1    1    2    0    0  0.11006785166E+02  0.10409858032E+02  0.11007274223E+02  0.18726306356E+02  0.00000000000E+00 0.  1.
         11    1    3    3    0    0 -0.12895294875E+02  0.12481296275E+02  0.48417698880E+01  0.18588010182E+02  0.51100000000E-03 0. -1.
        -11    1    3    3    0    0  0.19528301604E+02 -0.22446399640E+02 -0.19868308421E+02  0.35776320382E+02  0.51100000000E-03 0.  1.
        -12    1    3    3    0    0 -0.17639791896E+02 -0.44475466732E+00  0.40192643094E+01  0.18097363079E+02  0.00000000000E+00 0.  1.
</event>
<event>
 7    1  0.1920603E-013  0.7246120E+02  0.7816164E-02  0.1226709E+00
        -11   -1    0    0    0    0  0.00000000000E+00  0.00000000000E+00  0.45593999997E+02  0.45594000000E+02  0.51100000000E-03 0. -1.
         11   -1    0    0    0    0 -0.00000000000E+00 -0.00000000000E+00 -0.45593999997E+02  0.45594000000E+02  0.51100000000E-03 0.  1.
    9900012    2    1    2    0    0  0.11160087809E+02 -0.28397982602E+01  0.14767562243E+02  0.72461203460E+02  0.69999522129E+02 0.  0.
        -12    1    1    2    0    0 -0.11160087809E+02  0.28397982602E+01 -0.14767562243E+02  0.18726796540E+02  0.00000000000E+00 0.  1.
         11    1    3    3    0    0 -0.24194959736E+02 -0.13931594360E+02  0.71608539901E+01  0.28822963556E+02  0.51100000000E-03 0. -1.
        -11    1    3    3    0    0  0.36286032374E+02  0.11032342957E+02  0.11502738660E+02  0.39632079602E+02  0.51100000000E-03 0.  1.
         12    1    3    3    0    0 -0.93098483013E+00  0.59453142897E-01 -0.38960304076E+01  0.40061603022E+01  0.00000000000E+00 0. -1.
</event>
<event>
 7    1  0.1920603E-013  0.7246140E+02  0.7816164E-02  0.1226708E+00
        -11   -1    0    0    0    0  0.00000000000E+00  0.00000000000E+00  0.45593999997E+02  0.45594000000E+02  0.51100000000E-03 0.  1.
         11   -1    0    0    0    0 -0.00000000000E+00 -0.00000000000E+00 -0.45593999997E+02  0.45594000000E+02  0.51100000000E-03 0. -1.
    9900012    2    1    2    0    0  0.35378550932E+01  0.17801691364E+02  0.46118296520E+01  0.72461398417E+02  0.69999776098E+02 0.  0.
        -12    1    1    2    0    0 -0.35378550932E+01 -0.17801691364E+02 -0.46118296520E+01  0.18726601583E+02  0.00000000000E+00 0.  1.
         11    1    3    3    0    0  0.45842878481E+01  0.31409863408E+01  0.33178070959E+00  0.55670071823E+01  0.51100000000E-03 0. -1.
        -11    1    3    3    0    0 -0.15998023510E+02 -0.21422053003E+02  0.73140440531E+01  0.27718880782E+02  0.51100000000E-03 0.  1.
        -12    1    3    3    0    0  0.14951590755E+02  0.36082758027E+02 -0.30339951107E+01  0.39175510453E+02  0.00000000000E+00 0.  1.
</event>
<event>
 7    1  0.1920603E-013  0.7246157E+02  0.7816164E-02  0.1226708E+00
        -11   -1    0    0    0    0  0.00000000000E+00  0.00000000000E+00  0.45593999997E+02  0.45594000000E+02  0.51100000000E-03 0.  1.
         11   -1    0    0    0    0 -0.00000000000E+00 -0.00000000000E+00 -0.45593999997E+02  0.45594000000E+02  0.51100000000E-03 0. -1.
    9900012    2    1    2    0    0 -0.18349749857E+02  0.34158954616E+01 -0.15157645272E+01  0.72461569381E+02  0.69999998810E+02 0.  0.
        -12    1    1    2    0    0  0.18349749857E+02 -0.34158954616E+01  0.15157645272E+01  0.18726430619E+02  0.00000000000E+00 0.  1.
         11    1    3    3    0    0  0.63760507336E+01 -0.40471604147E+01 -0.14256892092E+02  0.16133583073E+02  0.51100000000E-03 0. -1.
        -11    1    3    3    0    0 -0.37887489592E+02  0.12813677482E+02  0.13186268699E+02  0.42113298145E+02  0.51100000000E-03 0.  1.
        -12    1    3    3    0    0  0.13161689002E+02 -0.53506216060E+01 -0.44514113397E+00  0.14214688163E+02  0.00000000000E+00 0.  1.
</event>
<event>
 7    1  0.1920603E-013  0.7246158E+02  0.7816164E-02  0.1226708E+00
        -11   -1    0    0    0    0  0.00000000000E+00  0.00000000000E+00  0.45593999997E+02  0.45594000000E+02  0.51100000000E-03 0.  1.
         11   -1    0    0    0    0 -0.00000000000E+00 -0.00000000000E+00 -0.45593999997E+02  0.45594000000E+02  0.51100000000E-03 0. -1.
    9900012    2    1    2    0    0  0.11133982912E+02 -0.54665990846E+01 -0.14029596416E+02  0.72461578648E+02  0.70000010883E+02 0.  0.
        -12    1    1    2    0    0 -0.11133982912E+02  0.54665990846E+01  0.14029596416E+02  0.18726421352E+02  0.00000000000E+00 0.  1.
         11    1    3    3    0    0  0.34758131541E+01 -0.98767580718E+00  0.45907770729E+01  0.58422611185E+01  0.51100000000E-03 0. -1.
        -11    1    3    3    0    0  0.89067328900E+01  0.24034880663E+02 -0.26644093625E+02  0.36971787956E+02  0.51100000000E-03 0.  1.
        -12    1    3    3    0    0 -0.12485631317E+01 -0.28513803940E+02  0.80237201365E+01  0.29647529574E+02  0.00000000000E+00 0.  1.
</event>
<event>
 7    1  0.1920603E-013  0.7246154E+02  0.7816164E-02  0.1226708E+00
        -11   -1    0    0    0    0  0.00000000000E+00  0.00000000000E+00  0.45593999997E+02  0.45594000000E+02  0.51100000000E-03 0. -1.
         11   -1    0    0    0    0 -0.00000000000E+00 -0.00000000000E+00 -0.45593999997E+02  0.45594000000E+02  0.51100000000E-03 0.  1.
    9900012    2    1    2    0    0  0.34169811890E+01  0.13933876343E+02 -0.12035424986E+02  0.72461544783E+02  0.69999966766E+02 0.  0.
        -12    1    1    2    0    0 -0.34169811890E+01 -0.13933876343E+02  0.12035424986E+02  0.18726455217E+02  0.00000000000E+00 0.  1.
         11    1    3    3    0    0  0.18213256929E+02 -0.10151771922E+02  0.19714857303E+02  0.28695936992E+02  0.51100000000E-03 0. -1.
        -11    1    3    3    0    0 -0.77584550663E+00  0.87042121679E+01 -0.13517505329E+02  0.16096216832E+02  0.51100000000E-03 0.  1.
         12    1    3    3    0    0 -0.14020430234E+02  0.15381436097E+02 -0.18232776960E+02  0.27669390959E+02  0.00000000000E+00 0. -1.
</event>
<event>
 7    1  0.1920603E-013  0.7246155E+02  0.7816164E-02  0.1226708E+00
        -11   -1    0    0    0    0  0.00000000000E+00  0.00000000000E+00  0.45593999997E+02  0.45594000000E+02  0.51100000000E-03 0.  1.
         11   -1    0    0    0    0 -0.00000000000E+00 -0.00000000000E+00 -0.45593999997E+02  0.45594000000E+02  0.51100000000E-03 0. -1.
    9900012    2    1    2    0    0 -0.15041955002E+02  0.79528277839E+01 -0.78212578349E+01  0.72461549344E+02  0.69999972709E+02 0.  0.
        -12    1    1    2    0    0  0.15041955002E+02 -0.79528277839E+01  0.78212578349E+01  0.18726450656E+02  0.00000000000E+00 0.  1.
         11    1    3    3    0    0 -0.56672762865E+01  0.17178861958E+02 -0.30884092659E+02  0.35791877547E+02  0.51100000000E-03 0. -1.
        -11    1    3    3    0    0  0.41719283650E+01 -0.13448381265E+02  0.13857471861E+02  0.19755846516E+02  0.51100000000E-03 0.  1.
         12    1    3    3    0    0 -0.13546607081E+02  0.42223470910E+01  0.92053629636E+01  0.16913825281E+02  0.00000000000E+00 0. -1.
</event>
<event>
 7    1  0.1920603E-013  0.7246154E+02  0.7816164E-02  0.1226708E+00
        -11   -1    0    0    0    0  0.00000000000E+00  0.00000000000E+00  0.45593999997E+02  0.45594000000E+02  0.51100000000E-03 0. -1.
         11   -1    0    0    0    0 -0.00000000000E+00 -0.00000000000E+00 -0.45593999997E+02  0.45594000000E+02  0.51100000000E-03 0.  1.
    9900012    2    1    2    0    0 -0.25756349379E+01 -0.77056733424E+01  0.16872133937E+02  0.72461542764E+02  0.69999964137E+02 0.  0.
        -12    1    1    2    0    0  0.25756349379E+01  0.77056733424E+01 -0.16872133937E+02  0.18726457236E+02  0.00000000000E+00 0.  1.
         11    1    3    3    0    0  0.23608665299E+02  0.44239179401E+01  0.25954327074E+02  0.35363359869E+02  0.51100000000E-03 0. -1.
        -11    1    3    3    0    0 -0.19335160360E+01 -0.99129975203E+01 -0.77124990839E+01  0.12707818321E+02  0.51100000000E-03 0.  1.
         12    1    3    3    0    0 -0.24250784201E+02 -0.22165937621E+01 -0.13696940526E+01  0.24390364574E+02  0.00000000000E+00 0. -1.
</event>
<event>
 7    1  0.1920603E-013  0.7246163E+02  0.7816164E-02  0.1226708E+00
        -11   -1    0    0    0    0  0.00000000000E+00  0.00000000000E+00  0.45593999997E+02  0.45594000000E+02  0.51100000000E-03 0.  1.
         11   -1    0    0    0    0 -0.00000000000E+00 -0.00000000000E+00 -0.45593999997E+02  0.45594000000E+02  0.51100000000E-03 0. -1.
    9900012    2    1    2    0    0  0.59983581766E+01  0.78298961802E+01 -0.15918202592E+02  0.72461634930E+02  0.70000084199E+02 0.  0.
        -12    1    1    2    0    0 -0.59983581766E+01 -0.78298961802E+01  0.15918202592E+02  0.18726365070E+02  0.00000000000E+00 0.  1.
         11    1    3    3    0    0  0.19509607995E+02 -0.56624674489E+01 -0.20053069774E+02  0.28544946126E+02  0.51100000000E-03 0. -1.
        -11    1    3    3    0    0  0.96707398202E+00 -0.54116410242E+01  0.16282620320E+02  0.17185599071E+02  0.51100000000E-03 0.  1.
        -12    1    3    3    0    0 -0.14478323800E+02  0.18904004653E+02 -0.12147753138E+02  0.26731089733E+02  0.00000000000E+00 0.  1.
</event>
<event>
 7    1  0.1920603E-013  0.7246187E+02  0.7816164E-02  0.1226707E+00
        -11   -1    0    0    0    0  0.00000000000E+00  0.00000000000E+00  0.45593999997E+02  0.45594000000E+02  0.51100000000E-03 0.  1.
         11   -1    0    0    0    0 -0.00000000000E+00 -0.00000000000E+00 -0.45593999997E+02  0.45594000000E+02  0.51100000000E-03 0. -1.
    9900012    2    1    2    0    0  0.61921353535E+01 -0.10827581214E+02 -0.13967418345E+02  0.72461873054E+02  0.70000394399E+02 0.  0.
        -12    1    1    2    0    0 -0.61921353535E+01  0.10827581214E+02  0.13967418345E+02  0.18726126946E+02  0.00000000000E+00 0.  1.
         11    1    3    3    0    0 -0.11550120796E+02 -0.10421593876E+02  0.19123363527E+02  0.24651935871E+02  0.51100000000E-03 0.  1.
        -11    1    3    3    0    0  0.10970522634E+02 -0.24521331032E+01 -0.37717585564E+02  0.39357103357E+02  0.51100000000E-03 0. -1.
         12    1    3    3    0    0  0.67717335158E+01  0.20461457650E+01  0.46268036913E+01  0.84528338265E+01  0.00000000000E+00 0. -1.
</event>
<event>
 7    1  0.1920603E-013  0.7246157E+02  0.7816164E-02  0.1226708E+00
        -11   -1    0    0    0    0  0.00000000000E+00  0.00000000000E+00  0.45593999997E+02  0.45594000000E+02  0.51100000000E-03 0.  1.
         11   -1    0    0    0    0 -0.00000000000E+00 -0.00000000000E+00 -0.45593999997E+02  0.45594000000E+02  0.51100000000E-03 0. -1.
    9900012    2    1    2    0    0 -0.52361641182E+00  0.18718635388E+02  0.13237197842E+00  0.72461574627E+02  0.70000005644E+02 0.  0.
        -12    1    1    2    0    0  0.52361641182E+00 -0.18718635388E+02 -0.13237197842E+00  0.18726425373E+02  0.00000000000E+00 0.  1.
         11    1    3    3    0    0 -0.15353342023E+02 -0.18670411022E+02  0.25396688619E+01  0.24305540051E+02  0.51100000000E-03 0. -1.
        -11    1    3    3    0    0  0.11625427889E+02  0.82727641801E+01 -0.10559350659E+02  0.17750748925E+02  0.51100000000E-03 0.  1.
         12    1    3    3    0    0  0.32042977228E+01  0.29116282229E+02  0.81520537760E+01  0.30405285651E+02  0.00000000000E+00 0. -1.
</event>
<event>
 7    1  0.1920603E-013  0.7246157E+02  0.7816164E-02  0.1226708E+00
        -11   -1    0    0    0    0  0.00000000000E+00  0.00000000000E+00  0.45593999997E+02  0.45594000000E+02  0.51100000000E-03 0.  1.
         11   -1    0    0    0    0 -0.00000000000E+00 -0.00000000000E+00 -0.45593999997E+02  0.45594000000E+02  0.51100000000E-03 0. -1.
    9900012    2    1    2    0    0 -0.16173150325E+02  0.84311402545E+01 -0.42455084009E+01  0.72461567905E+02  0.69999996887E+02 0.  0.
        -12    1    1    2    0    0  0.16173150325E+02 -0.84311402545E+01  0.42455084009E+01  0.18726432095E+02  0.00000000000E+00 0.  1.
         11    1    3    3    0    0  0.22043270232E+01  0.57802219514E+01 -0.91114479219E+00  0.62530159544E+01  0.51100000000E-03 0. -1.
        -11    1    3    3    0    0 -0.23035494524E+02 -0.25754789475E+02 -0.11278093696E+02  0.36347470153E+02  0.51100000000E-03 0.  1.
        -12    1    3    3    0    0  0.46580171753E+01  0.28405707778E+02  0.79437300871E+01  0.29861081797E+02  0.00000000000E+00 0.  1.
</event>
<event>
 7    1  0.1920603E-013  0.7246161E+02  0.7816164E-02  0.1226708E+00
        -11   -1    0    0    0    0  0.00000000000E+00  0.00000000000E+00  0.45593999997E+02  0.45594000000E+02  0.51100000000E-03 0.  1.
         11   -1    0    0    0    0 -0.00000000000E+00 -0.00000000000E+00 -0.45593999997E+02  0.45594000000E+02  0.51100000000E-03 0. -1.
    9900012    2    1    2    0    0 -0.64608968237E+01  0.13504747483E+02  0.11249730540E+02  0.72461606072E+02  0.70000046606E+02 0.  0.
        -12    1    1    2    0    0  0.64608968237E+01 -0.13504747483E+02 -0.11249730540E+02  0.18726393928E+02  0.00000000000E+00 0.  1.
         11    1    3    3    0    0  0.18847870036E+02 -0.17888627366E+02 -0.51659396441E+01  0.26494001709E+02  0.51100000000E-03 0. -1.
        -11    1    3    3    0    0 -0.11146233243E+02  0.19833323358E+02  0.22921951407E+01  0.22865987618E+02  0.51100000000E-03 0.  1.
         12    1    3    3    0    0 -0.14162533616E+02  0.11560051491E+02  0.14123475043E+02  0.23101616744E+02  0.00000000000E+00 0. -1.
</event>
<event>
 7    1  0.1920603E-013  0.7246156E+02  0.7816164E-02  0.1226708E+00
        -11   -1    0    0    0    0  0.00000000000E+00  0.00000000000E+00  0.45593999997E+02  0.45594000000E+02  0.51100000000E-03 0.  1.
         11   -1    0    0    0    0 -0.00000000000E+00 -0.00000000000E+00 -0.45593999997E+02  0.45594000000E+02  0.51100000000E-03 0. -1.
    9900012    2    1    2    0    0  0.63965714702E+00  0.18426683966E+02  0.32753329181E+01  0.72461557493E+02  0.69999983324E+02 0.  0.
        -12    1    1    2    0    0 -0.63965714702E+00 -0.18426683966E+02 -0.32753329181E+01  0.18726442507E+02  0.00000000000E+00 0.  1.
         11    1    3    3    0    0 -0.47120914082E+01 -0.49970639157E+01 -0.10767252565E+02  0.12771381338E+02  0.51100000000E-03 0. -1.
        -11    1    3    3    0    0  0.23011407574E+02  0.68926347695E+00  0.19761606998E+02  0.30340090212E+02  0.51100000000E-03 0.  1.
        -12    1    3    3    0    0 -0.17659659019E+02  0.22734484404E+02 -0.57190215154E+01  0.29350085943E+02  0.00000000000E+00 0.  1.
</event>
<event>
 7    1  0.1920603E-013  0.7246162E+02  0.7816164E-02  0.1226708E+00
        -11   -1    0    0    0    0  0.00000000000E+00  0.00000000000E+00  0.45593999997E+02  0.45594000000E+02  0.51100000000E-03 0. -1.
         11   -1    0    0    0    0 -0.00000000000E+00 -0.00000000000E+00 -0.45593999997E+02  0.45594000000E+02  0.51100000000E-03 0.  1.
    9900012    2    1    2    0    0 -0.71128537703E+01  0.64607743709E+00  0.17310902856E+02  0.72461615872E+02  0.70000059374E+02 0.  0.
        -12    1    1    2    0    0  0.71128537703E+01 -0.64607743709E+00 -0.17310902856E+02  0.18726384128E+02  0.00000000000E+00 0.  1.
         11    1    3    3    0    0  0.26544114268E+02  0.44941247361E+01  0.21600552955E+02  0.34516243243E+02  0.51100000000E-03 0. -1.
        -11    1    3    3    0    0 -0.10630056521E+02  0.64419513621E+01 -0.23458649825E+01  0.12649107548E+02  0.51100000000E-03 0.  1.
         12    1    3    3    0    0 -0.23026911517E+02 -0.10289998661E+02 -0.19437851168E+01  0.25296265081E+02  0.00000000000E+00 0. -1.
</event>
<event>
 7    1  0.1920603E-013  0.7246160E+02  0.7816164E-02  0.1226708E+00
        -11   -1    0    0    0    0  0.00000000000E+00  0.00000000000E+00  0.45593999997E+02  0.45594000000E+02  0.51100000000E-03 0.  1.
         11   -1    0    0    0    0 -0.00000000000E+00 -0.00000000000E+00 -0.45593999997E+02  0.45594000000E+02  0.51100000000E-03 0. -1.
    9900012    2    1    2    0    0  0.15603988413E+02  0.83315727867E+01 -0.61464316262E+01  0.72461596682E+02  0.70000034375E+02 0.  0.
        -12    1    1    2    0    0 -0.15603988413E+02 -0.83315727867E+01  0.61464316262E+01  0.18726403318E+02  0.00000000000E+00 0.  1.
         11    1    3    3    0    0  0.97786997821E+01  0.25626206919E+02 -0.27705870244E+02  0.38986416824E+02  0.51100000000E-03 0. -1.
        -11    1    3    3    0    0  0.13078591302E+01 -0.15548430627E+02  0.23540779585E+02  0.28242388252E+02  0.51100000000E-03 0.  1.
        -12    1    3    3    0    0  0.45174295004E+01 -0.17462035051E+01 -0.19813409665E+01  0.52327916065E+01  0.00000000000E+00 0.  1.
</event>
<event>
 7    1  0.1920603E-013  0.7246158E+02  0.7816164E-02  0.1226708E+00
        -11   -1    0    0    0    0  0.00000000000E+00  0.00000000000E+00  0.45593999997E+02  0.45594000000E+02  0.51100000000E-03 0.  1.
         11   -1    0    0    0    0 -0.00000000000E+00 -0.00000000000E+00 -0.45593999997E+02  0.45594000000E+02  0.51100000000E-03 0. -1.
    9900012    2    1    2    0    0  0.12895564712E+01 -0.14932014239E+02 -0.11227234688E+02  0.72461580058E+02  0.70000012719E+02 0.  0.
        -12    1    1    2    0    0 -0.12895564712E+01  0.14932014239E+02  0.11227234688E+02  0.18726419942E+02  0.00000000000E+00 0.  1.
         11    1    3    3    0    0 -0.55438173621E+01 -0.22020623246E+02 -0.15062347162E+02  0.27249147901E+02  0.51100000000E-03 0. -1.
        -11    1    3    3    0    0  0.19223920541E+02 -0.29035944534E+01  0.15999554516E+02  0.25178874611E+02  0.51100000000E-03 0.  1.
        -12    1    3    3    0    0 -0.12390546708E+02  0.99922034605E+01 -0.12164442042E+02  0.20033557545E+02  0.00000000000E+00 0.  1.
</event>
<event>
 7    1  0.1920603E-013  0.7246160E+02  0.7816164E-02  0.1226708E+00
        -11   -1    0    0    0    0  0.00000000000E+00  0.00000000000E+00  0.45593999997E+02  0.45594000000E+02  0.51100000000E-03 0.  1.
         11   -1    0    0    0    0 -0.00000000000E+00 -0.00000000000E+00 -0.45593999997E+02  0.45594000000E+02  0.51100000000E-03 0. -1.
    9900012    2    1    2    0    0  0.17931840306E+02  0.51849888530E+01 -0.14976900918E+01  0.72461599337E+02  0.70000037834E+02 0.  0.
        -12    1    1    2    0    0 -0.17931840306E+02 -0.51849888530E+01  0.14976900918E+01  0.18726400663E+02  0.00000000000E+00 0.  1.
         11    1    3    3    0    0  0.84715737911E+01 -0.20239143435E+02  0.20350988536E+01  0.22034793330E+02  0.51100000000E-03 0. -1.
        -11    1    3    3    0    0 -0.10328726227E+02  0.73523462067E+01  0.13620592924E+02  0.18608066318E+02  0.51100000000E-03 0.  1.
         12    1    3    3    0    0  0.19788992742E+02  0.18071786081E+02 -0.17153381870E+02  0.31818739690E+02  0.00000000000E+00 0. -1.
</event>
<event>
 7    1  0.1920603E-013  0.7246157E+02  0.7816164E-02  0.1226708E+00
        -11   -1    0    0    0    0  0.00000000000E+00  0.00000000000E+00  0.45593999997E+02  0.45594000000E+02  0.51100000000E-03 0. -1.
         11   -1    0    0    0    0 -0.00000000000E+00 -0.00000000000E+00 -0.45593999997E+02  0.45594000000E+02  0.51100000000E-03 0.  1.
    9900012    2    1    2    0    0 -0.12006846897E+02 -0.43689025562E+00  0.14363984009E+02  0.72461567288E+02  0.69999996084E+02 0.  0.
        -12    1    1    2    0    0  0.12006846897E+02  0.43689025562E+00 -0.14363984009E+02  0.18726432712E+02  0.00000000000E+00 0.  1.
         11    1    3    3    0    0 -0.24079332759E+02 -0.19981814094E+01  0.18398219190E+02  0.30369416601E+02  0.51100000000E-03 0. -1.
        -11    1    3    3    0    0  0.37395430609E+01  0.19359099031E+02  0.51817817680E+01  0.20386509269E+02  0.51100000000E-03 0.  1.
         12    1    3    3    0    0  0.83329428016E+01 -0.17797807877E+02 -0.92160169491E+01  0.21705641418E+02  0.00000000000E+00 0. -1.
</event>
<event>
 7    1  0.1920603E-013  0.7246154E+02  0.7816164E-02  0.1226708E+00
        -11   -1    0    0    0    0  0.00000000000E+00  0.00000000000E+00  0.45593999997E+02  0.45594000000E+02  0.51100000000E-03 0.  1.
         11   -1    0    0    0    0 -0.00000000000E+00 -0.00000000000E+00 -0.45593999997E+02  0.45594000000E+02  0.51100000000E-03 0. -1.
    9900012    2    1    2    0    0  0.14568886114E+02  0.54813671044E+00  0.11752765397E+02  0.72461537683E+02  0.69999957517E+02 0.  0.
        -12    1    1    2    0    0 -0.14568886114E+02 -0.54813671044E+00 -0.11752765397E+02  0.18726462317E+02  0.00000000000E+00 0.  1.
         11    1    3    3    0    0 -0.18489337675E+02 -0.10560637196E+02  0.20767821103E+02  0.29743655782E+02  0.51100000000E-03 0. -1.
        -11    1    3    3    0    0  0.43932536427E+01  0.12298783279E+02 -0.24781261102E+01  0.13292925072E+02  0.51100000000E-03 0.  1.
         12    1    3    3    0    0  0.28664970147E+02 -0.11900093723E+01 -0.65369295958E+01  0.29424956829E+02  0.00000000000E+00 0. -1.
</event>
<event>
 7    1  0.1920603E-013  0.7246107E+02  0.7816164E-02  0.1226709E+00
        -11   -1    0    0    0    0  0.00000000000E+00  0.00000000000E+00  0.45593999997E+02  0.45594000000E+02  0.51100000000E-03 0.  1.
         11   -1    0    0    0    0 -0.00000000000E+00 -0.00000000000E+00 -0.45593999997E+02  0.45594000000E+02  0.51100000000E-03 0. -1.
    9900012    2    1    2    0    0 -0.13594947188E+02  0.10583795626E+02 -0.73388310897E+01  0.72461073913E+02  0.69999353368E+02 0.  0.
        -12    1    1    2    0    0  0.13594947188E+02 -0.10583795626E+02  0.73388310897E+01  0.18726926087E+02  0.00000000000E+00 0.  1.
         11    1    3    3    0    0 -0.12057450071E+02 -0.41847961109E+01  0.18538484222E+02  0.22507110393E+02  0.51100000000E-03 0.  1.
        -11    1    3    3    0    0  0.43472780007E+01 -0.68602654462E+01 -0.26309613022E+02  0.27534665526E+02  0.51100000000E-03 0. -1.
        -12    1    3    3    0    0 -0.58847751176E+01  0.21628857183E+02  0.43229770986E+00  0.22419297994E+02  0.00000000000E+00 0.  1.
</event>
<event>
 7    1  0.1920603E-013  0.7246179E+02  0.7816164E-02  0.1226707E+00
        -11   -1    0    0    0    0  0.00000000000E+00  0.00000000000E+00  0.45593999997E+02  0.45594000000E+02  0.51100000000E-03 0.  1.
         11   -1    0    0    0    0 -0.00000000000E+00 -0.00000000000E+00 -0.45593999997E+02  0.45594000000E+02  0.51100000000E-03 0. -1.
    9900012    2    1    2    0    0  0.88149420874E+01  0.12279101469E+02 -0.11054018842E+02  0.72461791910E+02  0.70000288695E+02 0.  0.
        -12    1    1    2    0    0 -0.88149420874E+01 -0.12279101469E+02  0.11054018842E+02  0.18726208090E+02  0.00000000000E+00 0.  1.
         11    1    3    3    0    0 -0.22156137655E+02 -0.68957820556E+01  0.37535928894E+01  0.23506078060E+02  0.51100000000E-03 0. -1.
        -11    1    3    3    0    0  0.25256488953E+02  0.64212332176E+01 -0.21193935052E+02  0.33590256824E+02  0.51100000000E-03 0.  1.
        -12    1    3    3    0    0  0.57145907893E+01  0.12753650307E+02  0.63863233215E+01  0.15365457025E+02  0.00000000000E+00 0.  1.
</event>
<event>
 7    1  0.1920603E-013  0.7246155E+02  0.7816164E-02  0.1226708E+00
        -11   -1    0    0    0    0  0.00000000000E+00  0.00000000000E+00  0.45593999997E+02  0.45594000000E+02  0.51100000000E-03 0.  1.
         11   -1    0    0    0    0 -0.00000000000E+00 -0.00000000000E+00 -0.45593999997E+02  0.45594000000E+02  0.51100000000E-03 0. -1.
    9900012    2    1    2    0    0 -0.18035107775E+01 -0.18490739517E+02  0.23494669407E+01  0.72461545613E+02  0.69999967848E+02 0.  0.
        -12    1    1    2    0    0  0.18035107775E+01  0.18490739517E+02 -0.23494669407E+01  0.18726454387E+02  0.00000000000E+00 0.  1.
         11    1    3    3    0    0 -0.53575508323E+01  0.17276085164E+02 -0.93230514819E+01  0.20349097245E+02  0.51100000000E-03 0. -1.
        -11    1    3    3    0    0 -0.14195951343E+02 -0.24042003682E+02  0.12999601276E+02  0.30798256593E+02  0.51100000000E-03 0.  1.
         12    1    3    3    0    0  0.17749991398E+02 -0.11724820999E+02 -0.13270828535E+01  0.21314191774E+02  0.00000000000E+00 0. -1.
</event>
<event>
 7    1  0.1920603E-013  0.7246159E+02  0.7816164E-02  0.1226708E+00
        -11   -1    0    0    0    0  0.00000000000E+00  0.00000000000E+00  0.45593999997E+02  0.45594000000E+02  0.51100000000E-03 0. -1.
         11   -1    0    0    0    0 -0.00000000000E+00 -0.00000000000E+00 -0.45593999997E+02  0.45594000000E+02  0.51100000000E-03 0.  1.
    9900012    2    1    2    0    0  0.17043324692E+02  0.27367672418E+01  0.72604056181E+01  0.72461593477E+02  0.70000030200E+02 0.  0.
        -12    1    1    2    0    0 -0.17043324692E+02 -0.27367672418E+01 -0.72604056181E+01  0.18726406523E+02  0.00000000000E+00 0.  1.
         11    1    3    3    0    0 -0.57956997390E+01 -0.45302757995E+01 -0.23196826934E+02  0.24335289486E+02  0.51100000000E-03 0. -1.
        -11    1    3    3    0    0  0.58480534906E+01 -0.29973292888E+01  0.27234009346E+02  0.28015620247E+02  0.51100000000E-03 0.  1.
         12    1    3    3    0    0  0.16990970941E+02  0.10264372330E+02  0.32232232055E+01  0.20110683745E+02  0.00000000000E+00 0. -1.
</event>
<event>
 7    1  0.1920603E-013  0.7246164E+02  0.7816164E-02  0.1226708E+00
        -11   -1    0    0    0    0  0.00000000000E+00  0.00000000000E+00  0.45593999997E+02  0.45594000000E+02  0.51100000000E-03 0. -1.
         11   -1    0    0    0    0 -0.00000000000E+00 -0.00000000000E+00 -0.45593999997E+02  0.45594000000E+02  0.51100000000E-03 0.  1.
    9900012    2    1    2    0    0 -0.19674777078E+01 -0.18503508504E+02  0.21037292864E+01  0.72461642308E+02  0.70000093812E+02 0.  0.
        -12    1    1    2    0    0  0.19674777078E+01  0.18503508504E+02 -0.21037292864E+01  0.18726357692E+02  0.00000000000E+00 0.  1.
         11    1    3    3    0    0 -0.18109177347E+02  0.97783919462E+01 -0.43055727167E+01  0.21026107816E+02  0.51100000000E-03 0. -1.
        -11    1    3    3    0    0  0.27306386995E+01 -0.35587676782E+02  0.32470487929E+01  0.35839677071E+02  0.51100000000E-03 0.  1.
         12    1    3    3    0    0  0.13411060940E+02  0.73057763315E+01  0.31622532101E+01  0.15595857421E+02  0.00000000000E+00 0. -1.
</event>
<event>
 7    1  0.1920603E-013  0.7246153E+02  0.7816164E-02  0.1226708E+00
        -11   -1    0    0    0    0  0.00000000000E+00  0.00000000000E+00  0.45593999997E+02  0.45594000000E+02  0.51100000000E-03 0. -1.
         11   -1    0    0    0    0 -0.00000000000E+00 -0.00000000000E+00 -0.45593999997E+02  0.45594000000E+02  0.51100000000E-03 0.  1.
    9900012    2    1    2    0    0 -0.13666055464E+02  0.11695791674E+02  0.52084522781E+01  0.72461532368E+02  0.69999950594E+02 0.  0.
        -12    1    1    2    0    0  0.13666055464E+02 -0.11695791674E+02 -0.52084522781E+01  0.18726467632E+02  0.00000000000E+00 0.  1.
         11    1    3    3    0    0  0.99233587618E+01 -0.65155319135E+01  0.85145867030E+01  0.14609017497E+02  0.51100000000E-03 0. -1.
        -11    1    3    3    0    0 -0.24719925490E+02  0.10966680701E+02  0.19860848474E+02  0.33552885185E+02  0.51100000000E-03 0.  1.
        -12    1    3    3    0    0  0.11305112649E+01  0.72446428873E+01 -0.23166982899E+02  0.24299629687E+02  0.00000000000E+00 0.  1.
</event>
<event>
 7    1  0.1920603E-013  0.7246160E+02  0.7816164E-02  0.1226708E+00
        -11   -1    0    0    0    0  0.00000000000E+00  0.00000000000E+00  0.45593999997E+02  0.45594000000E+02  0.51100000000E-03 0.  1.
         11   -1    0    0    0    0 -0.00000000000E+00 -0.00000000000E+00 -0.45593999997E+02  0.45594000000E+02  0.51100000000E-03 0. -1.
    9900012    2    1    2    0    0  0.42878837118E+01 -0.18222924234E+02 -0.46615196680E+00  0.72461595860E+02  0.70000033304E+02 0.  0.
        -12    1    1    2    0    0 -0.42878837118E+01  0.18222924234E+02  0.46615196680E+00  0.18726404140E+02  0.00000000000E+00 0.  1.
         11    1    3    3    0    0 -0.22591673476E+02 -0.58412377468E+01 -0.11716636141E+02  0.26110981054E+02  0.51100000000E-03 0.  1.
        -11    1    3    3    0    0  0.17936630991E+02 -0.62950565184E+01  0.23357235717E+02  0.30114961870E+02  0.51100000000E-03 0. -1.
         12    1    3    3    0    0  0.89429261977E+01 -0.60866299684E+01 -0.12106751543E+02  0.16235652936E+02  0.00000000000E+00 0. -1.
</event>
<event>
 7    1  0.1920603E-013  0.7246156E+02  0.7816164E-02  0.1226708E+00
        -11   -1    0    0    0    0  0.00000000000E+00  0.00000000000E+00  0.45593999997E+02  0.45594000000E+02  0.51100000000E-03 0.  1.
         11   -1    0    0    0    0 -0.00000000000E+00 -0.00000000000E+00 -0.45593999997E+02  0.45594000000E+02  0.51100000000E-03 0. -1.
    9900012    2    1    2    0    0 -0.14449165888E+02 -0.15972457774E+01 -0.11804656482E+02  0.72461561375E+02  0.69999988381E+02 0.  0.
        -12    1    1    2    0    0  0.14449165888E+02  0.15972457774E+01  0.11804656482E+02  0.18726438625E+02  0.00000000000E+00 0.  1.
         11    1    3    3    0    0 -0.95031294866E+00  0.13963530716E+02 -0.22826209769E+02  0.26775345701E+02  0.51100000000E-03 0. -1.
        -11    1    3    3    0    0  0.47008628147E+01 -0.23737113771E+02  0.39516307792E+01  0.24518647342E+02  0.51100000000E-03 0.  1.
        -12    1    3    3    0    0 -0.18199715754E+02  0.81763372781E+01  0.70699225078E+01  0.21167568332E+02  0.00000000000E+00 0.  1.
</event>
<event>
 7    1  0.1920603E-013  0.7246159E+02  0.7816164E-02  0.1226708E+00
        -11   -1    0    0    0    0  0.00000000000E+00  0.00000000000E+00  0.45593999997E+02  0.45594000000E+02  0.51100000000E-03 0.  1.
         11   -1    0    0    0    0 -0.00000000000E+00 -0.00000000000E+00 -0.45593999997E+02  0.45594000000E+02  0.51100000000E-03 0. -1.
    9900012    2    1    2    0    0  0.13531362586E+02 -0.82597563777E+01 -0.99677947227E+01  0.72461594032E+02  0.70000030923E+02 0.  0.
        -12    1    1    2    0    0 -0.13531362586E+02  0.82597563777E+01  0.99677947227E+01  0.18726405968E+02  0.00000000000E+00 0.  1.
         11    1    3    3    0    0 -0.19582637210E+02  0.60095339335E+01 -0.19551864832E+02  0.28317302076E+02  0.51100000000E-03 0. -1.
        -11    1    3    3    0    0  0.32011697165E+02 -0.43148023018E+01  0.36594893415E+01  0.32507816549E+02  0.51100000000E-03 0.  1.
         12    1    3    3    0    0  0.11023026307E+01 -0.99544880095E+01  0.59245807674E+01  0.11636475407E+02  0.00000000000E+00 0. -1.
</event>
<event>
 7    1  0.1920603E-013  0.7246147E+02  0.7816164E-02  0.1226708E+00
        -11   -1    0    0    0    0  0.00000000000E+00  0.00000000000E+00  0.45593999997E+02  0.45594000000E+02  0.51100000000E-03 0.  1.
         11   -1    0    0    0    0 -0.00000000000E+00 -0.00000000000E+00 -0.45593999997E+02  0.45594000000E+02  0.51100000000E-03 0. -1.
    9900012    2    1    2    0    0  0.13855249840E+02 -0.93294532964E+01 -0.84661904191E+01  0.72461467295E+02  0.69999865824E+02 0.  0.
        -12    1    1    2    0    0 -0.13855249840E+02  0.93294532964E+01  0.84661904191E+01  0.18726532705E+02  0.00000000000E+00 0.  1.
         11    1    3    3    0    0  0.29160607303E+01  0.48981319484E+01 -0.16594079938E+02  0.17545899693E+02  0.51100000000E-03 0. -1.
        -11    1    3    3    0    0  0.19910791836E+02 -0.30063860889E+02  0.42822427399E+01  0.36312710808E+02  0.51100000000E-03 0.  1.
        -12    1    3    3    0    0 -0.89716027257E+01  0.15836275644E+02  0.38456467795E+01  0.18602856794E+02  0.00000000000E+00 0.  1.
</event>
<event>
 7    1  0.1920603E-013  0.7246159E+02  0.7816164E-02  0.1226708E+00
        -11   -1    0    0    0    0  0.00000000000E+00  0.00000000000E+00  0.45593999997E+02  0.45594000000E+02  0.51100000000E-03 0. -1.
         11   -1    0    0    0    0 -0.00000000000E+00 -0.00000000000E+00 -0.45593999997E+02  0.45594000000E+02  0.51100000000E-03 0.  1.
    9900012    2    1    2    0    0  0.11187833971E+02  0.53628197705E+01  0.14026793167E+02  0.72461591071E+02  0.70000027065E+02 0.  0.
        -12    1    1    2    0    0 -0.11187833971E+02 -0.53628197705E+01 -0.14026793167E+02  0.18726408929E+02  0.00000000000E+00 0.  1.
         11    1    3    3    0    0  0.19927496865E+02 -0.20194993100E+01  0.37752727990E+02  0.42737009484E+02  0.51100000000E-03 0. -1.
        -11    1    3    3    0    0  0.23810807487E+01  0.58891279384E+01 -0.11444656159E+02  0.13089366993E+02  0.51100000000E-03 0.  1.
         12    1    3    3    0    0 -0.11120743643E+02  0.14931911421E+01 -0.12281278664E+02  0.16635214593E+02  0.00000000000E+00 0. -1.
</event>
<event>
 7    1  0.1920603E-013  0.7246153E+02  0.7816164E-02  0.1226708E+00
        -11   -1    0    0    0    0  0.00000000000E+00  0.00000000000E+00  0.45593999997E+02  0.45594000000E+02  0.51100000000E-03 0.  1.
         11   -1    0    0    0    0 -0.00000000000E+00 -0.00000000000E+00 -0.45593999997E+02  0.45594000000E+02  0.51100000000E-03 0. -1.
    9900012    2    1    2    0    0  0.11747033744E+02  0.13487045876E+02 -0.55486594880E+01  0.72461525950E+02  0.69999942233E+02 0.  0.
        -12    1    1    2    0    0 -0.11747033744E+02 -0.13487045876E+02  0.55486594880E+01  0.18726474050E+02  0.00000000000E+00 0.  1.
         11    1    3    3    0    0 -0.82035558388E+00 -0.21094143554E+02  0.17842910783E+02  0.27640646538E+02  0.51100000000E-03 0. -1.
        -11    1    3    3    0    0  0.10221644778E+02  0.25216976317E+02 -0.11593804084E+02  0.29576920224E+02  0.51100000000E-03 0.  1.
         12    1    3    3    0    0  0.23457445499E+01  0.93642131133E+01 -0.11797766187E+02  0.15243959188E+02  0.00000000000E+00 0. -1.
</event>
<event>
 7    1  0.1920603E-013  0.7246128E+02  0.7816164E-02  0.1226709E+00
        -11   -1    0    0    0    0  0.00000000000E+00  0.00000000000E+00  0.45593999997E+02  0.45594000000E+02  0.51100000000E-03 0.  1.
         11   -1    0    0    0    0 -0.00000000000E+00 -0.00000000000E+00 -0.45593999997E+02  0.45594000000E+02  0.51100000000E-03 0. -1.
    9900012    2    1    2    0    0 -0.17744670508E+02 -0.24207642159E+01 -0.54732614507E+01  0.72461280540E+02  0.69999622541E+02 0.  0.
        -12    1    1    2    0    0  0.17744670508E+02  0.24207642159E+01  0.54732614507E+01  0.18726719460E+02  0.00000000000E+00 0.  1.
         11    1    3    3    0    0 -0.16426646495E+02 -0.30757130540E+02  0.75520475808E+01  0.35677292737E+02  0.51100000000E-03 0. -1.
        -11    1    3    3    0    0  0.85427730188E+01  0.14618777204E+02 -0.31717136535E+01  0.17226357292E+02  0.51100000000E-03 0.  1.
        -12    1    3    3    0    0 -0.98607970316E+01  0.13717589120E+02 -0.98535953780E+01  0.19557630512E+02  0.00000000000E+00 0.  1.
</event>
<event>
 7    1  0.1920603E-013  0.7246153E+02  0.7816164E-02  0.1226708E+00
        -11   -1    0    0    0    0  0.00000000000E+00  0.00000000000E+00  0.45593999997E+02  0.45594000000E+02  0.51100000000E-03 0.  1.
         11   -1    0    0    0    0 -0.00000000000E+00 -0.00000000000E+00 -0.45593999997E+02  0.45594000000E+02  0.51100000000E-03 0. -1.
    9900012    2    1    2    0    0 -0.10966866418E+02 -0.13174387480E+02 -0.75394906098E+01  0.72461533084E+02  0.69999951527E+02 0.  0.
        -12    1    1    2    0    0  0.10966866418E+02  0.13174387480E+02  0.75394906098E+01  0.18726466916E+02  0.00000000000E+00 0.  1.
         11    1    3    3    0    0 -0.31256829252E+02 -0.30331314410E+02 -0.73559873159E+01  0.44171128109E+02  0.51100000000E-03 0. -1.
        -11    1    3    3    0    0  0.17916172141E+02  0.11093264135E+02 -0.28294799095E+01  0.21261601308E+02  0.51100000000E-03 0.  1.
         12    1    3    3    0    0  0.23737906929E+01  0.60636627945E+01  0.26459766156E+01  0.70288036670E+01  0.00000000000E+00 0. -1.
</event>
<event>
 7    1  0.1920603E-013  0.7246155E+02  0.7816164E-02  0.1226708E+00
        -11   -1    0    0    0    0  0.00000000000E+00  0.00000000000E+00  0.45593999997E+02  0.45594000000E+02  0.51100000000E-03 0. -1.
         11   -1    0    0    0    0 -0.00000000000E+00 -0.00000000000E+00 -0.45593999997E+02  0.45594000000E+02  0.51100000000E-03 0.  1.
    9900012    2    1    2    0    0  0.88677893195E+01  0.19761118561E+01  0.16374893950E+02  0.72461551929E+02  0.69999976075E+02 0.  0.
        -12    1    1    2    0    0 -0.88677893195E+01 -0.19761118561E+01 -0.16374893950E+02  0.18726448071E+02  0.00000000000E+00 0.  1.
         11    1    3    3    0    0 -0.52143118058E+01  0.16710704146E+02 -0.36005117079E+01  0.17871775667E+02  0.51100000000E-03 0. -1.
        -11    1    3    3    0    0  0.17904623103E+02 -0.27896975935E+02  0.23260630871E+02  0.40495354593E+02  0.51100000000E-03 0.  1.
        -12    1    3    3    0    0 -0.38225219780E+01  0.13162383645E+02 -0.32852252130E+01  0.14094421669E+02  0.00000000000E+00 0.  1.
</event>
<event>
 7    1  0.1920603E-013  0.7246158E+02  0.7816164E-02  0.1226708E+00
        -11   -1    0    0    0    0  0.00000000000E+00  0.00000000000E+00  0.45593999997E+02  0.45594000000E+02  0.51100000000E-03 0.  1.
         11   -1    0    0    0    0 -0.00000000000E+00 -0.00000000000E+00 -0.45593999997E+02  0.45594000000E+02  0.51100000000E-03 0. -1.
    9900012    2    1    2    0    0 -0.11953053850E+02 -0.96948201869E+01 -0.10668356131E+02  0.72461578630E+02  0.70000010858E+02 0.  0.
        -12    1    1    2    0    0  0.11953053850E+02  0.96948201869E+01  0.10668356131E+02  0.18726421370E+02  0.00000000000E+00 0.  1.
         11    1    3    3    0    0  0.60283072407E+00 -0.26117850780E+02 -0.69758538353E+01  0.27040119660E+02  0.51100000000E-03 0. -1.
        -11    1    3    3    0    0  0.10536414424E+02  0.18475350350E+02  0.25273745223E+01  0.21418268410E+02  0.51100000000E-03 0.  1.
         12    1    3    3    0    0 -0.23092298998E+02 -0.20523197572E+01 -0.62198768175E+01  0.24003190560E+02  0.00000000000E+00 0. -1.
</event>
<event>
 7    1  0.1920603E-013  0.7246159E+02  0.7816164E-02  0.1226708E+00
        -11   -1    0    0    0    0  0.00000000000E+00  0.00000000000E+00  0.45593999997E+02  0.45594000000E+02  0.51100000000E-03 0. -1.
         11   -1    0    0    0    0 -0.00000000000E+00 -0.00000000000E+00 -0.45593999997E+02  0.45594000000E+02  0.51100000000E-03 0.  1.
    9900012    2    1    2    0    0  0.19824216559E+00 -0.16265586622E+02  0.92773799322E+01  0.72461591200E+02  0.70000027234E+02 0.  0.
        -12    1    1    2    0    0 -0.19824216559E+00  0.16265586622E+02 -0.92773799322E+01  0.18726408800E+02  0.00000000000E+00 0.  1.
         11    1    3    3    0    0 -0.14815944286E+02  0.18032350684E+02  0.16878972966E+02  0.28802388876E+02  0.51100000000E-03 0.  1.
        -11    1    3    3    0    0  0.19002710679E+02 -0.29344187408E+02 -0.10732987718E+02  0.36570225231E+02  0.51100000000E-03 0. -1.
         12    1    3    3    0    0 -0.39885242277E+01 -0.49537498982E+01  0.31313946845E+01  0.70889770940E+01  0.00000000000E+00 0. -1.
</event>
<event>
 7    1  0.1920603E-013  0.7246159E+02  0.7816164E-02  0.1226708E+00
        -11   -1    0    0    0    0  0.00000000000E+00  0.00000000000E+00  0.45593999997E+02  0.45594000000E+02  0.51100000000E-03 0.  1.
         11   -1    0    0    0    0 -0.00000000000E+00 -0.00000000000E+00 -0.45593999997E+02  0.45594000000E+02  0.51100000000E-03 0. -1.
    9900012    2    1    2    0    0 -0.76997815363E+00 -0.16612548246E+02 -0.86086528714E+01  0.72461587374E+02  0.70000022249E+02 0.  0.
        -12    1    1    2    0    0  0.76997815363E+00  0.16612548246E+02  0.86086528714E+01  0.18726412626E+02  0.00000000000E+00 0.  1.
         11    1    3    3    0    0  0.91797098976E+01  0.40381353939E+01 -0.14793084533E+02  0.17872016158E+02  0.51100000000E-03 0. -1.
        -11    1    3    3    0    0 -0.67438901438E+01 -0.34023449707E+02 -0.71721340166E+01  0.35419128883E+02  0.51100000000E-03 0.  1.
        -12    1    3    3    0    0 -0.32057979074E+01  0.13372766067E+02  0.13356565679E+02  0.19170442333E+02  0.00000000000E+00 0.  1.
</event>
<event>
 7    1  0.1920603E-013  0.7246166E+02  0.7816164E-02  0.1226708E+00
        -11   -1    0    0    0    0  0.00000000000E+00  0.00000000000E+00  0.45593999997E+02  0.45594000000E+02  0.51100000000E-03 0. -1.
         11   -1    0    0    0    0 -0.00000000000E+00 -0.00000000000E+00 -0.45593999997E+02  0.45594000000E+02  0.51100000000E-03 0.  1.
    9900012    2    1    2    0    0  0.24233184446E+01 -0.19730730969E+01  0.18463754585E+02  0.72461662315E+02  0.70000119874E+02 0.  0.
        -12    1    1    2    0    0 -0.24233184446E+01  0.19730730969E+01 -0.18463754585E+02  0.18726337685E+02  0.00000000000E+00 0.  1.
         11    1    3    3    0    0  0.41014429517E+01 -0.12161362445E+02  0.19291276881E+02  0.23170540235E+02  0.51100000000E-03 0. -1.
        -11    1    3    3    0    0 -0.17886293597E+02  0.22441499675E+02 -0.30138699786E+01  0.28855221690E+02  0.51100000000E-03 0.  1.
        -12    1    3    3    0    0  0.16208169090E+02 -0.12253210326E+02  0.21863476825E+01  0.20435900390E+02  0.00000000000E+00 0.  1.
</event>
<event>
 7    1  0.1920603E-013  0.7246156E+02  0.7816164E-02  0.1226708E+00
        -11   -1    0    0    0    0  0.00000000000E+00  0.00000000000E+00  0.45593999997E+02  0.45594000000E+02  0.51100000000E-03 0.  1.
         11   -1    0    0    0    0 -0.00000000000E+00 -0.00000000000E+00 -0.45593999997E+02  0.45594000000E+02  0.51100000000E-03 0. -1.
    9900012    2    1    2    0    0  0.15902610827E+02 -0.37747888619E+01 -0.91398913034E+01  0.72461556795E+02  0.69999982415E+02 0.  0.
        -12    1    1    2    0    0 -0.15902610827E+02  0.37747888619E+01  0.91398913034E+01  0.18726443205E+02  0.00000000000E+00 0.  1.
         11    1    3    3    0    0  0.12431355973E+02 -0.29342570510E+02 -0.36670863173E+01  0.32077602432E+02  0.51100000000E-03 0. -1.
        -11    1    3    3    0    0 -0.12855313322E+02  0.17730473024E+02 -0.28727168754E+01  0.22088034244E+02  0.51100000000E-03 0.  1.
         12    1    3    3    0    0  0.16326568175E+02  0.78373086242E+01 -0.26000881107E+01  0.18295920120E+02  0.00000000000E+00 0. -1.
</event>
<event>
 8    1  0.1920603E-013  0.7246155E+02  0.7816164E-02  0.1226708E+00
        -11   -1    0    0    0    0  0.00000000000E+00  0.00000000000E+00  0.45593999997E+02  0.45594000000E+02  0.51100000000E-03 0.  1.
         11   -1    0    0    0    0 -0.00000000000E+00 -0.00000000000E+00 -0.45593999997E+02  0.45594000000E+02  0.51100000000E-03 0. -1.
    9900012    2    1    2    0    0 -0.18662353671E+02  0.13194458053E+01 -0.80962047971E+00  0.72461551669E+02  0.69999975737E+02 0.  0.
        -24    2    3    3    0    0 -0.22727828378E+00 -0.61697056138E+01 -0.63153922052E+01  0.51815658226E+02  0.51057431741E+02 0.  0.
        -12    1    1    2    0    0  0.18662353671E+02 -0.13194458053E+01  0.80962047971E+00  0.18726448331E+02  0.00000000000E+00 0.  1.
         11    1    4    4    0    0 -0.10482778307E+02  0.42211865013E+01 -0.25392203432E+02  0.27793363451E+02  0.51100000000E-03 0. -1.
        -11    1    3    3    0    0 -0.18435075387E+02  0.74891514191E+01  0.55057717255E+01  0.20645893443E+02  0.51100000000E-03 0.  1.
        -12    1    4    4    0    0  0.10255500024E+02 -0.10390892115E+02  0.19076811227E+02  0.24022294775E+02  0.00000000000E+00 0.  1.
</event>
<event>
 7    1  0.1920603E-013  0.7246157E+02  0.7816164E-02  0.1226708E+00
        -11   -1    0    0    0    0  0.00000000000E+00  0.00000000000E+00  0.45593999997E+02  0.45594000000E+02  0.51100000000E-03 0.  1.
         11   -1    0    0    0    0 -0.00000000000E+00 -0.00000000000E+00 -0.45593999997E+02  0.45594000000E+02  0.51100000000E-03 0. -1.
    9900012    2    1    2    0    0  0.11323554558E+02 -0.36503176412E+01 -0.14461377538E+02  0.72461570895E+02  0.70000000783E+02 0.  0.
        -12    1    1    2    0    0 -0.11323554558E+02  0.36503176412E+01  0.14461377538E+02  0.18726429105E+02  0.00000000000E+00 0.  1.
         11    1    3    3    0    0  0.30194691462E+01  0.26299158978E+02 -0.23828630602E+02  0.35616942506E+02  0.51100000000E-03 0. -1.
        -11    1    3    3    0    0 -0.24099918045E+01 -0.19760935995E+02  0.95023655100E+01  0.22058957420E+02  0.51100000000E-03 0.  1.
        -12    1    3    3    0    0  0.10714077216E+02 -0.10188540624E+02 -0.13511244615E+00  0.14785670969E+02  0.00000000000E+00 0.  1.
</event>
<event>
 7    1  0.1920603E-013  0.7246158E+02  0.7816164E-02  0.1226708E+00
        -11   -1    0    0    0    0  0.00000000000E+00  0.00000000000E+00  0.45593999997E+02  0.45594000000E+02  0.51100000000E-03 0. -1.
         11   -1    0    0    0    0 -0.00000000000E+00 -0.00000000000E+00 -0.45593999997E+02  0.45594000000E+02  0.51100000000E-03 0.  1.
    9900012    2    1    2    0    0 -0.86792957427E+00 -0.13963906093E+02  0.12447281081E+02  0.72461580656E+02  0.70000013498E+02 0.  0.
        -12    1    1    2    0    0  0.86792957427E+00  0.13963906093E+02 -0.12447281081E+02  0.18726419344E+02  0.00000000000E+00 0.  1.
         11    1    3    3    0    0  0.21208070657E+02 -0.85637364324E+01  0.10410620146E+02  0.25129680753E+02  0.51100000000E-03 0. -1.
        -11    1    3    3    0    0 -0.27588086205E+02  0.10764387988E+02  0.48957487642E+01  0.30015710976E+02  0.51100000000E-03 0.  1.
        -12    1    3    3    0    0  0.55120859738E+01 -0.16164557648E+02 -0.28590878288E+01  0.17316188927E+02  0.00000000000E+00 0.  1.
</event>
<event>
 7    1  0.1920603E-013  0.7246153E+02  0.7816164E-02  0.1226708E+00
        -11   -1    0    0    0    0  0.00000000000E+00  0.00000000000E+00  0.45593999997E+02  0.45594000000E+02  0.51100000000E-03 0. -1.
         11   -1    0    0    0    0 -0.00000000000E+00 -0.00000000000E+00 -0.45593999997E+02  0.45594000000E+02  0.51100000000E-03 0.  1.
    9900012    2    1    2    0    0 -0.47282237745E+01 -0.12043051148E+02  0.13538446706E+02  0.72461528890E+02  0.69999946064E+02 0.  0.
        -12    1    1    2    0    0  0.47282237745E+01  0.12043051148E+02 -0.13538446706E+02  0.18726471110E+02  0.00000000000E+00 0.  1.
         11    1    3    3    0    0  0.68459397065E+01 -0.56860668014E+01  0.92681799881E+01  0.12849023569E+02  0.51100000000E-03 0. -1.
        -11    1    3    3    0    0 -0.98868762135E+01  0.23996078639E+02 -0.74976108550E+01  0.27014371732E+02  0.51100000000E-03 0.  1.
        -12    1    3    3    0    0 -0.16872872675E+01 -0.30353062985E+02  0.11767877573E+02  0.32598133589E+02  0.00000000000E+00 0.  1.
</event>
<event>
 7    1  0.1920603E-013  0.7246155E+02  0.7816164E-02  0.1226708E+00
        -11   -1    0    0    0    0  0.00000000000E+00  0.00000000000E+00  0.45593999997E+02  0.45594000000E+02  0.51100000000E-03 0.  1.
         11   -1    0    0    0    0 -0.00000000000E+00 -0.00000000000E+00 -0.45593999997E+02  0.45594000000E+02  0.51100000000E-03 0. -1.
    9900012    2    1    2    0    0  0.17075646591E+01  0.41275625775E+01 -0.18185907316E+02  0.72461554133E+02  0.69999978947E+02 0.  0.
        -12    1    1    2    0    0 -0.17075646591E+01 -0.41275625775E+01  0.18185907316E+02  0.18726445867E+02  0.00000000000E+00 0.  1.
         11    1    3    3    0    0  0.12179555510E+02  0.13776833318E+02  0.20110507601E+02  0.27250233484E+02  0.51100000000E-03 0. -1.
        -11    1    3    3    0    0 -0.12334024742E+02  0.96073755557E+00 -0.14305198387E+02  0.18912691087E+02  0.51100000000E-03 0.  1.
         12    1    3    3    0    0  0.18620338913E+01 -0.10610008296E+02 -0.23991216530E+02  0.26298629562E+02  0.00000000000E+00 0. -1.
</event>
<event>
 7    1  0.1920603E-013  0.7246156E+02  0.7816164E-02  0.1226708E+00
        -11   -1    0    0    0    0  0.00000000000E+00  0.00000000000E+00  0.45593999997E+02  0.45594000000E+02  0.51100000000E-03 0. -1.
         11   -1    0    0    0    0 -0.00000000000E+00 -0.00000000000E+00 -0.45593999997E+02  0.45594000000E+02  0.51100000000E-03 0.  1.
    9900012    2    1    2    0    0 -0.99453058996E+01  0.73798836850E+01  0.14046632111E+02  0.72461557031E+02  0.69999982721E+02 0.  0.
        -12    1    1    2    0    0  0.99453058996E+01 -0.73798836850E+01 -0.14046632111E+02  0.18726442969E+02  0.00000000000E+00 0.  1.
         11    1    3    3    0    0 -0.30478809775E+02 -0.52314196192E+01  0.16077879119E+02  0.34854322454E+02  0.51100000000E-03 0. -1.
        -11    1    3    3    0    0  0.14922714605E+02 -0.58628005942E+01  0.54016441536E+01  0.16918557912E+02  0.51100000000E-03 0.  1.
         12    1    3    3    0    0  0.56107892701E+01  0.18474103898E+02 -0.74328911622E+01  0.20688676664E+02  0.00000000000E+00 0. -1.
</event>
<event>
 7    1  0.1920603E-013  0.7246154E+02  0.7816164E-02  0.1226708E+00
        -11   -1    0    0    0    0  0.00000000000E+00  0.00000000000E+00  0.45593999997E+02  0.45594000000E+02  0.51100000000E-03 0. -1.
         11   -1    0    0    0    0 -0.00000000000E+00 -0.00000000000E+00 -0.45593999997E+02  0.45594000000E+02  0.51100000000E-03 0.  1.
    9900012    2    1    2    0    0 -0.43429986326E+00  0.12495425440E+02  0.13941158019E+02  0.72461543843E+02  0.69999965542E+02 0.  0.
        -12    1    1    2    0    0  0.43429986326E+00 -0.12495425440E+02 -0.13941158019E+02  0.18726456157E+02  0.00000000000E+00 0.  1.
         11    1    3    3    0    0 -0.18593480216E+02  0.33324357669E+01  0.18039000820E+02  0.26119498187E+02  0.51100000000E-03 0. -1.
        -11    1    3    3    0    0  0.80148859005E+01 -0.79080362100E+00 -0.22032833076E+02  0.23458676432E+02  0.51100000000E-03 0.  1.
        -12    1    3    3    0    0  0.10144294453E+02  0.99537932941E+01  0.17934990275E+02  0.22883369224E+02  0.00000000000E+00 0.  1.
</event>
<event>
 7    1  0.1920603E-013  0.7246157E+02  0.7816164E-02  0.1226708E+00
        -11   -1    0    0    0    0  0.00000000000E+00  0.00000000000E+00  0.45593999997E+02  0.45594000000E+02  0.51100000000E-03 0. -1.
         11   -1    0    0    0    0 -0.00000000000E+00 -0.00000000000E+00 -0.45593999997E+02  0.45594000000E+02  0.51100000000E-03 0.  1.
    9900012    2    1    2    0    0  0.36706352451E+01  0.11994776163E+02  0.13904345790E+02  0.72461573481E+02  0.70000004152E+02 0.  0.
        -12    1    1    2    0    0 -0.36706352451E+01 -0.11994776163E+02 -0.13904345790E+02  0.18726426519E+02  0.00000000000E+00 0.  1.
         11    1    3    3    0    0  0.26237553086E+02 -0.10203131336E+02  0.41781221296E+01  0.28459968127E+02  0.51100000000E-03 0. -1.
        -11    1    3    3    0    0 -0.18538554336E+02  0.16245312717E+01  0.13113336408E+02  0.22765691088E+02  0.51100000000E-03 0.  1.
         12    1    3    3    0    0 -0.40283635054E+01  0.20573376227E+02 -0.33871127476E+01  0.21235914265E+02  0.00000000000E+00 0. -1.
</event>
<event>
 7    1  0.1920603E-013  0.7246161E+02  0.7816164E-02  0.1226708E+00
        -11   -1    0    0    0    0  0.00000000000E+00  0.00000000000E+00  0.45593999997E+02  0.45594000000E+02  0.51100000000E-03 0.  1.
         11   -1    0    0    0    0 -0.00000000000E+00 -0.00000000000E+00 -0.45593999997E+02  0.45594000000E+02  0.51100000000E-03 0. -1.
    9900012    2    1    2    0    0  0.11856799742E+02  0.96976299558E+01 -0.10772651497E+02  0.72461608272E+02  0.70000049473E+02 0.  0.
        -12    1    1    2    0    0 -0.11856799742E+02 -0.96976299558E+01  0.10772651497E+02  0.18726391728E+02  0.00000000000E+00 0.  1.
         11    1    3    3    0    0  0.26208536809E+02 -0.15166766456E+02  0.11897822994E+02  0.32534234257E+02  0.51100000000E-03 0. -1.
        -11    1    3    3    0    0 -0.15404071309E+02  0.10929314185E+02 -0.12689165955E+02  0.22754126095E+02  0.51100000000E-03 0.  1.
        -12    1    3    3    0    0  0.10523342414E+01  0.13935082227E+02 -0.99813085361E+01  0.17173247920E+02  0.00000000000E+00 0.  1.
</event>
<event>
 7    1  0.1920603E-013  0.7246154E+02  0.7816164E-02  0.1226708E+00
        -11   -1    0    0    0    0  0.00000000000E+00  0.00000000000E+00  0.45593999997E+02  0.45594000000E+02  0.51100000000E-03 0. -1.
         11   -1    0    0    0    0 -0.00000000000E+00 -0.00000000000E+00 -0.45593999997E+02  0.45594000000E+02  0.51100000000E-03 0.  1.
    9900012    2    1    2    0    0  0.75546135489E+01 -0.15646790986E+02  0.69847037486E+01  0.72461539030E+02  0.69999959272E+02 0.  0.
        -12    1    1    2    0    0 -0.75546135489E+01  0.15646790986E+02 -0.69847037486E+01  0.18726460970E+02  0.00000000000E+00 0.  1.
         11    1    3    3    0    0 -0.92498759216E+01 -0.37094474051E+01  0.22793929454E+02  0.24877367723E+02  0.51100000000E-03 0. -1.
        -11    1    3    3    0    0  0.19510745134E+02 -0.24875628895E+02 -0.10131642834E+02  0.33198136625E+02  0.51100000000E-03 0.  1.
        -12    1    3    3    0    0 -0.27062556639E+01  0.12938285314E+02 -0.56775828719E+01  0.14386034681E+02  0.00000000000E+00 0.  1.
</event>
<event>
 7    1  0.1920603E-013  0.7246158E+02  0.7816164E-02  0.1226708E+00
        -11   -1    0    0    0    0  0.00000000000E+00  0.00000000000E+00  0.45593999997E+02  0.45594000000E+02  0.51100000000E-03 0.  1.
         11   -1    0    0    0    0 -0.00000000000E+00 -0.00000000000E+00 -0.45593999997E+02  0.45594000000E+02  0.51100000000E-03 0. -1.
    9900012    2    1    2    0    0  0.90763272028E+01  0.14625521752E+02 -0.73751724003E+01  0.72461580963E+02  0.70000013898E+02 0.  0.
        -12    1    1    2    0    0 -0.90763272028E+01 -0.14625521752E+02  0.73751724003E+01  0.18726419037E+02  0.00000000000E+00 0.  1.
         11    1    3    3    0    0  0.23663843854E+02  0.99564068816E+01  0.15610632912E+02  0.30046620511E+02  0.51100000000E-03 0. -1.
        -11    1    3    3    0    0 -0.19161022439E+02 -0.83779782209E+01 -0.90569430705E+01  0.22789548439E+02  0.51100000000E-03 0.  1.
        -12    1    3    3    0    0  0.45735057884E+01  0.13047093092E+02 -0.13928862242E+02  0.19625412014E+02  0.00000000000E+00 0.  1.
</event>
<event>
 7    1  0.1920603E-013  0.7246162E+02  0.7816164E-02  0.1226708E+00
        -11   -1    0    0    0    0  0.00000000000E+00  0.00000000000E+00  0.45593999997E+02  0.45594000000E+02  0.51100000000E-03 0.  1.
         11   -1    0    0    0    0 -0.00000000000E+00 -0.00000000000E+00 -0.45593999997E+02  0.45594000000E+02  0.51100000000E-03 0. -1.
    9900012    2    1    2    0    0  0.87145508355E+01 -0.11065791796E+02 -0.12340270626E+02  0.72461616914E+02  0.70000060731E+02 0.  0.
        -12    1    1    2    0    0 -0.87145508355E+01  0.11065791796E+02  0.12340270626E+02  0.18726383086E+02  0.00000000000E+00 0.  1.
         11    1    3    3    0    0  0.16572995510E+02  0.16452394465E+02  0.87252319705E+01  0.24929403062E+02  0.51100000000E-03 0. -1.
        -11    1    3    3    0    0 -0.11552159372E+02 -0.25951282354E+02 -0.24753628199E+01  0.28514011702E+02  0.51100000000E-03 0.  1.
         12    1    3    3    0    0  0.36937146967E+01 -0.15669039073E+01 -0.18590139777E+02  0.19018202151E+02  0.00000000000E+00 0. -1.
</event>
<event>
 7    1  0.1920603E-013  0.7246154E+02  0.7816164E-02  0.1226708E+00
        -11   -1    0    0    0    0  0.00000000000E+00  0.00000000000E+00  0.45593999997E+02  0.45594000000E+02  0.51100000000E-03 0.  1.
         11   -1    0    0    0    0 -0.00000000000E+00 -0.00000000000E+00 -0.45593999997E+02  0.45594000000E+02  0.51100000000E-03 0. -1.
    9900012    2    1    2    0    0  0.19762187033E+01  0.13308401846E+02 -0.13025403636E+02  0.72461544384E+02  0.69999966247E+02 0.  0.
        -12    1    1    2    0    0 -0.19762187033E+01 -0.13308401846E+02  0.13025403636E+02  0.18726455616E+02  0.00000000000E+00 0.  1.
         11    1    3    3    0    0  0.25359468902E+02  0.37220204265E+01 -0.28871182017E+02  0.38607010379E+02  0.51100000000E-03 0. -1.
        -11    1    3    3    0    0 -0.79911042583E+00  0.35892277103E+01  0.86590892305E+01  0.94074948627E+01  0.51100000000E-03 0.  1.
         12    1    3    3    0    0 -0.22584139773E+02  0.59971537090E+01  0.71866891502E+01  0.24447039143E+02  0.00000000000E+00 0. -1.
</event>
<event>
 7    1  0.1920603E-013  0.7246162E+02  0.7816164E-02  0.1226708E+00
        -11   -1    0    0    0    0  0.00000000000E+00  0.00000000000E+00  0.45593999997E+02  0.45594000000E+02  0.51100000000E-03 0.  1.
         11   -1    0    0    0    0 -0.00000000000E+00 -0.00000000000E+00 -0.45593999997E+02  0.45594000000E+02  0.51100000000E-03 0. -1.
    9900012    2    1    2    0    0 -0.96570530765E+01 -0.15423981483E+02 -0.44180796446E+01  0.72461620033E+02  0.70000064794E+02 0.  0.
        -12    1    1    2    0    0  0.96570530765E+01  0.15423981483E+02  0.44180796446E+01  0.18726379967E+02  0.00000000000E+00 0.  1.
         11    1    3    3    0    0 -0.17861115972E+02 -0.21795248458E+01 -0.55344187576E+01  0.18825503541E+02  0.51100000000E-03 0. -1.
        -11    1    3    3    0    0 -0.65217691235E-01  0.64493724724E+01  0.22503578059E+02  0.23409606668E+02  0.51100000000E-03 0.  1.
        -12    1    3    3    0    0  0.82692805868E+01 -0.19693829110E+02 -0.21387238946E+02  0.30226509824E+02  0.00000000000E+00 0.  1.
</event>
<event>
 7    1  0.1920603E-013  0.7246155E+02  0.7816164E-02  0.1226708E+00
        -11   -1    0    0    0    0  0.00000000000E+00  0.00000000000E+00  0.45593999997E+02  0.45594000000E+02  0.51100000000E-03 0.  1.
         11   -1    0    0    0    0 -0.00000000000E+00 -0.00000000000E+00 -0.45593999997E+02  0.45594000000E+02  0.51100000000E-03 0. -1.
    9900012    2    1    2    0    0  0.14091620367E+01  0.95242612630E+01 -0.16061843167E+02  0.72461545553E+02  0.69999967770E+02 0.  0.
        -12    1    1    2    0    0 -0.14091620367E+01 -0.95242612630E+01  0.16061843167E+02  0.18726454447E+02  0.00000000000E+00 0.  1.
         11    1    3    3    0    0 -0.89790920044E+00  0.20655901087E+01 -0.19677109738E+02  0.19805593940E+02  0.51100000000E-03 0. -1.
        -11    1    3    3    0    0  0.24447534041E+02  0.30982867352E+01  0.13410785081E+02  0.28055845347E+02  0.51100000000E-03 0.  1.
        -12    1    3    3    0    0 -0.22140462804E+02  0.43603844191E+01 -0.97955185092E+01  0.24600106266E+02  0.00000000000E+00 0.  1.
</event>
<event>
 7    1  0.1920603E-013  0.7246153E+02  0.7816164E-02  0.1226708E+00
        -11   -1    0    0    0    0  0.00000000000E+00  0.00000000000E+00  0.45593999997E+02  0.45594000000E+02  0.51100000000E-03 0.  1.
         11   -1    0    0    0    0 -0.00000000000E+00 -0.00000000000E+00 -0.45593999997E+02  0.45594000000E+02  0.51100000000E-03 0. -1.
    9900012    2    1    2    0    0  0.88445779015E+01 -0.19253001901E+01 -0.16393516940E+02  0.72461528449E+02  0.69999945489E+02 0.  0.
        -12    1    1    2    0    0 -0.88445779015E+01  0.19253001901E+01  0.16393516940E+02  0.18726471551E+02  0.00000000000E+00 0.  1.
         11    1    3    3    0    0  0.16010716039E+02  0.16284169647E+02  0.18991552381E+02  0.29701789025E+02  0.51100000000E-03 0. -1.
        -11    1    3    3    0    0 -0.49681056132E+01 -0.15251560216E+02 -0.14727172871E+02  0.21775715452E+02  0.51100000000E-03 0.  1.
         12    1    3    3    0    0 -0.21980325249E+01 -0.29579096207E+01 -0.20657896450E+02  0.20984023972E+02  0.00000000000E+00 0. -1.
</event>
<event>
 7    1  0.1920603E-013  0.7246159E+02  0.7816164E-02  0.1226708E+00
        -11   -1    0    0    0    0  0.00000000000E+00  0.00000000000E+00  0.45593999997E+02  0.45594000000E+02  0.51100000000E-03 0.  1.
         11   -1    0    0    0    0 -0.00000000000E+00 -0.00000000000E+00 -0.45593999997E+02  0.45594000000E+02  0.51100000000E-03 0. -1.
    9900012    2    1    2    0    0  0.42817031760E+01  0.13465305759E+02 -0.12289466170E+02  0.72461590306E+02  0.70000026069E+02 0.  0.
        -12    1    1    2    0    0 -0.42817031760E+01 -0.13465305759E+02  0.12289466170E+02  0.18726409694E+02  0.00000000000E+00 0.  1.
         11    1    3    3    0    0  0.55947622646E+01  0.33800108952E+02 -0.93669962119E+01  0.35517451320E+02  0.51100000000E-03 0. -1.
        -11    1    3    3    0    0  0.77079458964E+01 -0.12792609987E+02  0.11126138812E+02  0.18624023876E+02  0.51100000000E-03 0.  1.
         12    1    3    3    0    0 -0.90210049850E+01 -0.75421932061E+01 -0.14048608770E+02  0.18320115111E+02  0.00000000000E+00 0. -1.
</event>
<event>
 7    1  0.1920603E-013  0.7246156E+02  0.7816164E-02  0.1226708E+00
        -11   -1    0    0    0    0  0.00000000000E+00  0.00000000000E+00  0.45593999997E+02  0.45594000000E+02  0.51100000000E-03 0. -1.
         11   -1    0    0    0    0 -0.00000000000E+00 -0.00000000000E+00 -0.45593999997E+02  0.45594000000E+02  0.51100000000E-03 0.  1.
    9900012    2    1    2    0    0 -0.77101652129E+00  0.18606104029E+02  0.19743101646E+01  0.72461562159E+02  0.69999989402E+02 0.  0.
        -12    1    1    2    0    0  0.77101652129E+00 -0.18606104029E+02 -0.19743101646E+01  0.18726437841E+02  0.00000000000E+00 0.  1.
         11    1    3    3    0    0  0.81993438384E+01  0.28712625273E+02  0.26516032325E+02  0.39934246705E+02  0.51100000000E-03 0. -1.
        -11    1    3    3    0    0  0.39884543369E+00 -0.10243074751E+02 -0.19138504383E+02  0.21710873043E+02  0.51100000000E-03 0.  1.
         12    1    3    3    0    0 -0.93692057933E+01  0.13655350702E+00 -0.54032177774E+01  0.10816442410E+02  0.00000000000E+00 0. -1.
</event>
<event>
 7    1  0.1920603E-013  0.7246155E+02  0.7816164E-02  0.1226708E+00
        -11   -1    0    0    0    0  0.00000000000E+00  0.00000000000E+00  0.45593999997E+02  0.45594000000E+02  0.51100000000E-03 0. -1.
         11   -1    0    0    0    0 -0.00000000000E+00 -0.00000000000E+00 -0.45593999997E+02  0.45594000000E+02  0.51100000000E-03 0.  1.
    9900012    2    1    2    0    0 -0.10575610343E+02 -0.13705951694E+02  0.71402550261E+01  0.72461551117E+02  0.69999975017E+02 0.  0.
        -12    1    1    2    0    0  0.10575610343E+02  0.13705951694E+02 -0.71402550261E+01  0.18726448883E+02  0.00000000000E+00 0.  1.
         11    1    3    3    0    0  0.21000248587E+02 -0.18433457282E+02  0.14964259417E+02  0.31697505395E+02  0.51100000000E-03 0. -1.
        -11    1    3    3    0    0 -0.31075018306E+01  0.60896311001E+01 -0.10073613863E+02  0.12174476214E+02  0.51100000000E-03 0.  1.
         12    1    3    3    0    0 -0.28468357100E+02 -0.13621255115E+01  0.22496094724E+01  0.28589569508E+02  0.00000000000E+00 0. -1.
</event>
<event>
 7    1  0.1920603E-013  0.7246215E+02  0.7816164E-02  0.1226706E+00
        -11   -1    0    0    0    0  0.00000000000E+00  0.00000000000E+00  0.45593999997E+02  0.45594000000E+02  0.51100000000E-03 0.  1.
         11   -1    0    0    0    0 -0.00000000000E+00 -0.00000000000E+00 -0.45593999997E+02  0.45594000000E+02  0.51100000000E-03 0. -1.
    9900012    2    1    2    0    0 -0.47484501800E+01  0.12957310216E+02  0.12657718690E+02  0.72462148628E+02  0.70000753384E+02 0.  0.
        -12    1    1    2    0    0  0.47484501800E+01 -0.12957310216E+02 -0.12657718690E+02  0.18725851372E+02  0.00000000000E+00 0.  1.
         11    1    3    3    0    0 -0.28731267808E+02 -0.14443688871E+02  0.66626866130E+01  0.32840482506E+02  0.51100000000E-03 0. -1.
        -11    1    3    3    0    0  0.10642245116E+02  0.43087761788E+01  0.59962813198E+01  0.12952927205E+02  0.51100000000E-03 0.  1.
         12    1    3    3    0    0  0.13340572513E+02  0.23092222909E+02 -0.12492430385E-02  0.26668738917E+02  0.00000000000E+00 0. -1.
</event>
<event>
 7    1  0.1920603E-013  0.7246160E+02  0.7816164E-02  0.1226708E+00
        -11   -1    0    0    0    0  0.00000000000E+00  0.00000000000E+00  0.45593999997E+02  0.45594000000E+02  0.51100000000E-03 0. -1.
         11   -1    0    0    0    0 -0.00000000000E+00 -0.00000000000E+00 -0.45593999997E+02  0.45594000000E+02  0.51100000000E-03 0.  1.
    9900012    2    1    2    0    0 -0.16915514782E+02  0.33837864701E+01  0.72865275272E+01  0.72461597926E+02  0.70000035995E+02 0.  0.
        -12    1    1    2    0    0  0.16915514782E+02 -0.33837864701E+01 -0.72865275272E+01  0.18726402074E+02  0.00000000000E+00 0.  1.
         11    1    3    3    0    0 -0.19536312458E+02 -0.21181120769E+01 -0.20385771207E+01  0.19756257241E+02  0.51100000000E-03 0. -1.
        -11    1    3    3    0    0  0.87741542761E+01 -0.11566511314E+02  0.24880419309E+02  0.28806340144E+02  0.51100000000E-03 0.  1.
        -12    1    3    3    0    0 -0.61533566001E+01  0.17068409861E+02 -0.15555314661E+02  0.23899000541E+02  0.00000000000E+00 0.  1.
</event>
<event>
 7    1  0.1920603E-013  0.7246156E+02  0.7816164E-02  0.1226708E+00
        -11   -1    0    0    0    0  0.00000000000E+00  0.00000000000E+00  0.45593999997E+02  0.45594000000E+02  0.51100000000E-03 0.  1.
         11   -1    0    0    0    0 -0.00000000000E+00 -0.00000000000E+00 -0.45593999997E+02  0.45594000000E+02  0.51100000000E-03 0. -1.
    9900012    2    1    2    0    0  0.11493162338E+02 -0.87248141380E+00  0.14758908426E+02  0.72461564614E+02  0.69999992600E+02 0.  0.
        -12    1    1    2    0    0 -0.11493162338E+02  0.87248141380E+00 -0.14758908426E+02  0.18726435386E+02  0.00000000000E+00 0.  1.
         11    1    3    3    0    0 -0.10788448901E+02 -0.27600395777E+02  0.70082106224E+01  0.30451395586E+02  0.51100000000E-03 0.  1.
        -11    1    3    3    0    0  0.12447173683E+02  0.10210737369E+02 -0.72208567160E+01  0.17644604340E+02  0.51100000000E-03 0. -1.
         12    1    3    3    0    0  0.98344375556E+01  0.16517176994E+02  0.14971554519E+02  0.24365564689E+02  0.00000000000E+00 0. -1.
</event>
<event>
 7    1  0.1920603E-013  0.7246157E+02  0.7816164E-02  0.1226708E+00
        -11   -1    0    0    0    0  0.00000000000E+00  0.00000000000E+00  0.45593999997E+02  0.45594000000E+02  0.51100000000E-03 0. -1.
         11   -1    0    0    0    0 -0.00000000000E+00 -0.00000000000E+00 -0.45593999997E+02  0.45594000000E+02  0.51100000000E-03 0.  1.
    9900012    2    1    2    0    0 -0.61158971663E+01  0.46546544795E+01  0.17076568584E+02  0.72461569452E+02  0.69999998902E+02 0.  0.
        -12    1    1    2    0    0  0.61158971663E+01 -0.46546544795E+01 -0.17076568584E+02  0.18726430548E+02  0.00000000000E+00 0.  1.
         11    1    3    3    0    0  0.30078137236E+01 -0.11785957584E+02  0.30047075649E+02  0.32415775402E+02  0.51100000000E-03 0. -1.
        -11    1    3    3    0    0 -0.59444163845E+01  0.17760283118E+02 -0.22872775057E+02  0.29562266179E+02  0.51100000000E-03 0.  1.
        -12    1    3    3    0    0 -0.31792945054E+01 -0.13196710536E+01  0.99022679920E+01  0.10483527871E+02  0.00000000000E+00 0.  1.
</event>
<event>
 7    1  0.1920603E-013  0.7246159E+02  0.7816164E-02  0.1226708E+00
        -11   -1    0    0    0    0  0.00000000000E+00  0.00000000000E+00  0.45593999997E+02  0.45594000000E+02  0.51100000000E-03 0. -1.
         11   -1    0    0    0    0 -0.00000000000E+00 -0.00000000000E+00 -0.45593999997E+02  0.45594000000E+02  0.51100000000E-03 0.  1.
    9900012    2    1    2    0    0  0.10569762792E+02  0.15187679225E+02  0.28797427442E+01  0.72461590734E+02  0.70000026626E+02 0.  0.
        -12    1    1    2    0    0 -0.10569762792E+02 -0.15187679225E+02 -0.28797427442E+01  0.18726409266E+02  0.00000000000E+00 0.  1.
         11    1    3    3    0    0 -0.12918745406E+02 -0.13246900426E+01 -0.14590573924E+02  0.19532885969E+02  0.51100000000E-03 0.  1.
        -11    1    3    3    0    0  0.26301302126E+02 -0.62426403275E+01  0.96970319384E+01  0.28718660840E+02  0.51100000000E-03 0. -1.
        -12    1    3    3    0    0 -0.28127939285E+01  0.22755009595E+02  0.77732847300E+01  0.24210043925E+02  0.00000000000E+00 0.  1.
</event>
<event>
 7    1  0.1920603E-013  0.7246152E+02  0.7816164E-02  0.1226708E+00
        -11   -1    0    0    0    0  0.00000000000E+00  0.00000000000E+00  0.45593999997E+02  0.45594000000E+02  0.51100000000E-03 0.  1.
         11   -1    0    0    0    0 -0.00000000000E+00 -0.00000000000E+00 -0.45593999997E+02  0.45594000000E+02  0.51100000000E-03 0. -1.
    9900012    2    1    2    0    0 -0.85333066180E+01  0.14078580474E+02 -0.89250943250E+01  0.72461519853E+02  0.69999934290E+02 0.  0.
        -12    1    1    2    0    0  0.85333066180E+01 -0.14078580474E+02  0.89250943250E+01  0.18726480147E+02  0.00000000000E+00 0.  1.
         11    1    3    3    0    0  0.72884801390E+00 -0.24633419395E+02 -0.10103924155E+02  0.26635049355E+02  0.51100000000E-03 0. -1.
        -11    1    3    3    0    0 -0.42001559869E+01  0.13380753111E+02  0.11372346163E+02  0.18055916527E+02  0.51100000000E-03 0.  1.
         12    1    3    3    0    0 -0.50619986451E+01  0.25331246758E+02 -0.10193516333E+02  0.27770553971E+02  0.00000000000E+00 0. -1.
</event>
<event>
 7    1  0.1920603E-013  0.7246132E+02  0.7816164E-02  0.1226709E+00
        -11   -1    0    0    0    0  0.00000000000E+00  0.00000000000E+00  0.45593999997E+02  0.45594000000E+02  0.51100000000E-03 0.  1.
         11   -1    0    0    0    0 -0.00000000000E+00 -0.00000000000E+00 -0.45593999997E+02  0.45594000000E+02  0.51100000000E-03 0. -1.
    9900012    2    1    2    0    0 -0.70521002471E+01 -0.17063032936E+02  0.31320059851E+01  0.72461316568E+02  0.69999669473E+02 0.  0.
        -12    1    1    2    0    0  0.70521002471E+01  0.17063032936E+02 -0.31320059851E+01  0.18726683432E+02  0.00000000000E+00 0.  1.
         11    1    3    3    0    0  0.17248633567E+01  0.42178892891E+01 -0.78166858216E+01  0.90480009477E+01  0.51100000000E-03 0. -1.
        -11    1    3    3    0    0  0.18882626760E+02 -0.24445608302E+02  0.16507987996E+02  0.35023635256E+02  0.51100000000E-03 0.  1.
        -12    1    3    3    0    0 -0.27659590364E+02  0.31646860771E+01 -0.55592961891E+01  0.28389680364E+02  0.00000000000E+00 0.  1.
</event>
<event>
 7    1  0.1920603E-013  0.7246155E+02  0.7816164E-02  0.1226708E+00
        -11   -1    0    0    0    0  0.00000000000E+00  0.00000000000E+00  0.45593999997E+02  0.45594000000E+02  0.51100000000E-03 0.  1.
         11   -1    0    0    0    0 -0.00000000000E+00 -0.00000000000E+00 -0.45593999997E+02  0.45594000000E+02  0.51100000000E-03 0. -1.
    9900012    2    1    2    0    0  0.17524576706E+02 -0.13888424875E+01 -0.64529380280E+01  0.72461545948E+02  0.69999968284E+02 0.  0.
        -12    1    1    2    0    0 -0.17524576706E+02  0.13888424875E+01  0.64529380280E+01  0.18726454052E+02  0.00000000000E+00 0.  1.
         11    1    3    3    0    0  0.24158027506E+02 -0.26106627462E+02 -0.12985153019E+02  0.37865293999E+02  0.51100000000E-03 0. -1.
        -11    1    3    3    0    0 -0.10229535700E+02  0.43693023283E+01 -0.34518565408E+01  0.11646867275E+02  0.51100000000E-03 0.  1.
         12    1    3    3    0    0  0.35960848992E+01  0.20348482646E+02  0.99840715321E+01  0.22949384675E+02  0.00000000000E+00 0. -1.
</event>
<event>
 7    1  0.1920603E-013  0.7246155E+02  0.7816164E-02  0.1226708E+00
        -11   -1    0    0    0    0  0.00000000000E+00  0.00000000000E+00  0.45593999997E+02  0.45594000000E+02  0.51100000000E-03 0.  1.
         11   -1    0    0    0    0 -0.00000000000E+00 -0.00000000000E+00 -0.45593999997E+02  0.45594000000E+02  0.51100000000E-03 0. -1.
    9900012    2    1    2    0    0  0.17393381582E+01 -0.18300381174E+02  0.35707995323E+01  0.72461551921E+02  0.69999976066E+02 0.  0.
        -12    1    1    2    0    0 -0.17393381582E+01  0.18300381174E+02 -0.35707995323E+01  0.18726448079E+02  0.00000000000E+00 0.  1.
         11    1    3    3    0    0 -0.11530341336E+02 -0.35221059033E+02  0.13476524169E+02  0.39434610112E+02  0.51100000000E-03 0. -1.
        -11    1    3    3    0    0 -0.13752887621E+01  0.10782258917E+02 -0.12898780315E+02  0.16867929938E+02  0.51100000000E-03 0.  1.
        -12    1    3    3    0    0  0.14644968257E+02  0.61384189421E+01  0.29930556777E+01  0.16159011871E+02  0.00000000000E+00 0.  1.
</event>
<event>
 7    1  0.1920603E-013  0.7246155E+02  0.7816164E-02  0.1226708E+00
        -11   -1    0    0    0    0  0.00000000000E+00  0.00000000000E+00  0.45593999997E+02  0.45594000000E+02  0.51100000000E-03 0.  1.
         11   -1    0    0    0    0 -0.00000000000E+00 -0.00000000000E+00 -0.45593999997E+02  0.45594000000E+02  0.51100000000E-03 0. -1.
    9900012    2    1    2    0    0 -0.74749573124E+01 -0.84307479029E+01 -0.14957519183E+02  0.72461551401E+02  0.69999975388E+02 0.  0.
        -12    1    1    2    0    0  0.74749573124E+01  0.84307479029E+01  0.14957519183E+02  0.18726448599E+02  0.00000000000E+00 0.  1.
         11    1    3    3    0    0 -0.79011877617E+01 -0.60088960022E+01 -0.26933652901E+02  0.28704655687E+02  0.51100000000E-03 0. -1.
        -11    1    3    3    0    0  0.13973476431E+02  0.84326124538E+01  0.18985082677E+02  0.25035981324E+02  0.51100000000E-03 0.  1.
        -12    1    3    3    0    0 -0.13547245981E+02 -0.10854464355E+02 -0.70089489587E+01  0.18720914390E+02  0.00000000000E+00 0.  1.
</event>
<event>
 7    1  0.1920603E-013  0.7246159E+02  0.7816164E-02  0.1226708E+00
        -11   -1    0    0    0    0  0.00000000000E+00  0.00000000000E+00  0.45593999997E+02  0.45594000000E+02  0.51100000000E-03 0. -1.
         11   -1    0    0    0    0 -0.00000000000E+00 -0.00000000000E+00 -0.45593999997E+02  0.45594000000E+02  0.51100000000E-03 0.  1.
    9900012    2    1    2    0    0  0.15148095813E+01 -0.16618555847E+02  0.84974825173E+01  0.72461594695E+02  0.70000031786E+02 0.  0.
        -12    1    1    2    0    0 -0.15148095813E+01  0.16618555847E+02 -0.84974825173E+01  0.18726405305E+02  0.00000000000E+00 0.  1.
         11    1    3    3    0    0  0.17979580209E+01  0.55509503437E+01  0.21505900101E+02  0.22283389378E+02  0.51100000000E-03 0. -1.
        -11    1    3    3    0    0  0.37661173995E+01 -0.33684942752E+02 -0.23551609259E+01  0.33976547672E+02  0.51100000000E-03 0.  1.
        -12    1    3    3    0    0 -0.40492658391E+01  0.11515436561E+02 -0.10653256658E+02  0.16201657645E+02  0.00000000000E+00 0.  1.
</event>
<event>
 7    1  0.1920603E-013  0.7246163E+02  0.7816164E-02  0.1226708E+00
        -11   -1    0    0    0    0  0.00000000000E+00  0.00000000000E+00  0.45593999997E+02  0.45594000000E+02  0.51100000000E-03 0. -1.
         11   -1    0    0    0    0 -0.00000000000E+00 -0.00000000000E+00 -0.45593999997E+02  0.45594000000E+02  0.51100000000E-03 0.  1.
    9900012    2    1    2    0    0 -0.10854606467E+02 -0.15193634987E+02 -0.14170474120E+01  0.72461626912E+02  0.70000073755E+02 0.  0.
        -12    1    1    2    0    0  0.10854606467E+02  0.15193634987E+02  0.14170474120E+01  0.18726373088E+02  0.00000000000E+00 0.  1.
         11    1    3    3    0    0 -0.23759115015E+02  0.82195495701E+01  0.17447309100E+02  0.30601717869E+02  0.51100000000E-03 0. -1.
        -11    1    3    3    0    0  0.10139963301E+02  0.25652471110E+01 -0.16895818814E+01  0.10595000504E+02  0.51100000000E-03 0.  1.
         12    1    3    3    0    0  0.27645452462E+01 -0.25978431668E+02 -0.17174774631E+02  0.31264908539E+02  0.00000000000E+00 0. -1.
</event>
<event>
 7    1  0.1921605E-013  0.7246168E+02  0.7816164E-02  0.1226708E+00
        -11   -1    0    0    0    0  0.00000000000E+00  0.00000000000E+00  0.45593999997E+02  0.45594000000E+02  0.51100000000E-03 0. -1.
         11   -1    0    0    0    0 -0.00000000000E+00 -0.00000000000E+00 -0.45593999997E+02  0.45594000000E+02  0.51100000000E-03 0.  1.
    9900012    2    1    2    0    0  0.15943934416E+02  0.98199324031E+01 -0.18684292932E+00  0.72461680892E+02  0.70000144074E+02 0.  0.
        -12    1    1    2    0    0 -0.15943934416E+02 -0.98199324031E+01  0.18684292932E+00  0.18726319108E+02  0.00000000000E+00 0.  1.
         11    1    3    3    0    0  0.38494846908E-01  0.12303019484E+02  0.24066340159E+02  0.27028771693E+02  0.51100000000E-03 0. -1.
        -11    1    3    3    0    0  0.15281249619E+02 -0.17496401159E+02 -0.12673057056E+02  0.26462180916E+02  0.51100000000E-03 0.  1.
        -12    1    3    3    0    0  0.62418994979E+00  0.15013314077E+02 -0.11580126033E+02  0.18970728284E+02  0.00000000000E+00 0.  1.
</event>
<event>
 7    1  0.1920603E-013  0.7246155E+02  0.7816164E-02  0.1226708E+00
        -11   -1    0    0    0    0  0.00000000000E+00  0.00000000000E+00  0.45593999997E+02  0.45594000000E+02  0.51100000000E-03 0.  1.
         11   -1    0    0    0    0 -0.00000000000E+00 -0.00000000000E+00 -0.45593999997E+02  0.45594000000E+02  0.51100000000E-03 0. -1.
    9900012    2    1    2    0    0 -0.72004019462E+01 -0.13961153548E+02 -0.10194123105E+02  0.72461554997E+02  0.69999980072E+02 0.  0.
        -12    1    1    2    0    0  0.72004019462E+01  0.13961153548E+02  0.10194123105E+02  0.18726445003E+02  0.00000000000E+00 0.  1.
         11    1    3    3    0    0 -0.20843481517E+02 -0.27948101902E+00 -0.18177223881E+02  0.27657554116E+02  0.51100000000E-03 0. -1.
        -11    1    3    3    0    0  0.78751991239E+01  0.63517132374E+01  0.18776183815E+02  0.21328574758E+02  0.51100000000E-03 0.  1.
        -12    1    3    3    0    0  0.57678804469E+01 -0.20033385767E+02 -0.10793083039E+02  0.23475426122E+02  0.00000000000E+00 0.  1.
</event>
<event>
 7    1  0.1920603E-013  0.7246155E+02  0.7816164E-02  0.1226708E+00
        -11   -1    0    0    0    0  0.00000000000E+00  0.00000000000E+00  0.45593999997E+02  0.45594000000E+02  0.51100000000E-03 0.  1.
         11   -1    0    0    0    0 -0.00000000000E+00 -0.00000000000E+00 -0.45593999997E+02  0.45594000000E+02  0.51100000000E-03 0. -1.
    9900012    2    1    2    0    0  0.13928367914E+02 -0.64400466997E+01 -0.10733425288E+02  0.72461546715E+02  0.69999969284E+02 0.  0.
        -12    1    1    2    0    0 -0.13928367914E+02  0.64400466997E+01  0.10733425288E+02  0.18726453285E+02  0.00000000000E+00 0.  1.
         11    1    3    3    0    0 -0.12672140374E+02 -0.24375289745E+02 -0.18444649139E+02  0.33089922543E+02  0.51100000000E-03 0.  1.
        -11    1    3    3    0    0  0.10701916869E+02  0.15806240286E+02 -0.40098232210E+01  0.19505049069E+02  0.51100000000E-03 0. -1.
         12    1    3    3    0    0  0.15898591418E+02  0.21290027592E+01  0.11721047072E+02  0.19866575102E+02  0.00000000000E+00 0. -1.
</event>
<event>
 7    1  0.1920603E-013  0.7246163E+02  0.7816164E-02  0.1226708E+00
        -11   -1    0    0    0    0  0.00000000000E+00  0.00000000000E+00  0.45593999997E+02  0.45594000000E+02  0.51100000000E-03 0.  1.
         11   -1    0    0    0    0 -0.00000000000E+00 -0.00000000000E+00 -0.45593999997E+02  0.45594000000E+02  0.51100000000E-03 0. -1.
    9900012    2    1    2    0    0  0.17429338273E+02  0.63088768614E+01 -0.26632810476E+01  0.72461632872E+02  0.70000081519E+02 0.  0.
        -12    1    1    2    0    0 -0.17429338273E+02 -0.63088768614E+01  0.26632810476E+01  0.18726367128E+02  0.00000000000E+00 0.  1.
         11    1    3    3    0    0 -0.12531135313E+02 -0.16775632219E+02 -0.12895465141E+02  0.24591547532E+02  0.51100000000E-03 0. -1.
        -11    1    3    3    0    0  0.89520043257E+01  0.23888281248E+02  0.79612229954E+01  0.26723948703E+02  0.51100000000E-03 0.  1.
        -12    1    3    3    0    0  0.21008469260E+02 -0.80377216762E+00  0.22709610981E+01  0.21146136637E+02  0.00000000000E+00 0.  1.
</event>
<event>
 7    1  0.1920603E-013  0.7246164E+02  0.7816164E-02  0.1226708E+00
        -11   -1    0    0    0    0  0.00000000000E+00  0.00000000000E+00  0.45593999997E+02  0.45594000000E+02  0.51100000000E-03 0.  1.
         11   -1    0    0    0    0 -0.00000000000E+00 -0.00000000000E+00 -0.45593999997E+02  0.45594000000E+02  0.51100000000E-03 0. -1.
    9900012    2    1    2    0    0  0.65690036057E+01  0.13983205314E+02  0.10582749796E+02  0.72461643374E+02  0.70000095200E+02 0.  0.
        -12    1    1    2    0    0 -0.65690036057E+01 -0.13983205314E+02 -0.10582749796E+02  0.18726356626E+02  0.00000000000E+00 0.  1.
         11    1    3    3    0    0  0.45375230903E+01 -0.14196559014E+02  0.15035999162E+02  0.21171033859E+02  0.51100000000E-03 0. -1.
        -11    1    3    3    0    0 -0.16905574403E+02  0.46579058144E+01 -0.10576958066E+02  0.20478441705E+02  0.51100000000E-03 0.  1.
        -12    1    3    3    0    0  0.18937054918E+02  0.23521858513E+02  0.61237087002E+01  0.30812167810E+02  0.00000000000E+00 0.  1.
</event>
<event>
 7    1  0.1920603E-013  0.7246168E+02  0.7816164E-02  0.1226708E+00
        -11   -1    0    0    0    0  0.00000000000E+00  0.00000000000E+00  0.45593999997E+02  0.45594000000E+02  0.51100000000E-03 0.  1.
         11   -1    0    0    0    0 -0.00000000000E+00 -0.00000000000E+00 -0.45593999997E+02  0.45594000000E+02  0.51100000000E-03 0. -1.
    9900012    2    1    2    0    0 -0.12712107633E+02 -0.77947930564E+00 -0.13728431760E+02  0.72461678764E+02  0.70000141301E+02 0.  0.
        -12    1    1    2    0    0  0.12712107633E+02  0.77947930564E+00  0.13728431760E+02  0.18726321236E+02  0.00000000000E+00 0.  1.
         11    1    3    3    0    0 -0.18579458394E+01  0.22007809814E+02  0.87058664650E+01  0.23740003511E+02  0.51100000000E-03 0. -1.
        -11    1    3    3    0    0 -0.18108555454E+02 -0.22019936205E+02 -0.38643797335E+01  0.28770311122E+02  0.51100000000E-03 0.  1.
         12    1    3    3    0    0  0.72543936605E+01 -0.76735291480E+00 -0.18569918491E+02  0.19951364130E+02  0.00000000000E+00 0. -1.
</event>
<event>
 7    1  0.1920603E-013  0.7246157E+02  0.7816164E-02  0.1226708E+00
        -11   -1    0    0    0    0  0.00000000000E+00  0.00000000000E+00  0.45593999997E+02  0.45594000000E+02  0.51100000000E-03 0.  1.
         11   -1    0    0    0    0 -0.00000000000E+00 -0.00000000000E+00 -0.45593999997E+02  0.45594000000E+02  0.51100000000E-03 0. -1.
    9900012    2    1    2    0    0  0.91555690330E+01  0.15175470038E+02 -0.60464814190E+01  0.72461567539E+02  0.69999996410E+02 0.  0.
        -12    1    1    2    0    0 -0.91555690330E+01 -0.15175470038E+02  0.60464814190E+01  0.18726432461E+02  0.00000000000E+00 0.  1.
         11    1    3    3    0    0 -0.22673802861E+02 -0.21423553855E+01  0.13935851148E+02  0.26700167982E+02  0.51100000000E-03 0. -1.
        -11    1    3    3    0    0  0.22156461944E+02  0.97620919222E+00 -0.10853273954E+02  0.24691199769E+02  0.51100000000E-03 0.  1.
         12    1    3    3    0    0  0.96729099494E+01  0.16341616231E+02 -0.91290586132E+01  0.21070199788E+02  0.00000000000E+00 0. -1.
</event>
<event>
 7    1  0.1920603E-013  0.7246158E+02  0.7816164E-02  0.1226708E+00
        -11   -1    0    0    0    0  0.00000000000E+00  0.00000000000E+00  0.45593999997E+02  0.45594000000E+02  0.51100000000E-03 0.  1.
         11   -1    0    0    0    0 -0.00000000000E+00 -0.00000000000E+00 -0.45593999997E+02  0.45594000000E+02  0.51100000000E-03 0. -1.
    9900012    2    1    2    0    0  0.16325974973E+02  0.60630088786E+01  0.68833941532E+01  0.72461584151E+02  0.70000018051E+02 0.  0.
        -12    1    1    2    0    0 -0.16325974973E+02 -0.60630088786E+01 -0.68833941532E+01  0.18726415849E+02  0.00000000000E+00 0.  1.
         11    1    3    3    0    0 -0.63477448005E+01  0.21479521743E+02 -0.10642476751E+02  0.24797702111E+02  0.51100000000E-03 0. -1.
        -11    1    3    3    0    0  0.12040044723E+01 -0.84138115120E-01  0.21016896049E+02  0.21051523123E+02  0.51100000000E-03 0.  1.
         12    1    3    3    0    0  0.21469715301E+02 -0.15332374749E+02 -0.34910251455E+01  0.26612358917E+02  0.00000000000E+00 0. -1.
</event>
<event>
 7    1  0.1920603E-013  0.7246150E+02  0.7816164E-02  0.1226708E+00
        -11   -1    0    0    0    0  0.00000000000E+00  0.00000000000E+00  0.45593999997E+02  0.45594000000E+02  0.51100000000E-03 0. -1.
         11   -1    0    0    0    0 -0.00000000000E+00 -0.00000000000E+00 -0.45593999997E+02  0.45594000000E+02  0.51100000000E-03 0.  1.
    9900012    2    1    2    0    0  0.17630461345E+02 -0.90363070584E-01  0.63119217560E+01  0.72461503025E+02  0.69999912369E+02 0.  0.
        -12    1    1    2    0    0 -0.17630461345E+02  0.90363070584E-01 -0.63119217560E+01  0.18726496975E+02  0.00000000000E+00 0.  1.
         11    1    3    3    0    0  0.10877747193E+02 -0.36362139083E+01  0.97511376208E+01  0.15054305721E+02  0.51100000000E-03 0. -1.
        -11    1    3    3    0    0 -0.53020029486E+01  0.21969204499E+02  0.16278115841E+02  0.27852005981E+02  0.51100000000E-03 0.  1.
        -12    1    3    3    0    0  0.12054717100E+02 -0.18423353662E+02 -0.19717331706E+02  0.29555191322E+02  0.00000000000E+00 0.  1.
</event>
<event>
 7    1  0.1920603E-013  0.7246162E+02  0.7816164E-02  0.1226708E+00
        -11   -1    0    0    0    0  0.00000000000E+00  0.00000000000E+00  0.45593999997E+02  0.45594000000E+02  0.51100000000E-03 0.  1.
         11   -1    0    0    0    0 -0.00000000000E+00 -0.00000000000E+00 -0.45593999997E+02  0.45594000000E+02  0.51100000000E-03 0. -1.
    9900012    2    1    2    0    0  0.33486920476E+01 -0.17458673467E+02  0.58871252059E+01  0.72461621256E+02  0.70000066387E+02 0.  0.
        -12    1    1    2    0    0 -0.33486920476E+01  0.17458673467E+02 -0.58871252059E+01  0.18726378744E+02  0.00000000000E+00 0.  1.
         11    1    3    3    0    0 -0.20677734149E+02 -0.17156104325E+02  0.22940403967E+00  0.26869187401E+02  0.51100000000E-03 0. -1.
        -11    1    3    3    0    0  0.49556473667E+01  0.77719883813E+01  0.18888188660E+02  0.21017276592E+02  0.51100000000E-03 0.  1.
         12    1    3    3    0    0  0.19070778830E+02 -0.80745575241E+01 -0.13230467494E+02  0.24575157263E+02  0.00000000000E+00 0. -1.
</event>
<event>
 7    1  0.1920603E-013  0.7246155E+02  0.7816164E-02  0.1226708E+00
        -11   -1    0    0    0    0  0.00000000000E+00  0.00000000000E+00  0.45593999997E+02  0.45594000000E+02  0.51100000000E-03 0.  1.
         11   -1    0    0    0    0 -0.00000000000E+00 -0.00000000000E+00 -0.45593999997E+02  0.45594000000E+02  0.51100000000E-03 0. -1.
    9900012    2    1    2    0    0 -0.18273434970E+02  0.24619484367E+01 -0.32711531550E+01  0.72461546553E+02  0.69999969073E+02 0.  0.
        -12    1    1    2    0    0  0.18273434970E+02 -0.24619484367E+01  0.32711531550E+01  0.18726453447E+02  0.00000000000E+00 0.  1.
         11    1    3    3    0    0 -0.39175078166E+02  0.20158090622E+01 -0.15954350806E+02  0.42347273175E+02  0.51100000000E-03 0.  1.
        -11    1    3    3    0    0  0.18919772501E+02  0.69663306333E+01  0.11459041990E+02  0.23190454881E+02  0.51100000000E-03 0. -1.
         12    1    3    3    0    0  0.19818706943E+01 -0.65201912588E+01  0.12241556612E+01  0.69238184973E+01  0.00000000000E+00 0. -1.
</event>
<event>
 7    1  0.1920603E-013  0.7246151E+02  0.7816164E-02  0.1226708E+00
        -11   -1    0    0    0    0  0.00000000000E+00  0.00000000000E+00  0.45593999997E+02  0.45594000000E+02  0.51100000000E-03 0. -1.
         11   -1    0    0    0    0 -0.00000000000E+00 -0.00000000000E+00 -0.45593999997E+02  0.45594000000E+02  0.51100000000E-03 0.  1.
    9900012    2    1    2    0    0  0.26802442609E+01  0.10829877700E+02  0.15040333192E+02  0.72461505859E+02  0.69999916061E+02 0.  0.
        -12    1    1    2    0    0 -0.26802442609E+01 -0.10829877700E+02 -0.15040333192E+02  0.18726494141E+02  0.00000000000E+00 0.  1.
         11    1    3    3    0    0 -0.23468154002E+02  0.84903391082E+01  0.49753717711E+01  0.25447876826E+02  0.51100000000E-03 0. -1.
        -11    1    3    3    0    0  0.27848515856E+02 -0.84102069526E+01 -0.38539421230E+01  0.29344919262E+02  0.51100000000E-03 0.  1.
        -12    1    3    3    0    0 -0.17001175925E+01  0.10749745544E+02  0.13918903544E+02  0.17668709771E+02  0.00000000000E+00 0.  1.
</event>
<event>
 7    1  0.1920603E-013  0.7246149E+02  0.7816164E-02  0.1226708E+00
        -11   -1    0    0    0    0  0.00000000000E+00  0.00000000000E+00  0.45593999997E+02  0.45594000000E+02  0.51100000000E-03 0.  1.
         11   -1    0    0    0    0 -0.00000000000E+00 -0.00000000000E+00 -0.45593999997E+02  0.45594000000E+02  0.51100000000E-03 0. -1.
    9900012    2    1    2    0    0 -0.58392038688E+01 -0.13367342903E+02 -0.11743076163E+02  0.72461494830E+02  0.69999901694E+02 0.  0.
        -12    1    1    2    0    0  0.58392038688E+01  0.13367342903E+02  0.11743076163E+02  0.18726505170E+02  0.00000000000E+00 0.  1.
         11    1    3    3    0    0 -0.19427514751E+00 -0.20758009940E+01 -0.24979442101E+02  0.25066296506E+02  0.51100000000E-03 0. -1.
        -11    1    3    3    0    0 -0.13366014401E+00 -0.23577135945E+02  0.21237565160E+02  0.31732213579E+02  0.51100000000E-03 0.  1.
         12    1    3    3    0    0 -0.55112685773E+01  0.12285594036E+02 -0.80011992220E+01  0.15662984746E+02  0.00000000000E+00 0. -1.
</event>
<event>
 7    1  0.1920603E-013  0.7246159E+02  0.7816164E-02  0.1226708E+00
        -11   -1    0    0    0    0  0.00000000000E+00  0.00000000000E+00  0.45593999997E+02  0.45594000000E+02  0.51100000000E-03 0.  1.
         11   -1    0    0    0    0 -0.00000000000E+00 -0.00000000000E+00 -0.45593999997E+02  0.45594000000E+02  0.51100000000E-03 0. -1.
    9900012    2    1    2    0    0  0.12209493424E+02 -0.99218324850E+01  0.10156973611E+02  0.72461585435E+02  0.70000019724E+02 0.  0.
        -12    1    1    2    0    0 -0.12209493424E+02  0.99218324850E+01 -0.10156973611E+02  0.18726414565E+02  0.00000000000E+00 0.  1.
         11    1    3    3    0    0  0.32350950759E+01  0.20761017935E+02  0.22975255523E+02  0.31134355180E+02  0.51100000000E-03 0. -1.
        -11    1    3    3    0    0 -0.72064023636E+01 -0.12128794306E+02 -0.80759789002E+01  0.16256116443E+02  0.51100000000E-03 0.  1.
         12    1    3    3    0    0  0.16180800711E+02 -0.18554056114E+02 -0.47423030125E+01  0.25071113812E+02  0.00000000000E+00 0. -1.
</event>
<event>
 7    1  0.1920603E-013  0.7246157E+02  0.7816164E-02  0.1226708E+00
        -11   -1    0    0    0    0  0.00000000000E+00  0.00000000000E+00  0.45593999997E+02  0.45594000000E+02  0.51100000000E-03 0.  1.
         11   -1    0    0    0    0 -0.00000000000E+00 -0.00000000000E+00 -0.45593999997E+02  0.45594000000E+02  0.51100000000E-03 0. -1.
    9900012    2    1    2    0    0  0.13145827662E+01  0.93960028648E+01 -0.16145161184E+02  0.72461568750E+02  0.69999997988E+02 0.  0.
        -12    1    1    2    0    0 -0.13145827662E+01 -0.93960028648E+01  0.16145161184E+02  0.18726431250E+02  0.00000000000E+00 0.  1.
         11    1    3    3    0    0 -0.84847184383E+01  0.38256956824E+01 -0.36710960269E+02  0.37872430587E+02  0.51100000000E-03 0. -1.
        -11    1    3    3    0    0  0.17341429663E+02  0.81478315329E+01  0.10837934683E+02  0.22013022734E+02  0.51100000000E-03 0.  1.
        -12    1    3    3    0    0 -0.75421284581E+01 -0.25775243506E+01  0.97278644021E+01  0.12576115429E+02  0.00000000000E+00 0.  1.
</event>
<event>
 7    1  0.1920603E-013  0.7246158E+02  0.7816164E-02  0.1226708E+00
        -11   -1    0    0    0    0  0.00000000000E+00  0.00000000000E+00  0.45593999997E+02  0.45594000000E+02  0.51100000000E-03 0. -1.
         11   -1    0    0    0    0 -0.00000000000E+00 -0.00000000000E+00 -0.45593999997E+02  0.45594000000E+02  0.51100000000E-03 0.  1.
    9900012    2    1    2    0    0  0.15885475745E+02 -0.57083839433E+01  0.81083100451E+01  0.72461583400E+02  0.70000017072E+02 0.  0.
        -12    1    1    2    0    0 -0.15885475745E+02  0.57083839433E+01 -0.81083100451E+01  0.18726416600E+02  0.00000000000E+00 0.  1.
         11    1    3    3    0    0  0.16904846694E+00  0.15626435636E+02 -0.97411282538E+01  0.18414767118E+02  0.51100000000E-03 0. -1.
        -11    1    3    3    0    0 -0.52679319498E+01 -0.26215768621E+02  0.11087365658E+01  0.26762789998E+02  0.51100000000E-03 0.  1.
         12    1    3    3    0    0  0.20984359228E+02  0.48809490417E+01  0.16740701733E+02  0.27284026284E+02  0.00000000000E+00 0. -1.
</event>
<event>
 7    1  0.1920603E-013  0.7246158E+02  0.7816164E-02  0.1226708E+00
        -11   -1    0    0    0    0  0.00000000000E+00  0.00000000000E+00  0.45593999997E+02  0.45594000000E+02  0.51100000000E-03 0.  1.
         11   -1    0    0    0    0 -0.00000000000E+00 -0.00000000000E+00 -0.45593999997E+02  0.45594000000E+02  0.51100000000E-03 0. -1.
    9900012    2    1    2    0    0  0.24671372578E+01 -0.18545895327E+02  0.80103929469E+00  0.72461583801E+02  0.70000017595E+02 0.  0.
        -12    1    1    2    0    0 -0.24671372578E+01  0.18545895327E+02 -0.80103929469E+00  0.18726416199E+02  0.00000000000E+00 0.  1.
         11    1    3    3    0    0 -0.16427250843E+02  0.11216987197E+02 -0.89890714857E+01  0.21828393859E+02  0.51100000000E-03 0. -1.
        -11    1    3    3    0    0  0.69144929168E+01 -0.16430004292E+01  0.17689244997E+02  0.19063552962E+02  0.51100000000E-03 0.  1.
         12    1    3    3    0    0  0.11979895184E+02 -0.28119882094E+02 -0.78991342170E+01  0.31569636979E+02  0.00000000000E+00 0. -1.
</event>
<event>
 7    1  0.1920603E-013  0.7246174E+02  0.7816164E-02  0.1226708E+00
        -11   -1    0    0    0    0  0.00000000000E+00  0.00000000000E+00  0.45593999997E+02  0.45594000000E+02  0.51100000000E-03 0.  1.
         11   -1    0    0    0    0 -0.00000000000E+00 -0.00000000000E+00 -0.45593999997E+02  0.45594000000E+02  0.51100000000E-03 0. -1.
    9900012    2    1    2    0    0 -0.12167739101E+02  0.12397746720E+02 -0.69939112727E+01  0.72461740538E+02  0.70000221773E+02 0.  0.
        -12    1    1    2    0    0  0.12167739101E+02 -0.12397746720E+02  0.69939112727E+01  0.18726259462E+02  0.00000000000E+00 0.  1.
         11    1    3    3    0    0  0.21471293071E+02 -0.13204650758E+02 -0.21455749738E+01  0.25297879753E+02  0.51100000000E-03 0. -1.
        -11    1    3    3    0    0 -0.25969199366E+02  0.75789808676E+01 -0.29528592327E+00  0.27054157920E+02  0.51100000000E-03 0.  1.
        -12    1    3    3    0    0 -0.76698328063E+01  0.18023416610E+02 -0.45530503756E+01  0.20109702864E+02  0.00000000000E+00 0.  1.
</event>
<event>
 7    1  0.1920603E-013  0.7246155E+02  0.7816164E-02  0.1226708E+00
        -11   -1    0    0    0    0  0.00000000000E+00  0.00000000000E+00  0.45593999997E+02  0.45594000000E+02  0.51100000000E-03 0. -1.
         11   -1    0    0    0    0 -0.00000000000E+00 -0.00000000000E+00 -0.45593999997E+02  0.45594000000E+02  0.51100000000E-03 0.  1.
    9900012    2    1    2    0    0 -0.21081580020E+01  0.66610233794E+01  0.17374303626E+02  0.72461548411E+02  0.69999971493E+02 0.  0.
        -12    1    1    2    0    0  0.21081580020E+01 -0.66610233794E+01 -0.17374303626E+02  0.18726451589E+02  0.00000000000E+00 0.  1.
         11    1    3    3    0    0  0.19291205217E+02  0.17286565543E+02  0.17002139968E+02  0.30984652826E+02  0.51100000000E-03 0. -1.
        -11    1    3    3    0    0 -0.17229046106E+02 -0.32718992593E+01  0.15980636502E+02  0.23726063680E+02  0.51100000000E-03 0.  1.
         12    1    3    3    0    0 -0.41703171134E+01 -0.73536429041E+01 -0.15608472844E+02  0.17750831905E+02  0.00000000000E+00 0. -1.
</event>
<event>
 7    1  0.1920603E-013  0.7246161E+02  0.7816164E-02  0.1226708E+00
        -11   -1    0    0    0    0  0.00000000000E+00  0.00000000000E+00  0.45593999997E+02  0.45594000000E+02  0.51100000000E-03 0. -1.
         11   -1    0    0    0    0 -0.00000000000E+00 -0.00000000000E+00 -0.45593999997E+02  0.45594000000E+02  0.51100000000E-03 0.  1.
    9900012    2    1    2    0    0 -0.30616215172E+01  0.50334785407E+01  0.17775500824E+02  0.72461605203E+02  0.70000045475E+02 0.  0.
        -12    1    1    2    0    0  0.30616215172E+01 -0.50334785407E+01 -0.17775500824E+02  0.18726394797E+02  0.00000000000E+00 0.  1.
         11    1    3    3    0    0  0.53191271927E+00 -0.18373602417E+01  0.24419140963E+02  0.24493943526E+02  0.51100000000E-03 0. -1.
        -11    1    3    3    0    0 -0.11393529837E+02  0.33100492347E+01 -0.25019311405E+02  0.27689978179E+02  0.51100000000E-03 0.  1.
        -12    1    3    3    0    0  0.77999956002E+01  0.35607895476E+01  0.18375671267E+02  0.20277683499E+02  0.00000000000E+00 0.  1.
</event>
<event>
 7    1  0.1920603E-013  0.7246154E+02  0.7816164E-02  0.1226708E+00
        -11   -1    0    0    0    0  0.00000000000E+00  0.00000000000E+00  0.45593999997E+02  0.45594000000E+02  0.51100000000E-03 0.  1.
         11   -1    0    0    0    0 -0.00000000000E+00 -0.00000000000E+00 -0.45593999997E+02  0.45594000000E+02  0.51100000000E-03 0. -1.
    9900012    2    1    2    0    0  0.33259455235E+01  0.12537874921E+02 -0.13506292746E+02  0.72461543717E+02  0.69999965379E+02 0.  0.
        -12    1    1    2    0    0 -0.33259455235E+01 -0.12537874921E+02  0.13506292746E+02  0.18726456283E+02  0.00000000000E+00 0.  1.
         11    1    3    3    0    0  0.68611420567E+01  0.47493383170E+01  0.44389870598E+01  0.94517771424E+01  0.51100000000E-03 0. -1.
        -11    1    3    3    0    0  0.68751406492E+01  0.13048692300E+02 -0.37468952555E+02  0.40267335838E+02  0.51100000000E-03 0.  1.
        -12    1    3    3    0    0 -0.10410337182E+02 -0.52601556962E+01  0.19523672749E+02  0.22742430737E+02  0.00000000000E+00 0.  1.
</event>
<event>
 7    1  0.1920603E-013  0.7246157E+02  0.7816164E-02  0.1226708E+00
        -11   -1    0    0    0    0  0.00000000000E+00  0.00000000000E+00  0.45593999997E+02  0.45594000000E+02  0.51100000000E-03 0. -1.
         11   -1    0    0    0    0 -0.00000000000E+00 -0.00000000000E+00 -0.45593999997E+02  0.45594000000E+02  0.51100000000E-03 0.  1.
    9900012    2    1    2    0    0  0.14929054660E+02  0.35805809426E+01  0.10722964268E+02  0.72461569598E+02  0.69999999092E+02 0.  0.
        -12    1    1    2    0    0 -0.14929054660E+02 -0.35805809426E+01 -0.10722964268E+02  0.18726430402E+02  0.00000000000E+00 0.  1.
         11    1    3    3    0    0 -0.15403522098E+02  0.61421326530E+00  0.41374194720E+01  0.15961327987E+02  0.51100000000E-03 0. -1.
        -11    1    3    3    0    0  0.36197685541E+02  0.90420213987E+01 -0.93515659341E+01  0.38464040027E+02  0.51100000000E-03 0.  1.
        -12    1    3    3    0    0 -0.58651087830E+01 -0.60756537214E+01  0.15937110730E+02  0.18036201584E+02  0.00000000000E+00 0.  1.
</event>
<event>
 7    1  0.1920603E-013  0.7246160E+02  0.7816164E-02  0.1226708E+00
        -11   -1    0    0    0    0  0.00000000000E+00  0.00000000000E+00  0.45593999997E+02  0.45594000000E+02  0.51100000000E-03 0.  1.
         11   -1    0    0    0    0 -0.00000000000E+00 -0.00000000000E+00 -0.45593999997E+02  0.45594000000E+02  0.51100000000E-03 0. -1.
    9900012    2    1    2    0    0 -0.14237566883E+02 -0.19251767553E+01 -0.12010968363E+02  0.72461602127E+02  0.70000041468E+02 0.  0.
        -12    1    1    2    0    0  0.14237566883E+02  0.19251767553E+01  0.12010968363E+02  0.18726397873E+02  0.00000000000E+00 0.  1.
         11    1    3    3    0    0 -0.26972152368E+01  0.12465656439E+02 -0.28788395531E+02  0.31487128767E+02  0.51100000000E-03 0. -1.
        -11    1    3    3    0    0 -0.20761961753E+02 -0.63998662776E+00  0.10423412621E+02  0.23240399516E+02  0.51100000000E-03 0.  1.
         12    1    3    3    0    0  0.92216101071E+01 -0.13750846566E+02  0.63540145470E+01  0.17734073844E+02  0.00000000000E+00 0. -1.
</event>
<event>
 7    1  0.1920603E-013  0.7246122E+02  0.7816164E-02  0.1226709E+00
        -11   -1    0    0    0    0  0.00000000000E+00  0.00000000000E+00  0.45593999997E+02  0.45594000000E+02  0.51100000000E-03 0.  1.
         11   -1    0    0    0    0 -0.00000000000E+00 -0.00000000000E+00 -0.45593999997E+02  0.45594000000E+02  0.51100000000E-03 0. -1.
    9900012    2    1    2    0    0 -0.10798171473E+01  0.27623391492E+01 -0.18490425646E+02  0.72461218023E+02  0.69999541100E+02 0.  0.
        -12    1    1    2    0    0  0.10798171473E+01 -0.27623391492E+01  0.18490425646E+02  0.18726781977E+02  0.00000000000E+00 0.  1.
         11    1    3    3    0    0  0.16372348393E+02  0.83664530737E+00 -0.13575670412E+02  0.21285032174E+02  0.51100000000E-03 0. -1.
        -11    1    3    3    0    0 -0.23266132612E+02 -0.31078039003E+00  0.16726441046E+02  0.28656296717E+02  0.51100000000E-03 0.  1.
        -12    1    3    3    0    0  0.58139670716E+01  0.22364742319E+01 -0.21641196280E+02  0.22519889132E+02  0.00000000000E+00 0.  1.
</event>
<event>
 7    1  0.1920603E-013  0.7246157E+02  0.7816164E-02  0.1226708E+00
        -11   -1    0    0    0    0  0.00000000000E+00  0.00000000000E+00  0.45593999997E+02  0.45594000000E+02  0.51100000000E-03 0.  1.
         11   -1    0    0    0    0 -0.00000000000E+00 -0.00000000000E+00 -0.45593999997E+02  0.45594000000E+02  0.51100000000E-03 0. -1.
    9900012    2    1    2    0    0 -0.13668673028E+02  0.10949355241E+02 -0.66300968567E+01  0.72461569831E+02  0.69999999396E+02 0.  0.
        -12    1    1    2    0    0  0.13668673028E+02 -0.10949355241E+02  0.66300968567E+01  0.18726430169E+02  0.00000000000E+00 0.  1.
         11    1    3    3    0    0 -0.31720617587E+02  0.78194456449E+01 -0.20763651982E+02  0.38710083366E+02  0.51100000000E-03 0. -1.
        -11    1    3    3    0    0  0.38311735284E+01  0.11205579092E+02  0.12653697290E+02  0.17330866936E+02  0.51100000000E-03 0.  1.
         12    1    3    3    0    0  0.14220771031E+02 -0.80756694953E+01  0.14798578358E+01  0.16420619529E+02  0.00000000000E+00 0. -1.
</event>
<event>
 7    1  0.1920603E-013  0.7246159E+02  0.7816164E-02  0.1226708E+00
        -11   -1    0    0    0    0  0.00000000000E+00  0.00000000000E+00  0.45593999997E+02  0.45594000000E+02  0.51100000000E-03 0. -1.
         11   -1    0    0    0    0 -0.00000000000E+00 -0.00000000000E+00 -0.45593999997E+02  0.45594000000E+02  0.51100000000E-03 0.  1.
    9900012    2    1    2    0    0 -0.12958690424E+02  0.59790381808E+01  0.12124437369E+02  0.72461587193E+02  0.70000022014E+02 0.  0.
        -12    1    1    2    0    0  0.12958690424E+02 -0.59790381808E+01 -0.12124437369E+02  0.18726412807E+02  0.00000000000E+00 0.  1.
         11    1    3    3    0    0  0.39850120370E+01  0.29086972571E+01  0.14989309471E+02  0.15780375133E+02  0.51100000000E-03 0. -1.
        -11    1    3    3    0    0 -0.33337673083E+02 -0.94534600120E+01  0.41300215744E+01  0.34897355649E+02  0.51100000000E-03 0.  1.
        -12    1    3    3    0    0  0.16393970622E+02  0.12523800936E+02 -0.69948936760E+01  0.21783856412E+02  0.00000000000E+00 0.  1.
</event>
<event>
 7    1  0.1920603E-013  0.7246159E+02  0.7816164E-02  0.1226708E+00
        -11   -1    0    0    0    0  0.00000000000E+00  0.00000000000E+00  0.45593999997E+02  0.45594000000E+02  0.51100000000E-03 0.  1.
         11   -1    0    0    0    0 -0.00000000000E+00 -0.00000000000E+00 -0.45593999997E+02  0.45594000000E+02  0.51100000000E-03 0. -1.
    9900012    2    1    2    0    0  0.82888235924E+01  0.67095665597E+01  0.15393355413E+02  0.72461594290E+02  0.70000031258E+02 0.  0.
        -12    1    1    2    0    0 -0.82888235924E+01 -0.67095665597E+01 -0.15393355413E+02  0.18726405710E+02  0.00000000000E+00 0.  1.
         11    1    3    3    0    0  0.19594629154E+02 -0.57358304666E+01 -0.65420529952E+01  0.21439395991E+02  0.51100000000E-03 0. -1.
        -11    1    3    3    0    0 -0.25288077573E+02  0.17740131001E+02  0.12381316995E+02  0.33279064381E+02  0.51100000000E-03 0.  1.
        -12    1    3    3    0    0  0.13982272012E+02 -0.52947339749E+01  0.95540914126E+01  0.17743133917E+02  0.00000000000E+00 0.  1.
</event>
<event>
 8    1  0.1920603E-013  0.7246154E+02  0.7816164E-02  0.1226708E+00
        -11   -1    0    0    0    0  0.00000000000E+00  0.00000000000E+00  0.45593999997E+02  0.45594000000E+02  0.51100000000E-03 0. -1.
         11   -1    0    0    0    0 -0.00000000000E+00 -0.00000000000E+00 -0.45593999997E+02  0.45594000000E+02  0.51100000000E-03 0.  1.
    9900012    2    1    2    0    0  0.48616144479E+01 -0.75191828456E+01  0.16447095809E+02  0.72461538342E+02  0.69999958376E+02 0.  0.
        -24    2    3    3    0    0  0.12160084933E+02 -0.12995563965E+02  0.20778138778E+02  0.62361223740E+02  0.56039618369E+02 0.  0.
        -12    1    1    2    0    0 -0.48616144479E+01  0.75191828456E+01 -0.16447095809E+02  0.18726461658E+02  0.00000000000E+00 0.  1.
         11    1    4    4    0    0  0.10025812156E+02  0.20813289739E+02  0.16110908776E+02  0.28165072714E+02  0.51100000000E-03 0. -1.
        -11    1    3    3    0    0 -0.72984704850E+01  0.54763811193E+01 -0.43310429697E+01  0.10100314602E+02  0.51100000000E-03 0.  1.
        -12    1    4    4    0    0  0.21342727770E+01 -0.33808853704E+02  0.46672300026E+01  0.34196151026E+02  0.00000000000E+00 0.  1.
</event>
<event>
 7    1  0.1920603E-013  0.7246145E+02  0.7816164E-02  0.1226708E+00
        -11   -1    0    0    0    0  0.00000000000E+00  0.00000000000E+00  0.45593999997E+02  0.45594000000E+02  0.51100000000E-03 0. -1.
         11   -1    0    0    0    0 -0.00000000000E+00 -0.00000000000E+00 -0.45593999997E+02  0.45594000000E+02  0.51100000000E-03 0.  1.
    9900012    2    1    2    0    0  0.16552414203E+02 -0.75305168454E+01  0.44712866787E+01  0.72461454551E+02  0.69999849222E+02 0.  0.
        -12    1    1    2    0    0 -0.16552414203E+02  0.75305168454E+01 -0.44712866787E+01  0.18726545449E+02  0.00000000000E+00 0.  1.
         11    1    3    3    0    0  0.15843771530E+02 -0.10080823125E+02 -0.18882626955E+02  0.26630840995E+02  0.51100000000E-03 0. -1.
        -11    1    3    3    0    0  0.96997667554E+00  0.20542998935E+02  0.76352152024E+01  0.21937460460E+02  0.51100000000E-03 0.  1.
         12    1    3    3    0    0 -0.26133400251E+00 -0.17992692656E+02  0.15718698431E+02  0.23893153095E+02  0.00000000000E+00 0. -1.
</event>
<event>
 7    1  0.1920603E-013  0.7246155E+02  0.7816164E-02  0.1226708E+00
        -11   -1    0    0    0    0  0.00000000000E+00  0.00000000000E+00  0.45593999997E+02  0.45594000000E+02  0.51100000000E-03 0.  1.
         11   -1    0    0    0    0 -0.00000000000E+00 -0.00000000000E+00 -0.45593999997E+02  0.45594000000E+02  0.51100000000E-03 0. -1.
    9900012    2    1    2    0    0  0.98218698740E+01 -0.15056873541E+01 -0.15872733860E+02  0.72461550726E+02  0.69999974508E+02 0.  0.
        -12    1    1    2    0    0 -0.98218698740E+01  0.15056873541E+01  0.15872733860E+02  0.18726449274E+02  0.00000000000E+00 0.  1.
         11    1    3    3    0    0  0.13836368660E+02  0.23313429857E+01 -0.24962056690E+02  0.28635372047E+02  0.51100000000E-03 0. -1.
        -11    1    3    3    0    0  0.79500683411E+01  0.49798393336E+01  0.22141125512E+02  0.24046451415E+02  0.51100000000E-03 0.  1.
        -12    1    3    3    0    0 -0.11964567127E+02 -0.88168696734E+01 -0.13051802683E+02  0.19779727264E+02  0.00000000000E+00 0.  1.
</event>
<event>
 7    1  0.1920603E-013  0.7246158E+02  0.7816164E-02  0.1226708E+00
        -11   -1    0    0    0    0  0.00000000000E+00  0.00000000000E+00  0.45593999997E+02  0.45594000000E+02  0.51100000000E-03 0.  1.
         11   -1    0    0    0    0 -0.00000000000E+00 -0.00000000000E+00 -0.45593999997E+02  0.45594000000E+02  0.51100000000E-03 0. -1.
    9900012    2    1    2    0    0  0.15005697329E+02  0.91156907007E+01  0.65124539254E+01  0.72461579482E+02  0.70000011969E+02 0.  0.
        -12    1    1    2    0    0 -0.15005697329E+02 -0.91156907007E+01 -0.65124539254E+01  0.18726420518E+02  0.00000000000E+00 0.  1.
         11    1    3    3    0    0  0.19253606431E+02  0.28654425798E+02  0.24832062299E+02  0.42525390024E+02  0.51100000000E-03 0. -1.
        -11    1    3    3    0    0 -0.42018675141E+01 -0.59368641461E+00 -0.59581720876E+01  0.73149141520E+01  0.51100000000E-03 0.  1.
         12    1    3    3    0    0 -0.46041588349E-01 -0.18945048683E+02 -0.12361436286E+02  0.22621275306E+02  0.00000000000E+00 0. -1.
</event>
<event>
 7    1  0.1920603E-013  0.7246154E+02  0.7816164E-02  0.1226708E+00
        -11   -1    0    0    0    0  0.00000000000E+00  0.00000000000E+00  0.45593999997E+02  0.45594000000E+02  0.51100000000E-03 0. -1.
         11   -1    0    0    0    0 -0.00000000000E+00 -0.00000000000E+00 -0.45593999997E+02  0.45594000000E+02  0.51100000000E-03 0.  1.
    9900012    2    1    2    0    0  0.12613308316E+02  0.34309616004E+01  0.13409451268E+02  0.72461536706E+02  0.69999956245E+02 0.  0.
        -12    1    1    2    0    0 -0.12613308316E+02 -0.34309616004E+01 -0.13409451268E+02  0.18726463294E+02  0.00000000000E+00 0.  1.
         11    1    3    3    0    0  0.22812920562E+02  0.76196679129E+01  0.28509556827E+02  0.37299913062E+02  0.51100000000E-03 0. -1.
        -11    1    3    3    0    0 -0.15853113088E+02 -0.13010435253E+02 -0.62309381663E+01  0.21434019939E+02  0.51100000000E-03 0.  1.
         12    1    3    3    0    0  0.56535008421E+01  0.88217289400E+01 -0.88691673923E+01  0.13727603706E+02  0.00000000000E+00 0. -1.
</event>
<event>
 7    1  0.1920603E-013  0.7246153E+02  0.7816164E-02  0.1226708E+00
        -11   -1    0    0    0    0  0.00000000000E+00  0.00000000000E+00  0.45593999997E+02  0.45594000000E+02  0.51100000000E-03 0.  1.
         11   -1    0    0    0    0 -0.00000000000E+00 -0.00000000000E+00 -0.45593999997E+02  0.45594000000E+02  0.51100000000E-03 0. -1.
    9900012    2    1    2    0    0 -0.96960736345E+01  0.15718089869E+02  0.30997615823E+01  0.72461529032E+02  0.69999946248E+02 0.  0.
        -12    1    1    2    0    0  0.96960736345E+01 -0.15718089869E+02 -0.30997615823E+01  0.18726470968E+02  0.00000000000E+00 0.  1.
         11    1    3    3    0    0 -0.11838302357E+02 -0.17195442261E+01 -0.14847864575E+02  0.19067283963E+02  0.51100000000E-03 0. -1.
        -11    1    3    3    0    0  0.23223665097E+02  0.11610712101E+02  0.17874656691E+02  0.31522224035E+02  0.51100000000E-03 0.  1.
         12    1    3    3    0    0 -0.21081436375E+02  0.58269219939E+01  0.72969466456E-01  0.21872021033E+02  0.00000000000E+00 0. -1.
</event>
<event>
 7    1  0.1920603E-013  0.7246164E+02  0.7816164E-02  0.1226708E+00
        -11   -1    0    0    0    0  0.00000000000E+00  0.00000000000E+00  0.45593999997E+02  0.45594000000E+02  0.51100000000E-03 0.  1.
         11   -1    0    0    0    0 -0.00000000000E+00 -0.00000000000E+00 -0.45593999997E+02  0.45594000000E+02  0.51100000000E-03 0. -1.
    9900012    2    1    2    0    0  0.14537447720E+02  0.11804120295E+02  0.42661095259E-01  0.72461642582E+02  0.70000094169E+02 0.  0.
        -12    1    1    2    0    0 -0.14537447720E+02 -0.11804120295E+02 -0.42661095259E-01  0.18726357418E+02  0.00000000000E+00 0.  1.
         11    1    3    3    0    0 -0.10692937659E+02 -0.15901452972E+02  0.28366445013E+01  0.19371155739E+02  0.51100000000E-03 0. -1.
        -11    1    3    3    0    0  0.47885930599E+01  0.29566647529E+01  0.15258267882E+02  0.16263063333E+02  0.51100000000E-03 0.  1.
         12    1    3    3    0    0  0.20441792319E+02  0.24748908514E+02 -0.18052251288E+02  0.36827423510E+02  0.00000000000E+00 0. -1.
</event>
<event>
 7    1  0.1920603E-013  0.7246132E+02  0.7816164E-02  0.1226709E+00
        -11   -1    0    0    0    0  0.00000000000E+00  0.00000000000E+00  0.45593999997E+02  0.45594000000E+02  0.51100000000E-03 0.  1.
         11   -1    0    0    0    0 -0.00000000000E+00 -0.00000000000E+00 -0.45593999997E+02  0.45594000000E+02  0.51100000000E-03 0. -1.
    9900012    2    1    2    0    0  0.61896357270E+01 -0.18279586927E+01 -0.17579401169E+02  0.72461324671E+02  0.69999680029E+02 0.  0.
        -12    1    1    2    0    0 -0.61896357270E+01  0.18279586927E+01  0.17579401169E+02  0.18726675329E+02  0.00000000000E+00 0.  1.
         11    1    3    3    0    0  0.26639499168E+01 -0.79599238256E+01 -0.28383269644E+02  0.29598429222E+02  0.51100000000E-03 0. -1.
        -11    1    3    3    0    0 -0.14797192004E+02 -0.75082238197E+01  0.11195926336E+02  0.20016969873E+02  0.51100000000E-03 0.  1.
        -12    1    3    3    0    0  0.18322877814E+02  0.13640188953E+02 -0.39205786161E+00  0.22845925576E+02  0.00000000000E+00 0.  1.
</event>
<event>
 7    1  0.1920603E-013  0.7246159E+02  0.7816164E-02  0.1226708E+00
        -11   -1    0    0    0    0  0.00000000000E+00  0.00000000000E+00  0.45593999997E+02  0.45594000000E+02  0.51100000000E-03 0.  1.
         11   -1    0    0    0    0 -0.00000000000E+00 -0.00000000000E+00 -0.45593999997E+02  0.45594000000E+02  0.51100000000E-03 0. -1.
    9900012    2    1    2    0    0 -0.83628515816E+01 -0.31189327219E+01 -0.16462489481E+02  0.72461585826E+02  0.70000020233E+02 0.  0.
        -12    1    1    2    0    0  0.83628515816E+01  0.31189327219E+01  0.16462489481E+02  0.18726414174E+02  0.00000000000E+00 0.  1.
         11    1    3    3    0    0  0.79326077687E+01  0.15531054092E+02  0.36485982199E+01  0.17817187670E+02  0.51100000000E-03 0. -1.
        -11    1    3    3    0    0 -0.74027703683E+00 -0.26668011366E+02 -0.24908332738E+02  0.36498710667E+02  0.51100000000E-03 0.  1.
         12    1    3    3    0    0 -0.15555182313E+02  0.80180245522E+01  0.47972450366E+01  0.18145687489E+02  0.00000000000E+00 0. -1.
</event>
<event>
 7    1  0.1920603E-013  0.7246169E+02  0.7816164E-02  0.1226708E+00
        -11   -1    0    0    0    0  0.00000000000E+00  0.00000000000E+00  0.45593999997E+02  0.45594000000E+02  0.51100000000E-03 0.  1.
         11   -1    0    0    0    0 -0.00000000000E+00 -0.00000000000E+00 -0.45593999997E+02  0.45594000000E+02  0.51100000000E-03 0. -1.
    9900012    2    1    2    0    0  0.17525233147E+01 -0.58736135544E+01 -0.17694744722E+02  0.72461690568E+02  0.70000156679E+02 0.  0.
        -12    1    1    2    0    0 -0.17525233147E+01  0.58736135544E+01  0.17694744722E+02  0.18726309432E+02  0.00000000000E+00 0.  1.
         11    1    3    3    0    0  0.17151366987E+02  0.10990775557E+02 -0.62144840324E+01  0.21297566737E+02  0.51100000000E-03 0.  1.
        -11    1    3    3    0    0 -0.17809319058E+02 -0.17941856125E+02 -0.26083582142E+02  0.36324032047E+02  0.51100000000E-03 0. -1.
        -12    1    3    3    0    0  0.24104753862E+01  0.10774670138E+01  0.14603321452E+02  0.14840091785E+02  0.00000000000E+00 0.  1.
</event>
<event>
 7    1  0.1920603E-013  0.7246154E+02  0.7816164E-02  0.1226708E+00
        -11   -1    0    0    0    0  0.00000000000E+00  0.00000000000E+00  0.45593999997E+02  0.45594000000E+02  0.51100000000E-03 0.  1.
         11   -1    0    0    0    0 -0.00000000000E+00 -0.00000000000E+00 -0.45593999997E+02  0.45594000000E+02  0.51100000000E-03 0. -1.
    9900012    2    1    2    0    0  0.17822018929E+02  0.54200581356E+01 -0.19180796344E+01  0.72461536950E+02  0.69999956562E+02 0.  0.
        -12    1    1    2    0    0 -0.17822018929E+02 -0.54200581356E+01  0.19180796344E+01  0.18726463050E+02  0.00000000000E+00 0.  1.
         11    1    3    3    0    0  0.30012236461E+02  0.25308903728E+02  0.79167044337E+00  0.39267056010E+02  0.51100000000E-03 0. -1.
        -11    1    3    3    0    0 -0.15714340639E+02 -0.34754606054E+01  0.50495866179E+00  0.16101997133E+02  0.51100000000E-03 0.  1.
         12    1    3    3    0    0  0.35241231073E+01 -0.16413384987E+02 -0.32147087396E+01  0.17092483807E+02  0.00000000000E+00 0. -1.
</event>
<event>
 7    1  0.1920603E-013  0.7246154E+02  0.7816164E-02  0.1226708E+00
        -11   -1    0    0    0    0  0.00000000000E+00  0.00000000000E+00  0.45593999997E+02  0.45594000000E+02  0.51100000000E-03 0. -1.
         11   -1    0    0    0    0 -0.00000000000E+00 -0.00000000000E+00 -0.45593999997E+02  0.45594000000E+02  0.51100000000E-03 0.  1.
    9900012    2    1    2    0    0 -0.12173206722E+02  0.13615905645E+02  0.41352605986E+01  0.72461542015E+02  0.69999963161E+02 0.  0.
        -12    1    1    2    0    0  0.12173206722E+02 -0.13615905645E+02 -0.41352605986E+01  0.18726457985E+02  0.00000000000E+00 0.  1.
         11    1    3    3    0    0 -0.23243090393E+02 -0.12030494295E+02  0.75933211855E+01  0.27251285674E+02  0.51100000000E-03 0. -1.
        -11    1    3    3    0    0  0.17495822980E+02  0.77380160354E+01  0.10303361173E+02  0.21728781964E+02  0.51100000000E-03 0.  1.
         12    1    3    3    0    0 -0.64259393090E+01  0.17908383905E+02 -0.13761421760E+02  0.23481474377E+02  0.00000000000E+00 0. -1.
</event>
<event>
 7    1  0.1920603E-013  0.7246115E+02  0.7816164E-02  0.1226709E+00
        -11   -1    0    0    0    0  0.00000000000E+00  0.00000000000E+00  0.45593999997E+02  0.45594000000E+02  0.51100000000E-03 0.  1.
         11   -1    0    0    0    0 -0.00000000000E+00 -0.00000000000E+00 -0.45593999997E+02  0.45594000000E+02  0.51100000000E-03 0. -1.
    9900012    2    1    2    0    0 -0.15013046251E+02  0.63220351540E+01 -0.92377143989E+01  0.72461146192E+02  0.69999447526E+02 0.  0.
        -12    1    1    2    0    0  0.15013046251E+02 -0.63220351540E+01  0.92377143989E+01  0.18726853808E+02  0.00000000000E+00 0.  1.
         11    1    3    3    0    0 -0.17850710977E+02 -0.29023905762E+02 -0.67193208513E+01  0.34730163562E+02  0.51100000000E-03 0. -1.
        -11    1    3    3    0    0  0.75252289742E+01  0.17777739149E+02 -0.30287931496E+01  0.19540999682E+02  0.51100000000E-03 0.  1.
         12    1    3    3    0    0 -0.46875642482E+01  0.17568201767E+02  0.51039960201E+00  0.18189982948E+02  0.00000000000E+00 0. -1.
</event>
<event>
 7    1  0.1920603E-013  0.7246156E+02  0.7816164E-02  0.1226708E+00
        -11   -1    0    0    0    0  0.00000000000E+00  0.00000000000E+00  0.45593999997E+02  0.45594000000E+02  0.51100000000E-03 0.  1.
         11   -1    0    0    0    0 -0.00000000000E+00 -0.00000000000E+00 -0.45593999997E+02  0.45594000000E+02  0.51100000000E-03 0. -1.
    9900012    2    1    2    0    0 -0.12349301348E+02  0.81163534841E+01 -0.11502131025E+02  0.72461562651E+02  0.69999990044E+02 0.  0.
        -12    1    1    2    0    0  0.12349301348E+02 -0.81163534841E+01  0.11502131025E+02  0.18726437349E+02  0.00000000000E+00 0.  1.
         11    1    3    3    0    0 -0.19123554683E+02  0.22828365443E+02 -0.32548392999E+02  0.44116238502E+02  0.51100000000E-03 0. -1.
        -11    1    3    3    0    0  0.84040364301E+01 -0.74367392815E+01  0.15074762521E+02  0.18793120677E+02  0.51100000000E-03 0.  1.
         12    1    3    3    0    0 -0.16297830944E+01 -0.72752726770E+01  0.59714994530E+01  0.95522034724E+01  0.00000000000E+00 0. -1.
</event>
<event>
 7    1  0.1920603E-013  0.7246172E+02  0.7816164E-02  0.1226708E+00
        -11   -1    0    0    0    0  0.00000000000E+00  0.00000000000E+00  0.45593999997E+02  0.45594000000E+02  0.51100000000E-03 0.  1.
         11   -1    0    0    0    0 -0.00000000000E+00 -0.00000000000E+00 -0.45593999997E+02  0.45594000000E+02  0.51100000000E-03 0. -1.
    9900012    2    1    2    0    0  0.15608454571E+02  0.10100880173E+02 -0.22409798294E+01  0.72461718336E+02  0.70000192852E+02 0.  0.
        -12    1    1    2    0    0 -0.15608454571E+02 -0.10100880173E+02  0.22409798294E+01  0.18726281664E+02  0.00000000000E+00 0.  1.
         11    1    3    3    0    0  0.50420848346E+01 -0.15348973153E+02 -0.26039317661E+02  0.30644080355E+02  0.51100000000E-03 0. -1.
        -11    1    3    3    0    0  0.36415511087E+01  0.19815360364E+02  0.46300986536E+01  0.20672378059E+02  0.51100000000E-03 0.  1.
         12    1    3    3    0    0  0.69248186273E+01  0.56344929624E+01  0.19168239178E+02  0.21145259921E+02  0.00000000000E+00 0. -1.
</event>
<event>
 7    1  0.1920603E-013  0.7246140E+02  0.7816164E-02  0.1226708E+00
        -11   -1    0    0    0    0  0.00000000000E+00  0.00000000000E+00  0.45593999997E+02  0.45594000000E+02  0.51100000000E-03 0.  1.
         11   -1    0    0    0    0 -0.00000000000E+00 -0.00000000000E+00 -0.45593999997E+02  0.45594000000E+02  0.51100000000E-03 0. -1.
    9900012    2    1    2    0    0  0.88674833467E+01  0.16063278484E+02 -0.37448891485E+01  0.72461404706E+02  0.69999784290E+02 0.  0.
        -12    1    1    2    0    0 -0.88674833467E+01 -0.16063278484E+02  0.37448891485E+01  0.18726595294E+02  0.00000000000E+00 0.  1.
         11    1    3    3    0    0 -0.18111260332E+02  0.69975822886E+01  0.23846004922E+02  0.30750867626E+02  0.51100000000E-03 0. -1.
        -11    1    3    3    0    0  0.14671211402E+02  0.12047162610E+01 -0.65833657669E+01  0.16125646974E+02  0.51100000000E-03 0.  1.
         12    1    3    3    0    0  0.12307532278E+02  0.78609799348E+01 -0.21007528304E+02  0.25584890106E+02  0.00000000000E+00 0. -1.
</event>
<event>
 7    1  0.1920603E-013  0.7246175E+02  0.7816164E-02  0.1226708E+00
        -11   -1    0    0    0    0  0.00000000000E+00  0.00000000000E+00  0.45593999997E+02  0.45594000000E+02  0.51100000000E-03 0.  1.
         11   -1    0    0    0    0 -0.00000000000E+00 -0.00000000000E+00 -0.45593999997E+02  0.45594000000E+02  0.51100000000E-03 0. -1.
    9900012    2    1    2    0    0 -0.94214002060E+01 -0.32726043406E+01 -0.15849284840E+02  0.72461747013E+02  0.70000230208E+02 0.  0.
        -12    1    1    2    0    0  0.94214002060E+01  0.32726043406E+01  0.15849284840E+02  0.18726252987E+02  0.00000000000E+00 0.  1.
         11    1    3    3    0    0  0.14336351818E+02  0.81219884014E+01 -0.19443170814E+02  0.25485968112E+02  0.51100000000E-03 0. -1.
        -11    1    3    3    0    0 -0.33524862122E+02 -0.13960518472E+02  0.18031111206E+00  0.36315905175E+02  0.51100000000E-03 0.  1.
        -12    1    3    3    0    0  0.97671100978E+01  0.25659257296E+01  0.34135748619E+01  0.10659873726E+02  0.00000000000E+00 0.  1.
</event>
<event>
 7    1  0.1920603E-013  0.7246158E+02  0.7816164E-02  0.1226708E+00
        -11   -1    0    0    0    0  0.00000000000E+00  0.00000000000E+00  0.45593999997E+02  0.45594000000E+02  0.51100000000E-03 0. -1.
         11   -1    0    0    0    0 -0.00000000000E+00 -0.00000000000E+00 -0.45593999997E+02  0.45594000000E+02  0.51100000000E-03 0.  1.
    9900012    2    1    2    0    0 -0.53146695241E+01  0.15114942343E+02  0.96938894729E+01  0.72461583170E+02  0.70000016773E+02 0.  0.
        -12    1    1    2    0    0  0.53146695241E+01 -0.15114942343E+02 -0.96938894729E+01  0.18726416830E+02  0.00000000000E+00 0.  1.
         11    1    3    3    0    0 -0.58788264846E+01 -0.35556498533E+01  0.10754969301E+02  0.12762155447E+02  0.51100000000E-03 0. -1.
        -11    1    3    3    0    0  0.24582285841E+02  0.16446274364E+02 -0.13555131320E+02  0.32534755308E+02  0.51100000000E-03 0.  1.
        -12    1    3    3    0    0 -0.24018128881E+02  0.22243178325E+01  0.12494051491E+02  0.27164672415E+02  0.00000000000E+00 0.  1.
</event>
<event>
 7    1  0.1920603E-013  0.7246160E+02  0.7816164E-02  0.1226708E+00
        -11   -1    0    0    0    0  0.00000000000E+00  0.00000000000E+00  0.45593999997E+02  0.45594000000E+02  0.51100000000E-03 0.  1.
         11   -1    0    0    0    0 -0.00000000000E+00 -0.00000000000E+00 -0.45593999997E+02  0.45594000000E+02  0.51100000000E-03 0. -1.
    9900012    2    1    2    0    0 -0.13468329389E+02  0.10656090405E+02 -0.74652376325E+01  0.72461603332E+02  0.70000043037E+02 0.  0.
        -12    1    1    2    0    0  0.13468329389E+02 -0.10656090405E+02  0.74652376325E+01  0.18726396668E+02  0.00000000000E+00 0.  1.
         11    1    3    3    0    0  0.85327704656E+01  0.14602171583E+02 -0.26849360664E+02  0.31731998915E+02  0.51100000000E-03 0. -1.
        -11    1    3    3    0    0 -0.13337002545E+02  0.91839555853E+01  0.19039990774E+02  0.24994837987E+02  0.51100000000E-03 0.  1.
        -12    1    3    3    0    0 -0.86640973101E+01 -0.13130036763E+02  0.34413225784E+00  0.15734766430E+02  0.00000000000E+00 0.  1.
</event>
<event>
 7    1  0.1920603E-013  0.7246157E+02  0.7816164E-02  0.1226708E+00
        -11   -1    0    0    0    0  0.00000000000E+00  0.00000000000E+00  0.45593999997E+02  0.45594000000E+02  0.51100000000E-03 0.  1.
         11   -1    0    0    0    0 -0.00000000000E+00 -0.00000000000E+00 -0.45593999997E+02  0.45594000000E+02  0.51100000000E-03 0. -1.
    9900012    2    1    2    0    0 -0.87038838023E+01 -0.32883784707E+01 -0.16251408435E+02  0.72461566748E+02  0.69999995381E+02 0.  0.
        -12    1    1    2    0    0  0.87038838023E+01  0.32883784707E+01  0.16251408435E+02  0.18726433252E+02  0.00000000000E+00 0.  1.
         11    1    3    3    0    0 -0.24517048662E+01  0.18200397819E+02 -0.16799026578E+02  0.24889207134E+02  0.51100000000E-03 0. -1.
        -11    1    3    3    0    0  0.21486871149E+01 -0.62715041071E+01  0.20244594509E+02  0.21302399564E+02  0.51100000000E-03 0.  1.
        -12    1    3    3    0    0 -0.84008660510E+01 -0.15217272183E+02 -0.19696976366E+02  0.26269960051E+02  0.00000000000E+00 0.  1.
</event>
<event>
 7    1  0.1920603E-013  0.7246157E+02  0.7816164E-02  0.1226708E+00
        -11   -1    0    0    0    0  0.00000000000E+00  0.00000000000E+00  0.45593999997E+02  0.45594000000E+02  0.51100000000E-03 0.  1.
         11   -1    0    0    0    0 -0.00000000000E+00 -0.00000000000E+00 -0.45593999997E+02  0.45594000000E+02  0.51100000000E-03 0. -1.
    9900012    2    1    2    0    0  0.17972138717E+02  0.19387365171E+01  0.48910924321E+01  0.72461568024E+02  0.69999997043E+02 0.  0.
        -12    1    1    2    0    0 -0.17972138717E+02 -0.19387365171E+01 -0.48910924321E+01  0.18726431976E+02  0.00000000000E+00 0.  1.
         11    1    3    3    0    0  0.34603463705E+01 -0.17382764958E+02 -0.20223212109E+02  0.26890757201E+02  0.51100000000E-03 0. -1.
        -11    1    3    3    0    0  0.21712075024E+02  0.17553046718E+02  0.25940299895E+02  0.38110665303E+02  0.51100000000E-03 0.  1.
         12    1    3    3    0    0 -0.72002826772E+01  0.17684547572E+01 -0.82599535349E+00  0.74601455203E+01  0.00000000000E+00 0. -1.
</event>
<event>
 7    1  0.1920603E-013  0.7246159E+02  0.7816164E-02  0.1226708E+00
        -11   -1    0    0    0    0  0.00000000000E+00  0.00000000000E+00  0.45593999997E+02  0.45594000000E+02  0.51100000000E-03 0. -1.
         11   -1    0    0    0    0 -0.00000000000E+00 -0.00000000000E+00 -0.45593999997E+02  0.45594000000E+02  0.51100000000E-03 0.  1.
    9900012    2    1    2    0    0 -0.62711413450E+01 -0.17561878941E+02  0.17121780878E+01  0.72461591922E+02  0.70000028174E+02 0.  0.
        -12    1    1    2    0    0  0.62711413450E+01  0.17561878941E+02 -0.17121780878E+01  0.18726408078E+02  0.00000000000E+00 0.  1.
         11    1    3    3    0    0  0.27117398767E+02 -0.16434559677E+02 -0.92685968451E+01  0.33035661873E+02  0.51100000000E-03 0.  1.
        -11    1    3    3    0    0 -0.32669135165E+02  0.37566654710E+00  0.14337171129E+02  0.35678677021E+02  0.51100000000E-03 0. -1.
        -12    1    3    3    0    0 -0.71940494780E+00 -0.15029858111E+01 -0.33563961959E+01  0.37472530274E+01  0.00000000000E+00 0.  1.
</event>
<event>
 7    1  0.1920603E-013  0.7246156E+02  0.7816164E-02  0.1226708E+00
        -11   -1    0    0    0    0  0.00000000000E+00  0.00000000000E+00  0.45593999997E+02  0.45594000000E+02  0.51100000000E-03 0.  1.
         11   -1    0    0    0    0 -0.00000000000E+00 -0.00000000000E+00 -0.45593999997E+02  0.45594000000E+02  0.51100000000E-03 0. -1.
    9900012    2    1    2    0    0  0.45815234715E+01 -0.16423075489E+02 -0.77441461502E+01  0.72461559724E+02  0.69999986230E+02 0.  0.
        -12    1    1    2    0    0 -0.45815234715E+01  0.16423075489E+02  0.77441461502E+01  0.18726440276E+02  0.00000000000E+00 0.  1.
         11    1    3    3    0    0 -0.72494778175E+01 -0.15462335422E+02 -0.33344809124E+02  0.37463516134E+02  0.51100000000E-03 0. -1.
        -11    1    3    3    0    0  0.16013438671E+02 -0.55889712566E+01  0.14727563344E+02  0.22462589790E+02  0.51100000000E-03 0.  1.
         12    1    3    3    0    0 -0.41824373818E+01  0.46282311897E+01  0.10873099630E+02  0.12535453800E+02  0.00000000000E+00 0. -1.
</event>
<event>
 7    1  0.1920603E-013  0.7246159E+02  0.7816164E-02  0.1226708E+00
        -11   -1    0    0    0    0  0.00000000000E+00  0.00000000000E+00  0.45593999997E+02  0.45594000000E+02  0.51100000000E-03 0. -1.
         11   -1    0    0    0    0 -0.00000000000E+00 -0.00000000000E+00 -0.45593999997E+02  0.45594000000E+02  0.51100000000E-03 0.  1.
    9900012    2    1    2    0    0 -0.10422560293E+02  0.12273274757E+01  0.15509423251E+02  0.72461593367E+02  0.70000030056E+02 0.  0.
        -12    1    1    2    0    0  0.10422560293E+02 -0.12273274757E+01 -0.15509423251E+02  0.18726406633E+02  0.00000000000E+00 0.  1.
         11    1    3    3    0    0 -0.14849571217E+02 -0.19718209688E+02 -0.54699295629E+01  0.25283150285E+02  0.51100000000E-03 0. -1.
        -11    1    3    3    0    0  0.13526915914E+01  0.27072658929E+02  0.22099581311E+01  0.27196370185E+02  0.51100000000E-03 0.  1.
        -12    1    3    3    0    0  0.30743193324E+01 -0.61271217656E+01  0.18769394683E+02  0.19982072897E+02  0.00000000000E+00 0.  1.
</event>
<event>
 7    1  0.1920603E-013  0.7246165E+02  0.7816164E-02  0.1226708E+00
        -11   -1    0    0    0    0  0.00000000000E+00  0.00000000000E+00  0.45593999997E+02  0.45594000000E+02  0.51100000000E-03 0. -1.
         11   -1    0    0    0    0 -0.00000000000E+00 -0.00000000000E+00 -0.45593999997E+02  0.45594000000E+02  0.51100000000E-03 0.  1.
    9900012    2    1    2    0    0 -0.57159176261E+01  0.16424702900E+02 -0.69450315250E+01  0.72461653785E+02  0.70000108763E+02 0.  0.
        -12    1    1    2    0    0  0.57159176261E+01 -0.16424702900E+02  0.69450315250E+01  0.18726346215E+02  0.00000000000E+00 0.  1.
         11    1    3    3    0    0  0.15510191552E+02  0.50888524467E+01 -0.36740341117E+01  0.16732034787E+02  0.51100000000E-03 0. -1.
        -11    1    3    3    0    0 -0.12709869348E+02  0.18009647000E+02 -0.23852060254E+02  0.32477822318E+02  0.51100000000E-03 0.  1.
        -12    1    3    3    0    0 -0.85162398301E+01 -0.66737965470E+01  0.20581062841E+02  0.23251796680E+02  0.00000000000E+00 0.  1.
</event>
<event>
 7    1  0.1920603E-013  0.7246133E+02  0.7816164E-02  0.1226709E+00
        -11   -1    0    0    0    0  0.00000000000E+00  0.00000000000E+00  0.45593999997E+02  0.45594000000E+02  0.51100000000E-03 0. -1.
         11   -1    0    0    0    0 -0.00000000000E+00 -0.00000000000E+00 -0.45593999997E+02  0.45594000000E+02  0.51100000000E-03 0.  1.
    9900012    2    1    2    0    0  0.17687026518E+02  0.29012712495E+01  0.54258697619E+01  0.72461325320E+02  0.69999680874E+02 0.  0.
        -12    1    1    2    0    0 -0.17687026518E+02 -0.29012712495E+01 -0.54258697619E+01  0.18726674680E+02  0.00000000000E+00 0.  1.
         11    1    3    3    0    0  0.37444941600E+02  0.20433487765E+02  0.90013580613E+01  0.43596737503E+02  0.51100000000E-03 0. -1.
        -11    1    3    3    0    0 -0.15738368528E+02 -0.70323454295E+01 -0.66427687264E+00  0.17250837376E+02  0.51100000000E-03 0.  1.
         12    1    3    3    0    0 -0.40195465538E+01 -0.10499871086E+02 -0.29112114268E+01  0.11613750441E+02  0.00000000000E+00 0. -1.
</event>
<event>
 7    1  0.1920603E-013  0.7246157E+02  0.7816164E-02  0.1226708E+00
        -11   -1    0    0    0    0  0.00000000000E+00  0.00000000000E+00  0.45593999997E+02  0.45594000000E+02  0.51100000000E-03 0. -1.
         11   -1    0    0    0    0 -0.00000000000E+00 -0.00000000000E+00 -0.45593999997E+02  0.45594000000E+02  0.51100000000E-03 0.  1.
    9900012    2    1    2    0    0  0.11496456985E+02  0.42987393153E+01 -0.14143249813E+02  0.72461569529E+02  0.69999999004E+02 0.  0.
        -12    1    1    2    0    0 -0.11496456985E+02 -0.42987393153E+01  0.14143249813E+02  0.18726430471E+02  0.00000000000E+00 0.  1.
         11    1    3    3    0    0  0.20976223685E+02 -0.12323896973E+02  0.55161667813E+01  0.24946111779E+02  0.51100000000E-03 0. -1.
        -11    1    3    3    0    0 -0.10263939364E+02  0.24338061901E+02 -0.34544983968E-01  0.26413839213E+02  0.51100000000E-03 0.  1.
         12    1    3    3    0    0  0.78417266383E+00 -0.77154256134E+01 -0.19624871610E+02  0.21101618537E+02  0.00000000000E+00 0. -1.
</event>
<event>
 7    1  0.1920603E-013  0.7246157E+02  0.7816164E-02  0.1226708E+00
        -11   -1    0    0    0    0  0.00000000000E+00  0.00000000000E+00  0.45593999997E+02  0.45594000000E+02  0.51100000000E-03 0. -1.
         11   -1    0    0    0    0 -0.00000000000E+00 -0.00000000000E+00 -0.45593999997E+02  0.45594000000E+02  0.51100000000E-03 0.  1.
    9900012    2    1    2    0    0 -0.75616978367E+01 -0.15310239386E+02 -0.76874272133E+01  0.72461568375E+02  0.69999997500E+02 0.  0.
        -12    1    1    2    0    0  0.75616978367E+01  0.15310239386E+02  0.76874272133E+01  0.18726431625E+02  0.00000000000E+00 0.  1.
         11    1    3    3    0    0  0.21135656370E+02 -0.83691559208E+01  0.19369473588E+02  0.29865285004E+02  0.51100000000E-03 0. -1.
        -11    1    3    3    0    0 -0.11383440276E+02  0.34270565851E+01 -0.14805625156E+02  0.18987731983E+02  0.51100000000E-03 0.  1.
         12    1    3    3    0    0 -0.17313913931E+02 -0.10368140050E+02 -0.12251275645E+02  0.23608551388E+02  0.00000000000E+00 0. -1.
</event>
<event>
 7    1  0.1920603E-013  0.7246151E+02  0.7816164E-02  0.1226708E+00
        -11   -1    0    0    0    0  0.00000000000E+00  0.00000000000E+00  0.45593999997E+02  0.45594000000E+02  0.51100000000E-03 0. -1.
         11   -1    0    0    0    0 -0.00000000000E+00 -0.00000000000E+00 -0.45593999997E+02  0.45594000000E+02  0.51100000000E-03 0.  1.
    9900012    2    1    2    0    0  0.65897185031E+01  0.17376214859E+02 -0.23074584750E+01  0.72461505469E+02  0.69999915553E+02 0.  0.
        -12    1    1    2    0    0 -0.65897185031E+01 -0.17376214859E+02  0.23074584750E+01  0.18726494531E+02  0.00000000000E+00 0.  1.
         11    1    3    3    0    0  0.10376444697E+02  0.53428381531E+01  0.10872874013E+02  0.15951047415E+02  0.51100000000E-03 0. -1.
        -11    1    3    3    0    0 -0.21629694509E+02  0.22471135260E+02 -0.16950019496E+02  0.35497869874E+02  0.51100000000E-03 0.  1.
        -12    1    3    3    0    0  0.17842968315E+02 -0.10437758553E+02  0.37696870079E+01  0.21012588180E+02  0.00000000000E+00 0.  1.
</event>
<event>
 7    1  0.1920603E-013  0.7246158E+02  0.7816164E-02  0.1226708E+00
        -11   -1    0    0    0    0  0.00000000000E+00  0.00000000000E+00  0.45593999997E+02  0.45594000000E+02  0.51100000000E-03 0.  1.
         11   -1    0    0    0    0 -0.00000000000E+00 -0.00000000000E+00 -0.45593999997E+02  0.45594000000E+02  0.51100000000E-03 0. -1.
    9900012    2    1    2    0    0 -0.43725552951E+00  0.18529909740E+02 -0.26702005193E+01  0.72461582345E+02  0.70000015698E+02 0.  0.
        -12    1    1    2    0    0  0.43725552951E+00 -0.18529909740E+02  0.26702005193E+01  0.18726417655E+02  0.00000000000E+00 0.  1.
         11    1    3    3    0    0  0.21381831638E+01  0.42017497723E+01 -0.34174184637E+02  0.34497846661E+02  0.51100000000E-03 0. -1.
        -11    1    3    3    0    0 -0.79492666347E+01  0.49715066825E+01  0.20550707672E+02  0.22588455122E+02  0.51100000000E-03 0.  1.
        -12    1    3    3    0    0  0.53738279413E+01  0.93566532855E+01  0.10953276446E+02  0.15375280562E+02  0.00000000000E+00 0.  1.
</event>
<event>
 7    1  0.1920603E-013  0.7246156E+02  0.7816164E-02  0.1226708E+00
        -11   -1    0    0    0    0  0.00000000000E+00  0.00000000000E+00  0.45593999997E+02  0.45594000000E+02  0.51100000000E-03 0.  1.
         11   -1    0    0    0    0 -0.00000000000E+00 -0.00000000000E+00 -0.45593999997E+02  0.45594000000E+02  0.51100000000E-03 0. -1.
    9900012    2    1    2    0    0  0.26502700970E+01 -0.13566174051E+02 -0.12633867204E+02  0.72461558520E+02  0.69999984662E+02 0.  0.
        -12    1    1    2    0    0 -0.26502700970E+01  0.13566174051E+02  0.12633867204E+02  0.18726441480E+02  0.00000000000E+00 0.  1.
         11    1    3    3    0    0 -0.69932879490E+01  0.40224674797E+01 -0.35631395011E+02  0.36533308523E+02  0.51100000000E-03 0. -1.
        -11    1    3    3    0    0  0.58743777018E+01 -0.94824952206E+01 -0.10637262695E+00  0.11155148784E+02  0.51100000000E-03 0.  1.
         12    1    3    3    0    0  0.37691803441E+01 -0.81061463102E+01  0.23103900434E+02  0.24773101214E+02  0.00000000000E+00 0. -1.
</event>
<event>
 7    1  0.1920603E-013  0.7246153E+02  0.7816164E-02  0.1226708E+00
        -11   -1    0    0    0    0  0.00000000000E+00  0.00000000000E+00  0.45593999997E+02  0.45594000000E+02  0.51100000000E-03 0.  1.
         11   -1    0    0    0    0 -0.00000000000E+00 -0.00000000000E+00 -0.45593999997E+02  0.45594000000E+02  0.51100000000E-03 0. -1.
    9900012    2    1    2    0    0 -0.70304304488E+01 -0.14518180887E+02 -0.95118965957E+01  0.72461529286E+02  0.69999946579E+02 0.  0.
        -12    1    1    2    0    0  0.70304304488E+01  0.14518180887E+02  0.95118965957E+01  0.18726470714E+02  0.00000000000E+00 0.  1.
         11    1    3    3    0    0  0.55990967293E+01  0.10343276253E+02 -0.65820535672E+01  0.13478007169E+02  0.51100000000E-03 0. -1.
        -11    1    3    3    0    0 -0.10066980964E+02 -0.24668400053E+02 -0.25136025201E+02  0.36629139084E+02  0.51100000000E-03 0.  1.
        -12    1    3    3    0    0 -0.25625462139E+01 -0.19305708654E+00  0.22206182172E+02  0.22354383033E+02  0.00000000000E+00 0.  1.
</event>
<event>
 7    1  0.1920603E-013  0.7246158E+02  0.7816164E-02  0.1226708E+00
        -11   -1    0    0    0    0  0.00000000000E+00  0.00000000000E+00  0.45593999997E+02  0.45594000000E+02  0.51100000000E-03 0.  1.
         11   -1    0    0    0    0 -0.00000000000E+00 -0.00000000000E+00 -0.45593999997E+02  0.45594000000E+02  0.51100000000E-03 0. -1.
    9900012    2    1    2    0    0  0.94925744687E+01  0.73034183861E+00 -0.16125644635E+02  0.72461580584E+02  0.70000013404E+02 0.  0.
        -12    1    1    2    0    0 -0.94925744687E+01 -0.73034183861E+00  0.16125644635E+02  0.18726419416E+02  0.00000000000E+00 0.  1.
         11    1    3    3    0    0  0.33643964035E+01  0.22041124822E+02 -0.32997228554E+02  0.39823955593E+02  0.51100000000E-03 0. -1.
        -11    1    3    3    0    0  0.50119973148E+01 -0.24224311194E+02  0.14156401671E+02  0.28501597822E+02  0.51100000000E-03 0.  1.
        -12    1    3    3    0    0  0.11161807505E+01  0.29135282103E+01  0.27151822473E+01  0.41360271682E+01  0.00000000000E+00 0.  1.
</event>
<event>
 7    1  0.1920603E-013  0.7246158E+02  0.7816164E-02  0.1226708E+00
        -11   -1    0    0    0    0  0.00000000000E+00  0.00000000000E+00  0.45593999997E+02  0.45594000000E+02  0.51100000000E-03 0. -1.
         11   -1    0    0    0    0 -0.00000000000E+00 -0.00000000000E+00 -0.45593999997E+02  0.45594000000E+02  0.51100000000E-03 0.  1.
    9900012    2    1    2    0    0 -0.16668360939E+02 -0.76756312673E+01  0.37322011674E+01  0.72461577563E+02  0.70000009469E+02 0.  0.
        -12    1    1    2    0    0  0.16668360939E+02  0.76756312673E+01 -0.37322011674E+01  0.18726422437E+02  0.00000000000E+00 0.  1.
         11    1    3    3    0    0 -0.16657922851E+02  0.23872397053E+01  0.30657359713E+02  0.34972260607E+02  0.51100000000E-03 0. -1.
        -11    1    3    3    0    0 -0.11832164197E+01 -0.15781788961E+02 -0.80975373600E+01  0.17777372569E+02  0.51100000000E-03 0.  1.
         12    1    3    3    0    0  0.11727783317E+01  0.57189179884E+01 -0.18827621186E+02  0.19711944387E+02  0.00000000000E+00 0. -1.
</event>
<event>
 7    1  0.1920603E-013  0.7246162E+02  0.7816164E-02  0.1226708E+00
        -11   -1    0    0    0    0  0.00000000000E+00  0.00000000000E+00  0.45593999997E+02  0.45594000000E+02  0.51100000000E-03 0.  1.
         11   -1    0    0    0    0 -0.00000000000E+00 -0.00000000000E+00 -0.45593999997E+02  0.45594000000E+02  0.51100000000E-03 0. -1.
    9900012    2    1    2    0    0  0.15381782787E+02 -0.47232779760E+01  0.95795952747E+01  0.72461621755E+02  0.70000067038E+02 0.  0.
        -12    1    1    2    0    0 -0.15381782787E+02  0.47232779760E+01 -0.95795952747E+01  0.18726378245E+02  0.00000000000E+00 0.  1.
         11    1    3    3    0    0 -0.14814040244E+01  0.29531930273E+02 -0.39356367780E+01  0.29829829041E+02  0.51100000000E-03 0.  1.
        -11    1    3    3    0    0  0.18415595939E+02 -0.25913549996E+02  0.91030478047E+01  0.33068288840E+02  0.51100000000E-03 0. -1.
        -12    1    3    3    0    0 -0.15524091283E+01 -0.83416582528E+01  0.44121842481E+01  0.95635038739E+01  0.00000000000E+00 0.  1.
</event>
<event>
 7    1  0.1920603E-013  0.7246158E+02  0.7816164E-02  0.1226708E+00
        -11   -1    0    0    0    0  0.00000000000E+00  0.00000000000E+00  0.45593999997E+02  0.45594000000E+02  0.51100000000E-03 0.  1.
         11   -1    0    0    0    0 -0.00000000000E+00 -0.00000000000E+00 -0.45593999997E+02  0.45594000000E+02  0.51100000000E-03 0. -1.
    9900012    2    1    2    0    0  0.10996027315E+02 -0.30393514828E+01 -0.14850208131E+02  0.72461576004E+02  0.70000007437E+02 0.  0.
        -12    1    1    2    0    0 -0.10996027315E+02  0.30393514828E+01  0.14850208131E+02  0.18726423996E+02  0.00000000000E+00 0.  1.
         11    1    3    3    0    0 -0.22778827753E+01 -0.17572451973E+02 -0.16546845848E+02  0.24244131786E+02  0.51100000000E-03 0.  1.
        -11    1    3    3    0    0 -0.11430444651E+02  0.19538538512E+02 -0.20713227708E+01  0.22731034521E+02  0.51100000000E-03 0. -1.
        -12    1    3    3    0    0  0.24704354741E+02 -0.50054380222E+01  0.37679604877E+01  0.25486409697E+02  0.00000000000E+00 0.  1.
</event>
<event>
 7    1  0.1920603E-013  0.7246160E+02  0.7816164E-02  0.1226708E+00
        -11   -1    0    0    0    0  0.00000000000E+00  0.00000000000E+00  0.45593999997E+02  0.45594000000E+02  0.51100000000E-03 0.  1.
         11   -1    0    0    0    0 -0.00000000000E+00 -0.00000000000E+00 -0.45593999997E+02  0.45594000000E+02  0.51100000000E-03 0. -1.
    9900012    2    1    2    0    0 -0.43166718674E+01  0.18011798495E+02  0.27603578840E+01  0.72461598405E+02  0.70000036620E+02 0.  0.
        -12    1    1    2    0    0  0.43166718674E+01 -0.18011798495E+02 -0.27603578840E+01  0.18726401595E+02  0.00000000000E+00 0.  1.
         11    1    3    3    0    0 -0.20051703751E+02  0.29505491376E+02 -0.14878250668E+02  0.38652389161E+02  0.51100000000E-03 0. -1.
        -11    1    3    3    0    0  0.12645383637E+02 -0.22776217423E+01 -0.89638573218E+00  0.12880093003E+02  0.51100000000E-03 0.  1.
         12    1    3    3    0    0  0.30896482462E+01 -0.92160711390E+01  0.18534994284E+02  0.20929116241E+02  0.00000000000E+00 0. -1.
</event>
<event>
 7    1  0.1920603E-013  0.7246150E+02  0.7816164E-02  0.1226708E+00
        -11   -1    0    0    0    0  0.00000000000E+00  0.00000000000E+00  0.45593999997E+02  0.45594000000E+02  0.51100000000E-03 0.  1.
         11   -1    0    0    0    0 -0.00000000000E+00 -0.00000000000E+00 -0.45593999997E+02  0.45594000000E+02  0.51100000000E-03 0. -1.
    9900012    2    1    2    0    0  0.12745625762E+02  0.95830400118E+01 -0.98181517470E+01  0.72461501778E+02  0.69999910744E+02 0.  0.
        -12    1    1    2    0    0 -0.12745625762E+02 -0.95830400118E+01  0.98181517470E+01  0.18726498222E+02  0.00000000000E+00 0.  1.
         11    1    3    3    0    0  0.10171765372E+01  0.70264381214E+01 -0.39683893686E+01  0.81334860437E+01  0.51100000000E-03 0. -1.
        -11    1    3    3    0    0 -0.16263258574E+01 -0.25917467792E+02 -0.16910840154E+02  0.30989297952E+02  0.51100000000E-03 0.  1.
        -12    1    3    3    0    0  0.13354775083E+02  0.28474069683E+02  0.11061077775E+02  0.33338717782E+02  0.00000000000E+00 0.  1.
</event>
<event>
 7    1  0.1920603E-013  0.7246164E+02  0.7816164E-02  0.1226708E+00
        -11   -1    0    0    0    0  0.00000000000E+00  0.00000000000E+00  0.45593999997E+02  0.45594000000E+02  0.51100000000E-03 0. -1.
         11   -1    0    0    0    0 -0.00000000000E+00 -0.00000000000E+00 -0.45593999997E+02  0.45594000000E+02  0.51100000000E-03 0.  1.
    9900012    2    1    2    0    0  0.11098269429E+02 -0.12754766425E+02  0.80511406340E+01  0.72461641134E+02  0.70000092281E+02 0.  0.
        -12    1    1    2    0    0 -0.11098269429E+02  0.12754766425E+02 -0.80511406340E+01  0.18726358866E+02  0.00000000000E+00 0.  1.
         11    1    3    3    0    0 -0.11984792639E+02  0.14734660830E+02 -0.94048975989E+00  0.19016571869E+02  0.51100000000E-03 0. -1.
        -11    1    3    3    0    0 -0.29342049262E+01 -0.20017709851E+02  0.15639613535E+02  0.25571776982E+02  0.51100000000E-03 0.  1.
         12    1    3    3    0    0  0.26017266994E+02 -0.74717174042E+01 -0.66479831415E+01  0.27873292283E+02  0.00000000000E+00 0. -1.
</event>
<event>
 7    1  0.1920603E-013  0.7246159E+02  0.7816164E-02  0.1226708E+00
        -11   -1    0    0    0    0  0.00000000000E+00  0.00000000000E+00  0.45593999997E+02  0.45594000000E+02  0.51100000000E-03 0.  1.
         11   -1    0    0    0    0 -0.00000000000E+00 -0.00000000000E+00 -0.45593999997E+02  0.45594000000E+02  0.51100000000E-03 0. -1.
    9900012    2    1    2    0    0 -0.77901948629E+01 -0.16993533690E+02 -0.11005187118E+01  0.72461589113E+02  0.70000024514E+02 0.  0.
        -12    1    1    2    0    0  0.77901948629E+01  0.16993533690E+02  0.11005187118E+01  0.18726410887E+02  0.00000000000E+00 0.  1.
         11    1    3    3    0    0  0.80408391699E+01 -0.21878397524E+02 -0.41224194902E-01  0.23309248647E+02  0.51100000000E-03 0. -1.
        -11    1    3    3    0    0 -0.16157535511E+01  0.23088217187E+02  0.77875484005E+01  0.24419712177E+02  0.51100000000E-03 0.  1.
        -12    1    3    3    0    0 -0.14215280482E+02 -0.18203353353E+02 -0.88468429174E+01  0.24732628289E+02  0.00000000000E+00 0.  1.
</event>
<event>
 7    1  0.1920603E-013  0.7246164E+02  0.7816164E-02  0.1226708E+00
        -11   -1    0    0    0    0  0.00000000000E+00  0.00000000000E+00  0.45593999997E+02  0.45594000000E+02  0.51100000000E-03 0.  1.
         11   -1    0    0    0    0 -0.00000000000E+00 -0.00000000000E+00 -0.45593999997E+02  0.45594000000E+02  0.51100000000E-03 0. -1.
    9900012    2    1    2    0    0  0.27074293489E+01  0.89866319798E+01 -0.16204533079E+02  0.72461638359E+02  0.70000088666E+02 0.  0.
        -12    1    1    2    0    0 -0.27074293489E+01 -0.89866319798E+01  0.16204533079E+02  0.18726361641E+02  0.00000000000E+00 0.  1.
         11    1    3    3    0    0  0.57292678084E+01 -0.12776785486E+01 -0.51530719201E+01  0.78109616929E+01  0.51100000000E-03 0. -1.
        -11    1    3    3    0    0 -0.24241478537E+02  0.27283128287E+02 -0.65044131064E+01  0.37071899882E+02  0.51100000000E-03 0.  1.
        -12    1    3    3    0    0  0.21219640077E+02 -0.17018817758E+02 -0.45470480525E+01  0.27578776784E+02  0.00000000000E+00 0.  1.
</event>
<event>
 7    1  0.1920603E-013  0.7246155E+02  0.7816164E-02  0.1226708E+00
        -11   -1    0    0    0    0  0.00000000000E+00  0.00000000000E+00  0.45593999997E+02  0.45594000000E+02  0.51100000000E-03 0. -1.
         11   -1    0    0    0    0 -0.00000000000E+00 -0.00000000000E+00 -0.45593999997E+02  0.45594000000E+02  0.51100000000E-03 0.  1.
    9900012    2    1    2    0    0 -0.33886230431E+01 -0.18211014369E+02  0.27488577239E+01  0.72461547339E+02  0.69999970097E+02 0.  0.
        -12    1    1    2    0    0  0.33886230431E+01  0.18211014369E+02 -0.27488577239E+01  0.18726452661E+02  0.00000000000E+00 0.  1.
         11    1    3    3    0    0 -0.16655353129E+02  0.15167860232E+02  0.21452287652E+02  0.31107320965E+02  0.51100000000E-03 0. -1.
        -11    1    3    3    0    0  0.21926227103E+01 -0.14962447213E+02 -0.10214329714E+02  0.18248697289E+02  0.51100000000E-03 0.  1.
         12    1    3    3    0    0  0.11074107376E+02 -0.18416427387E+02 -0.84891002137E+01  0.23105529086E+02  0.00000000000E+00 0. -1.
</event>
<event>
 7    1  0.1920603E-013  0.7246158E+02  0.7816164E-02  0.1226708E+00
        -11   -1    0    0    0    0  0.00000000000E+00  0.00000000000E+00  0.45593999997E+02  0.45594000000E+02  0.51100000000E-03 0.  1.
         11   -1    0    0    0    0 -0.00000000000E+00 -0.00000000000E+00 -0.45593999997E+02  0.45594000000E+02  0.51100000000E-03 0. -1.
    9900012    2    1    2    0    0  0.80139769147E+01  0.14181024425E+02 -0.92386934989E+01  0.72461581835E+02  0.70000015033E+02 0.  0.
        -12    1    1    2    0    0 -0.80139769147E+01 -0.14181024425E+02  0.92386934989E+01  0.18726418165E+02  0.00000000000E+00 0.  1.
         11    1    3    3    0    0 -0.25350842864E+01  0.28387703728E+02  0.60065180232E+01  0.29126734014E+02  0.51100000000E-03 0.  1.
        -11    1    3    3    0    0  0.21374124817E+02 -0.19112200812E+02 -0.10405901580E+02  0.30502659220E+02  0.51100000000E-03 0. -1.
         12    1    3    3    0    0 -0.10825063616E+02  0.49055215093E+01 -0.48393099424E+01  0.12832188601E+02  0.00000000000E+00 0. -1.
</event>
<event>
 7    1  0.1920603E-013  0.7246161E+02  0.7816164E-02  0.1226708E+00
        -11   -1    0    0    0    0  0.00000000000E+00  0.00000000000E+00  0.45593999997E+02  0.45594000000E+02  0.51100000000E-03 0. -1.
         11   -1    0    0    0    0 -0.00000000000E+00 -0.00000000000E+00 -0.45593999997E+02  0.45594000000E+02  0.51100000000E-03 0.  1.
    9900012    2    1    2    0    0  0.14675901212E+02 -0.47522600008E+01  0.10616575373E+02  0.72461608886E+02  0.70000050272E+02 0.  0.
        -12    1    1    2    0    0 -0.14675901212E+02  0.47522600008E+01 -0.10616575373E+02  0.18726391114E+02  0.00000000000E+00 0.  1.
         11    1    3    3    0    0  0.12521891523E+02 -0.11150857336E+01 -0.23087323658E+01  0.12781683336E+02  0.51100000000E-03 0. -1.
        -11    1    3    3    0    0 -0.31119759175E+01 -0.30021912714E+02  0.86432337066E+00  0.30195143521E+02  0.51100000000E-03 0.  1.
        -12    1    3    3    0    0  0.52659856071E+01  0.26384738447E+02  0.12060984369E+02  0.29484782028E+02  0.00000000000E+00 0.  1.
</event>
<event>
 7    1  0.1920603E-013  0.7246137E+02  0.7816164E-02  0.1226709E+00
        -11   -1    0    0    0    0  0.00000000000E+00  0.00000000000E+00  0.45593999997E+02  0.45594000000E+02  0.51100000000E-03 0.  1.
         11   -1    0    0    0    0 -0.00000000000E+00 -0.00000000000E+00 -0.45593999997E+02  0.45594000000E+02  0.51100000000E-03 0. -1.
    9900012    2    1    2    0    0  0.67416715110E+01  0.13137414501E+02 -0.11517154269E+02  0.72461370913E+02  0.69999740268E+02 0.  0.
        -12    1    1    2    0    0 -0.67416715110E+01 -0.13137414501E+02  0.11517154269E+02  0.18726629087E+02  0.00000000000E+00 0.  1.
         11    1    3    3    0    0  0.26030405912E+02  0.27233231574E+02 -0.21650814729E+01  0.37734844798E+02  0.51100000000E-03 0. -1.
        -11    1    3    3    0    0  0.12909318236E+01 -0.43654745729E+01 -0.10998109471E+02  0.11903036815E+02  0.51100000000E-03 0.  1.
         12    1    3    3    0    0 -0.20579666224E+02 -0.97303425008E+01  0.16460366748E+01  0.22823489300E+02  0.00000000000E+00 0. -1.
</event>
<event>
 7    1  0.1920603E-013  0.7246159E+02  0.7816164E-02  0.1226708E+00
        -11   -1    0    0    0    0  0.00000000000E+00  0.00000000000E+00  0.45593999997E+02  0.45594000000E+02  0.51100000000E-03 0.  1.
         11   -1    0    0    0    0 -0.00000000000E+00 -0.00000000000E+00 -0.45593999997E+02  0.45594000000E+02  0.51100000000E-03 0. -1.
    9900012    2    1    2    0    0  0.19188918605E+01  0.14279441852E+02 -0.11962182625E+02  0.72461590341E+02  0.70000026114E+02 0.  0.
        -12    1    1    2    0    0 -0.19188918605E+01 -0.14279441852E+02  0.11962182625E+02  0.18726409659E+02  0.00000000000E+00 0.  1.
         11    1    3    3    0    0  0.33535538840E+01 -0.34890089589E+01  0.27359390648E+02  0.27784091925E+02  0.51100000000E-03 0. -1.
        -11    1    3    3    0    0  0.41808621764E+01  0.11649511176E+02 -0.18477644528E+02  0.22239920565E+02  0.51100000000E-03 0.  1.
         12    1    3    3    0    0 -0.56155241999E+01  0.61189396351E+01 -0.20843928745E+02  0.22437577851E+02  0.00000000000E+00 0. -1.
</event>
<event>
 7    1  0.1920603E-013  0.7246159E+02  0.7816164E-02  0.1226708E+00
        -11   -1    0    0    0    0  0.00000000000E+00  0.00000000000E+00  0.45593999997E+02  0.45594000000E+02  0.51100000000E-03 0. -1.
         11   -1    0    0    0    0 -0.00000000000E+00 -0.00000000000E+00 -0.45593999997E+02  0.45594000000E+02  0.51100000000E-03 0.  1.
    9900012    2    1    2    0    0  0.56189743633E+01 -0.11596184694E+01  0.17825848570E+02  0.72461589102E+02  0.70000024501E+02 0.  0.
        -12    1    1    2    0    0 -0.56189743633E+01  0.11596184694E+01 -0.17825848570E+02  0.18726410898E+02  0.00000000000E+00 0.  1.
         11    1    3    3    0    0  0.18782082203E+02 -0.16119880812E+02 -0.11087336776E+01  0.24775925006E+02  0.51100000000E-03 0. -1.
        -11    1    3    3    0    0 -0.19321210881E+02  0.13213629694E+01 -0.44984277514E+01  0.19881927535E+02  0.51100000000E-03 0.  1.
        -12    1    3    3    0    0  0.61581030411E+01  0.13638899373E+02  0.23433009999E+02  0.27803736561E+02  0.00000000000E+00 0.  1.
</event>
<event>
 7    1  0.1920603E-013  0.7246128E+02  0.7816164E-02  0.1226709E+00
        -11   -1    0    0    0    0  0.00000000000E+00  0.00000000000E+00  0.45593999997E+02  0.45594000000E+02  0.51100000000E-03 0. -1.
         11   -1    0    0    0    0 -0.00000000000E+00 -0.00000000000E+00 -0.45593999997E+02  0.45594000000E+02  0.51100000000E-03 0.  1.
    9900012    2    1    2    0    0 -0.12190649692E+02  0.17890226287E+00  0.14214290559E+02  0.72461281066E+02  0.69999623225E+02 0.  0.
        -12    1    1    2    0    0  0.12190649692E+02 -0.17890226287E+00 -0.14214290559E+02  0.18726718934E+02  0.00000000000E+00 0.  1.
         11    1    3    3    0    0 -0.86225441367E+01  0.21299043058E+02  0.21448835218E+02  0.31433263194E+02  0.51100000000E-03 0. -1.
        -11    1    3    3    0    0 -0.52669821490E+01  0.51838523120E+01 -0.12144068158E+02  0.14215900163E+02  0.51100000000E-03 0.  1.
         12    1    3    3    0    0  0.16988765941E+01 -0.26303993107E+02  0.49095234991E+01  0.26812117709E+02  0.00000000000E+00 0. -1.
</event>
<event>
 7    1  0.1920603E-013  0.7246161E+02  0.7816164E-02  0.1226708E+00
        -11   -1    0    0    0    0  0.00000000000E+00  0.00000000000E+00  0.45593999997E+02  0.45594000000E+02  0.51100000000E-03 0.  1.
         11   -1    0    0    0    0 -0.00000000000E+00 -0.00000000000E+00 -0.45593999997E+02  0.45594000000E+02  0.51100000000E-03 0. -1.
    9900012    2    1    2    0    0  0.14833764130E+02  0.11003524938E+02  0.30918715684E+01  0.72461607151E+02  0.70000048013E+02 0.  0.
        -12    1    1    2    0    0 -0.14833764130E+02 -0.11003524938E+02 -0.30918715684E+01  0.18726392849E+02  0.00000000000E+00 0.  1.
         11    1    3    3    0    0  0.21851649549E+02  0.13825088597E+02 -0.22177696157E+02  0.34065787380E+02  0.51100000000E-03 0. -1.
        -11    1    3    3    0    0 -0.16513208113E+02 -0.55274596016E+01  0.96264072840E+01  0.19897401068E+02  0.51100000000E-03 0.  1.
         12    1    3    3    0    0  0.94953226934E+01  0.27058959426E+01  0.15643160442E+02  0.18498418703E+02  0.00000000000E+00 0. -1.
</event>
<event>
 7    1  0.1920603E-013  0.7246157E+02  0.7816164E-02  0.1226708E+00
        -11   -1    0    0    0    0  0.00000000000E+00  0.00000000000E+00  0.45593999997E+02  0.45594000000E+02  0.51100000000E-03 0.  1.
         11   -1    0    0    0    0 -0.00000000000E+00 -0.00000000000E+00 -0.45593999997E+02  0.45594000000E+02  0.51100000000E-03 0. -1.
    9900012    2    1    2    0    0 -0.45735629616E+00  0.12559818943E+02 -0.13882398922E+02  0.72461568773E+02  0.69999998018E+02 0.  0.
        -12    1    1    2    0    0  0.45735629616E+00 -0.12559818943E+02  0.13882398922E+02  0.18726431227E+02  0.00000000000E+00 0.  1.
         11    1    3    3    0    0 -0.38142584754E+01 -0.64926223866E+01 -0.15493572447E+02  0.17226534782E+02  0.51100000000E-03 0. -1.
        -11    1    3    3    0    0  0.17988240963E+01 -0.83085501403E+01  0.20337527149E+02  0.22042749020E+02  0.51100000000E-03 0.  1.
        -12    1    3    3    0    0  0.15580780830E+01  0.27360991470E+02 -0.18726353625E+02  0.33192284971E+02  0.00000000000E+00 0.  1.
</event>
<event>
 7    1  0.1920603E-013  0.7246173E+02  0.7816164E-02  0.1226708E+00
        -11   -1    0    0    0    0  0.00000000000E+00  0.00000000000E+00  0.45593999997E+02  0.45594000000E+02  0.51100000000E-03 0.  1.
         11   -1    0    0    0    0 -0.00000000000E+00 -0.00000000000E+00 -0.45593999997E+02  0.45594000000E+02  0.51100000000E-03 0. -1.
    9900012    2    1    2    0    0  0.55088313372E+01 -0.16691177373E+02 -0.64599305639E+01  0.72461726273E+02  0.70000203191E+02 0.  0.
        -12    1    1    2    0    0 -0.55088313372E+01  0.16691177373E+02  0.64599305639E+01  0.18726273727E+02  0.00000000000E+00 0.  1.
         11    1    3    3    0    0  0.64350801790E+01 -0.34121950145E+02 -0.69230366275E+01  0.35406866213E+02  0.51100000000E-03 0. -1.
        -11    1    3    3    0    0  0.14625381066E+02  0.79477312837E+01  0.64943726375E+01  0.17867430708E+02  0.51100000000E-03 0.  1.
         12    1    3    3    0    0 -0.15551629908E+02  0.94830414882E+01 -0.60312665738E+01  0.19187429352E+02  0.00000000000E+00 0. -1.
</event>
<event>
 7    1  0.1920603E-013  0.7246159E+02  0.7816164E-02  0.1226708E+00
        -11   -1    0    0    0    0  0.00000000000E+00  0.00000000000E+00  0.45593999997E+02  0.45594000000E+02  0.51100000000E-03 0.  1.
         11   -1    0    0    0    0 -0.00000000000E+00 -0.00000000000E+00 -0.45593999997E+02  0.45594000000E+02  0.51100000000E-03 0. -1.
    9900012    2    1    2    0    0  0.17741045189E+02  0.44066058714E+01  0.40639271335E+01  0.72461591817E+02  0.70000028037E+02 0.  0.
        -12    1    1    2    0    0 -0.17741045189E+02 -0.44066058714E+01 -0.40639271335E+01  0.18726408183E+02  0.00000000000E+00 0.  1.
         11    1    3    3    0    0  0.52673672511E+01 -0.61309438011E+01 -0.55045157217E+01  0.97792291742E+01  0.51100000000E-03 0. -1.
        -11    1    3    3    0    0 -0.18809799830E+02  0.32453946766E+01  0.21192899877E+02  0.28521573619E+02  0.51100000000E-03 0.  1.
        -12    1    3    3    0    0  0.31283477767E+02  0.72921549959E+01 -0.11624457021E+02  0.34160789024E+02  0.00000000000E+00 0.  1.
</event>
<event>
 7    1  0.1920603E-013  0.7246158E+02  0.7816164E-02  0.1226708E+00
        -11   -1    0    0    0    0  0.00000000000E+00  0.00000000000E+00  0.45593999997E+02  0.45594000000E+02  0.51100000000E-03 0.  1.
         11   -1    0    0    0    0 -0.00000000000E+00 -0.00000000000E+00 -0.45593999997E+02  0.45594000000E+02  0.51100000000E-03 0. -1.
    9900012    2    1    2    0    0  0.82068770713E+00  0.18685615554E+02  0.92350984227E+00  0.72461584770E+02  0.70000018857E+02 0.  0.
        -12    1    1    2    0    0 -0.82068770713E+00 -0.18685615554E+02 -0.92350984227E+00  0.18726415230E+02  0.00000000000E+00 0.  1.
         11    1    3    3    0    0 -0.14200702868E+02  0.37065852064E+02  0.52238709175E+01  0.40035311649E+02  0.51100000000E-03 0. -1.
        -11    1    3    3    0    0  0.16269176397E+01 -0.15708865986E+02 -0.87583278685E+01  0.18058893623E+02  0.51100000000E-03 0.  1.
         12    1    3    3    0    0  0.13394472936E+02 -0.26713705238E+01  0.44579667933E+01  0.14367379498E+02  0.00000000000E+00 0. -1.
</event>
<event>
 7    1  0.1920603E-013  0.7246181E+02  0.7816164E-02  0.1226707E+00
        -11   -1    0    0    0    0  0.00000000000E+00  0.00000000000E+00  0.45593999997E+02  0.45594000000E+02  0.51100000000E-03 0.  1.
         11   -1    0    0    0    0 -0.00000000000E+00 -0.00000000000E+00 -0.45593999997E+02  0.45594000000E+02  0.51100000000E-03 0. -1.
    9900012    2    1    2    0    0 -0.11019343207E+02 -0.99279139621E+01 -0.11431573945E+02  0.72461807562E+02  0.70000309084E+02 0.  0.
        -12    1    1    2    0    0  0.11019343207E+02  0.99279139621E+01  0.11431573945E+02  0.18726192438E+02  0.00000000000E+00 0.  1.
         11    1    3    3    0    0 -0.17277986983E+02 -0.90221557569E+01 -0.51069492390E+01  0.20149666486E+02  0.51100000000E-03 0. -1.
        -11    1    3    3    0    0  0.20364052795E+02  0.18770376707E+02 -0.25897534407E+01  0.27815975825E+02  0.51100000000E-03 0.  1.
        -12    1    3    3    0    0 -0.14105409019E+02 -0.19676134912E+02 -0.37348712654E+01  0.24496165252E+02  0.00000000000E+00 0.  1.
</event>
<event>
 7    1  0.1920603E-013  0.7246158E+02  0.7816164E-02  0.1226708E+00
        -11   -1    0    0    0    0  0.00000000000E+00  0.00000000000E+00  0.45593999997E+02  0.45594000000E+02  0.51100000000E-03 0.  1.
         11   -1    0    0    0    0 -0.00000000000E+00 -0.00000000000E+00 -0.45593999997E+02  0.45594000000E+02  0.51100000000E-03 0. -1.
    9900012    2    1    2    0    0  0.75421362719E+01  0.69552309430E+01 -0.15665883218E+02  0.72461576048E+02  0.70000007495E+02 0.  0.
        -12    1    1    2    0    0 -0.75421362719E+01 -0.69552309430E+01  0.15665883218E+02  0.18726423952E+02  0.00000000000E+00 0.  1.
         11    1    3    3    0    0 -0.21705039527E+02 -0.82871863064E+01 -0.11814495153E+02  0.26064698228E+02  0.51100000000E-03 0. -1.
        -11    1    3    3    0    0  0.13383290882E+02  0.17836755539E+02  0.10682435788E+02  0.24726034005E+02  0.51100000000E-03 0.  1.
         12    1    3    3    0    0  0.15863884917E+02 -0.25943382898E+01 -0.14533823854E+02  0.21670843814E+02  0.00000000000E+00 0. -1.
</event>
<event>
 7    1  0.1920603E-013  0.7246160E+02  0.7816164E-02  0.1226708E+00
        -11   -1    0    0    0    0  0.00000000000E+00  0.00000000000E+00  0.45593999997E+02  0.45594000000E+02  0.51100000000E-03 0. -1.
         11   -1    0    0    0    0 -0.00000000000E+00 -0.00000000000E+00 -0.45593999997E+02  0.45594000000E+02  0.51100000000E-03 0.  1.
    9900012    2    1    2    0    0 -0.17128526794E+02  0.73739306660E+01 -0.17078019723E+01  0.72461604961E+02  0.70000045159E+02 0.  0.
        -12    1    1    2    0    0  0.17128526794E+02 -0.73739306660E+01  0.17078019723E+01  0.18726395039E+02  0.00000000000E+00 0.  1.
         11    1    3    3    0    0 -0.31088410283E+02  0.25274460501E+02  0.12870721512E+02  0.42082574541E+02  0.51100000000E-03 0. -1.
        -11    1    3    3    0    0  0.80362257036E+01 -0.13343039131E+01 -0.84791653801E+01  0.11758296488E+02  0.51100000000E-03 0.  1.
         12    1    3    3    0    0  0.59236577854E+01 -0.16566225922E+02 -0.60993581043E+01  0.18620733931E+02  0.00000000000E+00 0. -1.
</event>
<event>
 7    1  0.1920603E-013  0.7246150E+02  0.7816164E-02  0.1226708E+00
        -11   -1    0    0    0    0  0.00000000000E+00  0.00000000000E+00  0.45593999997E+02  0.45594000000E+02  0.51100000000E-03 0.  1.
         11   -1    0    0    0    0 -0.00000000000E+00 -0.00000000000E+00 -0.45593999997E+02  0.45594000000E+02  0.51100000000E-03 0. -1.
    9900012    2    1    2    0    0  0.69299218008E+01  0.65113124657E+00 -0.17384879505E+02  0.72461499433E+02  0.69999907690E+02 0.  0.
        -12    1    1    2    0    0 -0.69299218008E+01 -0.65113124657E+00  0.17384879505E+02  0.18726500567E+02  0.00000000000E+00 0.  1.
         11    1    3    3    0    0 -0.12592702323E+02 -0.15867708239E+02 -0.26684389330E+02  0.33502491709E+02  0.51100000000E-03 0. -1.
        -11    1    3    3    0    0  0.82687862906E+00  0.17870326862E+02  0.94116535716E+01  0.20214141922E+02  0.51100000000E-03 0.  1.
        -12    1    3    3    0    0  0.18695745494E+02 -0.13514873766E+01 -0.11214374634E+00  0.18744865802E+02  0.00000000000E+00 0.  1.
</event>
<event>
 7    1  0.1920603E-013  0.7246152E+02  0.7816164E-02  0.1226708E+00
        -11   -1    0    0    0    0  0.00000000000E+00  0.00000000000E+00  0.45593999997E+02  0.45594000000E+02  0.51100000000E-03 0.  1.
         11   -1    0    0    0    0 -0.00000000000E+00 -0.00000000000E+00 -0.45593999997E+02  0.45594000000E+02  0.51100000000E-03 0. -1.
    9900012    2    1    2    0    0  0.18227773722E+01  0.14303716532E+02 -0.11948317563E+02  0.72461518308E+02  0.69999932278E+02 0.  0.
        -12    1    1    2    0    0 -0.18227773722E+01 -0.14303716532E+02  0.11948317563E+02  0.18726481692E+02  0.00000000000E+00 0.  1.
         11    1    3    3    0    0  0.14677067882E+02  0.30402814748E+02 -0.17713166816E+02  0.38124844199E+02  0.51100000000E-03 0. -1.
        -11    1    3    3    0    0 -0.54119024382E+01 -0.19740834095E+02 -0.46870571078E+01  0.20998993389E+02  0.51100000000E-03 0.  1.
        -12    1    3    3    0    0 -0.74423880720E+01  0.36417358778E+01  0.10451906361E+02  0.13337680721E+02  0.00000000000E+00 0.  1.
</event>
<event>
 7    1  0.1920603E-013  0.7246160E+02  0.7816164E-02  0.1226708E+00
        -11   -1    0    0    0    0  0.00000000000E+00  0.00000000000E+00  0.45593999997E+02  0.45594000000E+02  0.51100000000E-03 0.  1.
         11   -1    0    0    0    0 -0.00000000000E+00 -0.00000000000E+00 -0.45593999997E+02  0.45594000000E+02  0.51100000000E-03 0. -1.
    9900012    2    1    2    0    0 -0.79949066887E+01  0.10314022819E+02 -0.13430572753E+02  0.72461604614E+02  0.70000044708E+02 0.  0.
        -12    1    1    2    0    0  0.79949066887E+01 -0.10314022819E+02  0.13430572753E+02  0.18726395386E+02  0.00000000000E+00 0.  1.
         11    1    3    3    0    0 -0.10746656031E+02  0.25945397266E+02 -0.50849971484E+01  0.28539647009E+02  0.51100000000E-03 0. -1.
        -11    1    3    3    0    0  0.65206251866E+00 -0.49915802055E+01  0.16265872292E+02  0.17027027344E+02  0.51100000000E-03 0.  1.
        -12    1    3    3    0    0  0.20996868233E+01 -0.10639794241E+02 -0.24611447896E+02  0.26894930262E+02  0.00000000000E+00 0.  1.
</event>
<event>
 7    1  0.1920603E-013  0.7246158E+02  0.7816164E-02  0.1226708E+00
        -11   -1    0    0    0    0  0.00000000000E+00  0.00000000000E+00  0.45593999997E+02  0.45594000000E+02  0.51100000000E-03 0.  1.
         11   -1    0    0    0    0 -0.00000000000E+00 -0.00000000000E+00 -0.45593999997E+02  0.45594000000E+02  0.51100000000E-03 0. -1.
    9900012    2    1    2    0    0 -0.19246305161E+01 -0.98368030230E+01 -0.15818092809E+02  0.72461575984E+02  0.70000007411E+02 0.  0.
        -12    1    1    2    0    0  0.19246305161E+01  0.98368030230E+01  0.15818092809E+02  0.18726424016E+02  0.00000000000E+00 0.  1.
         11    1    3    3    0    0  0.27039699458E+02 -0.19649444997E+02 -0.12435767813E+02  0.35663627926E+02  0.51100000000E-03 0. -1.
        -11    1    3    3    0    0 -0.15904854624E+02  0.15071848228E+02  0.13286259496E+01  0.21951998925E+02  0.51100000000E-03 0.  1.
        -12    1    3    3    0    0 -0.13059475351E+02 -0.52592062536E+01 -0.47109509457E+01  0.14845949133E+02  0.00000000000E+00 0.  1.
</event>
<event>
 7    1  0.1920603E-013  0.7246157E+02  0.7816164E-02  0.1226708E+00
        -11   -1    0    0    0    0  0.00000000000E+00  0.00000000000E+00  0.45593999997E+02  0.45594000000E+02  0.51100000000E-03 0.  1.
         11   -1    0    0    0    0 -0.00000000000E+00 -0.00000000000E+00 -0.45593999997E+02  0.45594000000E+02  0.51100000000E-03 0. -1.
    9900012    2    1    2    0    0 -0.14474282782E+02 -0.62691191876E+01 -0.10093183227E+02  0.72461573083E+02  0.70000003632E+02 0.  0.
        -12    1    1    2    0    0  0.14474282782E+02  0.62691191876E+01  0.10093183227E+02  0.18726426917E+02  0.00000000000E+00 0.  1.
         11    1    3    3    0    0 -0.15649898275E+02  0.21870266025E+02  0.17836789457E+01  0.26951982541E+02  0.51100000000E-03 0.  1.
        -11    1    3    3    0    0  0.10332956599E+02 -0.22929872058E+02  0.49726977576E+01  0.25637409150E+02  0.51100000000E-03 0. -1.
         12    1    3    3    0    0 -0.91573411055E+01 -0.52095131547E+01 -0.16849559931E+02  0.19872181392E+02  0.00000000000E+00 0. -1.
</event>
<event>
 7    1  0.1920603E-013  0.7246156E+02  0.7816164E-02  0.1226708E+00
        -11   -1    0    0    0    0  0.00000000000E+00  0.00000000000E+00  0.45593999997E+02  0.45594000000E+02  0.51100000000E-03 0. -1.
         11   -1    0    0    0    0 -0.00000000000E+00 -0.00000000000E+00 -0.45593999997E+02  0.45594000000E+02  0.51100000000E-03 0.  1.
    9900012    2    1    2    0    0  0.14736573517E+02  0.58013952152E+01  0.99928440583E+01  0.72461555654E+02  0.69999980929E+02 0.  0.
        -12    1    1    2    0    0 -0.14736573517E+02 -0.58013952152E+01 -0.99928440583E+01  0.18726444346E+02  0.00000000000E+00 0.  1.
         11    1    3    3    0    0 -0.39758230586E+01 -0.20408383692E+01  0.10788752438E+01  0.45974082150E+01  0.51100000000E-03 0. -1.
        -11    1    3    3    0    0  0.18628426197E+02  0.34051195035E+02  0.13818397112E+02  0.41200124332E+02  0.51100000000E-03 0.  1.
        -12    1    3    3    0    0  0.83970378099E-01 -0.26208961451E+02 -0.49044282974E+01  0.26664023108E+02  0.00000000000E+00 0.  1.
</event>
<event>
 7    1  0.1920603E-013  0.7246158E+02  0.7816164E-02  0.1226708E+00
        -11   -1    0    0    0    0  0.00000000000E+00  0.00000000000E+00  0.45593999997E+02  0.45594000000E+02  0.51100000000E-03 0. -1.
         11   -1    0    0    0    0 -0.00000000000E+00 -0.00000000000E+00 -0.45593999997E+02  0.45594000000E+02  0.51100000000E-03 0.  1.
    9900012    2    1    2    0    0  0.10967656709E+02 -0.12755710534E+02  0.82268557719E+01  0.72461580139E+02  0.70000012825E+02 0.  0.
        -12    1    1    2    0    0 -0.10967656709E+02  0.12755710534E+02 -0.82268557719E+01  0.18726419861E+02  0.00000000000E+00 0.  1.
         11    1    3    3    0    0  0.39158412214E+01 -0.25129291009E+02 -0.20390079532E+01  0.25514165335E+02  0.51100000000E-03 0. -1.
        -11    1    3    3    0    0  0.15629510933E+02  0.12393930447E+02 -0.11867159467E+02  0.23210355405E+02  0.51100000000E-03 0.  1.
         12    1    3    3    0    0 -0.85776954454E+01 -0.20349972909E-01  0.22133023192E+02  0.23737059399E+02  0.00000000000E+00 0. -1.
</event>
<event>
 7    1  0.1920603E-013  0.7246157E+02  0.7816164E-02  0.1226708E+00
        -11   -1    0    0    0    0  0.00000000000E+00  0.00000000000E+00  0.45593999997E+02  0.45594000000E+02  0.51100000000E-03 0.  1.
         11   -1    0    0    0    0 -0.00000000000E+00 -0.00000000000E+00 -0.45593999997E+02  0.45594000000E+02  0.51100000000E-03 0. -1.
    9900012    2    1    2    0    0  0.10790819010E+02 -0.23690442793E+01 -0.15120351543E+02  0.72461570108E+02  0.69999999757E+02 0.  0.
        -12    1    1    2    0    0 -0.10790819010E+02  0.23690442793E+01  0.15120351543E+02  0.18726429892E+02  0.00000000000E+00 0.  1.
         11    1    3    3    0    0  0.19189511608E+02 -0.21577268512E+02 -0.19756257537E+02  0.34987506118E+02  0.51100000000E-03 0. -1.
        -11    1    3    3    0    0  0.20325849996E+00  0.44578841355E+01  0.16231469115E+02  0.16833735025E+02  0.51100000000E-03 0.  1.
         12    1    3    3    0    0 -0.86019510977E+01  0.14750340098E+02 -0.11595563122E+02  0.20640328965E+02  0.00000000000E+00 0. -1.
</event>
<event>
 7    1  0.1920603E-013  0.7246159E+02  0.7816164E-02  0.1226708E+00
        -11   -1    0    0    0    0  0.00000000000E+00  0.00000000000E+00  0.45593999997E+02  0.45594000000E+02  0.51100000000E-03 0. -1.
         11   -1    0    0    0    0 -0.00000000000E+00 -0.00000000000E+00 -0.45593999997E+02  0.45594000000E+02  0.51100000000E-03 0.  1.
    9900012    2    1    2    0    0 -0.16639177683E+02  0.85267279838E+01  0.10540879009E+01  0.72461590163E+02  0.70000025883E+02 0.  0.
        -12    1    1    2    0    0  0.16639177683E+02 -0.85267279838E+01 -0.10540879009E+01  0.18726409837E+02  0.00000000000E+00 0.  1.
         11    1    3    3    0    0  0.28684032603E+01  0.95772310291E+01  0.11316639786E+02  0.15100245950E+02  0.51100000000E-03 0. -1.
        -11    1    3    3    0    0 -0.25141994263E+02 -0.19819906547E+02  0.51543308116E+01  0.32427082777E+02  0.51100000000E-03 0.  1.
        -12    1    3    3    0    0  0.56344133193E+01  0.18769403502E+02 -0.15416882697E+02  0.24934261436E+02  0.00000000000E+00 0.  1.
</event>
<event>
 7    1  0.2042911E-013  0.7246159E+02  0.7816164E-02  0.1226708E+00
        -11   -1    0    0    0    0  0.00000000000E+00  0.00000000000E+00  0.45593999997E+02  0.45594000000E+02  0.51100000000E-03 0.  1.
         11   -1    0    0    0    0 -0.00000000000E+00 -0.00000000000E+00 -0.45593999997E+02  0.45594000000E+02  0.51100000000E-03 0. -1.
    9900012    2    1    2    0    0 -0.84367847881E+01 -0.16195301823E+02 -0.41486380457E+01  0.72461592541E+02  0.70000028980E+02 0.  0.
        -12    1    1    2    0    0  0.84367847881E+01  0.16195301823E+02  0.41486380457E+01  0.18726407459E+02  0.00000000000E+00 0.  1.
         11    1    3    3    0    0 -0.11761610869E+02 -0.12715110769E+02 -0.28641980288E+02  0.33471966885E+02  0.51100000000E-03 0. -1.
        -11    1    3    3    0    0 -0.51035357037E+01 -0.13994870473E+02  0.19675597657E+02  0.24678565997E+02  0.51100000000E-03 0.  1.
        -12    1    3    3    0    0  0.84283617843E+01  0.10514679419E+02  0.48177445857E+01  0.14311059658E+02  0.00000000000E+00 0.  1.
</event>
<event>
 7    1  0.1920603E-013  0.7246172E+02  0.7816164E-02  0.1226708E+00
        -11   -1    0    0    0    0  0.00000000000E+00  0.00000000000E+00  0.45593999997E+02  0.45594000000E+02  0.51100000000E-03 0.  1.
         11   -1    0    0    0    0 -0.00000000000E+00 -0.00000000000E+00 -0.45593999997E+02  0.45594000000E+02  0.51100000000E-03 0. -1.
    9900012    2    1    2    0    0 -0.81391979893E+01 -0.90168209520E+01 -0.14252156974E+02  0.72461719472E+02  0.70000194331E+02 0.  0.
        -12    1    1    2    0    0  0.81391979893E+01  0.90168209520E+01  0.14252156974E+02  0.18726280528E+02  0.00000000000E+00 0.  1.
         11    1    3    3    0    0 -0.34045471897E+01 -0.36367317938E+02 -0.14491877482E+02  0.39296148269E+02  0.51100000000E-03 0. -1.
        -11    1    3    3    0    0 -0.43370449490E+01  0.16120439137E+02  0.89559116673E+01  0.18944309724E+02  0.51100000000E-03 0.  1.
         12    1    3    3    0    0 -0.39760585056E+00  0.11230057849E+02 -0.87161911597E+01  0.14221261478E+02  0.00000000000E+00 0. -1.
</event>
<event>
 7    1  0.1920603E-013  0.7246154E+02  0.7816164E-02  0.1226708E+00
        -11   -1    0    0    0    0  0.00000000000E+00  0.00000000000E+00  0.45593999997E+02  0.45594000000E+02  0.51100000000E-03 0. -1.
         11   -1    0    0    0    0 -0.00000000000E+00 -0.00000000000E+00 -0.45593999997E+02  0.45594000000E+02  0.51100000000E-03 0.  1.
    9900012    2    1    2    0    0 -0.13082283530E+02  0.10759981605E+02  0.79847949680E+01  0.72461540185E+02  0.69999960778E+02 0.  0.
        -12    1    1    2    0    0  0.13082283530E+02 -0.10759981605E+02 -0.79847949680E+01  0.18726459815E+02  0.00000000000E+00 0.  1.
         11    1    3    3    0    0  0.30417140761E+00  0.24079373557E+01 -0.13295394075E+02  0.13515109560E+02  0.51100000000E-03 0. -1.
        -11    1    3    3    0    0 -0.23339261630E+02  0.25721431721E+02  0.16016713288E+02  0.38247199741E+02  0.51100000000E-03 0.  1.
        -12    1    3    3    0    0  0.99528066919E+01 -0.17369387472E+02  0.52634757549E+01  0.20699230885E+02  0.00000000000E+00 0.  1.
</event>
<event>
 7    1  0.1920603E-013  0.7246157E+02  0.7816164E-02  0.1226708E+00
        -11   -1    0    0    0    0  0.00000000000E+00  0.00000000000E+00  0.45593999997E+02  0.45594000000E+02  0.51100000000E-03 0.  1.
         11   -1    0    0    0    0 -0.00000000000E+00 -0.00000000000E+00 -0.45593999997E+02  0.45594000000E+02  0.51100000000E-03 0. -1.
    9900012    2    1    2    0    0  0.25470443901E+00  0.74513916357E+01 -0.17178211730E+02  0.72461572954E+02  0.70000003465E+02 0.  0.
        -12    1    1    2    0    0 -0.25470443901E+00 -0.74513916357E+01  0.17178211730E+02  0.18726427046E+02  0.00000000000E+00 0.  1.
         11    1    3    3    0    0 -0.14560980531E+02  0.24176942150E+02 -0.57725331777E+00  0.28229061398E+02  0.51100000000E-03 0. -1.
        -11    1    3    3    0    0  0.15031657211E+02 -0.13398416740E+02 -0.26788894111E+02  0.33512880175E+02  0.51100000000E-03 0.  1.
        -12    1    3    3    0    0 -0.21597224112E+00 -0.33271337743E+01  0.10187935698E+02  0.10719631381E+02  0.00000000000E+00 0.  1.
</event>
<event>
 7    1  0.1920603E-013  0.7246159E+02  0.7816164E-02  0.1226708E+00
        -11   -1    0    0    0    0  0.00000000000E+00  0.00000000000E+00  0.45593999997E+02  0.45594000000E+02  0.51100000000E-03 0. -1.
         11   -1    0    0    0    0 -0.00000000000E+00 -0.00000000000E+00 -0.45593999997E+02  0.45594000000E+02  0.51100000000E-03 0.  1.
    9900012    2    1    2    0    0 -0.57857846930E+01  0.10616611647E+02  0.14300029171E+02  0.72461585990E+02  0.70000020447E+02 0.  0.
        -12    1    1    2    0    0  0.57857846930E+01 -0.10616611647E+02 -0.14300029171E+02  0.18726414010E+02  0.00000000000E+00 0.  1.
         11    1    3    3    0    0 -0.13538959592E+02 -0.20010914241E+02 -0.12301675797E+02  0.27112199160E+02  0.51100000000E-03 0. -1.
        -11    1    3    3    0    0  0.11459363771E+02  0.17926543715E+02  0.84620314289E+01  0.22897247952E+02  0.51100000000E-03 0.  1.
         12    1    3    3    0    0 -0.37061888721E+01  0.12700982174E+02  0.18139673539E+02  0.22452138879E+02  0.00000000000E+00 0. -1.
</event>
<event>
 7    1  0.1920603E-013  0.7246156E+02  0.7816164E-02  0.1226708E+00
        -11   -1    0    0    0    0  0.00000000000E+00  0.00000000000E+00  0.45593999997E+02  0.45594000000E+02  0.51100000000E-03 0.  1.
         11   -1    0    0    0    0 -0.00000000000E+00 -0.00000000000E+00 -0.45593999997E+02  0.45594000000E+02  0.51100000000E-03 0. -1.
    9900012    2    1    2    0    0  0.66854298399E+00 -0.18707817852E+02 -0.50001056236E+00  0.72461563898E+02  0.69999991668E+02 0.  0.
        -12    1    1    2    0    0 -0.66854298399E+00  0.18707817852E+02  0.50001056236E+00  0.18726436102E+02  0.00000000000E+00 0.  1.
         11    1    3    3    0    0  0.12163449383E+02 -0.25192800851E+02  0.18429637226E+02  0.33500421552E+02  0.51100000000E-03 0.  1.
        -11    1    3    3    0    0  0.68773426794E+01  0.30946433439E+01 -0.18823882706E+02  0.20278392938E+02  0.51100000000E-03 0. -1.
         12    1    3    3    0    0 -0.18372249079E+02  0.33903396551E+01 -0.10576508236E+00  0.18682749408E+02  0.00000000000E+00 0. -1.
</event>
<event>
 7    1  0.1920603E-013  0.7246156E+02  0.7816164E-02  0.1226708E+00
        -11   -1    0    0    0    0  0.00000000000E+00  0.00000000000E+00  0.45593999997E+02  0.45594000000E+02  0.51100000000E-03 0.  1.
         11   -1    0    0    0    0 -0.00000000000E+00 -0.00000000000E+00 -0.45593999997E+02  0.45594000000E+02  0.51100000000E-03 0. -1.
    9900012    2    1    2    0    0 -0.14423268970E+02 -0.11877279406E+02  0.12566741374E+01  0.72461556564E+02  0.69999982113E+02 0.  0.
        -12    1    1    2    0    0  0.14423268970E+02  0.11877279406E+02 -0.12566741374E+01  0.18726443436E+02  0.00000000000E+00 0.  1.
         11    1    3    3    0    0 -0.88393827685E+01 -0.32693062246E+00 -0.29967300651E+02  0.31245490554E+02  0.51100000000E-03 0. -1.
        -11    1    3    3    0    0  0.80316719550E+00 -0.17209634226E+02  0.26065139130E+02  0.31244328539E+02  0.51100000000E-03 0.  1.
        -12    1    3    3    0    0 -0.63870533975E+01  0.56592854425E+01  0.51588356590E+01  0.99717374704E+01  0.00000000000E+00 0.  1.
</event>
<event>
 7    1  0.1920603E-013  0.7246163E+02  0.7816164E-02  0.1226708E+00
        -11   -1    0    0    0    0  0.00000000000E+00  0.00000000000E+00  0.45593999997E+02  0.45594000000E+02  0.51100000000E-03 0. -1.
         11   -1    0    0    0    0 -0.00000000000E+00 -0.00000000000E+00 -0.45593999997E+02  0.45594000000E+02  0.51100000000E-03 0.  1.
    9900012    2    1    2    0    0 -0.12054818712E+02 -0.88269799158E+01  0.11289049756E+02  0.72461631612E+02  0.70000079877E+02 0.  0.
        -12    1    1    2    0    0  0.12054818712E+02  0.88269799158E+01 -0.11289049756E+02  0.18726368388E+02  0.00000000000E+00 0.  1.
         11    1    3    3    0    0 -0.66934234241E+01  0.24750570651E+02  0.24956386412E+02  0.35780076687E+02  0.51100000000E-03 0. -1.
        -11    1    3    3    0    0 -0.10803870228E+01 -0.10006786380E+02 -0.46052602204E+01  0.11068488232E+02  0.51100000000E-03 0.  1.
         12    1    3    3    0    0 -0.42810082654E+01 -0.23570764186E+02 -0.90620764358E+01  0.25613066693E+02  0.00000000000E+00 0. -1.
</event>
<event>
 7    1  0.1920603E-013  0.7246156E+02  0.7816164E-02  0.1226708E+00
        -11   -1    0    0    0    0  0.00000000000E+00  0.00000000000E+00  0.45593999997E+02  0.45594000000E+02  0.51100000000E-03 0. -1.
         11   -1    0    0    0    0 -0.00000000000E+00 -0.00000000000E+00 -0.45593999997E+02  0.45594000000E+02  0.51100000000E-03 0.  1.
    9900012    2    1    2    0    0  0.89686904409E+00  0.12096916143E+02  0.14266733285E+02  0.72461563263E+02  0.69999990840E+02 0.  0.
        -12    1    1    2    0    0 -0.89686904409E+00 -0.12096916143E+02 -0.14266733285E+02  0.18726436737E+02  0.00000000000E+00 0.  1.
         11    1    3    3    0    0  0.18415102117E+02  0.69248023275E+01  0.24630958062E+02  0.31523847617E+02  0.51100000000E-03 0. -1.
        -11    1    3    3    0    0 -0.17600251616E+02 -0.11223638890E+02  0.11446181091E+01  0.20905718781E+02  0.51100000000E-03 0.  1.
        -12    1    3    3    0    0  0.82018542905E-01  0.16395752706E+02 -0.11508842886E+02  0.20031996865E+02  0.00000000000E+00 0.  1.
</event>
<event>
 7    1  0.1920603E-013  0.7246186E+02  0.7816164E-02  0.1226707E+00
        -11   -1    0    0    0    0  0.00000000000E+00  0.00000000000E+00  0.45593999997E+02  0.45594000000E+02  0.51100000000E-03 0. -1.
         11   -1    0    0    0    0 -0.00000000000E+00 -0.00000000000E+00 -0.45593999997E+02  0.45594000000E+02  0.51100000000E-03 0.  1.
    9900012    2    1    2    0    0 -0.15905998006E+02  0.79840340990E+01 -0.58243214700E+01  0.72461860685E+02  0.70000378286E+02 0.  0.
        -12    1    1    2    0    0  0.15905998006E+02 -0.79840340990E+01  0.58243214700E+01  0.18726139315E+02  0.00000000000E+00 0.  1.
         11    1    3    3    0    0  0.11551428939E+02 -0.83111520327E+01 -0.10504501314E+02  0.17687716267E+02  0.51100000000E-03 0. -1.
        -11    1    3    3    0    0 -0.36151046496E+02  0.72041979925E-01  0.24539847477E+01  0.36234312388E+02  0.51100000000E-03 0.  1.
        -12    1    3    3    0    0  0.86936195514E+01  0.16223144152E+02  0.22261950961E+01  0.18539832029E+02  0.00000000000E+00 0.  1.
</event>
<event>
 7    1  0.1920603E-013  0.7246156E+02  0.7816164E-02  0.1226708E+00
        -11   -1    0    0    0    0  0.00000000000E+00  0.00000000000E+00  0.45593999997E+02  0.45594000000E+02  0.51100000000E-03 0.  1.
         11   -1    0    0    0    0 -0.00000000000E+00 -0.00000000000E+00 -0.45593999997E+02  0.45594000000E+02  0.51100000000E-03 0. -1.
    9900012    2    1    2    0    0  0.16274386569E+02  0.15735656283E+01  0.91294951719E+01  0.72461562830E+02  0.69999990277E+02 0.  0.
        -12    1    1    2    0    0 -0.16274386569E+02 -0.15735656283E+01 -0.91294951719E+01  0.18726437170E+02  0.00000000000E+00 0.  1.
         11    1    3    3    0    0  0.11683061905E+02 -0.23564428001E+01 -0.19399392669E+02  0.22768030093E+02  0.51100000000E-03 0. -1.
        -11    1    3    3    0    0  0.16950685211E+02 -0.90553045490E+01  0.24814284662E+02  0.31385872509E+02  0.51100000000E-03 0.  1.
        -12    1    3    3    0    0 -0.12359360547E+02  0.12985312977E+02  0.37146031785E+01  0.18307660228E+02  0.00000000000E+00 0.  1.
</event>
<event>
 7    1  0.1920603E-013  0.7246147E+02  0.7816164E-02  0.1226708E+00
        -11   -1    0    0    0    0  0.00000000000E+00  0.00000000000E+00  0.45593999997E+02  0.45594000000E+02  0.51100000000E-03 0.  1.
         11   -1    0    0    0    0 -0.00000000000E+00 -0.00000000000E+00 -0.45593999997E+02  0.45594000000E+02  0.51100000000E-03 0. -1.
    9900012    2    1    2    0    0 -0.14205542130E+02 -0.11068561447E+02 -0.51354011426E+01  0.72461472703E+02  0.69999872869E+02 0.  0.
        -12    1    1    2    0    0  0.14205542130E+02  0.11068561447E+02  0.51354011426E+01  0.18726527297E+02  0.00000000000E+00 0.  1.
         11    1    3    3    0    0 -0.15092536958E+02  0.11546313481E+02 -0.14098854031E+02  0.23661777449E+02  0.51100000000E-03 0. -1.
        -11    1    3    3    0    0 -0.79074390202E+01 -0.95874603127E+01  0.24013184112E+02  0.27038491055E+02  0.51100000000E-03 0.  1.
         12    1    3    3    0    0  0.87944338481E+01 -0.13027414615E+02 -0.15049731224E+02  0.21761204198E+02  0.00000000000E+00 0. -1.
</event>
<event>
 7    1  0.1920603E-013  0.7246154E+02  0.7816164E-02  0.1226708E+00
        -11   -1    0    0    0    0  0.00000000000E+00  0.00000000000E+00  0.45593999997E+02  0.45594000000E+02  0.51100000000E-03 0. -1.
         11   -1    0    0    0    0 -0.00000000000E+00 -0.00000000000E+00 -0.45593999997E+02  0.45594000000E+02  0.51100000000E-03 0.  1.
    9900012    2    1    2    0    0  0.16954815339E+02  0.45990543399E+01  0.64856162922E+01  0.72461540572E+02  0.69999961281E+02 0.  0.
        -12    1    1    2    0    0 -0.16954815339E+02 -0.45990543399E+01 -0.64856162922E+01  0.18726459428E+02  0.00000000000E+00 0.  1.
         11    1    3    3    0    0  0.26691892471E+02 -0.49870582022E+01 -0.54727717362E+01  0.27699803320E+02  0.51100000000E-03 0. -1.
        -11    1    3    3    0    0 -0.11610811358E+02  0.16298089572E+02 -0.95352613062E+01  0.22166638728E+02  0.51100000000E-03 0.  1.
        -12    1    3    3    0    0  0.18737342263E+01 -0.67119770295E+01  0.21493649335E+02  0.22595098524E+02  0.00000000000E+00 0.  1.
</event>
<event>
 7    1  0.1920603E-013  0.7246163E+02  0.7816164E-02  0.1226708E+00
        -11   -1    0    0    0    0  0.00000000000E+00  0.00000000000E+00  0.45593999997E+02  0.45594000000E+02  0.51100000000E-03 0.  1.
         11   -1    0    0    0    0 -0.00000000000E+00 -0.00000000000E+00 -0.45593999997E+02  0.45594000000E+02  0.51100000000E-03 0. -1.
    9900012    2    1    2    0    0  0.10379957220E+02  0.13227875684E+02 -0.82435922321E+01  0.72461627691E+02  0.70000074769E+02 0.  0.
        -12    1    1    2    0    0 -0.10379957220E+02 -0.13227875684E+02  0.82435922321E+01  0.18726372309E+02  0.00000000000E+00 0.  1.
         11    1    3    3    0    0  0.10160000284E+02  0.20634084136E+02 -0.36303170319E+01  0.23284549296E+02  0.51100000000E-03 0. -1.
        -11    1    3    3    0    0  0.10129446639E+02 -0.90025814934E+01 -0.23877289200E+02  0.27455001412E+02  0.51100000000E-03 0.  1.
        -12    1    3    3    0    0 -0.99094897031E+01  0.15963730411E+01  0.19264013999E+02  0.21722076983E+02  0.00000000000E+00 0.  1.
</event>
<event>
 7    1  0.1920603E-013  0.7246157E+02  0.7816164E-02  0.1226708E+00
        -11   -1    0    0    0    0  0.00000000000E+00  0.00000000000E+00  0.45593999997E+02  0.45594000000E+02  0.51100000000E-03 0.  1.
         11   -1    0    0    0    0 -0.00000000000E+00 -0.00000000000E+00 -0.45593999997E+02  0.45594000000E+02  0.51100000000E-03 0. -1.
    9900012    2    1    2    0    0 -0.15917925170E+02  0.89927726765E+01  0.40532676402E+01  0.72461567326E+02  0.69999996134E+02 0.  0.
        -12    1    1    2    0    0  0.15917925170E+02 -0.89927726765E+01 -0.40532676402E+01  0.18726432674E+02  0.00000000000E+00 0.  1.
         11    1    3    3    0    0 -0.21127844953E+02  0.28088806118E+02  0.40344386470E+01  0.35378574829E+02  0.51100000000E-03 0. -1.
        -11    1    3    3    0    0  0.83494687526E+01  0.95485487137E-01  0.11717831048E+02  0.14388547900E+02  0.51100000000E-03 0.  1.
         12    1    3    3    0    0 -0.31395489696E+01 -0.19191518929E+02 -0.11699002055E+02  0.22694444598E+02  0.00000000000E+00 0. -1.
</event>
<event>
 7    1  0.1920603E-013  0.7246161E+02  0.7816164E-02  0.1226708E+00
        -11   -1    0    0    0    0  0.00000000000E+00  0.00000000000E+00  0.45593999997E+02  0.45594000000E+02  0.51100000000E-03 0.  1.
         11   -1    0    0    0    0 -0.00000000000E+00 -0.00000000000E+00 -0.45593999997E+02  0.45594000000E+02  0.51100000000E-03 0. -1.
    9900012    2    1    2    0    0 -0.95955155259E+01  0.51299177726E+01 -0.15240983245E+02  0.72461613674E+02  0.70000056510E+02 0.  0.
        -12    1    1    2    0    0  0.95955155259E+01 -0.51299177726E+01  0.15240983245E+02  0.18726386326E+02  0.00000000000E+00 0.  1.
         11    1    3    3    0    0 -0.12951531197E+02  0.16448868075E+02 -0.10316483811E+02  0.23339607104E+02  0.51100000000E-03 0. -1.
        -11    1    3    3    0    0  0.17804584323E+02 -0.89812714723E+01 -0.19906720310E+02  0.28177011444E+02  0.51100000000E-03 0.  1.
        -12    1    3    3    0    0 -0.14448568652E+02 -0.23376788297E+01  0.14982220876E+02  0.20944995125E+02  0.00000000000E+00 0.  1.
</event>
<event>
 7    1  0.1920603E-013  0.7246153E+02  0.7816164E-02  0.1226708E+00
        -11   -1    0    0    0    0  0.00000000000E+00  0.00000000000E+00  0.45593999997E+02  0.45594000000E+02  0.51100000000E-03 0.  1.
         11   -1    0    0    0    0 -0.00000000000E+00 -0.00000000000E+00 -0.45593999997E+02  0.45594000000E+02  0.51100000000E-03 0. -1.
    9900012    2    1    2    0    0 -0.21873352513E+01 -0.12126615159E+02 -0.14101109626E+02  0.72461534146E+02  0.69999952910E+02 0.  0.
        -12    1    1    2    0    0  0.21873352513E+01  0.12126615159E+02  0.14101109626E+02  0.18726465854E+02  0.00000000000E+00 0.  1.
         11    1    3    3    0    0  0.23144122368E+02 -0.23909342273E+02 -0.15400696866E+02  0.36667267588E+02  0.51100000000E-03 0. -1.
        -11    1    3    3    0    0 -0.20501990872E+02 -0.20019622215E+01  0.38804104906E+01  0.20961800216E+02  0.51100000000E-03 0.  1.
         12    1    3    3    0    0 -0.48294667475E+01  0.13784689335E+02 -0.25808232504E+01  0.14832466342E+02  0.00000000000E+00 0. -1.
</event>
<event>
 7    1  0.1920603E-013  0.7246161E+02  0.7816164E-02  0.1226708E+00
        -11   -1    0    0    0    0  0.00000000000E+00  0.00000000000E+00  0.45593999997E+02  0.45594000000E+02  0.51100000000E-03 0. -1.
         11   -1    0    0    0    0 -0.00000000000E+00 -0.00000000000E+00 -0.45593999997E+02  0.45594000000E+02  0.51100000000E-03 0.  1.
    9900012    2    1    2    0    0 -0.69182136841E+01  0.12893467009E+02  0.11686512047E+02  0.72461608572E+02  0.70000049863E+02 0.  0.
        -12    1    1    2    0    0  0.69182136841E+01 -0.12893467009E+02 -0.11686512047E+02  0.18726391428E+02  0.00000000000E+00 0.  1.
         11    1    3    3    0    0 -0.26390054735E+02 -0.14870199076E+02  0.45487120098E+00  0.30294631827E+02  0.51100000000E-03 0. -1.
        -11    1    3    3    0    0  0.79341982536E+01  0.89999219451E+01 -0.67195729696E+01  0.13751463853E+02  0.51100000000E-03 0.  1.
         12    1    3    3    0    0  0.11537642797E+02  0.18763744140E+02  0.17951213816E+02  0.28415512892E+02  0.00000000000E+00 0. -1.
</event>
<event>
 7    1  0.1920603E-013  0.7246157E+02  0.7816164E-02  0.1226708E+00
        -11   -1    0    0    0    0  0.00000000000E+00  0.00000000000E+00  0.45593999997E+02  0.45594000000E+02  0.51100000000E-03 0. -1.
         11   -1    0    0    0    0 -0.00000000000E+00 -0.00000000000E+00 -0.45593999997E+02  0.45594000000E+02  0.51100000000E-03 0.  1.
    9900012    2    1    2    0    0  0.15023991872E+02  0.69373982171E+01  0.87653464376E+01  0.72461571511E+02  0.70000001585E+02 0.  0.
        -12    1    1    2    0    0 -0.15023991872E+02 -0.69373982171E+01 -0.87653464376E+01  0.18726428489E+02  0.00000000000E+00 0.  1.
         11    1    3    3    0    0 -0.13839316109E+02  0.12417360413E+01  0.19039110339E+01  0.14024744427E+02  0.51100000000E-03 0. -1.
        -11    1    3    3    0    0  0.14569768777E+02 -0.10396721125E+02  0.24685038679E+02  0.30491328394E+02  0.51100000000E-03 0.  1.
        -12    1    3    3    0    0  0.14293539204E+02  0.16092383301E+02 -0.17823603276E+02  0.27945498689E+02  0.00000000000E+00 0.  1.
</event>
<event>
 7    1  0.1920603E-013  0.7246158E+02  0.7816164E-02  0.1226708E+00
        -11   -1    0    0    0    0  0.00000000000E+00  0.00000000000E+00  0.45593999997E+02  0.45594000000E+02  0.51100000000E-03 0.  1.
         11   -1    0    0    0    0 -0.00000000000E+00 -0.00000000000E+00 -0.45593999997E+02  0.45594000000E+02  0.51100000000E-03 0. -1.
    9900012    2    1    2    0    0  0.51624449568E+00 -0.33529872837E+01 -0.18416567462E+02  0.72461575110E+02  0.70000006273E+02 0.  0.
        -12    1    1    2    0    0 -0.51624449568E+00  0.33529872837E+01  0.18416567462E+02  0.18726424890E+02  0.00000000000E+00 0.  1.
         11    1    3    3    0    0  0.54019666637E+01  0.18653554171E+02 -0.16465796514E+02  0.25460926577E+02  0.51100000000E-03 0. -1.
        -11    1    3    3    0    0  0.93842128162E+01 -0.64790824945E+01  0.15765845555E+02  0.19457745154E+02  0.51100000000E-03 0.  1.
         12    1    3    3    0    0 -0.14269934984E+02 -0.15527458960E+02 -0.17716616503E+02  0.27542903379E+02  0.00000000000E+00 0. -1.
</event>
<event>
 7    1  0.1920603E-013  0.7246157E+02  0.7816164E-02  0.1226708E+00
        -11   -1    0    0    0    0  0.00000000000E+00  0.00000000000E+00  0.45593999997E+02  0.45594000000E+02  0.51100000000E-03 0.  1.
         11   -1    0    0    0    0 -0.00000000000E+00 -0.00000000000E+00 -0.45593999997E+02  0.45594000000E+02  0.51100000000E-03 0. -1.
    9900012    2    1    2    0    0 -0.92477620531E+01 -0.12736381416E+02 -0.10146062874E+02  0.72461571979E+02  0.70000002195E+02 0.  0.
        -12    1    1    2    0    0  0.92477620531E+01  0.12736381416E+02  0.10146062874E+02  0.18726428021E+02  0.00000000000E+00 0.  1.
         11    1    3    3    0    0 -0.12479221556E+02  0.33491230404E+01 -0.28040756123E+02  0.30874448983E+02  0.51100000000E-03 0. -1.
        -11    1    3    3    0    0  0.42797745621E+01  0.98021300770E+01  0.96295295645E+01  0.14391874938E+02  0.51100000000E-03 0.  1.
         12    1    3    3    0    0 -0.10483150590E+01 -0.25887634534E+02  0.82651636841E+01  0.27195248058E+02  0.00000000000E+00 0. -1.
</event>
<event>
 7    1  0.1920603E-013  0.7246150E+02  0.7816164E-02  0.1226708E+00
        -11   -1    0    0    0    0  0.00000000000E+00  0.00000000000E+00  0.45593999997E+02  0.45594000000E+02  0.51100000000E-03 0. -1.
         11   -1    0    0    0    0 -0.00000000000E+00 -0.00000000000E+00 -0.45593999997E+02  0.45594000000E+02  0.51100000000E-03 0.  1.
    9900012    2    1    2    0    0  0.10418692342E+02  0.13155009631E+02 -0.83113434082E+01  0.72461498518E+02  0.69999906498E+02 0.  0.
        -12    1    1    2    0    0 -0.10418692342E+02 -0.13155009631E+02  0.83113434082E+01  0.18726501482E+02  0.00000000000E+00 0.  1.
         11    1    3    3    0    0  0.22473611531E+02  0.16359471396E+02  0.12527079661E+02  0.30489723591E+02  0.51100000000E-03 0. -1.
        -11    1    3    3    0    0  0.11904778550E+01  0.14308277726E+02 -0.66020507203E+01  0.15802883376E+02  0.51100000000E-03 0.  1.
         12    1    3    3    0    0 -0.13245397044E+02 -0.17512739492E+02 -0.14236372349E+02  0.26168891551E+02  0.00000000000E+00 0. -1.
</event>
<event>
 7    1  0.1920603E-013  0.7246165E+02  0.7816164E-02  0.1226708E+00
        -11   -1    0    0    0    0  0.00000000000E+00  0.00000000000E+00  0.45593999997E+02  0.45594000000E+02  0.51100000000E-03 0. -1.
         11   -1    0    0    0    0 -0.00000000000E+00 -0.00000000000E+00 -0.45593999997E+02  0.45594000000E+02  0.51100000000E-03 0.  1.
    9900012    2    1    2    0    0 -0.17205360543E+02  0.43807211544E+01  0.59549159931E+01  0.72461650283E+02  0.70000104200E+02 0.  0.
        -12    1    1    2    0    0  0.17205360543E+02 -0.43807211544E+01 -0.59549159931E+01  0.18726349717E+02  0.00000000000E+00 0.  1.
         11    1    3    3    0    0  0.83583679479E+01 -0.11609833557E+02  0.95785456852E+00  0.14337644005E+02  0.51100000000E-03 0. -1.
        -11    1    3    3    0    0 -0.34579012697E+02  0.11035756078E+02 -0.12022900043E+02  0.38236712163E+02  0.51100000000E-03 0.  1.
        -12    1    3    3    0    0  0.90152842066E+01  0.49547986334E+01  0.17019961468E+02  0.19887294115E+02  0.00000000000E+00 0.  1.
</event>
<event>
 8    1  0.1920603E-013  0.7246159E+02  0.7816164E-02  0.1226708E+00
        -11   -1    0    0    0    0  0.00000000000E+00  0.00000000000E+00  0.45593999997E+02  0.45594000000E+02  0.51100000000E-03 0.  1.
         11   -1    0    0    0    0 -0.00000000000E+00 -0.00000000000E+00 -0.45593999997E+02  0.45594000000E+02  0.51100000000E-03 0. -1.
    9900012    2    1    2    0    0  0.18632709553E+02 -0.18627757386E+01 -0.17488460903E+00  0.72461591285E+02  0.70000027344E+02 0.  0.
        -24    2    3    3    0    0  0.96636573565E+01  0.69221945338E+01 -0.15493428729E+02  0.52655597389E+02  0.48900537338E+02 0.  0.
        -12    1    1    2    0    0 -0.18632709553E+02  0.18627757386E+01  0.17488460903E+00  0.18726408715E+02  0.00000000000E+00 0.  1.
         11    1    4    4    0    0  0.21764013049E+02  0.21968130555E+02 -0.11087881665E+02  0.32851364418E+02  0.51100000000E-03 0. -1.
        -11    1    3    3    0    0  0.89690521965E+01 -0.87849702724E+01  0.15318544120E+02  0.19805993896E+02  0.51100000000E-03 0.  1.
        -12    1    4    4    0    0 -0.12100355692E+02 -0.15045936021E+02 -0.44055470641E+01  0.19804232971E+02  0.00000000000E+00 0.  1.
</event>
<event>
 7    1  0.1920603E-013  0.7246155E+02  0.7816164E-02  0.1226708E+00
        -11   -1    0    0    0    0  0.00000000000E+00  0.00000000000E+00  0.45593999997E+02  0.45594000000E+02  0.51100000000E-03 0. -1.
         11   -1    0    0    0    0 -0.00000000000E+00 -0.00000000000E+00 -0.45593999997E+02  0.45594000000E+02  0.51100000000E-03 0.  1.
    9900012    2    1    2    0    0 -0.12064280513E+02 -0.14322225650E+02 -0.83370717128E-01  0.72461549120E+02  0.69999972417E+02 0.  0.
        -12    1    1    2    0    0  0.12064280513E+02  0.14322225650E+02  0.83370717128E-01  0.18726450880E+02  0.00000000000E+00 0.  1.
         11    1    3    3    0    0  0.78453347899E+01 -0.97116854961E+01  0.71898555383E+01  0.14406947493E+02  0.51100000000E-03 0. -1.
        -11    1    3    3    0    0  0.96806208094E+01  0.13401204054E+01 -0.22293168653E+02  0.24341234784E+02  0.51100000000E-03 0.  1.
        -12    1    3    3    0    0 -0.29590236112E+02 -0.59506605595E+01  0.15019942398E+02  0.33713366843E+02  0.00000000000E+00 0.  1.
</event>
<event>
 7    1  0.1920603E-013  0.7246154E+02  0.7816164E-02  0.1226708E+00
        -11   -1    0    0    0    0  0.00000000000E+00  0.00000000000E+00  0.45593999997E+02  0.45594000000E+02  0.51100000000E-03 0.  1.
         11   -1    0    0    0    0 -0.00000000000E+00 -0.00000000000E+00 -0.45593999997E+02  0.45594000000E+02  0.51100000000E-03 0. -1.
    9900012    2    1    2    0    0  0.37688021050E+01 -0.15023330793E+02 -0.10525016815E+02  0.72461539673E+02  0.69999960110E+02 0.  0.
        -12    1    1    2    0    0 -0.37688021050E+01  0.15023330793E+02  0.10525016815E+02  0.18726460327E+02  0.00000000000E+00 0.  1.
         11    1    3    3    0    0 -0.13551399447E+02  0.16402149068E+02 -0.79950072789E+01  0.22728639701E+02  0.51100000000E-03 0. -1.
        -11    1    3    3    0    0  0.23543167163E+02 -0.97890716214E+01  0.50208777277E+01  0.25986840067E+02  0.51100000000E-03 0.  1.
         12    1    3    3    0    0 -0.62229656111E+01 -0.21636408240E+02 -0.75508872641E+01  0.23746059904E+02  0.00000000000E+00 0. -1.
</event>
<event>
 7    1  0.1920603E-013  0.7246162E+02  0.7816164E-02  0.1226708E+00
        -11   -1    0    0    0    0  0.00000000000E+00  0.00000000000E+00  0.45593999997E+02  0.45594000000E+02  0.51100000000E-03 0.  1.
         11   -1    0    0    0    0 -0.00000000000E+00 -0.00000000000E+00 -0.45593999997E+02  0.45594000000E+02  0.51100000000E-03 0. -1.
    9900012    2    1    2    0    0  0.71552957469E+01  0.12422975551E+02 -0.12047762449E+02  0.72461623982E+02  0.70000069938E+02 0.  0.
        -12    1    1    2    0    0 -0.71552957469E+01 -0.12422975551E+02  0.12047762449E+02  0.18726376018E+02  0.00000000000E+00 0.  1.
         11    1    3    3    0    0 -0.25742375510E+01  0.14416303766E+02  0.23208111164E+02  0.27442174427E+02  0.51100000000E-03 0.  1.
        -11    1    3    3    0    0  0.60656469685E+01 -0.13594002737E+02 -0.25053419465E+02  0.29142114040E+02  0.51100000000E-03 0. -1.
         12    1    3    3    0    0  0.36638863294E+01  0.11600674522E+02 -0.10202454147E+02  0.15877335514E+02  0.00000000000E+00 0. -1.
</event>
<event>
 7    1  0.1920603E-013  0.7246159E+02  0.7816164E-02  0.1226708E+00
        -11   -1    0    0    0    0  0.00000000000E+00  0.00000000000E+00  0.45593999997E+02  0.45594000000E+02  0.51100000000E-03 0.  1.
         11   -1    0    0    0    0 -0.00000000000E+00 -0.00000000000E+00 -0.45593999997E+02  0.45594000000E+02  0.51100000000E-03 0. -1.
    9900012    2    1    2    0    0  0.34548920572E+01  0.64128914440E+01 -0.17251579489E+02  0.72461589488E+02  0.70000025003E+02 0.  0.
        -12    1    1    2    0    0 -0.34548920572E+01 -0.64128914440E+01  0.17251579489E+02  0.18726410512E+02  0.00000000000E+00 0.  1.
         11    1    3    3    0    0  0.20730494782E+01  0.13788989608E+02  0.10715066383E+01  0.13985059717E+02  0.51100000000E-03 0. -1.
        -11    1    3    3    0    0  0.61225505554E+01 -0.51955800134E+00 -0.37272022193E+02  0.37775113560E+02  0.51100000000E-03 0.  1.
        -12    1    3    3    0    0 -0.47407079764E+01 -0.68565401624E+01  0.18948936066E+02  0.20701416211E+02  0.00000000000E+00 0.  1.
</event>
<event>
 7    1  0.1920603E-013  0.7246105E+02  0.7816164E-02  0.1226709E+00
        -11   -1    0    0    0    0  0.00000000000E+00  0.00000000000E+00  0.45593999997E+02  0.45594000000E+02  0.51100000000E-03 0. -1.
         11   -1    0    0    0    0 -0.00000000000E+00 -0.00000000000E+00 -0.45593999997E+02  0.45594000000E+02  0.51100000000E-03 0.  1.
    9900012    2    1    2    0    0  0.12198184693E+02  0.56295651784E+01  0.13046488059E+02  0.72461052449E+02  0.69999325408E+02 0.  0.
        -12    1    1    2    0    0 -0.12198184693E+02 -0.56295651784E+01 -0.13046488059E+02  0.18726947551E+02  0.00000000000E+00 0.  1.
         11    1    3    3    0    0 -0.13959271837E+02  0.27768118893E+02 -0.21430107909E+01  0.31153205173E+02  0.51100000000E-03 0. -1.
        -11    1    3    3    0    0  0.99147012362E+00 -0.28840077262E+01 -0.34025209000E+01  0.45692080613E+01  0.51100000000E-03 0.  1.
         12    1    3    3    0    0  0.25165986406E+02 -0.19254545988E+02  0.18592019750E+02  0.36738639215E+02  0.00000000000E+00 0. -1.
</event>
<event>
 7    1  0.1920603E-013  0.7246155E+02  0.7816164E-02  0.1226708E+00
        -11   -1    0    0    0    0  0.00000000000E+00  0.00000000000E+00  0.45593999997E+02  0.45594000000E+02  0.51100000000E-03 0. -1.
         11   -1    0    0    0    0 -0.00000000000E+00 -0.00000000000E+00 -0.45593999997E+02  0.45594000000E+02  0.51100000000E-03 0.  1.
    9900012    2    1    2    0    0 -0.14257941266E+02  0.13813053542E+01  0.12061635224E+02  0.72461549779E+02  0.69999973274E+02 0.  0.
        -12    1    1    2    0    0  0.14257941266E+02 -0.13813053542E+01 -0.12061635224E+02  0.18726450221E+02  0.00000000000E+00 0.  1.
         11    1    3    3    0    0 -0.39097276120E+02  0.88091921300E+01  0.10519264812E+02  0.41434934517E+02  0.51100000000E-03 0. -1.
        -11    1    3    3    0    0  0.17041626777E+02  0.36346383129E+01  0.20449290288E+00  0.17426114211E+02  0.51100000000E-03 0.  1.
         12    1    3    3    0    0  0.77977080770E+01 -0.11062525089E+02  0.13378775091E+01  0.13600501050E+02  0.00000000000E+00 0. -1.
</event>
<event>
 7    1  0.1920603E-013  0.7246157E+02  0.7816164E-02  0.1226708E+00
        -11   -1    0    0    0    0  0.00000000000E+00  0.00000000000E+00  0.45593999997E+02  0.45594000000E+02  0.51100000000E-03 0.  1.
         11   -1    0    0    0    0 -0.00000000000E+00 -0.00000000000E+00 -0.45593999997E+02  0.45594000000E+02  0.51100000000E-03 0. -1.
    9900012    2    1    2    0    0 -0.90446263932E+01 -0.12515892345E+02 -0.10593690607E+02  0.72461571925E+02  0.70000002124E+02 0.  0.
        -12    1    1    2    0    0  0.90446263932E+01  0.12515892345E+02  0.10593690607E+02  0.18726428075E+02  0.00000000000E+00 0.  1.
         11    1    3    3    0    0 -0.24698946666E+02 -0.18573338859E+02  0.48462833125E+00  0.30906985419E+02  0.51100000000E-03 0. -1.
        -11    1    3    3    0    0  0.15837496506E+02  0.14630352374E+02  0.60552338371E+01  0.22395074531E+02  0.51100000000E-03 0.  1.
         12    1    3    3    0    0 -0.18317623301E+00 -0.85729058597E+01 -0.17133552775E+02  0.19159511975E+02  0.00000000000E+00 0. -1.
</event>
<event>
 7    1  0.1920603E-013  0.7246165E+02  0.7816164E-02  0.1226708E+00
        -11   -1    0    0    0    0  0.00000000000E+00  0.00000000000E+00  0.45593999997E+02  0.45594000000E+02  0.51100000000E-03 0.  1.
         11   -1    0    0    0    0 -0.00000000000E+00 -0.00000000000E+00 -0.45593999997E+02  0.45594000000E+02  0.51100000000E-03 0. -1.
    9900012    2    1    2    0    0  0.14657711377E+02  0.61729672348E+00  0.11638154264E+02  0.72461649775E+02  0.70000103539E+02 0.  0.
        -12    1    1    2    0    0 -0.14657711377E+02 -0.61729672348E+00 -0.11638154264E+02  0.18726350225E+02  0.00000000000E+00 0.  1.
         11    1    3    3    0    0  0.94501713513E+01  0.68149966247E+01 -0.18197294503E+02  0.21607670977E+02  0.51100000000E-03 0. -1.
        -11    1    3    3    0    0 -0.14390896481E+02 -0.42218938870E+01  0.27091968323E+02  0.30966062672E+02  0.51100000000E-03 0.  1.
        -12    1    3    3    0    0  0.19598436507E+02 -0.19758060143E+01  0.27434804437E+01  0.19887916127E+02  0.00000000000E+00 0.  1.
</event>
<event>
 7    1  0.1920603E-013  0.7246160E+02  0.7816164E-02  0.1226708E+00
        -11   -1    0    0    0    0  0.00000000000E+00  0.00000000000E+00  0.45593999997E+02  0.45594000000E+02  0.51100000000E-03 0.  1.
         11   -1    0    0    0    0 -0.00000000000E+00 -0.00000000000E+00 -0.45593999997E+02  0.45594000000E+02  0.51100000000E-03 0. -1.
    9900012    2    1    2    0    0 -0.18924502648E+01 -0.54274950636E+01 -0.17822429285E+02  0.72461600018E+02  0.70000038720E+02 0.  0.
        -12    1    1    2    0    0  0.18924502648E+01  0.54274950636E+01  0.17822429285E+02  0.18726399982E+02  0.00000000000E+00 0.  1.
         11    1    3    3    0    0  0.22348695952E+02 -0.50879214921E+01 -0.97627867592E+01  0.24913112239E+02  0.51100000000E-03 0. -1.
        -11    1    3    3    0    0 -0.68356272798E+01  0.17730723614E+02  0.44445660831E+01  0.19515597047E+02  0.51100000000E-03 0.  1.
         12    1    3    3    0    0 -0.17405518937E+02 -0.18070297185E+02 -0.12504208609E+02  0.28032890732E+02  0.00000000000E+00 0. -1.
</event>
<event>
 7    1  0.1920603E-013  0.7246166E+02  0.7816164E-02  0.1226708E+00
        -11   -1    0    0    0    0  0.00000000000E+00  0.00000000000E+00  0.45593999997E+02  0.45594000000E+02  0.51100000000E-03 0. -1.
         11   -1    0    0    0    0 -0.00000000000E+00 -0.00000000000E+00 -0.45593999997E+02  0.45594000000E+02  0.51100000000E-03 0.  1.
    9900012    2    1    2    0    0 -0.39764663771E+01 -0.14571843460E+02  0.11069098335E+02  0.72461659070E+02  0.70000115647E+02 0.  0.
        -12    1    1    2    0    0  0.39764663771E+01  0.14571843460E+02 -0.11069098335E+02  0.18726340930E+02  0.00000000000E+00 0.  1.
         11    1    3    3    0    0 -0.26238329618E+02  0.11228696380E+02  0.18093903298E+02  0.33792349731E+02  0.51100000000E-03 0. -1.
        -11    1    3    3    0    0 -0.14216492625E+01 -0.12506467139E+01 -0.39978840544E+01  0.44236049780E+01  0.51100000000E-03 0.  1.
         12    1    3    3    0    0  0.23683512503E+02 -0.24549893126E+02 -0.30269209087E+01  0.34245704361E+02  0.00000000000E+00 0. -1.
</event>
<event>
 7    1  0.1920603E-013  0.7246156E+02  0.7816164E-02  0.1226708E+00
        -11   -1    0    0    0    0  0.00000000000E+00  0.00000000000E+00  0.45593999997E+02  0.45594000000E+02  0.51100000000E-03 0. -1.
         11   -1    0    0    0    0 -0.00000000000E+00 -0.00000000000E+00 -0.45593999997E+02  0.45594000000E+02  0.51100000000E-03 0.  1.
    9900012    2    1    2    0    0  0.14906528909E+02  0.72591661064E+01  0.87051466122E+01  0.72461556819E+02  0.69999982445E+02 0.  0.
        -12    1    1    2    0    0 -0.14906528909E+02 -0.72591661064E+01 -0.87051466122E+01  0.18726443181E+02  0.00000000000E+00 0.  1.
         11    1    3    3    0    0  0.25527758433E+02  0.30459594188E+02  0.88723361254E+01  0.40720654185E+02  0.51100000000E-03 0. -1.
        -11    1    3    3    0    0 -0.39913839081E-01 -0.11367352326E+01 -0.63914721831E+01  0.64918931778E+01  0.51100000000E-03 0.  1.
         12    1    3    3    0    0 -0.10581315684E+02 -0.22063692849E+02  0.62242826700E+01  0.25249009456E+02  0.00000000000E+00 0. -1.
</event>
<event>
 7    1  0.1920603E-013  0.7246156E+02  0.7816164E-02  0.1226708E+00
        -11   -1    0    0    0    0  0.00000000000E+00  0.00000000000E+00  0.45593999997E+02  0.45594000000E+02  0.51100000000E-03 0.  1.
         11   -1    0    0    0    0 -0.00000000000E+00 -0.00000000000E+00 -0.45593999997E+02  0.45594000000E+02  0.51100000000E-03 0. -1.
    9900012    2    1    2    0    0 -0.70119606710E+01 -0.97592209584E+01 -0.14362081584E+02  0.72461564846E+02  0.69999992902E+02 0.  0.
        -12    1    1    2    0    0  0.70119606710E+01  0.97592209584E+01  0.14362081584E+02  0.18726435154E+02  0.00000000000E+00 0.  1.
         11    1    3    3    0    0  0.17891816580E+02 -0.28487647559E+01 -0.31976846530E+02  0.36752568283E+02  0.51100000000E-03 0. -1.
        -11    1    3    3    0    0  0.59157442023E+00  0.33446088943E+01  0.79036669729E+00  0.34872695233E+01  0.51100000000E-03 0.  1.
         12    1    3    3    0    0 -0.25495351671E+02 -0.10255065097E+02  0.16824398249E+02  0.32221727039E+02  0.00000000000E+00 0. -1.
</event>
<event>
 7    1  0.1920603E-013  0.7246156E+02  0.7816164E-02  0.1226708E+00
        -11   -1    0    0    0    0  0.00000000000E+00  0.00000000000E+00  0.45593999997E+02  0.45594000000E+02  0.51100000000E-03 0. -1.
         11   -1    0    0    0    0 -0.00000000000E+00 -0.00000000000E+00 -0.45593999997E+02  0.45594000000E+02  0.51100000000E-03 0.  1.
    9900012    2    1    2    0    0 -0.17756853894E+02  0.57927046273E+01 -0.13484349788E+01  0.72461559762E+02  0.69999986279E+02 0.  0.
        -12    1    1    2    0    0  0.17756853894E+02 -0.57927046273E+01  0.13484349788E+01  0.18726440238E+02  0.00000000000E+00 0.  1.
         11    1    3    3    0    0  0.19749589549E+02 -0.90216696443E+01 -0.35757056815E+01  0.22005055826E+02  0.51100000000E-03 0. -1.
        -11    1    3    3    0    0 -0.62195944346E+01  0.29097500712E+01 -0.12203999839E+02  0.14003128677E+02  0.51100000000E-03 0.  1.
         12    1    3    3    0    0 -0.31286849009E+02  0.11904624200E+02  0.14431270542E+02  0.36453375258E+02  0.00000000000E+00 0. -1.
</event>
<event>
 7    1  0.1920603E-013  0.7246156E+02  0.7816164E-02  0.1226708E+00
        -11   -1    0    0    0    0  0.00000000000E+00  0.00000000000E+00  0.45593999997E+02  0.45594000000E+02  0.51100000000E-03 0. -1.
         11   -1    0    0    0    0 -0.00000000000E+00 -0.00000000000E+00 -0.45593999997E+02  0.45594000000E+02  0.51100000000E-03 0.  1.
    9900012    2    1    2    0    0  0.17408002791E+02 -0.53505545830E+00  0.68814776729E+01  0.72461559322E+02  0.69999985706E+02 0.  0.
        -12    1    1    2    0    0 -0.17408002791E+02  0.53505545830E+00 -0.68814776729E+01  0.18726440678E+02  0.00000000000E+00 0.  1.
         11    1    3    3    0    0  0.29607631834E+02  0.10413400037E+02 -0.24807316732E+01  0.31483405042E+02  0.51100000000E-03 0. -1.
        -11    1    3    3    0    0 -0.12364180066E+02 -0.23241756328E+02  0.11083396234E+02  0.28563855801E+02  0.51100000000E-03 0.  1.
        -12    1    3    3    0    0  0.16455102287E+00  0.12293300832E+02 -0.17211868883E+01  0.12414298478E+02  0.00000000000E+00 0.  1.
</event>
<event>
 7    1  0.1920603E-013  0.7246157E+02  0.7816164E-02  0.1226708E+00
        -11   -1    0    0    0    0  0.00000000000E+00  0.00000000000E+00  0.45593999997E+02  0.45594000000E+02  0.51100000000E-03 0.  1.
         11   -1    0    0    0    0 -0.00000000000E+00 -0.00000000000E+00 -0.45593999997E+02  0.45594000000E+02  0.51100000000E-03 0. -1.
    9900012    2    1    2    0    0  0.15582437753E+02 -0.91655343709E+01  0.48846567611E+01  0.72461567924E+02  0.69999996912E+02 0.  0.
        -12    1    1    2    0    0 -0.15582437753E+02  0.91655343709E+01 -0.48846567611E+01  0.18726432076E+02  0.00000000000E+00 0.  1.
         11    1    3    3    0    0  0.23816899759E+02  0.48126675754E+01 -0.62886146897E+01  0.25098867670E+02  0.51100000000E-03 0. -1.
        -11    1    3    3    0    0 -0.77417189268E+01 -0.38731704966E+01  0.27125229815E+02  0.28473035567E+02  0.51100000000E-03 0.  1.
        -12    1    3    3    0    0 -0.49274307964E+00 -0.10105031450E+02 -0.15951958364E+02  0.18889664687E+02  0.00000000000E+00 0.  1.
</event>
<event>
 7    1  0.1920603E-013  0.7246162E+02  0.7816164E-02  0.1226708E+00
        -11   -1    0    0    0    0  0.00000000000E+00  0.00000000000E+00  0.45593999997E+02  0.45594000000E+02  0.51100000000E-03 0. -1.
         11   -1    0    0    0    0 -0.00000000000E+00 -0.00000000000E+00 -0.45593999997E+02  0.45594000000E+02  0.51100000000E-03 0.  1.
    9900012    2    1    2    0    0 -0.64383764642E+01 -0.17153190347E+02  0.38720223905E+01  0.72461623202E+02  0.70000068922E+02 0.  0.
        -12    1    1    2    0    0  0.64383764642E+01  0.17153190347E+02 -0.38720223905E+01  0.18726376798E+02  0.00000000000E+00 0.  1.
         11    1    3    3    0    0 -0.10537648717E+02 -0.16346605860E+02  0.13578265175E+02  0.23719672195E+02  0.51100000000E-03 0. -1.
        -11    1    3    3    0    0 -0.14528955981E+02  0.16321514726E+02 -0.83744407950E+01  0.23401146633E+02  0.51100000000E-03 0.  1.
        -12    1    3    3    0    0  0.18628228233E+02 -0.17128099213E+02 -0.13318019896E+01  0.25340804374E+02  0.00000000000E+00 0.  1.
</event>
<event>
 7    1  0.1920603E-013  0.7246147E+02  0.7816164E-02  0.1226708E+00
        -11   -1    0    0    0    0  0.00000000000E+00  0.00000000000E+00  0.45593999997E+02  0.45594000000E+02  0.51100000000E-03 0.  1.
         11   -1    0    0    0    0 -0.00000000000E+00 -0.00000000000E+00 -0.45593999997E+02  0.45594000000E+02  0.51100000000E-03 0. -1.
    9900012    2    1    2    0    0  0.68047144481E+01  0.54061313240E+01 -0.16587724813E+02  0.72461467777E+02  0.69999866453E+02 0.  0.
        -12    1    1    2    0    0 -0.68047144481E+01 -0.54061313240E+01  0.16587724813E+02  0.18726532223E+02  0.00000000000E+00 0.  1.
         11    1    3    3    0    0  0.61473579054E+01  0.15311335804E+02 -0.16414544739E+02  0.23273682403E+02  0.51100000000E-03 0. -1.
        -11    1    3    3    0    0 -0.22038704731E+02 -0.13937175161E+02 -0.13062333529E+01  0.26108535070E+02  0.51100000000E-03 0.  1.
         12    1    3    3    0    0  0.22696061273E+02  0.40319706813E+01  0.11330532794E+01  0.23079250305E+02  0.00000000000E+00 0. -1.
</event>
<event>
 7    1  0.1920603E-013  0.7246153E+02  0.7816164E-02  0.1226708E+00
        -11   -1    0    0    0    0  0.00000000000E+00  0.00000000000E+00  0.45593999997E+02  0.45594000000E+02  0.51100000000E-03 0. -1.
         11   -1    0    0    0    0 -0.00000000000E+00 -0.00000000000E+00 -0.45593999997E+02  0.45594000000E+02  0.51100000000E-03 0.  1.
    9900012    2    1    2    0    0 -0.11830135341E+02  0.12958279487E+02  0.65430608926E+01  0.72461527953E+02  0.69999944843E+02 0.  0.
        -12    1    1    2    0    0  0.11830135341E+02 -0.12958279487E+02 -0.65430608926E+01  0.18726472047E+02  0.00000000000E+00 0.  1.
         11    1    3    3    0    0 -0.22714058241E+02  0.14958574915E+02 -0.15795194580E+02  0.31451161781E+02  0.51100000000E-03 0.  1.
        -11    1    3    3    0    0  0.16533623408E+02  0.10571699406E+02  0.82103323090E+01  0.21272778103E+02  0.51100000000E-03 0. -1.
        -12    1    3    3    0    0 -0.56497005080E+01 -0.12571994833E+02  0.14127923163E+02  0.19737588070E+02  0.00000000000E+00 0.  1.
</event>
<event>
 7    1  0.1920603E-013  0.7246159E+02  0.7816164E-02  0.1226708E+00
        -11   -1    0    0    0    0  0.00000000000E+00  0.00000000000E+00  0.45593999997E+02  0.45594000000E+02  0.51100000000E-03 0.  1.
         11   -1    0    0    0    0 -0.00000000000E+00 -0.00000000000E+00 -0.45593999997E+02  0.45594000000E+02  0.51100000000E-03 0. -1.
    9900012    2    1    2    0    0 -0.54258293103E+01 -0.68585459139E+01 -0.16558962477E+02  0.72461587795E+02  0.70000022797E+02 0.  0.
        -12    1    1    2    0    0  0.54258293103E+01  0.68585459139E+01  0.16558962477E+02  0.18726412205E+02  0.00000000000E+00 0.  1.
         11    1    3    3    0    0 -0.46956872964E+01 -0.30058937733E+02 -0.28094910306E+02  0.41411510504E+02  0.51100000000E-03 0. -1.
        -11    1    3    3    0    0  0.32422035343E+01  0.43533782353E+01  0.10429211498E+02  0.11757220699E+02  0.51100000000E-03 0.  1.
         12    1    3    3    0    0 -0.39723455481E+01  0.18847013584E+02  0.11067363302E+01  0.19292856592E+02  0.00000000000E+00 0. -1.
</event>
<event>
 7    1  0.1920603E-013  0.7246159E+02  0.7816164E-02  0.1226708E+00
        -11   -1    0    0    0    0  0.00000000000E+00  0.00000000000E+00  0.45593999997E+02  0.45594000000E+02  0.51100000000E-03 0.  1.
         11   -1    0    0    0    0 -0.00000000000E+00 -0.00000000000E+00 -0.45593999997E+02  0.45594000000E+02  0.51100000000E-03 0. -1.
    9900012    2    1    2    0    0 -0.15082271444E+02 -0.42424699634E+01 -0.10256941575E+02  0.72461593143E+02  0.70000029765E+02 0.  0.
        -12    1    1    2    0    0  0.15082271444E+02  0.42424699634E+01  0.10256941575E+02  0.18726406857E+02  0.00000000000E+00 0.  1.
         11    1    3    3    0    0 -0.28528461270E+02 -0.21550915978E+01  0.21151512269E+02  0.35579544598E+02  0.51100000000E-03 0. -1.
        -11    1    3    3    0    0  0.10863373860E+02  0.17171640824E+01 -0.96143993438E+01  0.14608155911E+02  0.51100000000E-03 0.  1.
         12    1    3    3    0    0  0.25828159658E+01 -0.38045424480E+01 -0.21794054500E+02  0.22273892635E+02  0.00000000000E+00 0. -1.
</event>
<event>
 7    1  0.1920603E-013  0.7246158E+02  0.7816164E-02  0.1226708E+00
        -11   -1    0    0    0    0  0.00000000000E+00  0.00000000000E+00  0.45593999997E+02  0.45594000000E+02  0.51100000000E-03 0. -1.
         11   -1    0    0    0    0 -0.00000000000E+00 -0.00000000000E+00 -0.45593999997E+02  0.45594000000E+02  0.51100000000E-03 0.  1.
    9900012    2    1    2    0    0  0.75838647907E+01  0.16545142436E+02 -0.44070428048E+01  0.72461580970E+02  0.70000013907E+02 0.  0.
        -12    1    1    2    0    0 -0.75838647907E+01 -0.16545142436E+02  0.44070428048E+01  0.18726419030E+02  0.00000000000E+00 0.  1.
         11    1    3    3    0    0 -0.17753738030E+02  0.81501319625E+00  0.11847522182E+02  0.21359383012E+02  0.51100000000E-03 0. -1.
        -11    1    3    3    0    0  0.25517197265E+02  0.25883675234E+02 -0.63132231422E+01  0.36891039381E+02  0.51100000000E-03 0.  1.
         12    1    3    3    0    0 -0.17959444409E+00 -0.10153545994E+02 -0.99413418444E+01  0.14211158577E+02  0.00000000000E+00 0. -1.
</event>
<event>
 7    1  0.1920603E-013  0.7246160E+02  0.7816164E-02  0.1226708E+00
        -11   -1    0    0    0    0  0.00000000000E+00  0.00000000000E+00  0.45593999997E+02  0.45594000000E+02  0.51100000000E-03 0.  1.
         11   -1    0    0    0    0 -0.00000000000E+00 -0.00000000000E+00 -0.45593999997E+02  0.45594000000E+02  0.51100000000E-03 0. -1.
    9900012    2    1    2    0    0 -0.13539075480E+02 -0.49434090220E+01 -0.11955502309E+02  0.72461604376E+02  0.70000044397E+02 0.  0.
        -12    1    1    2    0    0  0.13539075480E+02  0.49434090220E+01  0.11955502309E+02  0.18726395624E+02  0.00000000000E+00 0.  1.
         11    1    3    3    0    0 -0.70259689873E+01  0.54603655566E+01 -0.22882332565E+02  0.24551598240E+02  0.51100000000E-03 0. -1.
        -11    1    3    3    0    0  0.73913317142E+01  0.11976762218E+02  0.15752312902E+02  0.21123682912E+02  0.51100000000E-03 0.  1.
        -12    1    3    3    0    0 -0.13904438207E+02 -0.22380536796E+02 -0.48254826456E+01  0.26786323225E+02  0.00000000000E+00 0.  1.
</event>
<event>
 7    1  0.1920603E-013  0.7246154E+02  0.7816164E-02  0.1226708E+00
        -11   -1    0    0    0    0  0.00000000000E+00  0.00000000000E+00  0.45593999997E+02  0.45594000000E+02  0.51100000000E-03 0.  1.
         11   -1    0    0    0    0 -0.00000000000E+00 -0.00000000000E+00 -0.45593999997E+02  0.45594000000E+02  0.51100000000E-03 0. -1.
    9900012    2    1    2    0    0  0.40481455979E+01 -0.28129286995E+01 -0.18065996365E+02  0.72461540769E+02  0.69999961538E+02 0.  0.
        -12    1    1    2    0    0 -0.40481455979E+01  0.28129286995E+01  0.18065996365E+02  0.18726459231E+02  0.00000000000E+00 0.  1.
         11    1    3    3    0    0  0.33163763231E+01 -0.23268034358E+02 -0.76880774165E+01  0.24728653612E+02  0.51100000000E-03 0.  1.
        -11    1    3    3    0    0 -0.19303946547E+02  0.17754136097E+02 -0.39764517631E+01  0.26526663374E+02  0.51100000000E-03 0. -1.
         12    1    3    3    0    0  0.20035715822E+02  0.27009695615E+01 -0.64014671854E+01  0.21206223784E+02  0.00000000000E+00 0. -1.
</event>
<event>
 7    1  0.1920603E-013  0.7246159E+02  0.7816164E-02  0.1226708E+00
        -11   -1    0    0    0    0  0.00000000000E+00  0.00000000000E+00  0.45593999997E+02  0.45594000000E+02  0.51100000000E-03 0.  1.
         11   -1    0    0    0    0 -0.00000000000E+00 -0.00000000000E+00 -0.45593999997E+02  0.45594000000E+02  0.51100000000E-03 0. -1.
    9900012    2    1    2    0    0 -0.12306911667E+02 -0.14104419343E+02 -0.53259545762E+00  0.72461591436E+02  0.70000027541E+02 0.  0.
        -12    1    1    2    0    0  0.12306911667E+02  0.14104419343E+02  0.53259545762E+00  0.18726408564E+02  0.00000000000E+00 0.  1.
         11    1    3    3    0    0  0.76035558801E+01 -0.95636825150E+01 -0.12386473645E+02  0.17398356672E+02  0.51100000000E-03 0. -1.
        -11    1    3    3    0    0 -0.70367656471E+01  0.22109118672E+02  0.10413852694E+02  0.25431821158E+02  0.51100000000E-03 0.  1.
        -12    1    3    3    0    0 -0.12873701900E+02 -0.26649855500E+02  0.14400254938E+01  0.29631413605E+02  0.00000000000E+00 0.  1.
</event>
<event>
 7    1  0.1920603E-013  0.7246146E+02  0.7816164E-02  0.1226708E+00
        -11   -1    0    0    0    0  0.00000000000E+00  0.00000000000E+00  0.45593999997E+02  0.45594000000E+02  0.51100000000E-03 0. -1.
         11   -1    0    0    0    0 -0.00000000000E+00 -0.00000000000E+00 -0.45593999997E+02  0.45594000000E+02  0.51100000000E-03 0.  1.
    9900012    2    1    2    0    0  0.48656376029E+01 -0.88831516040E+01  0.15751142755E+02  0.72461459749E+02  0.69999855994E+02 0.  0.
        -12    1    1    2    0    0 -0.48656376029E+01  0.88831516040E+01 -0.15751142755E+02  0.18726540251E+02  0.00000000000E+00 0.  1.
         11    1    3    3    0    0  0.32334327303E+02  0.45051560066E+01  0.16906547609E+02  0.36764609411E+02  0.51100000000E-03 0. -1.
        -11    1    3    3    0    0 -0.17785939642E+02 -0.16127533601E+02  0.40805313845E+01  0.24353392488E+02  0.51100000000E-03 0.  1.
        -12    1    3    3    0    0 -0.96827500578E+01  0.27392259906E+01 -0.52359362392E+01  0.11343457851E+02  0.00000000000E+00 0.  1.
</event>
<event>
 7    1  0.1920603E-013  0.7246160E+02  0.7816164E-02  0.1226708E+00
        -11   -1    0    0    0    0  0.00000000000E+00  0.00000000000E+00  0.45593999997E+02  0.45594000000E+02  0.51100000000E-03 0. -1.
         11   -1    0    0    0    0 -0.00000000000E+00 -0.00000000000E+00 -0.45593999997E+02  0.45594000000E+02  0.51100000000E-03 0.  1.
    9900012    2    1    2    0    0 -0.31450166296E+01 -0.14703717083E+02  0.11161887321E+02  0.72461597403E+02  0.70000035314E+02 0.  0.
        -12    1    1    2    0    0  0.31450166296E+01  0.14703717083E+02 -0.11161887321E+02  0.18726402597E+02  0.00000000000E+00 0.  1.
         11    1    3    3    0    0 -0.22910267160E+01 -0.84881486256E+01  0.27937930491E+02  0.29288657034E+02  0.51100000000E-03 0. -1.
        -11    1    3    3    0    0 -0.70238712137E+01  0.15595761217E+02 -0.67712713341E+01  0.18395995502E+02  0.51100000000E-03 0.  1.
         12    1    3    3    0    0  0.61698813001E+01 -0.21811329675E+02 -0.10004771835E+02  0.24776944866E+02  0.00000000000E+00 0. -1.
</event>
<event>
 7    1  0.1920603E-013  0.7246156E+02  0.7816164E-02  0.1226708E+00
        -11   -1    0    0    0    0  0.00000000000E+00  0.00000000000E+00  0.45593999997E+02  0.45594000000E+02  0.51100000000E-03 0.  1.
         11   -1    0    0    0    0 -0.00000000000E+00 -0.00000000000E+00 -0.45593999997E+02  0.45594000000E+02  0.51100000000E-03 0. -1.
    9900012    2    1    2    0    0 -0.27631233108E+01 -0.16756085879E+02  0.78916593626E+01  0.72461560084E+02  0.69999986699E+02 0.  0.
        -12    1    1    2    0    0  0.27631233108E+01  0.16756085879E+02 -0.78916593626E+01  0.18726439916E+02  0.00000000000E+00 0.  1.
         11    1    3    3    0    0 -0.49202374171E+01 -0.27707115713E+02 -0.10920076170E+02  0.30185113238E+02  0.51100000000E-03 0. -1.
        -11    1    3    3    0    0  0.17702245454E+02  0.85647908364E+01  0.28542391327E+01  0.19871381871E+02  0.51100000000E-03 0.  1.
         12    1    3    3    0    0 -0.15545131348E+02  0.23862389975E+01  0.15957496400E+02  0.22405064975E+02  0.00000000000E+00 0. -1.
</event>
<event>
 7    1  0.1920603E-013  0.7246165E+02  0.7816164E-02  0.1226708E+00
        -11   -1    0    0    0    0  0.00000000000E+00  0.00000000000E+00  0.45593999997E+02  0.45594000000E+02  0.51100000000E-03 0.  1.
         11   -1    0    0    0    0 -0.00000000000E+00 -0.00000000000E+00 -0.45593999997E+02  0.45594000000E+02  0.51100000000E-03 0. -1.
    9900012    2    1    2    0    0 -0.79807597487E+01  0.97216079171E+01 -0.13873495119E+02  0.72461653494E+02  0.70000108383E+02 0.  0.
        -12    1    1    2    0    0  0.79807597487E+01 -0.97216079171E+01  0.13873495119E+02  0.18726346506E+02  0.00000000000E+00 0.  1.
         11    1    3    3    0    0  0.97433944166E+01  0.49609564352E+01 -0.24637863623E+02  0.26954946628E+02  0.51100000000E-03 0. -1.
        -11    1    3    3    0    0 -0.28084047501E+02  0.10163324663E+02  0.14553476938E+02  0.33223644946E+02  0.51100000000E-03 0.  1.
         12    1    3    3    0    0  0.10359893336E+02 -0.54026731808E+01 -0.37891084334E+01  0.12283061921E+02  0.00000000000E+00 0. -1.
</event>
<event>
 7    1  0.1920603E-013  0.7246159E+02  0.7816164E-02  0.1226708E+00
        -11   -1    0    0    0    0  0.00000000000E+00  0.00000000000E+00  0.45593999997E+02  0.45594000000E+02  0.51100000000E-03 0. -1.
         11   -1    0    0    0    0 -0.00000000000E+00 -0.00000000000E+00 -0.45593999997E+02  0.45594000000E+02  0.51100000000E-03 0.  1.
    9900012    2    1    2    0    0 -0.22916038513E+00 -0.42455232072E+00  0.18720190749E+02  0.72461593489E+02  0.70000030215E+02 0.  0.
        -12    1    1    2    0    0  0.22916038513E+00  0.42455232072E+00 -0.18720190749E+02  0.18726406511E+02  0.00000000000E+00 0.  1.
         11    1    3    3    0    0  0.21853813925E+01 -0.15103562971E+02  0.28608889273E+02  0.32424713599E+02  0.51100000000E-03 0. -1.
        -11    1    3    3    0    0 -0.13473253160E+02  0.19924456328E+02 -0.13092583222E+02  0.27384817807E+02  0.51100000000E-03 0.  1.
        -12    1    3    3    0    0  0.11058711382E+02 -0.52454456775E+01  0.32038846974E+01  0.12652062083E+02  0.00000000000E+00 0.  1.
</event>
<event>
 7    1  0.1920603E-013  0.7246172E+02  0.7816164E-02  0.1226708E+00
        -11   -1    0    0    0    0  0.00000000000E+00  0.00000000000E+00  0.45593999997E+02  0.45594000000E+02  0.51100000000E-03 0. -1.
         11   -1    0    0    0    0 -0.00000000000E+00 -0.00000000000E+00 -0.45593999997E+02  0.45594000000E+02  0.51100000000E-03 0.  1.
    9900012    2    1    2    0    0 -0.38944174482E+01  0.76514640079E+01  0.16642176820E+02  0.72461723327E+02  0.70000199353E+02 0.  0.
        -12    1    1    2    0    0  0.38944174482E+01 -0.76514640079E+01 -0.16642176820E+02  0.18726276673E+02  0.00000000000E+00 0.  1.
         11    1    3    3    0    0 -0.99898193733E+00 -0.17819712929E+02  0.28074493146E+02  0.33267360873E+02  0.51100000000E-03 0. -1.
        -11    1    3    3    0    0 -0.11864825270E+02  0.21276194728E+02 -0.15070072214E+02  0.28645376897E+02  0.51100000000E-03 0.  1.
        -12    1    3    3    0    0  0.89693897589E+01  0.41949822099E+01  0.36377558880E+01  0.10548985557E+02  0.00000000000E+00 0.  1.
</event>
<event>
 7    1  0.1920603E-013  0.7246148E+02  0.7816164E-02  0.1226708E+00
        -11   -1    0    0    0    0  0.00000000000E+00  0.00000000000E+00  0.45593999997E+02  0.45594000000E+02  0.51100000000E-03 0.  1.
         11   -1    0    0    0    0 -0.00000000000E+00 -0.00000000000E+00 -0.45593999997E+02  0.45594000000E+02  0.51100000000E-03 0. -1.
    9900012    2    1    2    0    0 -0.11179704984E+02  0.14926813972E+02  0.16991574108E+01  0.72461475635E+02  0.69999876689E+02 0.  0.
        -12    1    1    2    0    0  0.11179704984E+02 -0.14926813972E+02 -0.16991574108E+01  0.18726524365E+02  0.00000000000E+00 0.  1.
         11    1    3    3    0    0 -0.21496521350E+02  0.22410899386E+01 -0.37192693729E+01  0.21930706309E+02  0.51100000000E-03 0. -1.
        -11    1    3    3    0    0  0.28758995910E+02  0.88685901421E+01  0.88888407661E+01  0.31380618657E+02  0.51100000000E-03 0.  1.
        -12    1    3    3    0    0 -0.18442179544E+02  0.38171338909E+01 -0.34704139824E+01  0.19150150670E+02  0.00000000000E+00 0.  1.
</event>
<event>
 7    1  0.1920603E-013  0.7246155E+02  0.7816164E-02  0.1226708E+00
        -11   -1    0    0    0    0  0.00000000000E+00  0.00000000000E+00  0.45593999997E+02  0.45594000000E+02  0.51100000000E-03 0. -1.
         11   -1    0    0    0    0 -0.00000000000E+00 -0.00000000000E+00 -0.45593999997E+02  0.45594000000E+02  0.51100000000E-03 0.  1.
    9900012    2    1    2    0    0  0.49067071879E+01 -0.15585363909E+02  0.91488039641E+01  0.72461549253E+02  0.69999972590E+02 0.  0.
        -12    1    1    2    0    0 -0.49067071879E+01  0.15585363909E+02 -0.91488039641E+01  0.18726450747E+02  0.00000000000E+00 0.  1.
         11    1    3    3    0    0 -0.19676234030E+02 -0.20938400671E+02  0.25963420715E+02  0.38725573253E+02  0.51100000000E-03 0. -1.
        -11    1    3    3    0    0  0.10691549925E+02 -0.39193943558E+01 -0.23190693561E+01  0.11621057389E+02  0.51100000000E-03 0.  1.
         12    1    3    3    0    0  0.13891391294E+02  0.92724311180E+01 -0.14495547395E+02  0.22114918611E+02  0.00000000000E+00 0. -1.
</event>
<event>
 7    1  0.1920603E-013  0.7246184E+02  0.7816164E-02  0.1226707E+00
        -11   -1    0    0    0    0  0.00000000000E+00  0.00000000000E+00  0.45593999997E+02  0.45594000000E+02  0.51100000000E-03 0. -1.
         11   -1    0    0    0    0 -0.00000000000E+00 -0.00000000000E+00 -0.45593999997E+02  0.45594000000E+02  0.51100000000E-03 0.  1.
    9900012    2    1    2    0    0  0.14281802034E+00 -0.14375509299E+02  0.11999724110E+02  0.72461840668E+02  0.70000352211E+02 0.  0.
        -12    1    1    2    0    0 -0.14281802034E+00  0.14375509299E+02 -0.11999724110E+02  0.18726159332E+02  0.00000000000E+00 0.  1.
         11    1    3    3    0    0 -0.27767452114E+02  0.56683013136E+01 -0.35357709274E+01  0.28559809401E+02  0.51100000000E-03 0. -1.
        -11    1    3    3    0    0  0.24778983519E+02 -0.60508555821E+01  0.47168239852E+01  0.25939531728E+02  0.51100000000E-03 0.  1.
        -12    1    3    3    0    0  0.31312866151E+01 -0.13992955031E+02  0.10818671053E+02  0.17962499539E+02  0.00000000000E+00 0.  1.
</event>
<event>
 7    1  0.1920603E-013  0.7246151E+02  0.7816164E-02  0.1226708E+00
        -11   -1    0    0    0    0  0.00000000000E+00  0.00000000000E+00  0.45593999997E+02  0.45594000000E+02  0.51100000000E-03 0.  1.
         11   -1    0    0    0    0 -0.00000000000E+00 -0.00000000000E+00 -0.45593999997E+02  0.45594000000E+02  0.51100000000E-03 0. -1.
    9900012    2    1    2    0    0  0.15418533606E+02  0.10334232675E+02 -0.24806750109E+01  0.72461513622E+02  0.69999926174E+02 0.  0.
        -12    1    1    2    0    0 -0.15418533606E+02 -0.10334232675E+02  0.24806750109E+01  0.18726486378E+02  0.00000000000E+00 0.  1.
         11    1    3    3    0    0  0.21154187304E+02  0.12156054247E+02 -0.12294325257E+02  0.27320683175E+02  0.51100000000E-03 0. -1.
        -11    1    3    3    0    0 -0.11389760703E+02  0.68177729938E+01 -0.13934451065E+02  0.19245196913E+02  0.51100000000E-03 0.  1.
        -12    1    3    3    0    0  0.56541070050E+01 -0.86395945658E+01  0.23748101311E+02  0.25895633535E+02  0.00000000000E+00 0.  1.
</event>
<event>
 7    1  0.1920603E-013  0.7246117E+02  0.7816164E-02  0.1226709E+00
        -11   -1    0    0    0    0  0.00000000000E+00  0.00000000000E+00  0.45593999997E+02  0.45594000000E+02  0.51100000000E-03 0. -1.
         11   -1    0    0    0    0 -0.00000000000E+00 -0.00000000000E+00 -0.45593999997E+02  0.45594000000E+02  0.51100000000E-03 0.  1.
    9900012    2    1    2    0    0  0.17024087597E+02 -0.21764016305E+01  0.74925115888E+01  0.72461173989E+02  0.69999483736E+02 0.  0.
        -12    1    1    2    0    0 -0.17024087597E+02  0.21764016305E+01 -0.74925115888E+01  0.18726826011E+02  0.00000000000E+00 0.  1.
         11    1    3    3    0    0  0.48207517665E+01 -0.18894248484E+02  0.17599784553E+02  0.26267559649E+02  0.51100000000E-03 0. -1.
        -11    1    3    3    0    0 -0.59614227715E+01  0.11357689439E+02 -0.20805449157E+02  0.24441816335E+02  0.51100000000E-03 0.  1.
        -12    1    3    3    0    0  0.18164758602E+02  0.53601574149E+01  0.10698176193E+02  0.21751798004E+02  0.00000000000E+00 0.  1.
</event>
<event>
 7    1  0.1920603E-013  0.7246157E+02  0.7816164E-02  0.1226708E+00
        -11   -1    0    0    0    0  0.00000000000E+00  0.00000000000E+00  0.45593999997E+02  0.45594000000E+02  0.51100000000E-03 0.  1.
         11   -1    0    0    0    0 -0.00000000000E+00 -0.00000000000E+00 -0.45593999997E+02  0.45594000000E+02  0.51100000000E-03 0. -1.
    9900012    2    1    2    0    0  0.12318896166E+02  0.79693647709E+01 -0.11636719383E+02  0.72461569064E+02  0.69999998398E+02 0.  0.
        -12    1    1    2    0    0 -0.12318896166E+02 -0.79693647709E+01  0.11636719383E+02  0.18726430936E+02  0.00000000000E+00 0.  1.
         11    1    3    3    0    0 -0.82744361010E+01 -0.21857132417E+01  0.27507441958E+01  0.89894509875E+01  0.51100000000E-03 0. -1.
        -11    1    3    3    0    0  0.16808295580E+02 -0.87331550915E+01 -0.32120158521E+02  0.37289293125E+02  0.51100000000E-03 0.  1.
        -12    1    3    3    0    0  0.37850366874E+01  0.18888233104E+02  0.17732694942E+02  0.26182824951E+02  0.00000000000E+00 0.  1.
</event>
<event>
 7    1  0.1920603E-013  0.7246165E+02  0.7816164E-02  0.1226708E+00
        -11   -1    0    0    0    0  0.00000000000E+00  0.00000000000E+00  0.45593999997E+02  0.45594000000E+02  0.51100000000E-03 0. -1.
         11   -1    0    0    0    0 -0.00000000000E+00 -0.00000000000E+00 -0.45593999997E+02  0.45594000000E+02  0.51100000000E-03 0.  1.
    9900012    2    1    2    0    0 -0.11705131727E+02  0.19350401699E+00  0.14616043821E+02  0.72461647191E+02  0.70000100172E+02 0.  0.
        -12    1    1    2    0    0  0.11705131727E+02 -0.19350401699E+00 -0.14616043821E+02  0.18726352809E+02  0.00000000000E+00 0.  1.
         11    1    3    3    0    0  0.20427096752E+02 -0.18059134006E+02 -0.67810661718E+00  0.27273768196E+02  0.51100000000E-03 0. -1.
        -11    1    3    3    0    0 -0.17274613832E+01  0.11055734863E+02  0.27798905336E+01  0.11530012482E+02  0.51100000000E-03 0.  1.
         12    1    3    3    0    0 -0.30404767095E+02  0.71969031605E+01  0.12514259905E+02  0.33657866513E+02  0.00000000000E+00 0. -1.
</event>
<event>
 7    1  0.1920603E-013  0.7246157E+02  0.7816164E-02  0.1226708E+00
        -11   -1    0    0    0    0  0.00000000000E+00  0.00000000000E+00  0.45593999997E+02  0.45594000000E+02  0.51100000000E-03 0. -1.
         11   -1    0    0    0    0 -0.00000000000E+00 -0.00000000000E+00 -0.45593999997E+02  0.45594000000E+02  0.51100000000E-03 0.  1.
    9900012    2    1    2    0    0  0.14578018305E+02  0.10610683393E+02  0.50570733734E+01  0.72461569190E+02  0.69999998562E+02 0.  0.
        -12    1    1    2    0    0 -0.14578018305E+02 -0.10610683393E+02 -0.50570733734E+01  0.18726430810E+02  0.00000000000E+00 0.  1.
         11    1    3    3    0    0 -0.86160840205E+01  0.23920743156E+02 -0.10072517274E+02  0.27347659159E+02  0.51100000000E-03 0. -1.
        -11    1    3    3    0    0  0.26531673829E+02  0.11754356220E+01  0.47385277705E+01  0.26977120134E+02  0.51100000000E-03 0.  1.
         12    1    3    3    0    0 -0.33375715036E+01 -0.14485495384E+02  0.10391062877E+02  0.18136789897E+02  0.00000000000E+00 0. -1.
</event>
<event>
 7    1  0.1920603E-013  0.7246159E+02  0.7816164E-02  0.1226708E+00
        -11   -1    0    0    0    0  0.00000000000E+00  0.00000000000E+00  0.45593999997E+02  0.45594000000E+02  0.51100000000E-03 0.  1.
         11   -1    0    0    0    0 -0.00000000000E+00 -0.00000000000E+00 -0.45593999997E+02  0.45594000000E+02  0.51100000000E-03 0. -1.
    9900012    2    1    2    0    0  0.18688600633E+02 -0.11574672878E+01 -0.27396254887E+00  0.72461586044E+02  0.70000020517E+02 0.  0.
        -12    1    1    2    0    0 -0.18688600633E+02  0.11574672878E+01  0.27396254887E+00  0.18726413956E+02  0.00000000000E+00 0.  1.
         11    1    3    3    0    0  0.94023760248E+01  0.12861021703E+02  0.30617076712E+02  0.34513996303E+02  0.51100000000E-03 0. -1.
        -11    1    3    3    0    0  0.63850162605E+01 -0.10584378003E+02 -0.82425108164E+01  0.14857202805E+02  0.51100000000E-03 0.  1.
         12    1    3    3    0    0  0.29012083481E+01 -0.34341109870E+01 -0.22648528445E+02  0.23090386936E+02  0.00000000000E+00 0. -1.
</event>
<event>
 7    1  0.1920603E-013  0.7246177E+02  0.7816164E-02  0.1226707E+00
        -11   -1    0    0    0    0  0.00000000000E+00  0.00000000000E+00  0.45593999997E+02  0.45594000000E+02  0.51100000000E-03 0.  1.
         11   -1    0    0    0    0 -0.00000000000E+00 -0.00000000000E+00 -0.45593999997E+02  0.45594000000E+02  0.51100000000E-03 0. -1.
    9900012    2    1    2    0    0  0.18171108995E+01  0.24497817118E+01 -0.18476153821E+02  0.72461772871E+02  0.70000263893E+02 0.  0.
        -12    1    1    2    0    0 -0.18171108995E+01 -0.24497817118E+01  0.18476153821E+02  0.18726227129E+02  0.00000000000E+00 0.  1.
         11    1    3    3    0    0  0.19213541023E+02  0.50881877551E+01 -0.23459086872E+02  0.30747009129E+02  0.51100000000E-03 0. -1.
        -11    1    3    3    0    0 -0.16196586026E+02 -0.51662117907E+01  0.20108856302E+02  0.26332209273E+02  0.51100000000E-03 0.  1.
         12    1    3    3    0    0 -0.11998440976E+01  0.25278057473E+01 -0.15125923252E+02  0.15382554468E+02  0.00000000000E+00 0. -1.
</event>
<event>
 7    1  0.1920603E-013  0.7246153E+02  0.7816164E-02  0.1226708E+00
        -11   -1    0    0    0    0  0.00000000000E+00  0.00000000000E+00  0.45593999997E+02  0.45594000000E+02  0.51100000000E-03 0.  1.
         11   -1    0    0    0    0 -0.00000000000E+00 -0.00000000000E+00 -0.45593999997E+02  0.45594000000E+02  0.51100000000E-03 0. -1.
    9900012    2    1    2    0    0 -0.10652364333E+02  0.15886411429E+01 -0.15319403336E+02  0.72461527691E+02  0.69999944501E+02 0.  0.
        -12    1    1    2    0    0  0.10652364333E+02 -0.15886411429E+01  0.15319403336E+02  0.18726472309E+02  0.00000000000E+00 0.  1.
         11    1    3    3    0    0 -0.19268843803E+02  0.82315967834E+00 -0.20402351417E+02  0.28075289437E+02  0.51100000000E-03 0. -1.
        -11    1    3    3    0    0  0.25135505202E+02  0.50249291681E+01 -0.24260319239E+01  0.25747410861E+02  0.51100000000E-03 0.  1.
        -12    1    3    3    0    0 -0.16519025732E+02 -0.42594477035E+01  0.75089800046E+01  0.18638827393E+02  0.00000000000E+00 0.  1.
</event>
<event>
 7    1  0.1920603E-013  0.7246158E+02  0.7816164E-02  0.1226708E+00
        -11   -1    0    0    0    0  0.00000000000E+00  0.00000000000E+00  0.45593999997E+02  0.45594000000E+02  0.51100000000E-03 0.  1.
         11   -1    0    0    0    0 -0.00000000000E+00 -0.00000000000E+00 -0.45593999997E+02  0.45594000000E+02  0.51100000000E-03 0. -1.
    9900012    2    1    2    0    0 -0.55654661637E+01  0.12163212952E+02 -0.13105748573E+02  0.72461579931E+02  0.70000012553E+02 0.  0.
        -12    1    1    2    0    0  0.55654661637E+01 -0.12163212952E+02  0.13105748573E+02  0.18726420069E+02  0.00000000000E+00 0.  1.
         11    1    3    3    0    0  0.14534534018E+02  0.17844763019E+02  0.10730363786E+02  0.25393482501E+02  0.51100000000E-03 0. -1.
        -11    1    3    3    0    0 -0.19134896237E+02 -0.19727587128E+01  0.34250726540E+01  0.19538862656E+02  0.51100000000E-03 0.  1.
         12    1    3    3    0    0 -0.96510394497E+00 -0.37087913536E+01 -0.27261185013E+02  0.27529234774E+02  0.00000000000E+00 0. -1.
</event>
<event>
 7    1  0.1920603E-013  0.7246155E+02  0.7816164E-02  0.1226708E+00
        -11   -1    0    0    0    0  0.00000000000E+00  0.00000000000E+00  0.45593999997E+02  0.45594000000E+02  0.51100000000E-03 0.  1.
         11   -1    0    0    0    0 -0.00000000000E+00 -0.00000000000E+00 -0.45593999997E+02  0.45594000000E+02  0.51100000000E-03 0. -1.
    9900012    2    1    2    0    0  0.17767296011E+02  0.30201881580E-01 -0.59162567475E+01  0.72461553098E+02  0.69999977598E+02 0.  0.
        -12    1    1    2    0    0 -0.17767296011E+02 -0.30201881580E-01  0.59162567475E+01  0.18726446902E+02  0.00000000000E+00 0.  1.
         11    1    3    3    0    0 -0.26176217177E+01 -0.74189018469E+01  0.10398776242E+02  0.13039424668E+02  0.51100000000E-03 0.  1.
        -11    1    3    3    0    0 -0.58549101072E+01  0.21584140041E+02 -0.19203569904E+02  0.29477655453E+02  0.51100000000E-03 0. -1.
        -12    1    3    3    0    0  0.26239827836E+02 -0.14135036312E+02  0.28885369148E+01  0.29944472977E+02  0.00000000000E+00 0.  1.
</event>
<event>
 7    1  0.1920603E-013  0.7246154E+02  0.7816164E-02  0.1226708E+00
        -11   -1    0    0    0    0  0.00000000000E+00  0.00000000000E+00  0.45593999997E+02  0.45594000000E+02  0.51100000000E-03 0. -1.
         11   -1    0    0    0    0 -0.00000000000E+00 -0.00000000000E+00 -0.45593999997E+02  0.45594000000E+02  0.51100000000E-03 0.  1.
    9900012    2    1    2    0    0 -0.15885452462E+02  0.98348405998E+01  0.12683201730E+01  0.72461539427E+02  0.69999959789E+02 0.  0.
        -12    1    1    2    0    0  0.15885452462E+02 -0.98348405998E+01 -0.12683201730E+01  0.18726460573E+02  0.00000000000E+00 0.  1.
         11    1    3    3    0    0 -0.12829372934E+02 -0.12138089439E+02  0.20342500481E+02  0.26939624184E+02  0.51100000000E-03 0. -1.
        -11    1    3    3    0    0 -0.83585250757E+01  0.43531579806E+01 -0.24572437749E+02  0.26317667508E+02  0.51100000000E-03 0.  1.
         12    1    3    3    0    0  0.53024455474E+01  0.17619772058E+02  0.54982574412E+01  0.19204247735E+02  0.00000000000E+00 0. -1.
</event>
<event>
 7    1  0.1920603E-013  0.7246157E+02  0.7816164E-02  0.1226708E+00
        -11   -1    0    0    0    0  0.00000000000E+00  0.00000000000E+00  0.45593999997E+02  0.45594000000E+02  0.51100000000E-03 0. -1.
         11   -1    0    0    0    0 -0.00000000000E+00 -0.00000000000E+00 -0.45593999997E+02  0.45594000000E+02  0.51100000000E-03 0.  1.
    9900012    2    1    2    0    0  0.49279438269E+01  0.13429025480E+02  0.12085358093E+02  0.72461568521E+02  0.69999997690E+02 0.  0.
        -12    1    1    2    0    0 -0.49279438269E+01 -0.13429025480E+02 -0.12085358093E+02  0.18726431479E+02  0.00000000000E+00 0.  1.
         11    1    3    3    0    0  0.37409325004E+01 -0.13053927525E+02  0.19206115533E+02  0.23521787218E+02  0.51100000000E-03 0. -1.
        -11    1    3    3    0    0 -0.11185268939E+02  0.29089522437E+01 -0.16988018044E+02  0.20546654271E+02  0.51100000000E-03 0.  1.
        -12    1    3    3    0    0  0.12372280266E+02  0.23574000761E+02  0.98672606039E+01  0.28393127033E+02  0.00000000000E+00 0.  1.
</event>
<event>
 7    1  0.1920603E-013  0.7246159E+02  0.7816164E-02  0.1226708E+00
        -11   -1    0    0    0    0  0.00000000000E+00  0.00000000000E+00  0.45593999997E+02  0.45594000000E+02  0.51100000000E-03 0. -1.
         11   -1    0    0    0    0 -0.00000000000E+00 -0.00000000000E+00 -0.45593999997E+02  0.45594000000E+02  0.51100000000E-03 0.  1.
    9900012    2    1    2    0    0  0.95865094813E+01  0.95891408097E+01  0.12916104396E+02  0.72461587149E+02  0.70000021957E+02 0.  0.
        -12    1    1    2    0    0 -0.95865094813E+01 -0.95891408097E+01 -0.12916104396E+02  0.18726412851E+02  0.00000000000E+00 0.  1.
         11    1    3    3    0    0  0.12483149516E+02  0.35903838346E+02 -0.44168837495E+01  0.38267786611E+02  0.51100000000E-03 0. -1.
        -11    1    3    3    0    0  0.10209591842E+01 -0.25434195297E+02  0.14750338658E+02  0.29419604668E+02  0.51100000000E-03 0.  1.
         12    1    3    3    0    0 -0.39175992187E+01 -0.88050223956E+00  0.25826494870E+01  0.47741958700E+01  0.00000000000E+00 0. -1.
</event>
<event>
 7    1  0.1920603E-013  0.7246150E+02  0.7816164E-02  0.1226708E+00
        -11   -1    0    0    0    0  0.00000000000E+00  0.00000000000E+00  0.45593999997E+02  0.45594000000E+02  0.51100000000E-03 0.  1.
         11   -1    0    0    0    0 -0.00000000000E+00 -0.00000000000E+00 -0.45593999997E+02  0.45594000000E+02  0.51100000000E-03 0. -1.
    9900012    2    1    2    0    0 -0.96495869246E+01 -0.12996931220E+02 -0.94152515379E+01  0.72461502451E+02  0.69999911621E+02 0.  0.
        -12    1    1    2    0    0  0.96495869246E+01  0.12996931220E+02  0.94152515379E+01  0.18726497549E+02  0.00000000000E+00 0.  1.
         11    1    3    3    0    0 -0.19278617674E+01  0.14665031467E+02 -0.13432802267E+02  0.19980489883E+02  0.51100000000E-03 0.  1.
        -11    1    3    3    0    0 -0.56218812984E+01 -0.38004976411E+02  0.10834270412E+02  0.39916978806E+02  0.51100000000E-03 0. -1.
         12    1    3    3    0    0 -0.20998438588E+01  0.10343013724E+02 -0.68167196829E+01  0.12564033762E+02  0.00000000000E+00 0. -1.
</event>
<event>
 7    1  0.1920603E-013  0.7246155E+02  0.7816164E-02  0.1226708E+00
        -11   -1    0    0    0    0  0.00000000000E+00  0.00000000000E+00  0.45593999997E+02  0.45594000000E+02  0.51100000000E-03 0.  1.
         11   -1    0    0    0    0 -0.00000000000E+00 -0.00000000000E+00 -0.45593999997E+02  0.45594000000E+02  0.51100000000E-03 0. -1.
    9900012    2    1    2    0    0  0.88028863456E+01  0.11570961764E+02 -0.11802617690E+02  0.72461554835E+02  0.69999979862E+02 0.  0.
        -12    1    1    2    0    0 -0.88028863456E+01 -0.11570961764E+02  0.11802617690E+02  0.18726445165E+02  0.00000000000E+00 0.  1.
         11    1    3    3    0    0  0.20943688376E+02  0.15803883215E+02  0.17877643136E+02  0.31749187893E+02  0.51100000000E-03 0. -1.
        -11    1    3    3    0    0 -0.68937719249E+01 -0.10828202453E+01  0.29039477919E+01  0.75584061862E+01  0.51100000000E-03 0.  1.
         12    1    3    3    0    0 -0.52470301060E+01 -0.31501012058E+01 -0.32584208618E+02  0.33153960756E+02  0.00000000000E+00 0. -1.
</event>
<event>
 7    1  0.1920603E-013  0.7246155E+02  0.7816164E-02  0.1226708E+00
        -11   -1    0    0    0    0  0.00000000000E+00  0.00000000000E+00  0.45593999997E+02  0.45594000000E+02  0.51100000000E-03 0. -1.
         11   -1    0    0    0    0 -0.00000000000E+00 -0.00000000000E+00 -0.45593999997E+02  0.45594000000E+02  0.51100000000E-03 0.  1.
    9900012    2    1    2    0    0  0.18204644055E+02 -0.42167927170E+01 -0.12204866753E+01  0.72461548288E+02  0.69999971333E+02 0.  0.
        -12    1    1    2    0    0 -0.18204644055E+02  0.42167927170E+01  0.12204866753E+01  0.18726451712E+02  0.00000000000E+00 0.  1.
         11    1    3    3    0    0  0.14426880520E+01 -0.25525254577E+02 -0.71644264909E+01  0.26550875263E+02  0.51100000000E-03 0. -1.
        -11    1    3    3    0    0  0.22888824670E+02  0.52168503013E+01  0.13529351371E+02  0.27095334850E+02  0.51100000000E-03 0.  1.
         12    1    3    3    0    0 -0.61268686666E+01  0.16091611558E+02 -0.75854115551E+01  0.18815338176E+02  0.00000000000E+00 0. -1.
</event>
<event>
 7    1  0.1920603E-013  0.7246154E+02  0.7816164E-02  0.1226708E+00
        -11   -1    0    0    0    0  0.00000000000E+00  0.00000000000E+00  0.45593999997E+02  0.45594000000E+02  0.51100000000E-03 0.  1.
         11   -1    0    0    0    0 -0.00000000000E+00 -0.00000000000E+00 -0.45593999997E+02  0.45594000000E+02  0.51100000000E-03 0. -1.
    9900012    2    1    2    0    0 -0.10411263353E+02  0.78199054727E+01 -0.13458646297E+02  0.72461535135E+02  0.69999954198E+02 0.  0.
        -12    1    1    2    0    0  0.10411263353E+02 -0.78199054727E+01  0.13458646297E+02  0.18726464865E+02  0.00000000000E+00 0.  1.
         11    1    3    3    0    0  0.20134483021E+01  0.11960269477E+02 -0.19238934796E+02  0.22742880916E+02  0.51100000000E-03 0. -1.
        -11    1    3    3    0    0 -0.12788457763E+02  0.15523243714E+02  0.17640204933E+02  0.26752431248E+02  0.51100000000E-03 0.  1.
        -12    1    3    3    0    0  0.36374610723E+00 -0.19663607718E+02 -0.11859916434E+02  0.22966222970E+02  0.00000000000E+00 0.  1.
</event>
<event>
 7    1  0.1920603E-013  0.7246159E+02  0.7816164E-02  0.1226708E+00
        -11   -1    0    0    0    0  0.00000000000E+00  0.00000000000E+00  0.45593999997E+02  0.45594000000E+02  0.51100000000E-03 0.  1.
         11   -1    0    0    0    0 -0.00000000000E+00 -0.00000000000E+00 -0.45593999997E+02  0.45594000000E+02  0.51100000000E-03 0. -1.
    9900012    2    1    2    0    0  0.16767328401E+02  0.83297006217E+01 -0.38870143520E+00  0.72461593432E+02  0.70000030141E+02 0.  0.
        -12    1    1    2    0    0 -0.16767328401E+02 -0.83297006217E+01  0.38870143520E+00  0.18726406568E+02  0.00000000000E+00 0.  1.
         11    1    3    3    0    0  0.69508055622E+01 -0.18493020885E+02  0.52535888279E+01  0.20442742361E+02  0.51100000000E-03 0. -1.
        -11    1    3    3    0    0 -0.14710175696E+02  0.22061008389E+02 -0.55434824227E+00  0.26521400084E+02  0.51100000000E-03 0.  1.
         12    1    3    3    0    0  0.24526698535E+02  0.47617131175E+01 -0.50879420208E+01  0.25497450987E+02  0.00000000000E+00 0. -1.
</event>
<event>
 7    1  0.1920603E-013  0.7246154E+02  0.7816164E-02  0.1226708E+00
        -11   -1    0    0    0    0  0.00000000000E+00  0.00000000000E+00  0.45593999997E+02  0.45594000000E+02  0.51100000000E-03 0.  1.
         11   -1    0    0    0    0 -0.00000000000E+00 -0.00000000000E+00 -0.45593999997E+02  0.45594000000E+02  0.51100000000E-03 0. -1.
    9900012    2    1    2    0    0 -0.14327616315E+02 -0.45350728752E+01 -0.11172867213E+02  0.72461536453E+02  0.69999955915E+02 0.  0.
        -12    1    1    2    0    0  0.14327616315E+02  0.45350728752E+01  0.11172867213E+02  0.18726463547E+02  0.00000000000E+00 0.  1.
         11    1    3    3    0    0  0.46145668887E+01 -0.15438312520E+02 -0.20225344753E+02  0.25859239967E+02  0.51100000000E-03 0. -1.
        -11    1    3    3    0    0 -0.63145714552E+00  0.77543628852E+01  0.22408325527E+02  0.23720496097E+02  0.51100000000E-03 0.  1.
         12    1    3    3    0    0 -0.18310726058E+02  0.31488767592E+01 -0.13355847987E+02  0.22881800389E+02  0.00000000000E+00 0. -1.
</event>
<event>
 7    1  0.1920603E-013  0.7246158E+02  0.7816164E-02  0.1226708E+00
        -11   -1    0    0    0    0  0.00000000000E+00  0.00000000000E+00  0.45593999997E+02  0.45594000000E+02  0.51100000000E-03 0.  1.
         11   -1    0    0    0    0 -0.00000000000E+00 -0.00000000000E+00 -0.45593999997E+02  0.45594000000E+02  0.51100000000E-03 0. -1.
    9900012    2    1    2    0    0  0.15922449571E+02  0.97092847512E+01 -0.16982684201E+01  0.72461582127E+02  0.70000015414E+02 0.  0.
        -12    1    1    2    0    0 -0.15922449571E+02 -0.97092847512E+01  0.16982684201E+01  0.18726417873E+02  0.00000000000E+00 0.  1.
         11    1    3    3    0    0  0.28262992876E+02  0.88511349714E+01 -0.17780966367E+02  0.34544205329E+02  0.51100000000E-03 0. -1.
        -11    1    3    3    0    0 -0.38521198170E+01  0.13934793165E+02  0.16980468269E+02  0.22301425752E+02  0.51100000000E-03 0.  1.
         12    1    3    3    0    0 -0.84884234875E+01 -0.13076643386E+02 -0.89777032220E+00  0.15615951047E+02  0.00000000000E+00 0. -1.
</event>
<event>
 7    1  0.1920603E-013  0.7246198E+02  0.7816164E-02  0.1226707E+00
        -11   -1    0    0    0    0  0.00000000000E+00  0.00000000000E+00  0.45593999997E+02  0.45594000000E+02  0.51100000000E-03 0.  1.
         11   -1    0    0    0    0 -0.00000000000E+00 -0.00000000000E+00 -0.45593999997E+02  0.45594000000E+02  0.51100000000E-03 0. -1.
    9900012    2    1    2    0    0 -0.15546637951E+02  0.20082363843E+01  0.10243666625E+02  0.72461984116E+02  0.70000539078E+02 0.  0.
        -12    1    1    2    0    0  0.15546637951E+02 -0.20082363843E+01 -0.10243666625E+02  0.18726015884E+02  0.00000000000E+00 0.  1.
         11    1    3    3    0    0  0.43724163823E+01  0.67560018792E+01 -0.98344172962E+01  0.12707373853E+02  0.51100000000E-03 0. -1.
        -11    1    3    3    0    0 -0.40138215192E+01  0.25023275360E+01  0.35880383407E+02  0.36190804356E+02  0.51100000000E-03 0.  1.
        -12    1    3    3    0    0 -0.15905232814E+02 -0.72500930309E+01 -0.15802299485E+02  0.23563805907E+02  0.00000000000E+00 0.  1.
</event>
<event>
 7    1  0.1920603E-013  0.7246147E+02  0.7816164E-02  0.1226708E+00
        -11   -1    0    0    0    0  0.00000000000E+00  0.00000000000E+00  0.45593999997E+02  0.45594000000E+02  0.51100000000E-03 0. -1.
         11   -1    0    0    0    0 -0.00000000000E+00 -0.00000000000E+00 -0.45593999997E+02  0.45594000000E+02  0.51100000000E-03 0.  1.
    9900012    2    1    2    0    0 -0.14097086017E+02  0.47612437203E+01  0.11370383687E+02  0.72461470660E+02  0.69999870208E+02 0.  0.
        -12    1    1    2    0    0  0.14097086017E+02 -0.47612437203E+01 -0.11370383687E+02  0.18726529340E+02  0.00000000000E+00 0.  1.
         11    1    3    3    0    0  0.44824820445E+01 -0.19688484923E+01  0.19930021539E+02  0.20522542933E+02  0.51100000000E-03 0. -1.
        -11    1    3    3    0    0 -0.26883921579E+02  0.21393537437E+02 -0.64186724984E+01  0.34951795954E+02  0.51100000000E-03 0.  1.
        -12    1    3    3    0    0  0.83043535175E+01 -0.14663445225E+02 -0.21409653530E+01  0.16987131772E+02  0.00000000000E+00 0.  1.
</event>
<event>
 7    1  0.1920603E-013  0.7246079E+02  0.7816164E-02  0.1226710E+00
        -11   -1    0    0    0    0  0.00000000000E+00  0.00000000000E+00  0.45593999997E+02  0.45594000000E+02  0.51100000000E-03 0.  1.
         11   -1    0    0    0    0 -0.00000000000E+00 -0.00000000000E+00 -0.45593999997E+02  0.45594000000E+02  0.51100000000E-03 0. -1.
    9900012    2    1    2    0    0  0.15145194231E+02  0.10079743653E+02 -0.44418820699E+01  0.72460788336E+02  0.69998981346E+02 0.  0.
        -12    1    1    2    0    0 -0.15145194231E+02 -0.10079743653E+02  0.44418820699E+01  0.18727211664E+02  0.00000000000E+00 0.  1.
         11    1    3    3    0    0 -0.13793790456E+02  0.24366916596E+01 -0.24267802066E+02  0.28020213039E+02  0.51100000000E-03 0. -1.
        -11    1    3    3    0    0  0.10476066057E+02  0.14440947047E+02  0.16854032033E+02  0.24542764874E+02  0.51100000000E-03 0.  1.
        -12    1    3    3    0    0  0.18462918631E+02 -0.67978950538E+01  0.29718879623E+01  0.19897810422E+02  0.00000000000E+00 0.  1.
</event>
<event>
 7    1  0.1920603E-013  0.7246161E+02  0.7816164E-02  0.1226708E+00
        -11   -1    0    0    0    0  0.00000000000E+00  0.00000000000E+00  0.45593999997E+02  0.45594000000E+02  0.51100000000E-03 0.  1.
         11   -1    0    0    0    0 -0.00000000000E+00 -0.00000000000E+00 -0.45593999997E+02  0.45594000000E+02  0.51100000000E-03 0. -1.
    9900012    2    1    2    0    0  0.37395766935E+01  0.17516020743E+02 -0.54664776806E+01  0.72461607001E+02  0.70000047817E+02 0.  0.
        -12    1    1    2    0    0 -0.37395766935E+01 -0.17516020743E+02  0.54664776806E+01  0.18726392999E+02  0.00000000000E+00 0.  1.
         11    1    3    3    0    0  0.21626642619E+01 -0.15370682494E+01 -0.41705505976E+01  0.49429938359E+01  0.51100000000E-03 0. -1.
        -11    1    3    3    0    0  0.20307546639E+02  0.34019201162E+02  0.10226621726E+02  0.40918043579E+02  0.51100000000E-03 0.  1.
        -12    1    3    3    0    0 -0.18730634207E+02 -0.14966112169E+02 -0.11522548809E+02  0.26600569586E+02  0.00000000000E+00 0.  1.
</event>
<event>
 7    1  0.1920603E-013  0.7246156E+02  0.7816164E-02  0.1226708E+00
        -11   -1    0    0    0    0  0.00000000000E+00  0.00000000000E+00  0.45593999997E+02  0.45594000000E+02  0.51100000000E-03 0.  1.
         11   -1    0    0    0    0 -0.00000000000E+00 -0.00000000000E+00 -0.45593999997E+02  0.45594000000E+02  0.51100000000E-03 0. -1.
    9900012    2    1    2    0    0 -0.92990244251E+01  0.29826765370E+00 -0.16251727602E+02  0.72461562301E+02  0.69999989587E+02 0.  0.
        -12    1    1    2    0    0  0.92990244251E+01 -0.29826765370E+00  0.16251727602E+02  0.18726437699E+02  0.00000000000E+00 0.  1.
         11    1    3    3    0    0 -0.78215487267E+01  0.24040394000E+02 -0.68936986488E+01  0.26203821276E+02  0.51100000000E-03 0. -1.
        -11    1    3    3    0    0  0.12073422090E+02 -0.11587461840E+02  0.10153121218E+02  0.19573519448E+02  0.51100000000E-03 0.  1.
         12    1    3    3    0    0 -0.13550897789E+02 -0.12154664506E+02 -0.19511150171E+02  0.26684221576E+02  0.00000000000E+00 0. -1.
</event>
<event>
 7    1  0.1920603E-013  0.7246158E+02  0.7816164E-02  0.1226708E+00
        -11   -1    0    0    0    0  0.00000000000E+00  0.00000000000E+00  0.45593999997E+02  0.45594000000E+02  0.51100000000E-03 0.  1.
         11   -1    0    0    0    0 -0.00000000000E+00 -0.00000000000E+00 -0.45593999997E+02  0.45594000000E+02  0.51100000000E-03 0. -1.
    9900012    2    1    2    0    0 -0.11721000755E+02 -0.27030059286E+01 -0.14352382810E+02  0.72461575032E+02  0.70000006172E+02 0.  0.
        -12    1    1    2    0    0  0.11721000755E+02  0.27030059286E+01  0.14352382810E+02  0.18726424968E+02  0.00000000000E+00 0.  1.
         11    1    3    3    0    0 -0.71582154567E+01  0.10945708105E+02 -0.13790732703E+02  0.19006127518E+02  0.51100000000E-03 0. -1.
        -11    1    3    3    0    0 -0.79692306166E+01 -0.32917076735E+02 -0.10115158022E+01  0.33883118833E+02  0.51100000000E-03 0.  1.
        -12    1    3    3    0    0  0.34064453182E+01  0.19268362701E+02  0.44986569573E+00  0.19572328682E+02  0.00000000000E+00 0.  1.
</event>
<event>
 7    1  0.1920603E-013  0.7246157E+02  0.7816164E-02  0.1226708E+00
        -11   -1    0    0    0    0  0.00000000000E+00  0.00000000000E+00  0.45593999997E+02  0.45594000000E+02  0.51100000000E-03 0. -1.
         11   -1    0    0    0    0 -0.00000000000E+00 -0.00000000000E+00 -0.45593999997E+02  0.45594000000E+02  0.51100000000E-03 0.  1.
    9900012    2    1    2    0    0  0.72503112607E+00  0.16040609865E+02  0.96359890643E+01  0.72461571610E+02  0.70000001714E+02 0.  0.
        -12    1    1    2    0    0 -0.72503112607E+00 -0.16040609865E+02 -0.96359890643E+01  0.18726428390E+02  0.00000000000E+00 0.  1.
         11    1    3    3    0    0  0.26402115741E+02  0.57980091777E+01 -0.13175730469E+02  0.30071390052E+02  0.51100000000E-03 0. -1.
        -11    1    3    3    0    0 -0.14204426394E+02 -0.61406909655E+01  0.12469267292E+02  0.19873511058E+02  0.51100000000E-03 0.  1.
        -12    1    3    3    0    0 -0.11472658220E+02  0.16383291653E+02  0.10342452241E+02  0.22516670500E+02  0.00000000000E+00 0.  1.
</event>
<event>
 7    1  0.1920603E-013  0.7246095E+02  0.7816164E-02  0.1226710E+00
        -11   -1    0    0    0    0  0.00000000000E+00  0.00000000000E+00  0.45593999997E+02  0.45594000000E+02  0.51100000000E-03 0. -1.
         11   -1    0    0    0    0 -0.00000000000E+00 -0.00000000000E+00 -0.45593999997E+02  0.45594000000E+02  0.51100000000E-03 0.  1.
    9900012    2    1    2    0    0  0.22996129181E+01 -0.33692500446E+01  0.18277372313E+02  0.72460949936E+02  0.69999191863E+02 0.  0.
        -12    1    1    2    0    0 -0.22996129181E+01  0.33692500446E+01 -0.18277372313E+02  0.18727050064E+02  0.00000000000E+00 0.  1.
         11    1    3    3    0    0 -0.38330334990E+01  0.28979810229E+02 -0.72355429618E+01  0.30114359182E+02  0.51100000000E-03 0. -1.
        -11    1    3    3    0    0  0.19998374320E+01 -0.24683406333E+02  0.16179340491E+02  0.29581091206E+02  0.51100000000E-03 0.  1.
         12    1    3    3    0    0  0.41328089852E+01 -0.76656539412E+01  0.93335747842E+01  0.12765499548E+02  0.00000000000E+00 0. -1.
</event>
<event>
 7    1  0.1920603E-013  0.7246157E+02  0.7816164E-02  0.1226708E+00
        -11   -1    0    0    0    0  0.00000000000E+00  0.00000000000E+00  0.45593999997E+02  0.45594000000E+02  0.51100000000E-03 0. -1.
         11   -1    0    0    0    0 -0.00000000000E+00 -0.00000000000E+00 -0.45593999997E+02  0.45594000000E+02  0.51100000000E-03 0.  1.
    9900012    2    1    2    0    0 -0.14661979366E+02  0.13755498252E+01  0.11567781922E+02  0.72461565346E+02  0.69999993554E+02 0.  0.
        -12    1    1    2    0    0  0.14661979366E+02 -0.13755498252E+01 -0.11567781922E+02  0.18726434654E+02  0.00000000000E+00 0.  1.
         11    1    3    3    0    0  0.28253582558E+01  0.25589856963E+02  0.92933511073E+00  0.25762125159E+02  0.51100000000E-03 0.  1.
        -11    1    3    3    0    0 -0.17967233716E+02 -0.40701735601E+01  0.17503909632E+02  0.25412096586E+02  0.51100000000E-03 0. -1.
         12    1    3    3    0    0  0.47989609429E+00 -0.20144133578E+02 -0.68654628206E+01  0.21287343601E+02  0.00000000000E+00 0. -1.
</event>
<event>
 7    1  0.1920603E-013  0.7246159E+02  0.7816164E-02  0.1226708E+00
        -11   -1    0    0    0    0  0.00000000000E+00  0.00000000000E+00  0.45593999997E+02  0.45594000000E+02  0.51100000000E-03 0.  1.
         11   -1    0    0    0    0 -0.00000000000E+00 -0.00000000000E+00 -0.45593999997E+02  0.45594000000E+02  0.51100000000E-03 0. -1.
    9900012    2    1    2    0    0 -0.15128717977E+02 -0.11035497736E+02 -0.13437981892E+00  0.72461591486E+02  0.70000027606E+02 0.  0.
        -12    1    1    2    0    0  0.15128717977E+02  0.11035497736E+02  0.13437981892E+00  0.18726408514E+02  0.00000000000E+00 0.  1.
         11    1    3    3    0    0  0.11790653823E+02  0.15583994957E+02  0.32671455735E+01  0.19812992123E+02  0.51100000000E-03 0. -1.
        -11    1    3    3    0    0 -0.27481584882E+02 -0.32568089314E+02 -0.99748304827E+01  0.43765456613E+02  0.51100000000E-03 0.  1.
        -12    1    3    3    0    0  0.56221308223E+00  0.59485966205E+01  0.65733050903E+01  0.88831427498E+01  0.00000000000E+00 0.  1.
</event>
<event>
 7    1  0.1920603E-013  0.7246129E+02  0.7816164E-02  0.1226709E+00
        -11   -1    0    0    0    0  0.00000000000E+00  0.00000000000E+00  0.45593999997E+02  0.45594000000E+02  0.51100000000E-03 0. -1.
         11   -1    0    0    0    0 -0.00000000000E+00 -0.00000000000E+00 -0.45593999997E+02  0.45594000000E+02  0.51100000000E-03 0.  1.
    9900012    2    1    2    0    0  0.10489943008E+02 -0.10035375871E+02  0.11829704968E+02  0.72461291992E+02  0.69999637459E+02 0.  0.
        -12    1    1    2    0    0 -0.10489943008E+02  0.10035375871E+02 -0.11829704968E+02  0.18726708008E+02  0.00000000000E+00 0.  1.
         11    1    3    3    0    0  0.19336741665E+02 -0.83847626856E+01 -0.15639022461E+02  0.26244863255E+02  0.51100000000E-03 0. -1.
        -11    1    3    3    0    0 -0.20640696698E+02  0.64195267175E+01  0.22200413700E+02  0.30985594269E+02  0.51100000000E-03 0.  1.
         12    1    3    3    0    0  0.11793898041E+02 -0.80701399025E+01  0.52683137287E+01  0.15230834468E+02  0.00000000000E+00 0. -1.
</event>
<event>
 7    1  0.1920603E-013  0.7246158E+02  0.7816164E-02  0.1226708E+00
        -11   -1    0    0    0    0  0.00000000000E+00  0.00000000000E+00  0.45593999997E+02  0.45594000000E+02  0.51100000000E-03 0.  1.
         11   -1    0    0    0    0 -0.00000000000E+00 -0.00000000000E+00 -0.45593999997E+02  0.45594000000E+02  0.51100000000E-03 0. -1.
    9900012    2    1    2    0    0 -0.15953106699E+02 -0.58336511937E+01 -0.78832628080E+01  0.72461576633E+02  0.70000008258E+02 0.  0.
        -12    1    1    2    0    0  0.15953106699E+02  0.58336511937E+01  0.78832628080E+01  0.18726423367E+02  0.00000000000E+00 0.  1.
         11    1    3    3    0    0 -0.14202801950E+02 -0.40422427113E+01  0.27644074560E+02  0.31340934381E+02  0.51100000000E-03 0. -1.
        -11    1    3    3    0    0 -0.46969771838E+01  0.85632760815E+01 -0.14266122686E+02  0.17289116480E+02  0.51100000000E-03 0.  1.
         12    1    3    3    0    0  0.29466724342E+01 -0.10354684564E+02 -0.21261214682E+02  0.23831525772E+02  0.00000000000E+00 0. -1.
</event>
<event>
 7    1  0.1920603E-013  0.7246157E+02  0.7816164E-02  0.1226708E+00
        -11   -1    0    0    0    0  0.00000000000E+00  0.00000000000E+00  0.45593999997E+02  0.45594000000E+02  0.51100000000E-03 0.  1.
         11   -1    0    0    0    0 -0.00000000000E+00 -0.00000000000E+00 -0.45593999997E+02  0.45594000000E+02  0.51100000000E-03 0. -1.
    9900012    2    1    2    0    0  0.79588225632E+01  0.12559200471E+00 -0.16950532205E+02  0.72461570229E+02  0.69999999915E+02 0.  0.
        -12    1    1    2    0    0 -0.79588225632E+01 -0.12559200471E+00  0.16950532205E+02  0.18726429771E+02  0.00000000000E+00 0.  1.
         11    1    3    3    0    0  0.17403277085E+02  0.78599037094E+01 -0.15609002385E+02  0.24663598588E+02  0.51100000000E-03 0. -1.
        -11    1    3    3    0    0 -0.25960995016E+02 -0.72601708407E+01 -0.10472145359E+02  0.28919702134E+02  0.51100000000E-03 0.  1.
        -12    1    3    3    0    0  0.16516540494E+02 -0.47414086393E+00  0.91306155388E+01  0.18878269506E+02  0.00000000000E+00 0.  1.
</event>
<event>
 7    1  0.1920603E-013  0.7246169E+02  0.7816164E-02  0.1226708E+00
        -11   -1    0    0    0    0  0.00000000000E+00  0.00000000000E+00  0.45593999997E+02  0.45594000000E+02  0.51100000000E-03 0.  1.
         11   -1    0    0    0    0 -0.00000000000E+00 -0.00000000000E+00 -0.45593999997E+02  0.45594000000E+02  0.51100000000E-03 0. -1.
    9900012    2    1    2    0    0 -0.16292528591E+02 -0.47937817524E+01  0.78897216668E+01  0.72461693921E+02  0.70000161047E+02 0.  0.
        -12    1    1    2    0    0  0.16292528591E+02  0.47937817524E+01 -0.78897216668E+01  0.18726306079E+02  0.00000000000E+00 0.  1.
         11    1    3    3    0    0 -0.95356702538E+01  0.17711239009E+01 -0.13547824679E+02  0.16661615793E+02  0.51100000000E-03 0. -1.
        -11    1    3    3    0    0 -0.14461923048E+02 -0.17345551184E+02  0.31782577020E+02  0.38989069832E+02  0.51100000000E-03 0.  1.
        -12    1    3    3    0    0  0.77050647112E+01  0.10780645531E+02 -0.10345030674E+02  0.16811008296E+02  0.00000000000E+00 0.  1.
</event>
<event>
 7    1  0.1920603E-013  0.7246164E+02  0.7816164E-02  0.1226708E+00
        -11   -1    0    0    0    0  0.00000000000E+00  0.00000000000E+00  0.45593999997E+02  0.45594000000E+02  0.51100000000E-03 0.  1.
         11   -1    0    0    0    0 -0.00000000000E+00 -0.00000000000E+00 -0.45593999997E+02  0.45594000000E+02  0.51100000000E-03 0. -1.
    9900012    2    1    2    0    0  0.16348765428E+02  0.48968829277E+01 -0.77081040661E+01  0.72461642593E+02  0.70000094182E+02 0.  0.
        -12    1    1    2    0    0 -0.16348765428E+02 -0.48968829277E+01  0.77081040661E+01  0.18726357407E+02  0.00000000000E+00 0.  1.
         11    1    3    3    0    0  0.27246677149E+01 -0.19307927591E+02  0.20635203530E+02  0.28390694021E+02  0.51100000000E-03 0. -1.
        -11    1    3    3    0    0  0.42564561123E+01  0.99221329472E+01  0.21014966549E+00  0.10798625098E+02  0.51100000000E-03 0.  1.
         12    1    3    3    0    0  0.93676416012E+01  0.14282677572E+02 -0.28553457261E+02  0.33272323474E+02  0.00000000000E+00 0. -1.
</event>
<event>
 7    1  0.1920603E-013  0.7246162E+02  0.7816164E-02  0.1226708E+00
        -11   -1    0    0    0    0  0.00000000000E+00  0.00000000000E+00  0.45593999997E+02  0.45594000000E+02  0.51100000000E-03 0.  1.
         11   -1    0    0    0    0 -0.00000000000E+00 -0.00000000000E+00 -0.45593999997E+02  0.45594000000E+02  0.51100000000E-03 0. -1.
    9900012    2    1    2    0    0  0.30325694007E+01 -0.16037712935E+02 -0.91800127326E+01  0.72461618953E+02  0.70000063387E+02 0.  0.
        -12    1    1    2    0    0 -0.30325694007E+01  0.16037712935E+02  0.91800127326E+01  0.18726381047E+02  0.00000000000E+00 0.  1.
         11    1    3    3    0    0  0.10002985262E+02 -0.20122521297E+02 -0.58110764930E+01  0.23210863572E+02  0.51100000000E-03 0. -1.
        -11    1    3    3    0    0 -0.23555184314E+02  0.70996861985E+01  0.11143228911E+02  0.27007847064E+02  0.51100000000E-03 0.  1.
        -12    1    3    3    0    0  0.16584768453E+02 -0.30148778363E+01 -0.14512165151E+02  0.22242908317E+02  0.00000000000E+00 0.  1.
</event>
<event>
 7    1  0.1920603E-013  0.7246157E+02  0.7816164E-02  0.1226708E+00
        -11   -1    0    0    0    0  0.00000000000E+00  0.00000000000E+00  0.45593999997E+02  0.45594000000E+02  0.51100000000E-03 0. -1.
         11   -1    0    0    0    0 -0.00000000000E+00 -0.00000000000E+00 -0.45593999997E+02  0.45594000000E+02  0.51100000000E-03 0.  1.
    9900012    2    1    2    0    0  0.53021434169E+01 -0.16527271850E+00  0.17959379548E+02  0.72461565378E+02  0.69999993596E+02 0.  0.
        -12    1    1    2    0    0 -0.53021434169E+01  0.16527271850E+00 -0.17959379548E+02  0.18726434622E+02  0.00000000000E+00 0.  1.
         11    1    3    3    0    0 -0.67254512431E+01 -0.22945322701E+02 -0.51885195693E+01  0.24467126187E+02  0.51100000000E-03 0.  1.
        -11    1    3    3    0    0 -0.67547593964E+00  0.16296504306E+02  0.28437615490E+02  0.32783079407E+02  0.51100000000E-03 0. -1.
        -12    1    3    3    0    0  0.12703070600E+02  0.64835456763E+01 -0.52897163730E+01  0.15211359785E+02  0.00000000000E+00 0.  1.
</event>
<event>
 7    1  0.1920603E-013  0.7246154E+02  0.7816164E-02  0.1226708E+00
        -11   -1    0    0    0    0  0.00000000000E+00  0.00000000000E+00  0.45593999997E+02  0.45594000000E+02  0.51100000000E-03 0. -1.
         11   -1    0    0    0    0 -0.00000000000E+00 -0.00000000000E+00 -0.45593999997E+02  0.45594000000E+02  0.51100000000E-03 0.  1.
    9900012    2    1    2    0    0 -0.28555137273E+01 -0.68915539161E+01  0.17176517407E+02  0.72461542133E+02  0.69999963314E+02 0.  0.
        -12    1    1    2    0    0  0.28555137273E+01  0.68915539161E+01 -0.17176517407E+02  0.18726457867E+02  0.00000000000E+00 0.  1.
         11    1    3    3    0    0 -0.43761725677E+01  0.23805297800E+02 -0.13964989951E+02  0.27943944501E+02  0.51100000000E-03 0.  1.
        -11    1    3    3    0    0  0.37722821429E+01 -0.24291436902E+02  0.21100658677E+02  0.32396632791E+02  0.51100000000E-03 0. -1.
        -12    1    3    3    0    0 -0.22516233025E+01 -0.64054148145E+01  0.10040848680E+02  0.12120964840E+02  0.00000000000E+00 0.  1.
</event>
<event>
 7    1  0.1920603E-013  0.7246165E+02  0.7816164E-02  0.1226708E+00
        -11   -1    0    0    0    0  0.00000000000E+00  0.00000000000E+00  0.45593999997E+02  0.45594000000E+02  0.51100000000E-03 0.  1.
         11   -1    0    0    0    0 -0.00000000000E+00 -0.00000000000E+00 -0.45593999997E+02  0.45594000000E+02  0.51100000000E-03 0. -1.
    9900012    2    1    2    0    0 -0.13827930820E+02 -0.12592957044E+02  0.93919958157E+00  0.72461646010E+02  0.70000098634E+02 0.  0.
        -12    1    1    2    0    0  0.13827930820E+02  0.12592957044E+02 -0.93919958157E+00  0.18726353990E+02  0.00000000000E+00 0.  1.
         11    1    3    3    0    0  0.87007162462E+01 -0.68754804354E+01  0.13177031819E+02  0.17222336144E+02  0.51100000000E-03 0. -1.
        -11    1    3    3    0    0 -0.21241513886E+02  0.62060127556E+01 -0.27837947276E+02  0.35562168315E+02  0.51100000000E-03 0.  1.
        -12    1    3    3    0    0 -0.12871331807E+01 -0.11923489365E+02  0.15600115038E+02  0.19677141552E+02  0.00000000000E+00 0.  1.
</event>
<event>
 7    1  0.2240291E-013  0.7246157E+02  0.7816164E-02  0.1226708E+00
        -11   -1    0    0    0    0  0.00000000000E+00  0.00000000000E+00  0.45593999997E+02  0.45594000000E+02  0.51100000000E-03 0. -1.
         11   -1    0    0    0    0 -0.00000000000E+00 -0.00000000000E+00 -0.45593999997E+02  0.45594000000E+02  0.51100000000E-03 0.  1.
    9900012    2    1    2    0    0  0.16636077385E+02 -0.83724279471E+01  0.19551475789E+01  0.72461568879E+02  0.69999998156E+02 0.  0.
        -12    1    1    2    0    0 -0.16636077385E+02  0.83724279471E+01 -0.19551475789E+01  0.18726431121E+02  0.00000000000E+00 0.  1.
         11    1    3    3    0    0  0.14757795042E+02  0.35310729741E+01  0.24887394514E+02  0.29148643138E+02  0.51100000000E-03 0. -1.
        -11    1    3    3    0    0 -0.80517666787E+01  0.93327189740E+01 -0.12812028126E+02  0.17778601043E+02  0.51100000000E-03 0.  1.
         12    1    3    3    0    0  0.99300490211E+01 -0.21236219895E+02 -0.10120218809E+02  0.25534324697E+02  0.00000000000E+00 0. -1.
</event>
<event>
 7    1  0.1920603E-013  0.7246141E+02  0.7816164E-02  0.1226708E+00
        -11   -1    0    0    0    0  0.00000000000E+00  0.00000000000E+00  0.45593999997E+02  0.45594000000E+02  0.51100000000E-03 0. -1.
         11   -1    0    0    0    0 -0.00000000000E+00 -0.00000000000E+00 -0.45593999997E+02  0.45594000000E+02  0.51100000000E-03 0.  1.
    9900012    2    1    2    0    0  0.25762096334E+01 -0.27573695336E+01  0.18342441984E+02  0.72461411396E+02  0.69999793005E+02 0.  0.
        -12    1    1    2    0    0 -0.25762096334E+01  0.27573695336E+01 -0.18342441984E+02  0.18726588604E+02  0.00000000000E+00 0.  1.
         11    1    3    3    0    0 -0.57111812871E+01  0.54428154181E+01  0.13645683277E+02  0.15762185881E+02  0.51100000000E-03 0. -1.
        -11    1    3    3    0    0  0.10383191331E+02 -0.31432350022E+02  0.41916870970E+01  0.33367252376E+02  0.51100000000E-03 0.  1.
        -12    1    3    3    0    0 -0.20958004107E+01  0.23232165071E+02  0.50507160988E+00  0.23331973139E+02  0.00000000000E+00 0.  1.
</event>
<event>
 7    1  0.1920603E-013  0.7246154E+02  0.7816164E-02  0.1226708E+00
        -11   -1    0    0    0    0  0.00000000000E+00  0.00000000000E+00  0.45593999997E+02  0.45594000000E+02  0.51100000000E-03 0.  1.
         11   -1    0    0    0    0 -0.00000000000E+00 -0.00000000000E+00 -0.45593999997E+02  0.45594000000E+02  0.51100000000E-03 0. -1.
    9900012    2    1    2    0    0  0.10677786223E+02 -0.69126638516E+00  0.15368387141E+02  0.72461540346E+02  0.69999960987E+02 0.  0.
        -12    1    1    2    0    0 -0.10677786223E+02  0.69126638516E+00 -0.15368387141E+02  0.18726459654E+02  0.00000000000E+00 0.  1.
         11    1    3    3    0    0 -0.94950724790E+01 -0.97538519150E+01 -0.10972628866E+02  0.17484067406E+02  0.51100000000E-03 0.  1.
        -11    1    3    3    0    0  0.28756362736E+02 -0.71401531013E+01  0.19164244582E+02  0.35287086232E+02  0.51100000000E-03 0. -1.
        -12    1    3    3    0    0 -0.85835040333E+01  0.16202738631E+02  0.71767714253E+01  0.19690386708E+02  0.00000000000E+00 0.  1.
</event>
<event>
 7    1  0.1920603E-013  0.7246154E+02  0.7816164E-02  0.1226708E+00
        -11   -1    0    0    0    0  0.00000000000E+00  0.00000000000E+00  0.45593999997E+02  0.45594000000E+02  0.51100000000E-03 0. -1.
         11   -1    0    0    0    0 -0.00000000000E+00 -0.00000000000E+00 -0.45593999997E+02  0.45594000000E+02  0.51100000000E-03 0.  1.
    9900012    2    1    2    0    0 -0.19838348363E+01  0.10937158667E+01  0.18588932934E+02  0.72461541641E+02  0.69999962674E+02 0.  0.
        -12    1    1    2    0    0  0.19838348363E+01 -0.10937158667E+01 -0.18588932934E+02  0.18726458359E+02  0.00000000000E+00 0.  1.
         11    1    3    3    0    0 -0.10733612765E+01  0.23410051501E+02  0.33785142812E+02  0.41117131354E+02  0.51100000000E-03 0. -1.
        -11    1    3    3    0    0  0.39326108503E+01 -0.19256490301E+02 -0.16271718673E+02  0.25515616309E+02  0.51100000000E-03 0.  1.
         12    1    3    3    0    0 -0.48430844101E+01 -0.30598453337E+01  0.10755087951E+01  0.58287939780E+01  0.00000000000E+00 0. -1.
</event>
<event>
 7    1  0.1920603E-013  0.7246156E+02  0.7816164E-02  0.1226708E+00
        -11   -1    0    0    0    0  0.00000000000E+00  0.00000000000E+00  0.45593999997E+02  0.45594000000E+02  0.51100000000E-03 0.  1.
         11   -1    0    0    0    0 -0.00000000000E+00 -0.00000000000E+00 -0.45593999997E+02  0.45594000000E+02  0.51100000000E-03 0. -1.
    9900012    2    1    2    0    0  0.11402594732E+02 -0.10997897372E+02  0.99853286287E+01  0.72461556103E+02  0.69999981513E+02 0.  0.
        -12    1    1    2    0    0 -0.11402594732E+02  0.10997897372E+02 -0.99853286287E+01  0.18726443897E+02  0.00000000000E+00 0.  1.
         11    1    3    3    0    0  0.21511424241E+01  0.22356706789E+02 -0.15995925876E+02  0.27573889770E+02  0.51100000000E-03 0. -1.
        -11    1    3    3    0    0  0.73921521195E+01 -0.22327174206E+02  0.10417877149E+02  0.25723117726E+02  0.51100000000E-03 0.  1.
         12    1    3    3    0    0  0.18593001882E+01 -0.11027429955E+02  0.15563377355E+02  0.19164548606E+02  0.00000000000E+00 0. -1.
</event>
<event>
 7    1  0.1920603E-013  0.7246155E+02  0.7816164E-02  0.1226708E+00
        -11   -1    0    0    0    0  0.00000000000E+00  0.00000000000E+00  0.45593999997E+02  0.45594000000E+02  0.51100000000E-03 0.  1.
         11   -1    0    0    0    0 -0.00000000000E+00 -0.00000000000E+00 -0.45593999997E+02  0.45594000000E+02  0.51100000000E-03 0. -1.
    9900012    2    1    2    0    0 -0.81891754127E+01  0.41537598528E+01 -0.16320646409E+02  0.72461553085E+02  0.69999977582E+02 0.  0.
        -12    1    1    2    0    0  0.81891754127E+01 -0.41537598528E+01  0.16320646409E+02  0.18726446915E+02  0.00000000000E+00 0.  1.
         11    1    3    3    0    0  0.76171196861E+01 -0.20605129546E+02 -0.11236583886E+02  0.24674940599E+02  0.51100000000E-03 0.  1.
        -11    1    3    3    0    0 -0.25402492824E+02  0.67453774669E+01  0.15415532468E+01  0.26327991672E+02  0.51100000000E-03 0. -1.
        -12    1    3    3    0    0  0.95961977250E+01  0.18013511932E+02 -0.66256157697E+01  0.21458620813E+02  0.00000000000E+00 0.  1.
</event>
<event>
 7    1  0.1920603E-013  0.7246156E+02  0.7816164E-02  0.1226708E+00
        -11   -1    0    0    0    0  0.00000000000E+00  0.00000000000E+00  0.45593999997E+02  0.45594000000E+02  0.51100000000E-03 0.  1.
         11   -1    0    0    0    0 -0.00000000000E+00 -0.00000000000E+00 -0.45593999997E+02  0.45594000000E+02  0.51100000000E-03 0. -1.
    9900012    2    1    2    0    0  0.53142590710E+01 -0.66754604357E+01 -0.16669622783E+02  0.72461562933E+02  0.69999990411E+02 0.  0.
        -12    1    1    2    0    0 -0.53142590710E+01  0.66754604357E+01  0.16669622783E+02  0.18726437067E+02  0.00000000000E+00 0.  1.
         11    1    3    3    0    0 -0.20656330833E+02  0.78268705563E+01  0.98067912906E+01  0.24168513853E+02  0.51100000000E-03 0.  1.
        -11    1    3    3    0    0  0.24611254551E+02  0.96972299772E+00 -0.18690937959E+02  0.30919336593E+02  0.51100000000E-03 0. -1.
         12    1    3    3    0    0  0.13593353532E+01 -0.15472053990E+02 -0.77854761142E+01  0.17373712487E+02  0.00000000000E+00 0. -1.
</event>
<event>
 7    1  0.1920603E-013  0.7246163E+02  0.7816164E-02  0.1226708E+00
        -11   -1    0    0    0    0  0.00000000000E+00  0.00000000000E+00  0.45593999997E+02  0.45594000000E+02  0.51100000000E-03 0.  1.
         11   -1    0    0    0    0 -0.00000000000E+00 -0.00000000000E+00 -0.45593999997E+02  0.45594000000E+02  0.51100000000E-03 0. -1.
    9900012    2    1    2    0    0  0.11851284668E+02 -0.10361913744E+02  0.10141735797E+02  0.72461627962E+02  0.70000075123E+02 0.  0.
        -12    1    1    2    0    0 -0.11851284668E+02  0.10361913744E+02 -0.10141735797E+02  0.18726372038E+02  0.00000000000E+00 0.  1.
         11    1    3    3    0    0 -0.92278477073E+01 -0.33423852418E+02  0.80233927379E+01  0.35590475061E+02  0.51100000000E-03 0. -1.
        -11    1    3    3    0    0  0.17791819903E+02  0.14705192118E+02 -0.69529567888E+01  0.24106744680E+02  0.51100000000E-03 0.  1.
         12    1    3    3    0    0  0.32873124719E+01  0.83567465560E+01  0.90712998481E+01  0.12764408221E+02  0.00000000000E+00 0. -1.
</event>
<event>
 7    1  0.2223100E-013  0.7246153E+02  0.7816164E-02  0.1226708E+00
        -11   -1    0    0    0    0  0.00000000000E+00  0.00000000000E+00  0.45593999997E+02  0.45594000000E+02  0.51100000000E-03 0. -1.
         11   -1    0    0    0    0 -0.00000000000E+00 -0.00000000000E+00 -0.45593999997E+02  0.45594000000E+02  0.51100000000E-03 0.  1.
    9900012    2    1    2    0    0 -0.69138109195E+01  0.13521145122E+02  0.10957124310E+02  0.72461528896E+02  0.69999946071E+02 0.  0.
        -12    1    1    2    0    0  0.69138109195E+01 -0.13521145122E+02 -0.10957124310E+02  0.18726471104E+02  0.00000000000E+00 0.  1.
         11    1    3    3    0    0 -0.15152332121E+02  0.26178022119E+02  0.18504683766E+02  0.35458501552E+02  0.51100000000E-03 0. -1.
        -11    1    3    3    0    0  0.26545370464E+01 -0.20595805850E+02  0.47837817911E+01  0.21310052887E+02  0.51100000000E-03 0.  1.
        -12    1    3    3    0    0  0.55839841553E+01  0.79389288536E+01 -0.12331341247E+02  0.15692974458E+02  0.00000000000E+00 0.  1.
</event>
<event>
 7    1  0.1920603E-013  0.7246163E+02  0.7816164E-02  0.1226708E+00
        -11   -1    0    0    0    0  0.00000000000E+00  0.00000000000E+00  0.45593999997E+02  0.45594000000E+02  0.51100000000E-03 0.  1.
         11   -1    0    0    0    0 -0.00000000000E+00 -0.00000000000E+00 -0.45593999997E+02  0.45594000000E+02  0.51100000000E-03 0. -1.
    9900012    2    1    2    0    0  0.59825973269E+01 -0.11443660064E+02 -0.13562007455E+02  0.72461631622E+02  0.70000079890E+02 0.  0.
        -12    1    1    2    0    0 -0.59825973269E+01  0.11443660064E+02  0.13562007455E+02  0.18726368378E+02  0.00000000000E+00 0.  1.
         11    1    3    3    0    0  0.13765696962E+02  0.76751033135E+01  0.68957957615E+01  0.17203302682E+02  0.51100000000E-03 0.  1.
        -11    1    3    3    0    0 -0.73255106789E+01  0.41001470869E+01 -0.29246534290E+02  0.30427521770E+02  0.51100000000E-03 0. -1.
        -12    1    3    3    0    0 -0.45758895635E+00 -0.23218910464E+02  0.87887310737E+01  0.24830807169E+02  0.00000000000E+00 0.  1.
</event>
<event>
 7    1  0.1920603E-013  0.7246158E+02  0.7816164E-02  0.1226708E+00
        -11   -1    0    0    0    0  0.00000000000E+00  0.00000000000E+00  0.45593999997E+02  0.45594000000E+02  0.51100000000E-03 0.  1.
         11   -1    0    0    0    0 -0.00000000000E+00 -0.00000000000E+00 -0.45593999997E+02  0.45594000000E+02  0.51100000000E-03 0. -1.
    9900012    2    1    2    0    0 -0.16284742099E+02 -0.70847805345E+01 -0.59406873255E+01  0.72461582661E+02  0.70000016110E+02 0.  0.
        -12    1    1    2    0    0  0.16284742099E+02  0.70847805345E+01  0.59406873255E+01  0.18726417339E+02  0.00000000000E+00 0.  1.
         11    1    3    3    0    0 -0.12609080246E+02 -0.30760213815E+02 -0.94439493257E+01  0.34559627280E+02  0.51100000000E-03 0. -1.
        -11    1    3    3    0    0  0.10444357181E+02  0.38800177965E+01  0.72597019442E+01  0.13298210692E+02  0.51100000000E-03 0.  1.
         12    1    3    3    0    0 -0.14120019034E+02  0.19795415484E+02 -0.37564399440E+01  0.24603744690E+02  0.00000000000E+00 0. -1.
</event>
<event>
 8    1  0.1920603E-013  0.7246156E+02  0.7816164E-02  0.1226708E+00
        -11   -1    0    0    0    0  0.00000000000E+00  0.00000000000E+00  0.45593999997E+02  0.45594000000E+02  0.51100000000E-03 0.  1.
         11   -1    0    0    0    0 -0.00000000000E+00 -0.00000000000E+00 -0.45593999997E+02  0.45594000000E+02  0.51100000000E-03 0. -1.
    9900012    2    1    2    0    0  0.13844188253E+02  0.83834353071E+01  0.94199747670E+01  0.72461562524E+02  0.69999989877E+02 0.  0.
         24    2    3    3    0    0 -0.32918225667E+01  0.82103172181E+01  0.15971889184E+02  0.54114889270E+02  0.50941874641E+02 0.  0.
        -12    1    1    2    0    0 -0.13844188253E+02 -0.83834353071E+01 -0.94199747670E+01  0.18726437476E+02  0.00000000000E+00 0.  1.
         11    1    3    3    0    0  0.17136010820E+02  0.17311808902E+00 -0.65519144172E+01  0.18346673254E+02  0.51100000000E-03 0. -1.
        -11    1    4    4    0    0  0.17467482107E+01  0.23740045345E+02  0.25763591864E+02  0.35077108608E+02  0.51100000000E-03 0.  1.
         12    1    4    4    0    0 -0.50385707774E+01 -0.15529728127E+02 -0.97917026797E+01  0.19037780662E+02  0.00000000000E+00 0. -1.
</event>
<event>
 7    1  0.1920603E-013  0.7246121E+02  0.7816164E-02  0.1226709E+00
        -11   -1    0    0    0    0  0.00000000000E+00  0.00000000000E+00  0.45593999997E+02  0.45594000000E+02  0.51100000000E-03 0.  1.
         11   -1    0    0    0    0 -0.00000000000E+00 -0.00000000000E+00 -0.45593999997E+02  0.45594000000E+02  0.51100000000E-03 0. -1.
    9900012    2    1    2    0    0  0.15512876483E+02 -0.10466726333E+02  0.70077684388E+00  0.72461206759E+02  0.69999526426E+02 0.  0.
        -12    1    1    2    0    0 -0.15512876483E+02  0.10466726333E+02 -0.70077684388E+00  0.18726793241E+02  0.00000000000E+00 0.  1.
         11    1    3    3    0    0 -0.95368909668E-01  0.24435272555E+02  0.13432182454E+01  0.24472349204E+02  0.51100000000E-03 0. -1.
        -11    1    3    3    0    0  0.23587757246E+02 -0.31048394246E+02  0.85723908760E+00  0.39001537614E+02  0.51100000000E-03 0.  1.
        -12    1    3    3    0    0 -0.79795118534E+01 -0.38536046415E+01 -0.14996804891E+01  0.89873199410E+01  0.00000000000E+00 0.  1.
</event>
<event>
 7    1  0.1920603E-013  0.7246159E+02  0.7816164E-02  0.1226708E+00
        -11   -1    0    0    0    0  0.00000000000E+00  0.00000000000E+00  0.45593999997E+02  0.45594000000E+02  0.51100000000E-03 0. -1.
         11   -1    0    0    0    0 -0.00000000000E+00 -0.00000000000E+00 -0.45593999997E+02  0.45594000000E+02  0.51100000000E-03 0.  1.
    9900012    2    1    2    0    0 -0.15950614717E+02  0.82633166705E+01  0.52890528058E+01  0.72461585718E+02  0.70000020093E+02 0.  0.
        -12    1    1    2    0    0  0.15950614717E+02 -0.82633166705E+01 -0.52890528058E+01  0.18726414282E+02  0.00000000000E+00 0.  1.
         11    1    3    3    0    0 -0.37059531596E+02  0.15360703305E+02  0.14668817189E+02  0.42714567610E+02  0.51100000000E-03 0. -1.
        -11    1    3    3    0    0  0.15190007891E+02  0.38863655647E+01 -0.62839051248E+01  0.16891644115E+02  0.51100000000E-03 0.  1.
        -12    1    3    3    0    0  0.59189089869E+01 -0.10983752199E+02 -0.30958592587E+01  0.12855373993E+02  0.00000000000E+00 0.  1.
</event>
<event>
 7    1  0.1920603E-013  0.7246161E+02  0.7816164E-02  0.1226708E+00
        -11   -1    0    0    0    0  0.00000000000E+00  0.00000000000E+00  0.45593999997E+02  0.45594000000E+02  0.51100000000E-03 0.  1.
         11   -1    0    0    0    0 -0.00000000000E+00 -0.00000000000E+00 -0.45593999997E+02  0.45594000000E+02  0.51100000000E-03 0. -1.
    9900012    2    1    2    0    0  0.98213853595E+01  0.13114355826E+02 -0.90681674257E+01  0.72461612213E+02  0.70000054606E+02 0.  0.
        -12    1    1    2    0    0 -0.98213853595E+01 -0.13114355826E+02  0.90681674257E+01  0.18726387787E+02  0.00000000000E+00 0.  1.
         11    1    3    3    0    0  0.41869327216E+01 -0.11051152689E+02 -0.28486772735E+02  0.30840794453E+02  0.51100000000E-03 0. -1.
        -11    1    3    3    0    0 -0.77879941186E+01  0.39429356955E+01  0.14394628536E+02  0.16834634693E+02  0.51100000000E-03 0.  1.
         12    1    3    3    0    0  0.13422446757E+02  0.20222572819E+02  0.50239767734E+01  0.24786183066E+02  0.00000000000E+00 0. -1.
</event>
<event>
 7    1  0.1920603E-013  0.7246153E+02  0.7816164E-02  0.1226708E+00
        -11   -1    0    0    0    0  0.00000000000E+00  0.00000000000E+00  0.45593999997E+02  0.45594000000E+02  0.51100000000E-03 0.  1.
         11   -1    0    0    0    0 -0.00000000000E+00 -0.00000000000E+00 -0.45593999997E+02  0.45594000000E+02  0.51100000000E-03 0. -1.
    9900012    2    1    2    0    0 -0.10815087871E+02  0.79880252819E+01 -0.13034796185E+02  0.72461532497E+02  0.69999950762E+02 0.  0.
        -12    1    1    2    0    0  0.10815087871E+02 -0.79880252819E+01  0.13034796185E+02  0.18726467503E+02  0.00000000000E+00 0.  1.
         11    1    3    3    0    0 -0.17307909296E+01 -0.21120297401E+02 -0.23793810084E+02  0.31862328825E+02  0.51100000000E-03 0. -1.
        -11    1    3    3    0    0  0.28266375688E+01  0.26555021129E+02  0.51884433281E+01  0.27204392504E+02  0.51100000000E-03 0.  1.
        -12    1    3    3    0    0 -0.11910934510E+02  0.25533015540E+01  0.55705705716E+01  0.13394811168E+02  0.00000000000E+00 0.  1.
</event>
<event>
 7    1  0.1920603E-013  0.7246156E+02  0.7816164E-02  0.1226708E+00
        -11   -1    0    0    0    0  0.00000000000E+00  0.00000000000E+00  0.45593999997E+02  0.45594000000E+02  0.51100000000E-03 0.  1.
         11   -1    0    0    0    0 -0.00000000000E+00 -0.00000000000E+00 -0.45593999997E+02  0.45594000000E+02  0.51100000000E-03 0. -1.
    9900012    2    1    2    0    0 -0.96077095315E+01  0.15336834738E+02 -0.48117492635E+01  0.72461561118E+02  0.69999988046E+02 0.  0.
        -12    1    1    2    0    0  0.96077095315E+01 -0.15336834738E+02  0.48117492635E+01  0.18726438882E+02  0.00000000000E+00 0.  1.
         11    1    3    3    0    0  0.70548295044E+01 -0.32606681857E+01 -0.15652401059E+02  0.17475704150E+02  0.51100000000E-03 0. -1.
        -11    1    3    3    0    0 -0.15845313031E+02 -0.12080956456E+02 -0.48655946812E+01  0.20510910897E+02  0.51100000000E-03 0.  1.
        -12    1    3    3    0    0 -0.81722600508E+00  0.30678459380E+02  0.15706246477E+02  0.34474946072E+02  0.00000000000E+00 0.  1.
</event>
<event>
 7    1  0.1920603E-013  0.7246159E+02  0.7816164E-02  0.1226708E+00
        -11   -1    0    0    0    0  0.00000000000E+00  0.00000000000E+00  0.45593999997E+02  0.45594000000E+02  0.51100000000E-03 0.  1.
         11   -1    0    0    0    0 -0.00000000000E+00 -0.00000000000E+00 -0.45593999997E+02  0.45594000000E+02  0.51100000000E-03 0. -1.
    9900012    2    1    2    0    0  0.11906209267E+02 -0.49475696265E+01 -0.13580946141E+02  0.72461591845E+02  0.70000028073E+02 0.  0.
        -12    1    1    2    0    0 -0.11906209267E+02  0.49475696265E+01  0.13580946141E+02  0.18726408155E+02  0.00000000000E+00 0.  1.
         11    1    3    3    0    0  0.47336795183E+01 -0.17207918576E+02  0.10888007681E+02  0.20906192743E+02  0.51100000000E-03 0. -1.
        -11    1    3    3    0    0  0.77811297531E+01  0.27484854809E+02 -0.92635523869E+01  0.30029595854E+02  0.51100000000E-03 0.  1.
         12    1    3    3    0    0 -0.60860000432E+00 -0.15224505859E+02 -0.15205401435E+02  0.21525803247E+02  0.00000000000E+00 0. -1.
</event>
<event>
 7    1  0.1920603E-013  0.7246156E+02  0.7816164E-02  0.1226708E+00
        -11   -1    0    0    0    0  0.00000000000E+00  0.00000000000E+00  0.45593999997E+02  0.45594000000E+02  0.51100000000E-03 0. -1.
         11   -1    0    0    0    0 -0.00000000000E+00 -0.00000000000E+00 -0.45593999997E+02  0.45594000000E+02  0.51100000000E-03 0.  1.
    9900012    2    1    2    0    0 -0.43827984087E+01 -0.12485389513E+01  0.18163475516E+02  0.72461558421E+02  0.69999984532E+02 0.  0.
        -12    1    1    2    0    0  0.43827984087E+01  0.12485389513E+01 -0.18163475516E+02  0.18726441579E+02  0.00000000000E+00 0.  1.
         11    1    3    3    0    0 -0.85719182192E+00 -0.25962777471E+01  0.25561377170E+02  0.25707186525E+02  0.51100000000E-03 0.  1.
        -11    1    3    3    0    0  0.18986476606E+02  0.76431961302E+01  0.38291591996E+01  0.20822276567E+02  0.51100000000E-03 0. -1.
        -12    1    3    3    0    0 -0.22512083193E+02 -0.62954573343E+01 -0.11227060854E+02  0.25932095329E+02  0.00000000000E+00 0.  1.
</event>
<event>
 7    1  0.1920603E-013  0.7246155E+02  0.7816164E-02  0.1226708E+00
        -11   -1    0    0    0    0  0.00000000000E+00  0.00000000000E+00  0.45593999997E+02  0.45594000000E+02  0.51100000000E-03 0. -1.
         11   -1    0    0    0    0 -0.00000000000E+00 -0.00000000000E+00 -0.45593999997E+02  0.45594000000E+02  0.51100000000E-03 0.  1.
    9900012    2    1    2    0    0 -0.86091284262E+01  0.39065247045E+01  0.16164830017E+02  0.72461554609E+02  0.69999979566E+02 0.  0.
        -12    1    1    2    0    0  0.86091284262E+01 -0.39065247045E+01 -0.16164830017E+02  0.18726445391E+02  0.00000000000E+00 0.  1.
         11    1    3    3    0    0  0.53911220213E+01 -0.14590763764E+02  0.29728318949E+02  0.33551863312E+02  0.51100000000E-03 0. -1.
        -11    1    3    3    0    0 -0.76694746001E+01  0.42361193504E+01 -0.20150649691E+02  0.21973034179E+02  0.51100000000E-03 0.  1.
         12    1    3    3    0    0 -0.63307758474E+01  0.14261169119E+02  0.65871607586E+01  0.16936657118E+02  0.00000000000E+00 0. -1.
</event>
<event>
 7    1  0.1920603E-013  0.7246145E+02  0.7816164E-02  0.1226708E+00
        -11   -1    0    0    0    0  0.00000000000E+00  0.00000000000E+00  0.45593999997E+02  0.45594000000E+02  0.51100000000E-03 0. -1.
         11   -1    0    0    0    0 -0.00000000000E+00 -0.00000000000E+00 -0.45593999997E+02  0.45594000000E+02  0.51100000000E-03 0.  1.
    9900012    2    1    2    0    0  0.10247522261E+01 -0.10361793535E+01  0.18669754841E+02  0.72461453853E+02  0.69999848314E+02 0.  0.
        -12    1    1    2    0    0 -0.10247522261E+01  0.10361793535E+01 -0.18669754841E+02  0.18726546147E+02  0.00000000000E+00 0.  1.
         11    1    3    3    0    0  0.75806751972E+01  0.16856719922E+01  0.30270393905E+02  0.31250677976E+02  0.51100000000E-03 0. -1.
        -11    1    3    3    0    0 -0.16068096451E+02  0.99969494622E+01 -0.15943836844E+02  0.24745275422E+02  0.51100000000E-03 0.  1.
         12    1    3    3    0    0  0.95121734802E+01 -0.12718800808E+02  0.43431977793E+01  0.16465500456E+02  0.00000000000E+00 0. -1.
</event>
<event>
 7    1  0.2458835E-013  0.7246160E+02  0.7816164E-02  0.1226708E+00
        -11   -1    0    0    0    0  0.00000000000E+00  0.00000000000E+00  0.45593999997E+02  0.45594000000E+02  0.51100000000E-03 0. -1.
         11   -1    0    0    0    0 -0.00000000000E+00 -0.00000000000E+00 -0.45593999997E+02  0.45594000000E+02  0.51100000000E-03 0.  1.
    9900012    2    1    2    0    0  0.10975266102E+02 -0.97660989007E+01  0.11612271535E+02  0.72461601415E+02  0.70000040541E+02 0.  0.
        -12    1    1    2    0    0 -0.10975266102E+02  0.97660989007E+01 -0.11612271535E+02  0.18726398585E+02  0.00000000000E+00 0.  1.
         11    1    3    3    0    0 -0.11025298067E+02 -0.15428780633E+02  0.12803291526E+02  0.22880750501E+02  0.51100000000E-03 0. -1.
        -11    1    3    3    0    0  0.24895613285E+02  0.70475191775E+01  0.17097667503E+02  0.31012728382E+02  0.51100000000E-03 0.  1.
        -12    1    3    3    0    0 -0.28950491156E+01 -0.13848374448E+01 -0.18288687494E+02  0.18568122533E+02  0.00000000000E+00 0.  1.
</event>
<event>
 7    1  0.1920603E-013  0.7246157E+02  0.7816164E-02  0.1226708E+00
        -11   -1    0    0    0    0  0.00000000000E+00  0.00000000000E+00  0.45593999997E+02  0.45594000000E+02  0.51100000000E-03 0.  1.
         11   -1    0    0    0    0 -0.00000000000E+00 -0.00000000000E+00 -0.45593999997E+02  0.45594000000E+02  0.51100000000E-03 0. -1.
    9900012    2    1    2    0    0  0.18485816407E+02 -0.25333926656E+01 -0.15923947225E+01  0.72461569278E+02  0.69999998676E+02 0.  0.
        -12    1    1    2    0    0 -0.18485816407E+02  0.25333926656E+01  0.15923947225E+01  0.18726430722E+02  0.00000000000E+00 0.  1.
         11    1    3    3    0    0  0.30476546722E+02  0.17113014163E+02 -0.21708474046E+02  0.41145267036E+02  0.51100000000E-03 0. -1.
        -11    1    3    3    0    0  0.64902026333E+00 -0.29076776633E+01  0.31791494957E+01  0.43569264939E+01  0.51100000000E-03 0.  1.
         12    1    3    3    0    0 -0.12639750578E+02 -0.16738729166E+02  0.16936929827E+02  0.26959375748E+02  0.00000000000E+00 0. -1.
</event>
<event>
 7    1  0.1920603E-013  0.7246156E+02  0.7816164E-02  0.1226708E+00
        -11   -1    0    0    0    0  0.00000000000E+00  0.00000000000E+00  0.45593999997E+02  0.45594000000E+02  0.51100000000E-03 0. -1.
         11   -1    0    0    0    0 -0.00000000000E+00 -0.00000000000E+00 -0.45593999997E+02  0.45594000000E+02  0.51100000000E-03 0.  1.
    9900012    2    1    2    0    0 -0.51084181816E+01 -0.14087914027E+02  0.11230059339E+02  0.72461561719E+02  0.69999988828E+02 0.  0.
        -12    1    1    2    0    0  0.51084181816E+01  0.14087914027E+02 -0.11230059339E+02  0.18726438281E+02  0.00000000000E+00 0.  1.
         11    1    3    3    0    0 -0.11996988634E+02  0.17518316935E+02 -0.92166455722E+01  0.23146613584E+02  0.51100000000E-03 0. -1.
        -11    1    3    3    0    0  0.12573419602E+02 -0.11587578631E+01  0.11490707687E+02  0.17072491431E+02  0.51100000000E-03 0.  1.
         12    1    3    3    0    0 -0.56848491487E+01 -0.30447473099E+02  0.89559972246E+01  0.32242456703E+02  0.00000000000E+00 0. -1.
</event>
<event>
 7    1  0.1920603E-013  0.7246151E+02  0.7816164E-02  0.1226708E+00
        -11   -1    0    0    0    0  0.00000000000E+00  0.00000000000E+00  0.45593999997E+02  0.45594000000E+02  0.51100000000E-03 0.  1.
         11   -1    0    0    0    0 -0.00000000000E+00 -0.00000000000E+00 -0.45593999997E+02  0.45594000000E+02  0.51100000000E-03 0. -1.
    9900012    2    1    2    0    0 -0.12979245287E+02  0.79056362092E+01 -0.10941727754E+02  0.72461513455E+02  0.69999925956E+02 0.  0.
        -12    1    1    2    0    0  0.12979245287E+02 -0.79056362092E+01  0.10941727754E+02  0.18726486545E+02  0.00000000000E+00 0.  1.
         11    1    3    3    0    0 -0.15795459149E+02  0.17788098905E+02 -0.17371737183E+02  0.29456582379E+02  0.51100000000E-03 0. -1.
        -11    1    3    3    0    0  0.19776983036E+02 -0.12187894906E+02 -0.30630848514E+01  0.23431951035E+02  0.51100000000E-03 0.  1.
         12    1    3    3    0    0 -0.16960769174E+02  0.23054322098E+01  0.94930942810E+01  0.19572980041E+02  0.00000000000E+00 0. -1.
</event>
<event>
 7    1  0.1920603E-013  0.7246180E+02  0.7816164E-02  0.1226707E+00
        -11   -1    0    0    0    0  0.00000000000E+00  0.00000000000E+00  0.45593999997E+02  0.45594000000E+02  0.51100000000E-03 0.  1.
         11   -1    0    0    0    0 -0.00000000000E+00 -0.00000000000E+00 -0.45593999997E+02  0.45594000000E+02  0.51100000000E-03 0. -1.
    9900012    2    1    2    0    0  0.11372929353E+02  0.10157871665E+02 -0.10869443365E+02  0.72461797024E+02  0.70000295357E+02 0.  0.
        -12    1    1    2    0    0 -0.11372929353E+02 -0.10157871665E+02  0.10869443365E+02  0.18726202976E+02  0.00000000000E+00 0.  1.
         11    1    3    3    0    0 -0.94033177944E+01 -0.20220444379E+02  0.75193154292E+01  0.23533568816E+02  0.51100000000E-03 0. -1.
        -11    1    3    3    0    0  0.29646162779E+01  0.25487999933E+02 -0.50689085992E+01  0.26155705399E+02  0.51100000000E-03 0.  1.
        -12    1    3    3    0    0  0.17811630869E+02  0.48903161105E+01 -0.13319850195E+02  0.22772522809E+02  0.00000000000E+00 0.  1.
</event>
<event>
 7    1  0.1920603E-013  0.7246163E+02  0.7816164E-02  0.1226708E+00
        -11   -1    0    0    0    0  0.00000000000E+00  0.00000000000E+00  0.45593999997E+02  0.45594000000E+02  0.51100000000E-03 0. -1.
         11   -1    0    0    0    0 -0.00000000000E+00 -0.00000000000E+00 -0.45593999997E+02  0.45594000000E+02  0.51100000000E-03 0.  1.
    9900012    2    1    2    0    0  0.16472169261E+02 -0.66990284205E+01 -0.58709132315E+01  0.72461629180E+02  0.70000076709E+02 0.  0.
        -12    1    1    2    0    0 -0.16472169261E+02  0.66990284205E+01  0.58709132315E+01  0.18726370820E+02  0.00000000000E+00 0.  1.
         11    1    3    3    0    0 -0.75002706904E+01 -0.14811881722E+01  0.16453668796E+02  0.18143075702E+02  0.51100000000E-03 0. -1.
        -11    1    3    3    0    0  0.28513056791E+02 -0.86847888065E+00  0.25703776200E+01  0.28641848832E+02  0.51100000000E-03 0.  1.
        -12    1    3    3    0    0 -0.45406168403E+01 -0.43493613676E+01 -0.24894959647E+02  0.25676704645E+02  0.00000000000E+00 0.  1.
</event>
<event>
 7    1  0.1920603E-013  0.7246155E+02  0.7816164E-02  0.1226708E+00
        -11   -1    0    0    0    0  0.00000000000E+00  0.00000000000E+00  0.45593999997E+02  0.45594000000E+02  0.51100000000E-03 0. -1.
         11   -1    0    0    0    0 -0.00000000000E+00 -0.00000000000E+00 -0.45593999997E+02  0.45594000000E+02  0.51100000000E-03 0.  1.
    9900012    2    1    2    0    0  0.13422401718E+02  0.12362763432E+02 -0.42048958738E+01  0.72461549806E+02  0.69999973310E+02 0.  0.
        -12    1    1    2    0    0 -0.13422401718E+02 -0.12362763432E+02  0.42048958738E+01  0.18726450194E+02  0.00000000000E+00 0.  1.
         11    1    3    3    0    0 -0.23282732413E+01  0.33167776491E+02 -0.12637144182E+02  0.35569926441E+02  0.51100000000E-03 0. -1.
        -11    1    3    3    0    0  0.45094486729E+01 -0.69040555726E+01 -0.88008836000E+01  0.12060541575E+02  0.51100000000E-03 0.  1.
         12    1    3    3    0    0  0.11241226287E+02 -0.13900957487E+02  0.17233131908E+02  0.24831081790E+02  0.00000000000E+00 0. -1.
</event>
<event>
 7    1  0.1920603E-013  0.7246139E+02  0.7816164E-02  0.1226708E+00
        -11   -1    0    0    0    0  0.00000000000E+00  0.00000000000E+00  0.45593999997E+02  0.45594000000E+02  0.51100000000E-03 0.  1.
         11   -1    0    0    0    0 -0.00000000000E+00 -0.00000000000E+00 -0.45593999997E+02  0.45594000000E+02  0.51100000000E-03 0. -1.
    9900012    2    1    2    0    0  0.17634427617E+02  0.61895597126E+01 -0.11841781685E+01  0.72461388861E+02  0.69999763649E+02 0.  0.
        -12    1    1    2    0    0 -0.17634427617E+02 -0.61895597126E+01  0.11841781685E+01  0.18726611139E+02  0.00000000000E+00 0.  1.
         11    1    3    3    0    0  0.27836228848E+02 -0.32893044405E+01  0.13384614931E+02  0.31061601332E+02  0.51100000000E-03 0.  1.
        -11    1    3    3    0    0 -0.14777369268E+02  0.21229752906E+02 -0.74455918403E+01  0.26916721365E+02  0.51100000000E-03 0. -1.
         12    1    3    3    0    0  0.45755680365E+01 -0.11750888753E+02 -0.71232012592E+01  0.14483066164E+02  0.00000000000E+00 0. -1.
</event>
<event>
 7    1  0.1920603E-013  0.7246155E+02  0.7816164E-02  0.1226708E+00
        -11   -1    0    0    0    0  0.00000000000E+00  0.00000000000E+00  0.45593999997E+02  0.45594000000E+02  0.51100000000E-03 0.  1.
         11   -1    0    0    0    0 -0.00000000000E+00 -0.00000000000E+00 -0.45593999997E+02  0.45594000000E+02  0.51100000000E-03 0. -1.
    9900012    2    1    2    0    0 -0.14462151697E+02  0.52835684618E+01 -0.10658804631E+02  0.72461546957E+02  0.69999969599E+02 0.  0.
        -12    1    1    2    0    0  0.14462151697E+02 -0.52835684618E+01  0.10658804631E+02  0.18726453043E+02  0.00000000000E+00 0.  1.
         11    1    3    3    0    0  0.60118300013E+01  0.18786906440E+02  0.20438347123E+02  0.28404506454E+02  0.51100000000E-03 0.  1.
        -11    1    3    3    0    0 -0.20682781264E+02 -0.60666014298E+01 -0.29351110584E+02  0.36415227399E+02  0.51100000000E-03 0. -1.
        -12    1    3    3    0    0  0.20879956571E+00 -0.74367365484E+01 -0.17460411691E+01  0.76418131038E+01  0.00000000000E+00 0.  1.
</event>
<event>
 7    1  0.1920603E-013  0.7246159E+02  0.7816164E-02  0.1226708E+00
        -11   -1    0    0    0    0  0.00000000000E+00  0.00000000000E+00  0.45593999997E+02  0.45594000000E+02  0.51100000000E-03 0.  1.
         11   -1    0    0    0    0 -0.00000000000E+00 -0.00000000000E+00 -0.45593999997E+02  0.45594000000E+02  0.51100000000E-03 0. -1.
    9900012    2    1    2    0    0 -0.58553281567E+01  0.15376619692E+01 -0.17720867633E+02  0.72461590258E+02  0.70000026007E+02 0.  0.
        -12    1    1    2    0    0  0.58553281567E+01 -0.15376619692E+01  0.17720867633E+02  0.18726409742E+02  0.00000000000E+00 0.  1.
         11    1    3    3    0    0  0.16542057691E+02  0.14345848297E+02 -0.95867923272E+01  0.23902920813E+02  0.51100000000E-03 0. -1.
        -11    1    3    3    0    0 -0.22544302761E+02 -0.20464443354E+02  0.73169236463E+01  0.31314156554E+02  0.51100000000E-03 0.  1.
         12    1    3    3    0    0  0.14691691278E+00  0.76562570270E+01 -0.15450998952E+02  0.17244512891E+02  0.00000000000E+00 0. -1.
</event>
<event>
 7    1  0.1920603E-013  0.7246191E+02  0.7816164E-02  0.1226707E+00
        -11   -1    0    0    0    0  0.00000000000E+00  0.00000000000E+00  0.45593999997E+02  0.45594000000E+02  0.51100000000E-03 0.  1.
         11   -1    0    0    0    0 -0.00000000000E+00 -0.00000000000E+00 -0.45593999997E+02  0.45594000000E+02  0.51100000000E-03 0. -1.
    9900012    2    1    2    0    0  0.15220009400E+02 -0.94524790291E+01 -0.54468670253E+01  0.72461911078E+02  0.70000443932E+02 0.  0.
        -12    1    1    2    0    0 -0.15220009400E+02  0.94524790291E+01  0.54468670253E+01  0.18726088922E+02  0.00000000000E+00 0.  1.
         11    1    3    3    0    0  0.55828493735E+01  0.12948030655E+02 -0.40424526361E+01  0.14668371707E+02  0.51100000000E-03 0. -1.
        -11    1    3    3    0    0 -0.56559804950E+01 -0.35327430371E+02  0.63190306330E+01  0.36331083116E+02  0.51100000000E-03 0.  1.
        -12    1    3    3    0    0  0.15293140521E+02  0.12926920688E+02 -0.77234450221E+01  0.21462456255E+02  0.00000000000E+00 0.  1.
</event>
<event>
 8    1  0.1920603E-013  0.7246157E+02  0.7816164E-02  0.1226708E+00
        -11   -1    0    0    0    0  0.00000000000E+00  0.00000000000E+00  0.45593999997E+02  0.45594000000E+02  0.51100000000E-03 0. -1.
         11   -1    0    0    0    0 -0.00000000000E+00 -0.00000000000E+00 -0.45593999997E+02  0.45594000000E+02  0.51100000000E-03 0.  1.
    9900012    2    1    2    0    0 -0.35500906689E+01  0.38046480281E+01  0.17988904107E+02  0.72461570512E+02  0.70000000284E+02 0.  0.
         24    2    3    3    0    0  0.15294710045E+02  0.35673872440E+01  0.15108813755E+02  0.53396478661E+02  0.48746828339E+02 0.  0.
        -12    1    1    2    0    0  0.35500906689E+01 -0.38046480281E+01 -0.17988904107E+02  0.18726429488E+02  0.00000000000E+00 0.  1.
         11    1    3    3    0    0 -0.18844800714E+02  0.23726078407E+00  0.28800903520E+01  0.19065091852E+02  0.51100000000E-03 0.  1.
        -11    1    4    4    0    0  0.28921479813E+02 -0.10253477554E+00  0.23246431510E+02  0.37106051881E+02  0.51100000000E-03 0. -1.
         12    1    4    4    0    0 -0.13626769768E+02  0.36699220196E+01 -0.81376177549E+01  0.16290426780E+02  0.00000000000E+00 0. -1.
</event>
<event>
 7    1  0.1920603E-013  0.7246179E+02  0.7816164E-02  0.1226707E+00
        -11   -1    0    0    0    0  0.00000000000E+00  0.00000000000E+00  0.45593999997E+02  0.45594000000E+02  0.51100000000E-03 0. -1.
         11   -1    0    0    0    0 -0.00000000000E+00 -0.00000000000E+00 -0.45593999997E+02  0.45594000000E+02  0.51100000000E-03 0.  1.
    9900012    2    1    2    0    0  0.11884168848E+02 -0.13102434252E+02  0.61452099081E+01  0.72461792233E+02  0.70000289115E+02 0.  0.
        -12    1    1    2    0    0 -0.11884168848E+02  0.13102434252E+02 -0.61452099081E+01  0.18726207767E+02  0.00000000000E+00 0.  1.
         11    1    3    3    0    0 -0.11923714380E+02 -0.15639868374E+02 -0.18384231228E+02  0.26921374509E+02  0.51100000000E-03 0. -1.
        -11    1    3    3    0    0  0.11865566238E+01  0.10073231928E+02  0.18257601987E+02  0.20885831290E+02  0.51100000000E-03 0.  1.
        -12    1    3    3    0    0  0.22621326604E+02 -0.75357978061E+01  0.62718391496E+01  0.24654586434E+02  0.00000000000E+00 0.  1.
</event>
<event>
 7    1  0.1920603E-013  0.7246155E+02  0.7816164E-02  0.1226708E+00
        -11   -1    0    0    0    0  0.00000000000E+00  0.00000000000E+00  0.45593999997E+02  0.45594000000E+02  0.51100000000E-03 0.  1.
         11   -1    0    0    0    0 -0.00000000000E+00 -0.00000000000E+00 -0.45593999997E+02  0.45594000000E+02  0.51100000000E-03 0. -1.
    9900012    2    1    2    0    0  0.50206670275E+01  0.98054536749E+01 -0.15143507268E+02  0.72461552618E+02  0.69999976973E+02 0.  0.
        -12    1    1    2    0    0 -0.50206670275E+01 -0.98054536749E+01  0.15143507268E+02  0.18726447382E+02  0.00000000000E+00 0.  1.
         11    1    3    3    0    0 -0.17763862161E+02 -0.10284893205E+02 -0.11958041644E+02  0.23755601178E+02  0.51100000000E-03 0. -1.
        -11    1    3    3    0    0 -0.22899405358E+01  0.18460081538E+02  0.91316043751E+01  0.20722080899E+02  0.51100000000E-03 0.  1.
        -12    1    3    3    0    0  0.25074469725E+02  0.16302653412E+01 -0.12317069999E+02  0.27983870540E+02  0.00000000000E+00 0.  1.
</event>
<event>
 7    1  0.1920603E-013  0.7246156E+02  0.7816164E-02  0.1226708E+00
        -11   -1    0    0    0    0  0.00000000000E+00  0.00000000000E+00  0.45593999997E+02  0.45594000000E+02  0.51100000000E-03 0.  1.
         11   -1    0    0    0    0 -0.00000000000E+00 -0.00000000000E+00 -0.45593999997E+02  0.45594000000E+02  0.51100000000E-03 0. -1.
    9900012    2    1    2    0    0 -0.54668194786E+00  0.18695114457E+02  0.93460476221E+00  0.72461557418E+02  0.69999983226E+02 0.  0.
        -12    1    1    2    0    0  0.54668194786E+00 -0.18695114457E+02 -0.93460476221E+00  0.18726442582E+02  0.00000000000E+00 0.  1.
         11    1    3    3    0    0  0.32520170591E+01 -0.10821978491E+02 -0.24722643434E+02  0.27182713847E+02  0.51100000000E-03 0. -1.
        -11    1    3    3    0    0 -0.10736111498E+02  0.51577536094E+01  0.69377632094E+01  0.13784015054E+02  0.51100000000E-03 0.  1.
         12    1    3    3    0    0  0.69374124916E+01  0.24359339339E+02  0.18719484987E+02  0.31494828517E+02  0.00000000000E+00 0. -1.
</event>
<event>
 7    1  0.1920603E-013  0.7246157E+02  0.7816164E-02  0.1226708E+00
        -11   -1    0    0    0    0  0.00000000000E+00  0.00000000000E+00  0.45593999997E+02  0.45594000000E+02  0.51100000000E-03 0. -1.
         11   -1    0    0    0    0 -0.00000000000E+00 -0.00000000000E+00 -0.45593999997E+02  0.45594000000E+02  0.51100000000E-03 0.  1.
    9900012    2    1    2    0    0  0.67571897073E+01  0.90813392877E+00  0.17441179430E+02  0.72461573222E+02  0.70000003814E+02 0.  0.
        -12    1    1    2    0    0 -0.67571897073E+01 -0.90813392877E+00 -0.17441179430E+02  0.18726426778E+02  0.00000000000E+00 0.  1.
         11    1    3    3    0    0 -0.23298997588E+01  0.27172724996E+02  0.75158722237E+01  0.28289110134E+02  0.51100000000E-03 0. -1.
        -11    1    3    3    0    0  0.19535478011E+02 -0.63338546885E+01  0.49930345018E+01  0.21134876630E+02  0.51100000000E-03 0.  1.
         12    1    3    3    0    0 -0.10448388545E+02 -0.19930736379E+02  0.49322727041E+01  0.23037586459E+02  0.00000000000E+00 0. -1.
</event>
<event>
 7    1  0.1920603E-013  0.7246171E+02  0.7816164E-02  0.1226708E+00
        -11   -1    0    0    0    0  0.00000000000E+00  0.00000000000E+00  0.45593999997E+02  0.45594000000E+02  0.51100000000E-03 0.  1.
         11   -1    0    0    0    0 -0.00000000000E+00 -0.00000000000E+00 -0.45593999997E+02  0.45594000000E+02  0.51100000000E-03 0. -1.
    9900012    2    1    2    0    0 -0.62805055803E+01  0.13311566957E+02 -0.11577184224E+02  0.72461714737E+02  0.70000188163E+02 0.  0.
        -12    1    1    2    0    0  0.62805055803E+01 -0.13311566957E+02  0.11577184224E+02  0.18726285263E+02  0.00000000000E+00 0.  1.
         11    1    3    3    0    0 -0.95530580047E+01  0.18824678495E+02 -0.21402030980E+02  0.30061210355E+02  0.51100000000E-03 0. -1.
        -11    1    3    3    0    0 -0.52628594814E+01  0.95247309464E+01  0.19687047998E+02  0.22494400385E+02  0.51100000000E-03 0.  1.
         12    1    3    3    0    0  0.85354119058E+01 -0.15037842485E+02 -0.98622012427E+01  0.19906103998E+02  0.00000000000E+00 0. -1.
</event>
<event>
 7    1  0.1920603E-013  0.7246149E+02  0.7816164E-02  0.1226708E+00
        -11   -1    0    0    0    0  0.00000000000E+00  0.00000000000E+00  0.45593999997E+02  0.45594000000E+02  0.51100000000E-03 0. -1.
         11   -1    0    0    0    0 -0.00000000000E+00 -0.00000000000E+00 -0.45593999997E+02  0.45594000000E+02  0.51100000000E-03 0.  1.
    9900012    2    1    2    0    0  0.44642816518E+01  0.10881194020E+01  0.18154017950E+02  0.72461489854E+02  0.69999895212E+02 0.  0.
        -12    1    1    2    0    0 -0.44642816518E+01 -0.10881194020E+01 -0.18154017950E+02  0.18726510146E+02  0.00000000000E+00 0.  1.
         11    1    3    3    0    0  0.11952032648E+02 -0.16824172146E+02  0.31728017719E+02  0.37849319168E+02  0.51100000000E-03 0. -1.
        -11    1    3    3    0    0 -0.68888667579E+00 -0.27519136554E+01 -0.12514976336E+02  0.12832467673E+02  0.51100000000E-03 0.  1.
         12    1    3    3    0    0 -0.67988643206E+01  0.20664205204E+02 -0.10590234326E+01  0.21779703014E+02  0.00000000000E+00 0. -1.
</event>
<event>
 7    1  0.1920603E-013  0.7246158E+02  0.7816164E-02  0.1226708E+00
        -11   -1    0    0    0    0  0.00000000000E+00  0.00000000000E+00  0.45593999997E+02  0.45594000000E+02  0.51100000000E-03 0. -1.
         11   -1    0    0    0    0 -0.00000000000E+00 -0.00000000000E+00 -0.45593999997E+02  0.45594000000E+02  0.51100000000E-03 0.  1.
    9900012    2    1    2    0    0 -0.15105636962E+02  0.10764142695E+02  0.25752577167E+01  0.72461575133E+02  0.70000006304E+02 0.  0.
        -12    1    1    2    0    0  0.15105636962E+02 -0.10764142695E+02 -0.25752577167E+01  0.18726424867E+02  0.00000000000E+00 0.  1.
         11    1    3    3    0    0 -0.32540571047E+02  0.25470985672E+02  0.11106567054E+02  0.42790369327E+02  0.51100000000E-03 0. -1.
        -11    1    3    3    0    0  0.18498259096E+02 -0.13232520149E+02 -0.19316501894E+01  0.22825784801E+02  0.51100000000E-03 0.  1.
         12    1    3    3    0    0 -0.10633250104E+01 -0.14743228273E+01 -0.65996591476E+01  0.68454210054E+01  0.00000000000E+00 0. -1.
</event>
<event>
 7    1  0.1920603E-013  0.7246157E+02  0.7816164E-02  0.1226708E+00
        -11   -1    0    0    0    0  0.00000000000E+00  0.00000000000E+00  0.45593999997E+02  0.45594000000E+02  0.51100000000E-03 0.  1.
         11   -1    0    0    0    0 -0.00000000000E+00 -0.00000000000E+00 -0.45593999997E+02  0.45594000000E+02  0.51100000000E-03 0. -1.
    9900012    2    1    2    0    0  0.17310431567E+02  0.12706473714E+01 -0.70294721568E+01  0.72461573096E+02  0.70000003650E+02 0.  0.
        -12    1    1    2    0    0 -0.17310431567E+02 -0.12706473714E+01  0.70294721568E+01  0.18726426904E+02  0.00000000000E+00 0.  1.
         11    1    3    3    0    0  0.11157920919E+02 -0.25552259206E+02 -0.80604514076E+01  0.29023921632E+02  0.51100000000E-03 0. -1.
        -11    1    3    3    0    0  0.13197989658E+02  0.27021258531E+02 -0.88071471728E+01  0.31335302539E+02  0.51100000000E-03 0.  1.
        -12    1    3    3    0    0 -0.70454790093E+01 -0.19835195381E+00  0.98381264236E+01  0.12102348925E+02  0.00000000000E+00 0.  1.
</event>
<event>
 7    1  0.1920603E-013  0.7246158E+02  0.7816164E-02  0.1226708E+00
        -11   -1    0    0    0    0  0.00000000000E+00  0.00000000000E+00  0.45593999997E+02  0.45594000000E+02  0.51100000000E-03 0.  1.
         11   -1    0    0    0    0 -0.00000000000E+00 -0.00000000000E+00 -0.45593999997E+02  0.45594000000E+02  0.51100000000E-03 0. -1.
    9900012    2    1    2    0    0 -0.18104097611E+02 -0.15351776083E+01 -0.45347091660E+01  0.72461582621E+02  0.70000016058E+02 0.  0.
        -12    1    1    2    0    0  0.18104097611E+02  0.15351776083E+01  0.45347091660E+01  0.18726417379E+02  0.00000000000E+00 0.  1.
         11    1    3    3    0    0  0.46710734597E+01  0.10149399003E+01 -0.14974648944E+02  0.15719069359E+02  0.51100000000E-03 0. -1.
        -11    1    3    3    0    0 -0.33563126424E+02  0.13057493104E+02  0.11314874250E+02  0.37749277623E+02  0.51100000000E-03 0.  1.
        -12    1    3    3    0    0  0.10787955353E+02 -0.15607610612E+02 -0.87493447194E+00  0.18993235639E+02  0.00000000000E+00 0.  1.
</event>
<event>
 7    1  0.1920603E-013  0.7246157E+02  0.7816164E-02  0.1226708E+00
        -11   -1    0    0    0    0  0.00000000000E+00  0.00000000000E+00  0.45593999997E+02  0.45594000000E+02  0.51100000000E-03 0. -1.
         11   -1    0    0    0    0 -0.00000000000E+00 -0.00000000000E+00 -0.45593999997E+02  0.45594000000E+02  0.51100000000E-03 0.  1.
    9900012    2    1    2    0    0  0.14575647883E+01  0.56318488979E+01  0.17799914134E+02  0.72461570541E+02  0.70000000321E+02 0.  0.
        -12    1    1    2    0    0 -0.14575647883E+01 -0.56318488979E+01 -0.17799914134E+02  0.18726429459E+02  0.00000000000E+00 0.  1.
         11    1    3    3    0    0 -0.44883193498E+01  0.19189944310E+02 -0.35609163560E+01  0.20026959299E+02  0.51100000000E-03 0. -1.
        -11    1    3    3    0    0  0.15785299033E+02 -0.19608722807E+02  0.29140777624E+02  0.38507954976E+02  0.51100000000E-03 0.  1.
        -12    1    3    3    0    0 -0.98394148945E+01  0.60506273944E+01 -0.77799471339E+01  0.13926656266E+02  0.00000000000E+00 0.  1.
</event>
<event>
 7    1  0.1920603E-013  0.7246159E+02  0.7816164E-02  0.1226708E+00
        -11   -1    0    0    0    0  0.00000000000E+00  0.00000000000E+00  0.45593999997E+02  0.45594000000E+02  0.51100000000E-03 0.  1.
         11   -1    0    0    0    0 -0.00000000000E+00 -0.00000000000E+00 -0.45593999997E+02  0.45594000000E+02  0.51100000000E-03 0. -1.
    9900012    2    1    2    0    0 -0.42372314378E+01  0.18055469765E+02  0.25931557985E+01  0.72461586150E+02  0.70000020655E+02 0.  0.
        -12    1    1    2    0    0  0.42372314378E+01 -0.18055469765E+02 -0.25931557985E+01  0.18726413850E+02  0.00000000000E+00 0.  1.
         11    1    3    3    0    0 -0.30567161075E+02  0.11280650798E+02 -0.15070905910E+02  0.35898978033E+02  0.51100000000E-03 0. -1.
        -11    1    3    3    0    0  0.22247837513E+02  0.12082156787E+02  0.14001283051E+02  0.28930618969E+02  0.51100000000E-03 0.  1.
         12    1    3    3    0    0  0.40820921245E+01 -0.53073378204E+01  0.36627786578E+01  0.76319891476E+01  0.00000000000E+00 0. -1.
</event>
<event>
 7    1  0.1920603E-013  0.7246157E+02  0.7816164E-02  0.1226708E+00
        -11   -1    0    0    0    0  0.00000000000E+00  0.00000000000E+00  0.45593999997E+02  0.45594000000E+02  0.51100000000E-03 0.  1.
         11   -1    0    0    0    0 -0.00000000000E+00 -0.00000000000E+00 -0.45593999997E+02  0.45594000000E+02  0.51100000000E-03 0. -1.
    9900012    2    1    2    0    0 -0.65569820350E+01  0.17305843875E+02  0.28623258717E+01  0.72461570682E+02  0.70000000504E+02 0.  0.
        -12    1    1    2    0    0  0.65569820350E+01 -0.17305843875E+02 -0.28623258717E+01  0.18726429318E+02  0.00000000000E+00 0.  1.
         11    1    3    3    0    0 -0.63877950691E+01  0.27751762460E+02 -0.15131987166E+02  0.32248120586E+02  0.51100000000E-03 0. -1.
        -11    1    3    3    0    0 -0.82168386308E+00  0.30249982855E+01  0.24875836081E+02  0.25072554716E+02  0.51100000000E-03 0.  1.
        -12    1    3    3    0    0  0.65249689726E+00 -0.13470916870E+02 -0.68815230432E+01  0.15140895381E+02  0.00000000000E+00 0.  1.
</event>
<event>
 7    1  0.1920603E-013  0.7246165E+02  0.7816164E-02  0.1226708E+00
        -11   -1    0    0    0    0  0.00000000000E+00  0.00000000000E+00  0.45593999997E+02  0.45594000000E+02  0.51100000000E-03 0.  1.
         11   -1    0    0    0    0 -0.00000000000E+00 -0.00000000000E+00 -0.45593999997E+02  0.45594000000E+02  0.51100000000E-03 0. -1.
    9900012    2    1    2    0    0  0.72951615837E+01  0.16615524317E+02 -0.46239802269E+01  0.72461648941E+02  0.70000102451E+02 0.  0.
        -12    1    1    2    0    0 -0.72951615837E+01 -0.16615524317E+02  0.46239802269E+01  0.18726351059E+02  0.00000000000E+00 0.  1.
         11    1    3    3    0    0  0.28294716829E+00 -0.94254228387E+00 -0.32240279511E+02  0.32255295197E+02  0.51100000000E-03 0. -1.
        -11    1    3    3    0    0  0.10576325625E+02  0.22856228134E+01  0.33754274237E+01  0.11334736253E+02  0.51100000000E-03 0.  1.
         12    1    3    3    0    0 -0.35641112101E+01  0.15272443788E+02  0.24240871860E+02  0.28871617490E+02  0.00000000000E+00 0. -1.
</event>
<event>
 7    1  0.1920603E-013  0.7246151E+02  0.7816164E-02  0.1226708E+00
        -11   -1    0    0    0    0  0.00000000000E+00  0.00000000000E+00  0.45593999997E+02  0.45594000000E+02  0.51100000000E-03 0. -1.
         11   -1    0    0    0    0 -0.00000000000E+00 -0.00000000000E+00 -0.45593999997E+02  0.45594000000E+02  0.51100000000E-03 0.  1.
    9900012    2    1    2    0    0  0.59832194481E+01 -0.97278933501E+01  0.14840838869E+02  0.72461512814E+02  0.69999925121E+02 0.  0.
        -12    1    1    2    0    0 -0.59832194481E+01  0.97278933501E+01 -0.14840838869E+02  0.18726487186E+02  0.00000000000E+00 0.  1.
         11    1    3    3    0    0 -0.49321044587E+01 -0.41634326826E+01  0.10731525822E+02  0.12522997757E+02  0.51100000000E-03 0. -1.
        -11    1    3    3    0    0  0.29226453231E+02 -0.20186738841E+02  0.73784069585E+01  0.36278518203E+02  0.51100000000E-03 0.  1.
        -12    1    3    3    0    0 -0.18311129325E+02  0.14622278174E+02 -0.32690939114E+01  0.23659996854E+02  0.00000000000E+00 0.  1.
</event>
<event>
 7    1  0.1920603E-013  0.7246164E+02  0.7816164E-02  0.1226708E+00
        -11   -1    0    0    0    0  0.00000000000E+00  0.00000000000E+00  0.45593999997E+02  0.45594000000E+02  0.51100000000E-03 0. -1.
         11   -1    0    0    0    0 -0.00000000000E+00 -0.00000000000E+00 -0.45593999997E+02  0.45594000000E+02  0.51100000000E-03 0.  1.
    9900012    2    1    2    0    0  0.15212557251E+02 -0.43972755398E+01  0.99959319155E+01  0.72461639298E+02  0.70000089890E+02 0.  0.
        -12    1    1    2    0    0 -0.15212557251E+02  0.43972755398E+01 -0.99959319155E+01  0.18726360702E+02  0.00000000000E+00 0.  1.
         11    1    3    3    0    0 -0.20102433480E+02 -0.91753144053E+01  0.12629116887E+02  0.25451695815E+02  0.51100000000E-03 0. -1.
        -11    1    3    3    0    0  0.20943250740E+02  0.15886175199E+02 -0.89656085609E+01  0.27773592694E+02  0.51100000000E-03 0.  1.
         12    1    3    3    0    0  0.14371739990E+02 -0.11108136333E+02  0.63324235898E+01  0.19236350789E+02  0.00000000000E+00 0. -1.
</event>
<event>
 7    1  0.1920603E-013  0.7246156E+02  0.7816164E-02  0.1226708E+00
        -11   -1    0    0    0    0  0.00000000000E+00  0.00000000000E+00  0.45593999997E+02  0.45594000000E+02  0.51100000000E-03 0. -1.
         11   -1    0    0    0    0 -0.00000000000E+00 -0.00000000000E+00 -0.45593999997E+02  0.45594000000E+02  0.51100000000E-03 0.  1.
    9900012    2    1    2    0    0 -0.15090723624E+01  0.80081201033E+01  0.16860371347E+02  0.72461563901E+02  0.69999991672E+02 0.  0.
        -12    1    1    2    0    0  0.15090723624E+01 -0.80081201033E+01 -0.16860371347E+02  0.18726436099E+02  0.00000000000E+00 0.  1.
         11    1    3    3    0    0  0.11844240840E+02  0.29997744880E+02  0.14753903402E+02  0.35465876626E+02  0.51100000000E-03 0. -1.
        -11    1    3    3    0    0 -0.16563982627E+02 -0.53652255093E+01 -0.57418228177E+01  0.18333567432E+02  0.51100000000E-03 0.  1.
         12    1    3    3    0    0  0.32106694250E+01 -0.16624399268E+02  0.78482907629E+01  0.18662119844E+02  0.00000000000E+00 0. -1.
</event>
<event>
 7    1  0.1920603E-013  0.7246154E+02  0.7816164E-02  0.1226708E+00
        -11   -1    0    0    0    0  0.00000000000E+00  0.00000000000E+00  0.45593999997E+02  0.45594000000E+02  0.51100000000E-03 0.  1.
         11   -1    0    0    0    0 -0.00000000000E+00 -0.00000000000E+00 -0.45593999997E+02  0.45594000000E+02  0.51100000000E-03 0. -1.
    9900012    2    1    2    0    0  0.94973920876E+01  0.33634872677E+01 -0.15785012886E+02  0.72461544519E+02  0.69999966423E+02 0.  0.
        -12    1    1    2    0    0 -0.94973920876E+01 -0.33634872677E+01  0.15785012886E+02  0.18726455481E+02  0.00000000000E+00 0.  1.
         11    1    3    3    0    0  0.39011022292E+01 -0.18663772513E+02 -0.55632110235E+00  0.19075232540E+02  0.51100000000E-03 0. -1.
        -11    1    3    3    0    0  0.22252781967E+02  0.25643015313E+02 -0.12183545561E+02  0.36072001917E+02  0.51100000000E-03 0.  1.
         12    1    3    3    0    0 -0.16656492108E+02 -0.36157555321E+01 -0.30451462221E+01  0.17314310062E+02  0.00000000000E+00 0. -1.
</event>
<event>
 7    1  0.1920603E-013  0.7246119E+02  0.7816164E-02  0.1226709E+00
        -11   -1    0    0    0    0  0.00000000000E+00  0.00000000000E+00  0.45593999997E+02  0.45594000000E+02  0.51100000000E-03 0.  1.
         11   -1    0    0    0    0 -0.00000000000E+00 -0.00000000000E+00 -0.45593999997E+02  0.45594000000E+02  0.51100000000E-03 0. -1.
    9900012    2    1    2    0    0 -0.80932394019E+01  0.12042696073E+02 -0.11839190531E+02  0.72461188067E+02  0.69999502076E+02 0.  0.
        -12    1    1    2    0    0  0.80932394019E+01 -0.12042696073E+02  0.11839190531E+02  0.18726811933E+02  0.00000000000E+00 0.  1.
         11    1    3    3    0    0  0.44019124306E+01 -0.18596615531E+00  0.21866182039E+02  0.22305634573E+02  0.51100000000E-03 0. -1.
        -11    1    3    3    0    0 -0.20404619926E+02  0.16092717272E+02 -0.16370059923E+02  0.30713236978E+02  0.51100000000E-03 0.  1.
         12    1    3    3    0    0  0.79094680940E+01 -0.38640550428E+01 -0.17335312648E+02  0.19442316516E+02  0.00000000000E+00 0. -1.
</event>
<event>
 7    1  0.1920603E-013  0.7246139E+02  0.7816164E-02  0.1226708E+00
        -11   -1    0    0    0    0  0.00000000000E+00  0.00000000000E+00  0.45593999997E+02  0.45594000000E+02  0.51100000000E-03 0.  1.
         11   -1    0    0    0    0 -0.00000000000E+00 -0.00000000000E+00 -0.45593999997E+02  0.45594000000E+02  0.51100000000E-03 0. -1.
    9900012    2    1    2    0    0  0.11493572886E+01  0.18044906177E+02 -0.48730226565E+01  0.72461387628E+02  0.69999762042E+02 0.  0.
        -12    1    1    2    0    0 -0.11493572886E+01 -0.18044906177E+02  0.48730226565E+01  0.18726612372E+02  0.00000000000E+00 0.  1.
         11    1    3    3    0    0  0.68136408779E+01  0.28665614288E+02 -0.39098141985E+01  0.29722546860E+02  0.51100000000E-03 0. -1.
        -11    1    3    3    0    0 -0.15971829441E+02 -0.92406927962E+00  0.14631470437E+02  0.21680248319E+02  0.51100000000E-03 0.  1.
        -12    1    3    3    0    0  0.10307545852E+02 -0.96966388307E+01 -0.15594678895E+02  0.21058592449E+02  0.00000000000E+00 0.  1.
</event>
<event>
 7    1  0.1920603E-013  0.7246156E+02  0.7816164E-02  0.1226708E+00
        -11   -1    0    0    0    0  0.00000000000E+00  0.00000000000E+00  0.45593999997E+02  0.45594000000E+02  0.51100000000E-03 0.  1.
         11   -1    0    0    0    0 -0.00000000000E+00 -0.00000000000E+00 -0.45593999997E+02  0.45594000000E+02  0.51100000000E-03 0. -1.
    9900012    2    1    2    0    0  0.90048237699E+01  0.48980863873E+01 -0.15671672628E+02  0.72461563491E+02  0.69999991137E+02 0.  0.
        -12    1    1    2    0    0 -0.90048237699E+01 -0.48980863873E+01  0.15671672628E+02  0.18726436509E+02  0.00000000000E+00 0.  1.
         11    1    3    3    0    0  0.12313484816E+02  0.46128624204E+01 -0.15488858601E+02  0.20317606873E+02  0.51100000000E-03 0. -1.
        -11    1    3    3    0    0 -0.13562237802E+02  0.20814862540E+02  0.10326596747E+02  0.26904114878E+02  0.51100000000E-03 0.  1.
        -12    1    3    3    0    0  0.10253576755E+02 -0.20529638573E+02 -0.10509410774E+02  0.25239841740E+02  0.00000000000E+00 0.  1.
</event>
<event>
 7    1  0.1920603E-013  0.7246154E+02  0.7816164E-02  0.1226708E+00
        -11   -1    0    0    0    0  0.00000000000E+00  0.00000000000E+00  0.45593999997E+02  0.45594000000E+02  0.51100000000E-03 0.  1.
         11   -1    0    0    0    0 -0.00000000000E+00 -0.00000000000E+00 -0.45593999997E+02  0.45594000000E+02  0.51100000000E-03 0. -1.
    9900012    2    1    2    0    0  0.14039890782E+02 -0.98909309250E+01 -0.74653246946E+01  0.72461544902E+02  0.69999966922E+02 0.  0.
        -12    1    1    2    0    0 -0.14039890782E+02  0.98909309250E+01  0.74653246946E+01  0.18726455098E+02  0.00000000000E+00 0.  1.
         11    1    3    3    0    0 -0.19600007459E+01  0.13852940037E+01 -0.77225142435E+01  0.80868948864E+01  0.51100000000E-03 0. -1.
        -11    1    3    3    0    0  0.82949731000E+01 -0.31404424211E+02  0.17388524607E+02  0.36842980702E+02  0.51100000000E-03 0.  1.
        -12    1    3    3    0    0  0.77049184283E+01  0.20128199282E+02 -0.17131335058E+02  0.27531669314E+02  0.00000000000E+00 0.  1.
</event>
<event>
 7    1  0.1920603E-013  0.7246193E+02  0.7816164E-02  0.1226707E+00
        -11   -1    0    0    0    0  0.00000000000E+00  0.00000000000E+00  0.45593999997E+02  0.45594000000E+02  0.51100000000E-03 0. -1.
         11   -1    0    0    0    0 -0.00000000000E+00 -0.00000000000E+00 -0.45593999997E+02  0.45594000000E+02  0.51100000000E-03 0.  1.
    9900012    2    1    2    0    0 -0.63293053645E+01 -0.17095053882E+02 -0.42853927810E+01  0.72461933544E+02  0.70000473199E+02 0.  0.
        -12    1    1    2    0    0  0.63293053645E+01  0.17095053882E+02  0.42853927810E+01  0.18726066456E+02  0.00000000000E+00 0.  1.
         11    1    3    3    0    0 -0.32796154168E+02 -0.14870655738E+02  0.74614458458E+01  0.36774954856E+02  0.51100000000E-03 0. -1.
        -11    1    3    3    0    0  0.22305561569E+02 -0.98815696244E+01 -0.56239084258E+01  0.25036210604E+02  0.51100000000E-03 0.  1.
        -12    1    3    3    0    0  0.41612872347E+01  0.76571714803E+01 -0.61229302010E+01  0.10650768084E+02  0.00000000000E+00 0.  1.
</event>
<event>
 7    1  0.1920603E-013  0.7246153E+02  0.7816164E-02  0.1226708E+00
        -11   -1    0    0    0    0  0.00000000000E+00  0.00000000000E+00  0.45593999997E+02  0.45594000000E+02  0.51100000000E-03 0. -1.
         11   -1    0    0    0    0 -0.00000000000E+00 -0.00000000000E+00 -0.45593999997E+02  0.45594000000E+02  0.51100000000E-03 0.  1.
    9900012    2    1    2    0    0 -0.10711463452E+02 -0.13612147899E+02  0.71172065022E+01  0.72461530816E+02  0.69999948573E+02 0.  0.
        -12    1    1    2    0    0  0.10711463452E+02  0.13612147899E+02 -0.71172065022E+01  0.18726469184E+02  0.00000000000E+00 0.  1.
         11    1    3    3    0    0 -0.18084180093E+02 -0.30733851300E+02  0.18369758043E+02  0.40113030254E+02  0.51100000000E-03 0. -1.
        -11    1    3    3    0    0  0.14472589861E+02  0.99694610336E+01 -0.45684637452E+00  0.17579952203E+02  0.51100000000E-03 0.  1.
        -12    1    3    3    0    0 -0.70998732196E+01  0.71522423677E+01 -0.10795705166E+02  0.14768548360E+02  0.00000000000E+00 0.  1.
</event>
<event>
 7    1  0.1920603E-013  0.7246158E+02  0.7816164E-02  0.1226708E+00
        -11   -1    0    0    0    0  0.00000000000E+00  0.00000000000E+00  0.45593999997E+02  0.45594000000E+02  0.51100000000E-03 0.  1.
         11   -1    0    0    0    0 -0.00000000000E+00 -0.00000000000E+00 -0.45593999997E+02  0.45594000000E+02  0.51100000000E-03 0. -1.
    9900012    2    1    2    0    0  0.11606791118E+02  0.42492627311E+01 -0.14067876819E+02  0.72461575034E+02  0.70000006174E+02 0.  0.
        -12    1    1    2    0    0 -0.11606791118E+02 -0.42492627311E+01  0.14067876819E+02  0.18726424966E+02  0.00000000000E+00 0.  1.
         11    1    3    3    0    0 -0.66017444638E+01  0.19916999334E+02 -0.41804681314E+01  0.21395004241E+02  0.51100000000E-03 0.  1.
        -11    1    3    3    0    0  0.32353778660E+02 -0.10383619983E+02 -0.20181383302E+01  0.34039086946E+02  0.51100000000E-03 0. -1.
         12    1    3    3    0    0 -0.14145243078E+02 -0.52841166201E+01 -0.78692703575E+01  0.17027483847E+02  0.00000000000E+00 0. -1.
</event>
<event>
 7    1  0.1920603E-013  0.7246159E+02  0.7816164E-02  0.1226708E+00
        -11   -1    0    0    0    0  0.00000000000E+00  0.00000000000E+00  0.45593999997E+02  0.45594000000E+02  0.51100000000E-03 0.  1.
         11   -1    0    0    0    0 -0.00000000000E+00 -0.00000000000E+00 -0.45593999997E+02  0.45594000000E+02  0.51100000000E-03 0. -1.
    9900012    2    1    2    0    0  0.25329160016E+01 -0.11819682444E+02  0.14302375488E+02  0.72461588140E+02  0.70000023248E+02 0.  0.
        -12    1    1    2    0    0 -0.25329160016E+01  0.11819682444E+02 -0.14302375488E+02  0.18726411860E+02  0.00000000000E+00 0.  1.
         11    1    3    3    0    0  0.90539181460E+00 -0.89132746468E+01 -0.19737602599E+02  0.21675773479E+02  0.51100000000E-03 0. -1.
        -11    1    3    3    0    0 -0.81895994147E+01 -0.11983179075E+02  0.34477843938E+02  0.37408392670E+02  0.51100000000E-03 0.  1.
         12    1    3    3    0    0  0.98171236017E+01  0.90767712771E+01 -0.43786585097E+00  0.13377421991E+02  0.00000000000E+00 0. -1.
</event>
<event>
 7    1  0.1920603E-013  0.7246164E+02  0.7816164E-02  0.1226708E+00
        -11   -1    0    0    0    0  0.00000000000E+00  0.00000000000E+00  0.45593999997E+02  0.45594000000E+02  0.51100000000E-03 0.  1.
         11   -1    0    0    0    0 -0.00000000000E+00 -0.00000000000E+00 -0.45593999997E+02  0.45594000000E+02  0.51100000000E-03 0. -1.
    9900012    2    1    2    0    0 -0.10148727146E+02 -0.10885953522E+02 -0.11365553502E+02  0.72461642821E+02  0.70000094480E+02 0.  0.
        -12    1    1    2    0    0  0.10148727146E+02  0.10885953522E+02  0.11365553502E+02  0.18726357179E+02  0.00000000000E+00 0.  1.
         11    1    3    3    0    0  0.44264269899E+01  0.22706624873E+02 -0.13065554991E+02  0.26568643106E+02  0.51100000000E-03 0. -1.
        -11    1    3    3    0    0  0.72142642849E+01 -0.10281568123E+02 -0.45852817463E+01  0.13370903529E+02  0.51100000000E-03 0.  1.
         12    1    3    3    0    0 -0.21789418421E+02 -0.23311010271E+02  0.62852832352E+01  0.32522096186E+02  0.00000000000E+00 0. -1.
</event>
<event>
 7    1  0.1920603E-013  0.7246159E+02  0.7816164E-02  0.1226708E+00
        -11   -1    0    0    0    0  0.00000000000E+00  0.00000000000E+00  0.45593999997E+02  0.45594000000E+02  0.51100000000E-03 0.  1.
         11   -1    0    0    0    0 -0.00000000000E+00 -0.00000000000E+00 -0.45593999997E+02  0.45594000000E+02  0.51100000000E-03 0. -1.
    9900012    2    1    2    0    0  0.47245316248E+01  0.17900720321E+02 -0.28145026215E+01  0.72461590518E+02  0.70000026345E+02 0.  0.
        -12    1    1    2    0    0 -0.47245316248E+01 -0.17900720321E+02  0.28145026215E+01  0.18726409482E+02  0.00000000000E+00 0.  1.
         11    1    3    3    0    0 -0.20451967955E+02  0.10524240570E+02 -0.78285712055E+01  0.24296690314E+02  0.51100000000E-03 0. -1.
        -11    1    3    3    0    0  0.39692702111E+01 -0.94018279671E+01  0.15999288489E+02  0.18977004704E+02  0.51100000000E-03 0.  1.
         12    1    3    3    0    0  0.21207229369E+02  0.16778307717E+02 -0.10985219905E+02  0.29187895500E+02  0.00000000000E+00 0. -1.
</event>
<event>
 7    1  0.1920603E-013  0.7246156E+02  0.7816164E-02  0.1226708E+00
        -11   -1    0    0    0    0  0.00000000000E+00  0.00000000000E+00  0.45593999997E+02  0.45594000000E+02  0.51100000000E-03 0. -1.
         11   -1    0    0    0    0 -0.00000000000E+00 -0.00000000000E+00 -0.45593999997E+02  0.45594000000E+02  0.51100000000E-03 0.  1.
    9900012    2    1    2    0    0 -0.82529662024E+01  0.15279105344E+02  0.70083426822E+01  0.72461564717E+02  0.69999992735E+02 0.  0.
        -12    1    1    2    0    0  0.82529662024E+01 -0.15279105344E+02 -0.70083426822E+01  0.18726435283E+02  0.00000000000E+00 0.  1.
         11    1    3    3    0    0 -0.70275226229E+00  0.22763520629E+02 -0.21294610535E+02  0.31179034145E+02  0.51100000000E-03 0. -1.
        -11    1    3    3    0    0 -0.13876626648E+02 -0.14862066265E+02  0.18980604389E+02  0.27815555433E+02  0.51100000000E-03 0.  1.
        -12    1    3    3    0    0  0.63264127075E+01  0.73776509806E+01  0.93223488276E+01  0.13466975139E+02  0.00000000000E+00 0.  1.
</event>
<event>
 7    1  0.1920603E-013  0.7246162E+02  0.7816164E-02  0.1226708E+00
        -11   -1    0    0    0    0  0.00000000000E+00  0.00000000000E+00  0.45593999997E+02  0.45594000000E+02  0.51100000000E-03 0. -1.
         11   -1    0    0    0    0 -0.00000000000E+00 -0.00000000000E+00 -0.45593999997E+02  0.45594000000E+02  0.51100000000E-03 0.  1.
    9900012    2    1    2    0    0 -0.17549893397E+02  0.55829214887E+01  0.33925806446E+01  0.72461618235E+02  0.70000062451E+02 0.  0.
        -12    1    1    2    0    0  0.17549893397E+02 -0.55829214887E+01 -0.33925806446E+01  0.18726381765E+02  0.00000000000E+00 0.  1.
         11    1    3    3    0    0 -0.39330854985E+00 -0.20734750295E+02  0.20187310695E+02  0.28941528549E+02  0.51100000000E-03 0. -1.
        -11    1    3    3    0    0  0.59420300719E+01  0.58349996766E+01 -0.76850089515E+01  0.11332003594E+02  0.51100000000E-03 0.  1.
         12    1    3    3    0    0 -0.23098614919E+02  0.20482672107E+02 -0.91097210984E+01  0.32188086092E+02  0.00000000000E+00 0. -1.
</event>
<event>
 7    1  0.1920603E-013  0.7246153E+02  0.7816164E-02  0.1226708E+00
        -11   -1    0    0    0    0  0.00000000000E+00  0.00000000000E+00  0.45593999997E+02  0.45594000000E+02  0.51100000000E-03 0.  1.
         11   -1    0    0    0    0 -0.00000000000E+00 -0.00000000000E+00 -0.45593999997E+02  0.45594000000E+02  0.51100000000E-03 0. -1.
    9900012    2    1    2    0    0  0.12311633173E+02  0.89265683445E+01 -0.10927975432E+02  0.72461532611E+02  0.69999950911E+02 0.  0.
        -12    1    1    2    0    0 -0.12311633173E+02 -0.89265683445E+01  0.10927975432E+02  0.18726467389E+02  0.00000000000E+00 0.  1.
         11    1    3    3    0    0  0.21656615507E+02  0.34258286855E+02 -0.18012144383E+02  0.44351736820E+02  0.51100000000E-03 0. -1.
        -11    1    3    3    0    0 -0.55123169210E+01 -0.17614337098E+02  0.35423377660E+01  0.18793580456E+02  0.51100000000E-03 0.  1.
         12    1    3    3    0    0 -0.38326654124E+01 -0.77173814122E+01  0.35418311848E+01  0.93162153349E+01  0.00000000000E+00 0. -1.
</event>
<event>
 7    1  0.1920603E-013  0.7246157E+02  0.7816164E-02  0.1226708E+00
        -11   -1    0    0    0    0  0.00000000000E+00  0.00000000000E+00  0.45593999997E+02  0.45594000000E+02  0.51100000000E-03 0.  1.
         11   -1    0    0    0    0 -0.00000000000E+00 -0.00000000000E+00 -0.45593999997E+02  0.45594000000E+02  0.51100000000E-03 0. -1.
    9900012    2    1    2    0    0 -0.86059769697E+01 -0.15506314502E+02 -0.60142027793E+01  0.72461567769E+02  0.69999996710E+02 0.  0.
        -12    1    1    2    0    0  0.86059769697E+01  0.15506314502E+02  0.60142027793E+01  0.18726432231E+02  0.00000000000E+00 0.  1.
         11    1    3    3    0    0  0.47957116784E+01 -0.81640547040E+01 -0.76543463247E+01  0.12175370944E+02  0.51100000000E-03 0. -1.
        -11    1    3    3    0    0  0.59024475114E+01 -0.78254274067E+00  0.27055941472E+02  0.27703343281E+02  0.51100000000E-03 0.  1.
        -12    1    3    3    0    0 -0.19304136159E+02 -0.65597170577E+01 -0.25415797927E+02  0.32582853543E+02  0.00000000000E+00 0.  1.
</event>
<event>
 7    1  0.1920603E-013  0.7246152E+02  0.7816164E-02  0.1226708E+00
        -11   -1    0    0    0    0  0.00000000000E+00  0.00000000000E+00  0.45593999997E+02  0.45594000000E+02  0.51100000000E-03 0. -1.
         11   -1    0    0    0    0 -0.00000000000E+00 -0.00000000000E+00 -0.45593999997E+02  0.45594000000E+02  0.51100000000E-03 0.  1.
    9900012    2    1    2    0    0 -0.17264296647E+02 -0.54914289242E+01  0.47401848090E+01  0.72461519221E+02  0.69999933467E+02 0.  0.
        -12    1    1    2    0    0  0.17264296647E+02  0.54914289242E+01 -0.47401848090E+01  0.18726480779E+02  0.00000000000E+00 0.  1.
         11    1    3    3    0    0 -0.33445665183E+02 -0.34648731598E+01  0.22213835402E+02  0.40299781005E+02  0.51100000000E-03 0. -1.
        -11    1    3    3    0    0  0.20897702137E+01  0.94809849438E+00 -0.17610061365E+02  0.17758949627E+02  0.51100000000E-03 0.  1.
         12    1    3    3    0    0  0.14091598322E+02 -0.29746542588E+01  0.13641077238E+00  0.14402788589E+02  0.00000000000E+00 0. -1.
</event>
<event>
 7    1  0.1920603E-013  0.7246163E+02  0.7816164E-02  0.1226708E+00
        -11   -1    0    0    0    0  0.00000000000E+00  0.00000000000E+00  0.45593999997E+02  0.45594000000E+02  0.51100000000E-03 0. -1.
         11   -1    0    0    0    0 -0.00000000000E+00 -0.00000000000E+00 -0.45593999997E+02  0.45594000000E+02  0.51100000000E-03 0.  1.
    9900012    2    1    2    0    0  0.42324293106E+01 -0.45341388639E+01  0.17669327300E+02  0.72461628212E+02  0.70000075449E+02 0.  0.
        -12    1    1    2    0    0 -0.42324293106E+01  0.45341388639E+01 -0.17669327300E+02  0.18726371788E+02  0.00000000000E+00 0.  1.
         11    1    3    3    0    0  0.22340639002E+02  0.16582972533E+01  0.34153896927E+02  0.40845351956E+02  0.51100000000E-03 0. -1.
        -11    1    3    3    0    0 -0.11012749610E+02 -0.11286592010E+02 -0.38092283011E+01  0.16222762825E+02  0.51100000000E-03 0.  1.
         12    1    3    3    0    0 -0.70954600817E+01  0.50941558927E+01 -0.12675341326E+02  0.15393513432E+02  0.00000000000E+00 0. -1.
</event>
<event>
 7    1  0.1920603E-013  0.7246164E+02  0.7816164E-02  0.1226708E+00
        -11   -1    0    0    0    0  0.00000000000E+00  0.00000000000E+00  0.45593999997E+02  0.45594000000E+02  0.51100000000E-03 0.  1.
         11   -1    0    0    0    0 -0.00000000000E+00 -0.00000000000E+00 -0.45593999997E+02  0.45594000000E+02  0.51100000000E-03 0. -1.
    9900012    2    1    2    0    0  0.11839985507E+02 -0.57891236024E+01 -0.13303284227E+02  0.72461639432E+02  0.70000090065E+02 0.  0.
        -12    1    1    2    0    0 -0.11839985507E+02  0.57891236024E+01  0.13303284227E+02  0.18726360568E+02  0.00000000000E+00 0.  1.
         11    1    3    3    0    0 -0.17777607234E+02  0.42268238796E+01 -0.10077613488E+02  0.20867861725E+02  0.51100000000E-03 0. -1.
        -11    1    3    3    0    0  0.11628505311E+02 -0.22778791348E+02  0.80629433043E+01  0.26816161658E+02  0.51100000000E-03 0.  1.
        -12    1    3    3    0    0  0.17989087430E+02  0.12762843866E+02 -0.11288614042E+02  0.24777616050E+02  0.00000000000E+00 0.  1.
</event>
<event>
 7    1  0.1920603E-013  0.7246078E+02  0.7816164E-02  0.1226710E+00
        -11   -1    0    0    0    0  0.00000000000E+00  0.00000000000E+00  0.45593999997E+02  0.45594000000E+02  0.51100000000E-03 0.  1.
         11   -1    0    0    0    0 -0.00000000000E+00 -0.00000000000E+00 -0.45593999997E+02  0.45594000000E+02  0.51100000000E-03 0. -1.
    9900012    2    1    2    0    0 -0.14549115482E+02 -0.51470068065E+01  0.10608498297E+02  0.72460782468E+02  0.69998973703E+02 0.  0.
        -12    1    1    2    0    0  0.14549115482E+02  0.51470068065E+01 -0.10608498297E+02  0.18727217532E+02  0.00000000000E+00 0.  1.
         11    1    3    3    0    0 -0.16215388017E+02  0.65124354745E+01 -0.20649751798E+02  0.27051115946E+02  0.51100000000E-03 0. -1.
        -11    1    3    3    0    0 -0.67859835485E+01 -0.12732731666E+02  0.15586500762E+01  0.14512112828E+02  0.51100000000E-03 0.  1.
         12    1    3    3    0    0  0.84522560840E+01  0.10732893855E+01  0.29699600019E+02  0.30897553694E+02  0.00000000000E+00 0. -1.
</event>
<event>
 7    1  0.1920603E-013  0.7246156E+02  0.7816164E-02  0.1226708E+00
        -11   -1    0    0    0    0  0.00000000000E+00  0.00000000000E+00  0.45593999997E+02  0.45594000000E+02  0.51100000000E-03 0. -1.
         11   -1    0    0    0    0 -0.00000000000E+00 -0.00000000000E+00 -0.45593999997E+02  0.45594000000E+02  0.51100000000E-03 0.  1.
    9900012    2    1    2    0    0 -0.11011005173E+02  0.14060092442E+02 -0.56348224800E+01  0.72461557231E+02  0.69999982982E+02 0.  0.
        -12    1    1    2    0    0  0.11011005173E+02 -0.14060092442E+02  0.56348224800E+01  0.18726442769E+02  0.00000000000E+00 0.  1.
         11    1    3    3    0    0  0.46492318600E+01 -0.13183402228E+02 -0.14506505435E+00  0.13979931879E+02  0.51100000000E-03 0. -1.
        -11    1    3    3    0    0 -0.84549169516E+01  0.40107906080E+02  0.36211777278E+01  0.41149030112E+02  0.51100000000E-03 0.  1.
        -12    1    3    3    0    0 -0.72053200818E+01 -0.12864411409E+02 -0.91109351534E+01  0.17332595240E+02  0.00000000000E+00 0.  1.
</event>
<event>
 7    1  0.1920603E-013  0.7246159E+02  0.7816164E-02  0.1226708E+00
        -11   -1    0    0    0    0  0.00000000000E+00  0.00000000000E+00  0.45593999997E+02  0.45594000000E+02  0.51100000000E-03 0. -1.
         11   -1    0    0    0    0 -0.00000000000E+00 -0.00000000000E+00 -0.45593999997E+02  0.45594000000E+02  0.51100000000E-03 0.  1.
    9900012    2    1    2    0    0 -0.45393905351E+01 -0.22226726367E+01  0.18031418327E+02  0.72461591189E+02  0.70000027219E+02 0.  0.
        -12    1    1    2    0    0  0.45393905351E+01  0.22226726367E+01 -0.18031418327E+02  0.18726408811E+02  0.00000000000E+00 0.  1.
         11    1    3    3    0    0  0.13362330962E+00  0.20606252802E+02  0.33681122175E+01  0.20880126674E+02  0.51100000000E-03 0. -1.
        -11    1    3    3    0    0 -0.99497452904E+01 -0.26122462425E+02 -0.71875893994E+01  0.28862465524E+02  0.51100000000E-03 0.  1.
        -12    1    3    3    0    0  0.52767314457E+01  0.32935369858E+01  0.21850895509E+02  0.22718998991E+02  0.00000000000E+00 0.  1.
</event>
<event>
 7    1  0.1920603E-013  0.7246178E+02  0.7816164E-02  0.1226707E+00
        -11   -1    0    0    0    0  0.00000000000E+00  0.00000000000E+00  0.45593999997E+02  0.45594000000E+02  0.51100000000E-03 0. -1.
         11   -1    0    0    0    0 -0.00000000000E+00 -0.00000000000E+00 -0.45593999997E+02  0.45594000000E+02  0.51100000000E-03 0.  1.
    9900012    2    1    2    0    0 -0.13386797751E+02 -0.90039434565E+01  0.95075821188E+01  0.72461775887E+02  0.70000267822E+02 0.  0.
        -12    1    1    2    0    0  0.13386797751E+02  0.90039434565E+01 -0.95075821188E+01  0.18726224113E+02  0.00000000000E+00 0.  1.
         11    1    3    3    0    0 -0.22634050013E+02  0.90006812333E+01  0.24518812815E+02  0.34561317463E+02  0.51100000000E-03 0. -1.
        -11    1    3    3    0    0 -0.23695304418E+01 -0.22190116589E+02 -0.80381734622E+01  0.23719784603E+02  0.51100000000E-03 0.  1.
         12    1    3    3    0    0  0.11616782704E+02  0.41854918991E+01 -0.69730572339E+01  0.14180673821E+02  0.00000000000E+00 0. -1.
</event>
<event>
 7    1  0.1920603E-013  0.7246158E+02  0.7816164E-02  0.1226708E+00
        -11   -1    0    0    0    0  0.00000000000E+00  0.00000000000E+00  0.45593999997E+02  0.45594000000E+02  0.51100000000E-03 0.  1.
         11   -1    0    0    0    0 -0.00000000000E+00 -0.00000000000E+00 -0.45593999997E+02  0.45594000000E+02  0.51100000000E-03 0. -1.
    9900012    2    1    2    0    0  0.76044208129E+01 -0.14768374797E+02 -0.86456225098E+01  0.72461577527E+02  0.70000009422E+02 0.  0.
        -12    1    1    2    0    0 -0.76044208129E+01  0.14768374797E+02  0.86456225098E+01  0.18726422473E+02  0.00000000000E+00 0.  1.
         11    1    3    3    0    0 -0.19480131824E+02 -0.13173104530E+02  0.11790982894E+02  0.26306529545E+02  0.51100000000E-03 0. -1.
        -11    1    3    3    0    0  0.29057524956E+02  0.85904232303E+01 -0.11328127770E+02  0.32349058825E+02  0.51100000000E-03 0.  1.
        -12    1    3    3    0    0 -0.19729723197E+01 -0.10185693497E+02 -0.91084776340E+01  0.13805989157E+02  0.00000000000E+00 0.  1.
</event>
<event>
 7    1  0.1920603E-013  0.7246087E+02  0.7816164E-02  0.1226710E+00
        -11   -1    0    0    0    0  0.00000000000E+00  0.00000000000E+00  0.45593999997E+02  0.45594000000E+02  0.51100000000E-03 0. -1.
         11   -1    0    0    0    0 -0.00000000000E+00 -0.00000000000E+00 -0.45593999997E+02  0.45594000000E+02  0.51100000000E-03 0.  1.
    9900012    2    1    2    0    0  0.62921462437E+01  0.17530811866E+02 -0.19454449194E+01  0.72460874620E+02  0.69999093750E+02 0.  0.
        -12    1    1    2    0    0 -0.62921462437E+01 -0.17530811866E+02  0.19454449194E+01  0.18727125380E+02  0.00000000000E+00 0.  1.
         11    1    3    3    0    0  0.57880713356E+01  0.52730814627E+01  0.29847313247E+02  0.30857240094E+02  0.51100000000E-03 0. -1.
        -11    1    3    3    0    0 -0.10167756048E+02  0.10647526729E+02 -0.11737410418E+02  0.18828698629E+02  0.51100000000E-03 0.  1.
         12    1    3    3    0    0  0.10671830956E+02  0.16102036749E+01 -0.20055347748E+02  0.22774935897E+02  0.00000000000E+00 0. -1.
</event>
<event>
 7    1  0.1920603E-013  0.7246157E+02  0.7816164E-02  0.1226708E+00
        -11   -1    0    0    0    0  0.00000000000E+00  0.00000000000E+00  0.45593999997E+02  0.45594000000E+02  0.51100000000E-03 0.  1.
         11   -1    0    0    0    0 -0.00000000000E+00 -0.00000000000E+00 -0.45593999997E+02  0.45594000000E+02  0.51100000000E-03 0. -1.
    9900012    2    1    2    0    0  0.10577219987E+02  0.10661422833E+02 -0.11186410847E+02  0.72461566621E+02  0.69999995214E+02 0.  0.
        -12    1    1    2    0    0 -0.10577219987E+02 -0.10661422833E+02  0.11186410847E+02  0.18726433379E+02  0.00000000000E+00 0.  1.
         11    1    3    3    0    0  0.10582060437E+02  0.33329118809E+02  0.10671669887E+02  0.36560835633E+02  0.51100000000E-03 0.  1.
        -11    1    3    3    0    0  0.69788709025E+01 -0.12508100233E+02 -0.17957104913E+02  0.22969867819E+02  0.51100000000E-03 0. -1.
        -12    1    3    3    0    0 -0.69837113524E+01 -0.10159595744E+02 -0.39009758216E+01  0.12930863169E+02  0.00000000000E+00 0.  1.
</event>
<event>
 7    1  0.1920603E-013  0.7246160E+02  0.7816164E-02  0.1226708E+00
        -11   -1    0    0    0    0  0.00000000000E+00  0.00000000000E+00  0.45593999997E+02  0.45594000000E+02  0.51100000000E-03 0. -1.
         11   -1    0    0    0    0 -0.00000000000E+00 -0.00000000000E+00 -0.45593999997E+02  0.45594000000E+02  0.51100000000E-03 0.  1.
    9900012    2    1    2    0    0 -0.10906946168E+02 -0.14909709290E+02 -0.30687099689E+01  0.72461604546E+02  0.70000044619E+02 0.  0.
        -12    1    1    2    0    0  0.10906946168E+02  0.14909709290E+02  0.30687099689E+01  0.18726395454E+02  0.00000000000E+00 0.  1.
         11    1    3    3    0    0  0.46248320196E+01 -0.34255893863E+02 -0.12120365741E+02  0.36630023226E+02  0.51100000000E-03 0.  1.
        -11    1    3    3    0    0 -0.88546762499E+01  0.23112835004E+02  0.12138478870E+02  0.27567210649E+02  0.51100000000E-03 0. -1.
         12    1    3    3    0    0 -0.66771019381E+01 -0.37666504307E+01 -0.30868230979E+01  0.82643706715E+01  0.00000000000E+00 0. -1.
</event>
<event>
 7    1  0.1920603E-013  0.7246159E+02  0.7816164E-02  0.1226708E+00
        -11   -1    0    0    0    0  0.00000000000E+00  0.00000000000E+00  0.45593999997E+02  0.45594000000E+02  0.51100000000E-03 0. -1.
         11   -1    0    0    0    0 -0.00000000000E+00 -0.00000000000E+00 -0.45593999997E+02  0.45594000000E+02  0.51100000000E-03 0.  1.
    9900012    2    1    2    0    0  0.16753301583E+02  0.17281594322E+01  0.81865012256E+01  0.72461589471E+02  0.70000024982E+02 0.  0.
        -12    1    1    2    0    0 -0.16753301583E+02 -0.17281594322E+01 -0.81865012256E+01  0.18726410529E+02  0.00000000000E+00 0.  1.
         11    1    3    3    0    0 -0.14925507250E+02  0.16668111490E+01 -0.40541574431E+01  0.15555874096E+02  0.51100000000E-03 0. -1.
        -11    1    3    3    0    0  0.38482220899E+02 -0.12968805312E+02  0.11417609922E+02  0.42183326720E+02  0.51100000000E-03 0.  1.
         12    1    3    3    0    0 -0.68034120664E+01  0.13030153596E+02  0.82304874642E+00  0.14722388655E+02  0.00000000000E+00 0. -1.
</event>
<event>
 7    1  0.1920603E-013  0.7246154E+02  0.7816164E-02  0.1226708E+00
        -11   -1    0    0    0    0  0.00000000000E+00  0.00000000000E+00  0.45593999997E+02  0.45594000000E+02  0.51100000000E-03 0.  1.
         11   -1    0    0    0    0 -0.00000000000E+00 -0.00000000000E+00 -0.45593999997E+02  0.45594000000E+02  0.51100000000E-03 0. -1.
    9900012    2    1    2    0    0  0.12291668337E+02  0.19633579281E+01 -0.13990724805E+02  0.72461541033E+02  0.69999961882E+02 0.  0.
        -12    1    1    2    0    0 -0.12291668337E+02 -0.19633579281E+01  0.13990724805E+02  0.18726458967E+02  0.00000000000E+00 0.  1.
         11    1    3    3    0    0  0.40982792857E+01  0.76248914239E+01  0.20005893594E+02  0.21798409141E+02  0.51100000000E-03 0. -1.
        -11    1    3    3    0    0 -0.14283858335E+01  0.13629461907E+02 -0.22200026493E+02  0.26089148981E+02  0.51100000000E-03 0.  1.
        -12    1    3    3    0    0  0.96217748845E+01 -0.19290995403E+02 -0.11796591906E+02  0.24573982912E+02  0.00000000000E+00 0.  1.
</event>
<event>
 7    1  0.1920603E-013  0.7246165E+02  0.7816164E-02  0.1226708E+00
        -11   -1    0    0    0    0  0.00000000000E+00  0.00000000000E+00  0.45593999997E+02  0.45594000000E+02  0.51100000000E-03 0. -1.
         11   -1    0    0    0    0 -0.00000000000E+00 -0.00000000000E+00 -0.45593999997E+02  0.45594000000E+02  0.51100000000E-03 0.  1.
    9900012    2    1    2    0    0 -0.10957109502E+02 -0.15142857491E+02 -0.11452847066E+01  0.72461653354E+02  0.70000108201E+02 0.  0.
        -12    1    1    2    0    0  0.10957109502E+02  0.15142857491E+02  0.11452847066E+01  0.18726346646E+02  0.00000000000E+00 0.  1.
         11    1    3    3    0    0  0.75329968915E+00  0.14777237231E+02 -0.99215474961E+01  0.17814918062E+02  0.51100000000E-03 0. -1.
        -11    1    3    3    0    0  0.95962075305E+01 -0.85861905554E+01  0.18875081316E+02  0.22849038540E+02  0.51100000000E-03 0.  1.
        -12    1    3    3    0    0 -0.21306616722E+02 -0.21333904166E+02 -0.10098818527E+02  0.31797696752E+02  0.00000000000E+00 0.  1.
</event>
<event>
 7    1  0.1920603E-013  0.7246154E+02  0.7816164E-02  0.1226708E+00
        -11   -1    0    0    0    0  0.00000000000E+00  0.00000000000E+00  0.45593999997E+02  0.45594000000E+02  0.51100000000E-03 0. -1.
         11   -1    0    0    0    0 -0.00000000000E+00 -0.00000000000E+00 -0.45593999997E+02  0.45594000000E+02  0.51100000000E-03 0.  1.
    9900012    2    1    2    0    0 -0.23507094656E+01 -0.91779857082E+01  0.16152987575E+02  0.72461541065E+02  0.69999961923E+02 0.  0.
        -12    1    1    2    0    0  0.23507094656E+01  0.91779857082E+01 -0.16152987575E+02  0.18726458935E+02  0.00000000000E+00 0.  1.
         11    1    3    3    0    0  0.23087014036E+01  0.98513542063E+01 -0.96805054847E+01  0.14003266354E+02  0.51100000000E-03 0.  1.
        -11    1    3    3    0    0  0.62737270624E+01 -0.26712250705E+02  0.33302061984E+02  0.43150102220E+02  0.51100000000E-03 0. -1.
        -12    1    3    3    0    0 -0.10933137932E+02  0.76829107902E+01 -0.74685689245E+01  0.15308172491E+02  0.00000000000E+00 0.  1.
</event>
<event>
 7    1  0.1920603E-013  0.7246157E+02  0.7816164E-02  0.1226708E+00
        -11   -1    0    0    0    0  0.00000000000E+00  0.00000000000E+00  0.45593999997E+02  0.45594000000E+02  0.51100000000E-03 0. -1.
         11   -1    0    0    0    0 -0.00000000000E+00 -0.00000000000E+00 -0.45593999997E+02  0.45594000000E+02  0.51100000000E-03 0.  1.
    9900012    2    1    2    0    0 -0.10020362724E+02 -0.54933635066E+01  0.14835582878E+02  0.72461568651E+02  0.69999997859E+02 0.  0.
        -12    1    1    2    0    0  0.10020362724E+02  0.54933635066E+01 -0.14835582878E+02  0.18726431349E+02  0.00000000000E+00 0.  1.
         11    1    3    3    0    0  0.96402516567E+01  0.55259792497E+01  0.30567622009E+02  0.32524612438E+02  0.51100000000E-03 0. -1.
        -11    1    3    3    0    0 -0.23965848336E+02  0.87086621356E+00 -0.11547053267E+02  0.26616812992E+02  0.51100000000E-03 0.  1.
         12    1    3    3    0    0  0.43052339554E+01 -0.11890208970E+02 -0.41849858638E+01  0.13320143221E+02  0.00000000000E+00 0. -1.
</event>
<event>
 7    1  0.1920603E-013  0.7246158E+02  0.7816164E-02  0.1226708E+00
        -11   -1    0    0    0    0  0.00000000000E+00  0.00000000000E+00  0.45593999997E+02  0.45594000000E+02  0.51100000000E-03 0.  1.
         11   -1    0    0    0    0 -0.00000000000E+00 -0.00000000000E+00 -0.45593999997E+02  0.45594000000E+02  0.51100000000E-03 0. -1.
    9900012    2    1    2    0    0  0.11800507114E+02  0.23617425246E+01 -0.14347440027E+02  0.72461579327E+02  0.70000011766E+02 0.  0.
        -12    1    1    2    0    0 -0.11800507114E+02 -0.23617425246E+01  0.14347440027E+02  0.18726420673E+02  0.00000000000E+00 0.  1.
         11    1    3    3    0    0 -0.19842826685E+02 -0.66877647043E+01  0.11696812436E+02  0.23984982573E+02  0.51100000000E-03 0.  1.
        -11    1    3    3    0    0  0.28072707694E+02  0.16432439585E+02 -0.22444227392E+02  0.39520188910E+02  0.51100000000E-03 0. -1.
         12    1    3    3    0    0  0.35706261052E+01 -0.73829323561E+01 -0.36000250715E+01  0.89564078443E+01  0.00000000000E+00 0. -1.
</event>
<event>
 7    1  0.1920603E-013  0.7246157E+02  0.7816164E-02  0.1226708E+00
        -11   -1    0    0    0    0  0.00000000000E+00  0.00000000000E+00  0.45593999997E+02  0.45594000000E+02  0.51100000000E-03 0.  1.
         11   -1    0    0    0    0 -0.00000000000E+00 -0.00000000000E+00 -0.45593999997E+02  0.45594000000E+02  0.51100000000E-03 0. -1.
    9900012    2    1    2    0    0  0.17268297849E+02  0.66219423048E+01 -0.29385135903E+01  0.72461572348E+02  0.70000002675E+02 0.  0.
        -12    1    1    2    0    0 -0.17268297849E+02 -0.66219423048E+01  0.29385135903E+01  0.18726427652E+02  0.00000000000E+00 0.  1.
         11    1    3    3    0    0  0.35783365984E+02  0.15081714388E+02 -0.17493312790E+02  0.42590179415E+02  0.51100000000E-03 0. -1.
        -11    1    3    3    0    0 -0.13260943788E+02 -0.57768942728E+00  0.96855362056E+00  0.13308811052E+02  0.51100000000E-03 0.  1.
         12    1    3    3    0    0 -0.52541243463E+01 -0.78820826555E+01  0.13586245579E+02  0.16562581881E+02  0.00000000000E+00 0. -1.
</event>
<event>
 7    1  0.1920603E-013  0.7246157E+02  0.7816164E-02  0.1226708E+00
        -11   -1    0    0    0    0  0.00000000000E+00  0.00000000000E+00  0.45593999997E+02  0.45594000000E+02  0.51100000000E-03 0. -1.
         11   -1    0    0    0    0 -0.00000000000E+00 -0.00000000000E+00 -0.45593999997E+02  0.45594000000E+02  0.51100000000E-03 0.  1.
    9900012    2    1    2    0    0 -0.28037585640E+01 -0.24853203812E+01  0.18347784510E+02  0.72461572794E+02  0.70000003256E+02 0.  0.
        -12    1    1    2    0    0  0.28037585640E+01  0.24853203812E+01 -0.18347784510E+02  0.18726427206E+02  0.00000000000E+00 0.  1.
         11    1    3    3    0    0  0.72898990935E+01  0.18032234342E+02  0.61967414598E+01  0.20413321855E+02  0.51100000000E-03 0.  1.
        -11    1    3    3    0    0 -0.17448064845E+02 -0.31145611716E+02  0.22565672984E+01  0.35771164256E+02  0.51100000000E-03 0. -1.
         12    1    3    3    0    0  0.73544071873E+01  0.10628056992E+02  0.98944757517E+01  0.16277086684E+02  0.00000000000E+00 0. -1.
</event>
<event>
 7    1  0.1920603E-013  0.7246156E+02  0.7816164E-02  0.1226708E+00
        -11   -1    0    0    0    0  0.00000000000E+00  0.00000000000E+00  0.45593999997E+02  0.45594000000E+02  0.51100000000E-03 0. -1.
         11   -1    0    0    0    0 -0.00000000000E+00 -0.00000000000E+00 -0.45593999997E+02  0.45594000000E+02  0.51100000000E-03 0.  1.
    9900012    2    1    2    0    0 -0.13327915006E+02  0.43430847947E+01  0.12417080320E+02  0.72461559132E+02  0.69999985458E+02 0.  0.
        -12    1    1    2    0    0  0.13327915006E+02 -0.43430847947E+01 -0.12417080320E+02  0.18726440868E+02  0.00000000000E+00 0.  1.
         11    1    3    3    0    0  0.14743471042E+02  0.24125764724E+02  0.11395668687E+02  0.30484155342E+02  0.51100000000E-03 0. -1.
        -11    1    3    3    0    0 -0.25779834232E+02 -0.40989920039E+01  0.11033585826E+01  0.26126978181E+02  0.51100000000E-03 0.  1.
        -12    1    3    3    0    0 -0.22915518159E+01 -0.15683687925E+02 -0.81946949631E-01  0.15850425608E+02  0.00000000000E+00 0.  1.
</event>
<event>
 7    1  0.1972021E-013  0.7246154E+02  0.7816164E-02  0.1226708E+00
        -11   -1    0    0    0    0  0.00000000000E+00  0.00000000000E+00  0.45593999997E+02  0.45594000000E+02  0.51100000000E-03 0. -1.
         11   -1    0    0    0    0 -0.00000000000E+00 -0.00000000000E+00 -0.45593999997E+02  0.45594000000E+02  0.51100000000E-03 0.  1.
    9900012    2    1    2    0    0  0.18221484353E+02  0.42552988199E+01  0.74188527505E+00  0.72461536003E+02  0.69999955329E+02 0.  0.
        -12    1    1    2    0    0 -0.18221484353E+02 -0.42552988199E+01 -0.74188527505E+00  0.18726463997E+02  0.00000000000E+00 0.  1.
         11    1    3    3    0    0  0.21094679281E+02  0.16643099016E+02  0.14661975630E+02  0.30609667892E+02  0.51100000000E-03 0. -1.
        -11    1    3    3    0    0  0.71489458057E+01 -0.21886464361E+02 -0.11648466906E+01  0.23053885061E+02  0.51100000000E-03 0.  1.
        -12    1    3    3    0    0 -0.10022140733E+02  0.94986641650E+01 -0.12755243664E+02  0.18797983049E+02  0.00000000000E+00 0.  1.
</event>
<event>
 7    1  0.1920603E-013  0.7246157E+02  0.7816164E-02  0.1226708E+00
        -11   -1    0    0    0    0  0.00000000000E+00  0.00000000000E+00  0.45593999997E+02  0.45594000000E+02  0.51100000000E-03 0.  1.
         11   -1    0    0    0    0 -0.00000000000E+00 -0.00000000000E+00 -0.45593999997E+02  0.45594000000E+02  0.51100000000E-03 0. -1.
    9900012    2    1    2    0    0  0.51813541098E+00  0.50781685256E+00 -0.18712370062E+02  0.72461571200E+02  0.70000001179E+02 0.  0.
        -12    1    1    2    0    0 -0.51813541098E+00 -0.50781685256E+00  0.18712370062E+02  0.18726428800E+02  0.00000000000E+00 0.  1.
         11    1    3    3    0    0 -0.16411934120E+01 -0.66446060433E+01 -0.16092356707E+02  0.17487374015E+02  0.51100000000E-03 0. -1.
        -11    1    3    3    0    0 -0.13329905840E+02 -0.13622555387E+02  0.14472260966E+02  0.23931292124E+02  0.51100000000E-03 0.  1.
        -12    1    3    3    0    0  0.15489234663E+02  0.20774978283E+02 -0.17092274321E+02  0.31042905060E+02  0.00000000000E+00 0.  1.
</event>
<event>
 7    1  0.1920603E-013  0.7246156E+02  0.7816164E-02  0.1226708E+00
        -11   -1    0    0    0    0  0.00000000000E+00  0.00000000000E+00  0.45593999997E+02  0.45594000000E+02  0.51100000000E-03 0.  1.
         11   -1    0    0    0    0 -0.00000000000E+00 -0.00000000000E+00 -0.45593999997E+02  0.45594000000E+02  0.51100000000E-03 0. -1.
    9900012    2    1    2    0    0 -0.66405877022E+01 -0.16539861715E+02  0.57458627157E+01  0.72461564970E+02  0.69999993065E+02 0.  0.
        -12    1    1    2    0    0  0.66405877022E+01  0.16539861715E+02 -0.57458627157E+01  0.18726435030E+02  0.00000000000E+00 0.  1.
         11    1    3    3    0    0 -0.81541906028E+01 -0.48912841979E+01 -0.31272781764E+02  0.32686424781E+02  0.51100000000E-03 0. -1.
        -11    1    3    3    0    0 -0.11215532919E+01 -0.52079456485E+00  0.14176925275E+02  0.14230752590E+02  0.51100000000E-03 0.  1.
         12    1    3    3    0    0  0.26351561925E+01 -0.11127782952E+02  0.22841719204E+02  0.25544387599E+02  0.00000000000E+00 0. -1.
</event>
<event>
 7    1  0.1920603E-013  0.7246166E+02  0.7816164E-02  0.1226708E+00
        -11   -1    0    0    0    0  0.00000000000E+00  0.00000000000E+00  0.45593999997E+02  0.45594000000E+02  0.51100000000E-03 0.  1.
         11   -1    0    0    0    0 -0.00000000000E+00 -0.00000000000E+00 -0.45593999997E+02  0.45594000000E+02  0.51100000000E-03 0. -1.
    9900012    2    1    2    0    0 -0.55162161010E+01 -0.17632365411E+02  0.30572337895E+01  0.72461664841E+02  0.70000123164E+02 0.  0.
        -12    1    1    2    0    0  0.55162161010E+01  0.17632365411E+02 -0.30572337895E+01  0.18726335159E+02  0.00000000000E+00 0.  1.
         11    1    3    3    0    0 -0.23812053591E+01 -0.33086124226E+01  0.32332982210E+02  0.32588936681E+02  0.51100000000E-03 0. -1.
        -11    1    3    3    0    0  0.90463020230E+01 -0.11398767023E+01 -0.10085356139E+02  0.13595929828E+02  0.51100000000E-03 0.  1.
         12    1    3    3    0    0 -0.12181312765E+02 -0.13183876286E+02 -0.19190392282E+02  0.26276798331E+02  0.00000000000E+00 0. -1.
</event>
<event>
 7    1  0.1920603E-013  0.7246158E+02  0.7816164E-02  0.1226708E+00
        -11   -1    0    0    0    0  0.00000000000E+00  0.00000000000E+00  0.45593999997E+02  0.45594000000E+02  0.51100000000E-03 0.  1.
         11   -1    0    0    0    0 -0.00000000000E+00 -0.00000000000E+00 -0.45593999997E+02  0.45594000000E+02  0.51100000000E-03 0. -1.
    9900012    2    1    2    0    0  0.10978172817E+02  0.57600508883E+01 -0.14034975004E+02  0.72461575141E+02  0.70000006313E+02 0.  0.
        -12    1    1    2    0    0 -0.10978172817E+02 -0.57600508883E+01  0.14034975004E+02  0.18726424859E+02  0.00000000000E+00 0.  1.
         11    1    3    3    0    0  0.14841871128E+02 -0.22172463108E+02 -0.28284746522E+02  0.38883494505E+02  0.51100000000E-03 0. -1.
        -11    1    3    3    0    0 -0.64959083618E+01  0.98075529579E+01  0.79992106876E+01  0.14225761574E+02  0.51100000000E-03 0.  1.
         12    1    3    3    0    0  0.26322100510E+01  0.18124961038E+02  0.62505608300E+01  0.19352319062E+02  0.00000000000E+00 0. -1.
</event>
<event>
 7    1  0.1920603E-013  0.7246155E+02  0.7816164E-02  0.1226708E+00
        -11   -1    0    0    0    0  0.00000000000E+00  0.00000000000E+00  0.45593999997E+02  0.45594000000E+02  0.51100000000E-03 0. -1.
         11   -1    0    0    0    0 -0.00000000000E+00 -0.00000000000E+00 -0.45593999997E+02  0.45594000000E+02  0.51100000000E-03 0.  1.
    9900012    2    1    2    0    0 -0.65620660662E+01 -0.97127619837E+01  0.14604156152E+02  0.72461552570E+02  0.69999976911E+02 0.  0.
        -12    1    1    2    0    0  0.65620660662E+01  0.97127619837E+01 -0.14604156152E+02  0.18726447430E+02  0.00000000000E+00 0.  1.
         11    1    3    3    0    0  0.39647439786E+01  0.22012840517E+02 -0.78345328332E+01  0.23699456690E+02  0.51100000000E-03 0. -1.
        -11    1    3    3    0    0 -0.16552804838E+02 -0.94520583193E+01  0.15781740088E+02  0.24746718468E+02  0.51100000000E-03 0.  1.
        -12    1    3    3    0    0  0.60259947928E+01 -0.22273544181E+02  0.66569488977E+01  0.24015377412E+02  0.00000000000E+00 0.  1.
</event>
<event>
 7    1  0.1920603E-013  0.7246165E+02  0.7816164E-02  0.1226708E+00
        -11   -1    0    0    0    0  0.00000000000E+00  0.00000000000E+00  0.45593999997E+02  0.45594000000E+02  0.51100000000E-03 0. -1.
         11   -1    0    0    0    0 -0.00000000000E+00 -0.00000000000E+00 -0.45593999997E+02  0.45594000000E+02  0.51100000000E-03 0.  1.
    9900012    2    1    2    0    0 -0.35875539393E+01  0.18338391401E+02 -0.12283654313E+01  0.72461654279E+02  0.70000109406E+02 0.  0.
        -12    1    1    2    0    0  0.35875539393E+01 -0.18338391401E+02  0.12283654313E+01  0.18726345721E+02  0.00000000000E+00 0.  1.
         11    1    3    3    0    0 -0.10757722475E+02  0.48441146295E+01 -0.11560388657E+02  0.16517766967E+02  0.51100000000E-03 0. -1.
        -11    1    3    3    0    0  0.13638029758E+02 -0.39138596658E+01  0.27313868533E+02  0.30779239232E+02  0.51100000000E-03 0.  1.
        -12    1    3    3    0    0 -0.64678612223E+01  0.17408136437E+02 -0.16981845307E+02  0.25164648081E+02  0.00000000000E+00 0.  1.
</event>
<event>
 7    1  0.1920603E-013  0.7246158E+02  0.7816164E-02  0.1226708E+00
        -11   -1    0    0    0    0  0.00000000000E+00  0.00000000000E+00  0.45593999997E+02  0.45594000000E+02  0.51100000000E-03 0. -1.
         11   -1    0    0    0    0 -0.00000000000E+00 -0.00000000000E+00 -0.45593999997E+02  0.45594000000E+02  0.51100000000E-03 0.  1.
    9900012    2    1    2    0    0  0.15330600028E+02  0.74281570354E+01  0.77765130703E+01  0.72461575629E+02  0.70000006950E+02 0.  0.
        -12    1    1    2    0    0 -0.15330600028E+02 -0.74281570354E+01 -0.77765130703E+01  0.18726424371E+02  0.00000000000E+00 0.  1.
         11    1    3    3    0    0  0.38933982673E+01  0.28162269606E+02 -0.64145476613E+01  0.29144783434E+02  0.51100000000E-03 0.  1.
        -11    1    3    3    0    0  0.88428532314E+01 -0.27800744747E+02  0.18594867964E+02  0.34595470464E+02  0.51100000000E-03 0. -1.
         12    1    3    3    0    0  0.25943485297E+01  0.70666321760E+01 -0.44038072324E+01  0.87213217315E+01  0.00000000000E+00 0. -1.
</event>
<event>
 7    1  0.1920603E-013  0.7246156E+02  0.7816164E-02  0.1226708E+00
        -11   -1    0    0    0    0  0.00000000000E+00  0.00000000000E+00  0.45593999997E+02  0.45594000000E+02  0.51100000000E-03 0.  1.
         11   -1    0    0    0    0 -0.00000000000E+00 -0.00000000000E+00 -0.45593999997E+02  0.45594000000E+02  0.51100000000E-03 0. -1.
    9900012    2    1    2    0    0  0.14604594151E+02 -0.10781168664E+02  0.45990940452E+01  0.72461563229E+02  0.69999990797E+02 0.  0.
        -12    1    1    2    0    0 -0.14604594151E+02  0.10781168664E+02 -0.45990940452E+01  0.18726436771E+02  0.00000000000E+00 0.  1.
         11    1    3    3    0    0  0.40789914332E+01 -0.15356490916E+02 -0.20580702159E+02  0.26000486264E+02  0.51100000000E-03 0. -1.
        -11    1    3    3    0    0  0.21286458171E+02 -0.23066436903E+01  0.25976167868E+02  0.33662964872E+02  0.51100000000E-03 0.  1.
         12    1    3    3    0    0 -0.10760855453E+02  0.68819659426E+01 -0.79637166433E+00  0.12798112093E+02  0.00000000000E+00 0. -1.
</event>
<event>
 7    1  0.1920603E-013  0.7246159E+02  0.7816164E-02  0.1226708E+00
        -11   -1    0    0    0    0  0.00000000000E+00  0.00000000000E+00  0.45593999997E+02  0.45594000000E+02  0.51100000000E-03 0.  1.
         11   -1    0    0    0    0 -0.00000000000E+00 -0.00000000000E+00 -0.45593999997E+02  0.45594000000E+02  0.51100000000E-03 0. -1.
    9900012    2    1    2    0    0 -0.56354399115E+01  0.16450276208E+02 -0.69504310114E+01  0.72461594537E+02  0.70000031581E+02 0.  0.
        -12    1    1    2    0    0  0.56354399115E+01 -0.16450276208E+02  0.69504310114E+01  0.18726405463E+02  0.00000000000E+00 0.  1.
         11    1    3    3    0    0 -0.80553111004E+01  0.23785027258E+02 -0.59407847390E+01  0.25805202618E+02  0.51100000000E-03 0. -1.
        -11    1    3    3    0    0  0.29191148307E+01 -0.10901119005E+02 -0.22337647497E+02  0.25026508404E+02  0.51100000000E-03 0.  1.
        -12    1    3    3    0    0 -0.49924364176E+00  0.35663679546E+01  0.21328001225E+02  0.21629883514E+02  0.00000000000E+00 0.  1.
</event>
<event>
 7    1  0.1920603E-013  0.7246163E+02  0.7816164E-02  0.1226708E+00
        -11   -1    0    0    0    0  0.00000000000E+00  0.00000000000E+00  0.45593999997E+02  0.45594000000E+02  0.51100000000E-03 0.  1.
         11   -1    0    0    0    0 -0.00000000000E+00 -0.00000000000E+00 -0.45593999997E+02  0.45594000000E+02  0.51100000000E-03 0. -1.
    9900012    2    1    2    0    0  0.11827804614E+02  0.53280498855E+01 -0.13505258441E+02  0.72461626001E+02  0.70000072568E+02 0.  0.
        -12    1    1    2    0    0 -0.11827804614E+02 -0.53280498855E+01  0.13505258441E+02  0.18726373999E+02  0.00000000000E+00 0.  1.
         11    1    3    3    0    0 -0.17104870172E+01 -0.54336277339E+01 -0.37557425175E+02  0.37986974902E+02  0.51100000000E-03 0. -1.
        -11    1    3    3    0    0 -0.38554237045E+01  0.65904556685E+00  0.73647663458E+01  0.83389697559E+01  0.51100000000E-03 0.  1.
         12    1    3    3    0    0  0.17393715336E+02  0.10102632053E+02  0.16687400387E+02  0.26135681343E+02  0.00000000000E+00 0. -1.
</event>
<event>
 7    1  0.1920603E-013  0.7246154E+02  0.7816164E-02  0.1226708E+00
        -11   -1    0    0    0    0  0.00000000000E+00  0.00000000000E+00  0.45593999997E+02  0.45594000000E+02  0.51100000000E-03 0. -1.
         11   -1    0    0    0    0 -0.00000000000E+00 -0.00000000000E+00 -0.45593999997E+02  0.45594000000E+02  0.51100000000E-03 0.  1.
    9900012    2    1    2    0    0  0.24766242079E+01 -0.82332145171E+01  0.16636125579E+02  0.72461543767E+02  0.69999965443E+02 0.  0.
        -12    1    1    2    0    0 -0.24766242079E+01  0.82332145171E+01 -0.16636125579E+02  0.18726456233E+02  0.00000000000E+00 0.  1.
         11    1    3    3    0    0 -0.19253043854E+02  0.61431380293E+01  0.17228917454E+00  0.20210084768E+02  0.51100000000E-03 0. -1.
        -11    1    3    3    0    0  0.23980071738E+02 -0.12374402416E+02 -0.75726157812E+01  0.28027025988E+02  0.51100000000E-03 0.  1.
         12    1    3    3    0    0 -0.22504036753E+01 -0.20019501304E+01  0.24036452186E+02  0.24224433011E+02  0.00000000000E+00 0. -1.
</event>
<event>
 8    1  0.1920603E-013  0.7246169E+02  0.7816164E-02  0.1226708E+00
        -11   -1    0    0    0    0  0.00000000000E+00  0.00000000000E+00  0.45593999997E+02  0.45594000000E+02  0.51100000000E-03 0. -1.
         11   -1    0    0    0    0 -0.00000000000E+00 -0.00000000000E+00 -0.45593999997E+02  0.45594000000E+02  0.51100000000E-03 0.  1.
    9900012    2    1    2    0    0 -0.74489784813E+01 -0.74857613282E+01  0.15464495185E+02  0.72461694588E+02  0.70000161915E+02 0.  0.
        -24    2    3    3    0    0 -0.17500520109E+02 -0.12635108286E+02  0.16933339186E+02  0.61072806752E+02  0.54564050282E+02 0.  0.
        -12    1    1    2    0    0  0.74489784813E+01  0.74857613282E+01 -0.15464495185E+02  0.18726305412E+02  0.00000000000E+00 0.  1.
         11    1    4    4    0    0 -0.20636756673E+02 -0.14142701279E+02  0.34806128756E+02  0.42864417932E+02  0.51100000000E-03 0. -1.
        -11    1    3    3    0    0  0.10051541627E+02  0.51493469575E+01 -0.14688440010E+01  0.11388887836E+02  0.51100000000E-03 0.  1.
        -12    1    4    4    0    0  0.31362365641E+01  0.15075929929E+01 -0.17872789570E+02  0.18208388820E+02  0.00000000000E+00 0.  1.
</event>
<event>
 7    1  0.1920603E-013  0.7246149E+02  0.7816164E-02  0.1226708E+00
        -11   -1    0    0    0    0  0.00000000000E+00  0.00000000000E+00  0.45593999997E+02  0.45594000000E+02  0.51100000000E-03 0.  1.
         11   -1    0    0    0    0 -0.00000000000E+00 -0.00000000000E+00 -0.45593999997E+02  0.45594000000E+02  0.51100000000E-03 0. -1.
    9900012    2    1    2    0    0 -0.18185668799E+02 -0.26909996766E+01 -0.35668257187E+01  0.72461487387E+02  0.69999891998E+02 0.  0.
        -12    1    1    2    0    0  0.18185668799E+02  0.26909996766E+01  0.35668257187E+01  0.18726512613E+02  0.00000000000E+00 0.  1.
         11    1    3    3    0    0  0.81774334685E+01 -0.15499500583E+02 -0.73994347960E+01  0.19022528014E+02  0.51100000000E-03 0. -1.
        -11    1    3    3    0    0 -0.33055135493E+01  0.19092316348E+02  0.17327153239E+02  0.25993714683E+02  0.51100000000E-03 0.  1.
        -12    1    3    3    0    0 -0.23057588718E+02 -0.62838154416E+01 -0.13494544162E+02  0.27445244691E+02  0.00000000000E+00 0.  1.
</event>
<event>
 7    1  0.1920603E-013  0.7246153E+02  0.7816164E-02  0.1226708E+00
        -11   -1    0    0    0    0  0.00000000000E+00  0.00000000000E+00  0.45593999997E+02  0.45594000000E+02  0.51100000000E-03 0.  1.
         11   -1    0    0    0    0 -0.00000000000E+00 -0.00000000000E+00 -0.45593999997E+02  0.45594000000E+02  0.51100000000E-03 0. -1.
    9900012    2    1    2    0    0  0.10492969392E+02  0.67929590795E+01 -0.13943958730E+02  0.72461529836E+02  0.69999947296E+02 0.  0.
        -12    1    1    2    0    0 -0.10492969392E+02 -0.67929590795E+01  0.13943958730E+02  0.18726470164E+02  0.00000000000E+00 0.  1.
         11    1    3    3    0    0  0.42704404181E+01  0.33413093519E+01  0.26653374411E+02  0.27199326780E+02  0.51100000000E-03 0.  1.
        -11    1    3    3    0    0 -0.15376226893E+01 -0.27927564014E+01 -0.31840401799E+02  0.31999608729E+02  0.51100000000E-03 0. -1.
         12    1    3    3    0    0  0.77601516632E+01  0.62444061290E+01 -0.87569313427E+01  0.13262594327E+02  0.00000000000E+00 0. -1.
</event>
<event>
 7    1  0.1920603E-013  0.7246156E+02  0.7816164E-02  0.1226708E+00
        -11   -1    0    0    0    0  0.00000000000E+00  0.00000000000E+00  0.45593999997E+02  0.45594000000E+02  0.51100000000E-03 0.  1.
         11   -1    0    0    0    0 -0.00000000000E+00 -0.00000000000E+00 -0.45593999997E+02  0.45594000000E+02  0.51100000000E-03 0. -1.
    9900012    2    1    2    0    0  0.12255532611E+02 -0.45440592163E+01 -0.13410184348E+02  0.72461558854E+02  0.69999985097E+02 0.  0.
        -12    1    1    2    0    0 -0.12255532611E+02  0.45440592163E+01  0.13410184348E+02  0.18726441146E+02  0.00000000000E+00 0.  1.
         11    1    3    3    0    0  0.14914184876E+02  0.23120866692E+02 -0.73407111636E+00  0.27523558050E+02  0.51100000000E-03 0. -1.
        -11    1    3    3    0    0  0.40749638222E+01 -0.30204539317E+02 -0.13471968005E+00  0.30478478885E+02  0.51100000000E-03 0.  1.
         12    1    3    3    0    0 -0.67336160874E+01  0.25396134091E+01 -0.12541393552E+02  0.14459521918E+02  0.00000000000E+00 0. -1.
</event>
<event>
 7    1  0.1920603E-013  0.7246157E+02  0.7816164E-02  0.1226708E+00
        -11   -1    0    0    0    0  0.00000000000E+00  0.00000000000E+00  0.45593999997E+02  0.45594000000E+02  0.51100000000E-03 0. -1.
         11   -1    0    0    0    0 -0.00000000000E+00 -0.00000000000E+00 -0.45593999997E+02  0.45594000000E+02  0.51100000000E-03 0.  1.
    9900012    2    1    2    0    0  0.53687722294E+01 -0.17126791639E+02  0.53412212036E+01  0.72461565448E+02  0.69999993687E+02 0.  0.
        -12    1    1    2    0    0 -0.53687722294E+01  0.17126791639E+02 -0.53412212036E+01  0.18726434552E+02  0.00000000000E+00 0.  1.
         11    1    3    3    0    0 -0.13829130819E+01 -0.55934297316E+01 -0.24080111896E+01  0.62447916623E+01  0.51100000000E-03 0. -1.
        -11    1    3    3    0    0  0.23562948982E+02 -0.17250778819E+02  0.27180147290E+02  0.39894389850E+02  0.51100000000E-03 0.  1.
        -12    1    3    3    0    0 -0.16811263670E+02  0.57174169117E+01 -0.19430914897E+02  0.26322383936E+02  0.00000000000E+00 0.  1.
</event>
<event>
 7    1  0.1920603E-013  0.7246165E+02  0.7816164E-02  0.1226708E+00
        -11   -1    0    0    0    0  0.00000000000E+00  0.00000000000E+00  0.45593999997E+02  0.45594000000E+02  0.51100000000E-03 0.  1.
         11   -1    0    0    0    0 -0.00000000000E+00 -0.00000000000E+00 -0.45593999997E+02  0.45594000000E+02  0.51100000000E-03 0. -1.
    9900012    2    1    2    0    0  0.79374765258E+01  0.16697961275E+02 -0.29750328786E+01  0.72461647847E+02  0.70000101027E+02 0.  0.
        -12    1    1    2    0    0 -0.79374765258E+01 -0.16697961275E+02  0.29750328786E+01  0.18726352153E+02  0.00000000000E+00 0.  1.
         11    1    3    3    0    0 -0.61717292459E+01 -0.19943703750E+02  0.66211492388E+01  0.21901625023E+02  0.51100000000E-03 0. -1.
        -11    1    3    3    0    0  0.57433388431E+01  0.66057323558E+01  0.10343358911E+02  0.13550155529E+02  0.51100000000E-03 0.  1.
         12    1    3    3    0    0  0.83658669285E+01  0.30035932669E+02 -0.19939541029E+02  0.37009867295E+02  0.00000000000E+00 0. -1.
</event>
<event>
 7    1  0.1920603E-013  0.7246155E+02  0.7816164E-02  0.1226708E+00
        -11   -1    0    0    0    0  0.00000000000E+00  0.00000000000E+00  0.45593999997E+02  0.45594000000E+02  0.51100000000E-03 0.  1.
         11   -1    0    0    0    0 -0.00000000000E+00 -0.00000000000E+00 -0.45593999997E+02  0.45594000000E+02  0.51100000000E-03 0. -1.
    9900012    2    1    2    0    0  0.18009595315E+02 -0.41857219947E+01 -0.29688551666E+01  0.72461550976E+02  0.69999974835E+02 0.  0.
        -12    1    1    2    0    0 -0.18009595315E+02  0.41857219947E+01  0.29688551666E+01  0.18726449024E+02  0.00000000000E+00 0.  1.
         11    1    3    3    0    0  0.53716568649E+00  0.41969493178E+01 -0.28424766907E+02  0.28737959296E+02  0.51100000000E-03 0. -1.
        -11    1    3    3    0    0  0.24835222972E+02 -0.81713118753E+00  0.19622189814E+02  0.31662064633E+02  0.51100000000E-03 0.  1.
        -12    1    3    3    0    0 -0.73627933432E+01 -0.75655401250E+01  0.58337219263E+01  0.12061527047E+02  0.00000000000E+00 0.  1.
</event>
<event>
 7    1  0.1920603E-013  0.7246155E+02  0.7816164E-02  0.1226708E+00
        -11   -1    0    0    0    0  0.00000000000E+00  0.00000000000E+00  0.45593999997E+02  0.45594000000E+02  0.51100000000E-03 0.  1.
         11   -1    0    0    0    0 -0.00000000000E+00 -0.00000000000E+00 -0.45593999997E+02  0.45594000000E+02  0.51100000000E-03 0. -1.
    9900012    2    1    2    0    0 -0.12109869346E+02 -0.13172586268E+02  0.55239362102E+01  0.72461552503E+02  0.69999976824E+02 0.  0.
        -12    1    1    2    0    0  0.12109869346E+02  0.13172586268E+02 -0.55239362102E+01  0.18726447497E+02  0.00000000000E+00 0.  1.
         11    1    3    3    0    0  0.10473356636E+02 -0.29721539196E+02 -0.13322259413E+02  0.34213209255E+02  0.51100000000E-03 0. -1.
        -11    1    3    3    0    0 -0.11831723750E+02  0.39501356273E+01  0.17689650471E+02  0.21645253346E+02  0.51100000000E-03 0.  1.
         12    1    3    3    0    0 -0.10751502233E+02  0.12598817300E+02  0.11565451530E+01  0.16603089903E+02  0.00000000000E+00 0. -1.
</event>
<event>
 7    1  0.1920603E-013  0.7246155E+02  0.7816164E-02  0.1226708E+00
        -11   -1    0    0    0    0  0.00000000000E+00  0.00000000000E+00  0.45593999997E+02  0.45594000000E+02  0.51100000000E-03 0. -1.
         11   -1    0    0    0    0 -0.00000000000E+00 -0.00000000000E+00 -0.45593999997E+02  0.45594000000E+02  0.51100000000E-03 0.  1.
    9900012    2    1    2    0    0  0.17407611133E+02 -0.55714131144E+01  0.40760551910E+01  0.72461553584E+02  0.69999978231E+02 0.  0.
        -12    1    1    2    0    0 -0.17407611133E+02  0.55714131144E+01 -0.40760551910E+01  0.18726446416E+02  0.00000000000E+00 0.  1.
         11    1    3    3    0    0 -0.79021043504E+01  0.64891217681E+01 -0.79526914397E-01  0.10225374285E+02  0.51100000000E-03 0. -1.
        -11    1    3    3    0    0 -0.32520267649E+01 -0.27009017291E+02 -0.70574560964E+01  0.28104632713E+02  0.51100000000E-03 0.  1.
        -12    1    3    3    0    0  0.28561742249E+02  0.14948482409E+02  0.11213038202E+02  0.34131546585E+02  0.00000000000E+00 0.  1.
</event>
<event>
 7    1  0.1920603E-013  0.7246161E+02  0.7816164E-02  0.1226708E+00
        -11   -1    0    0    0    0  0.00000000000E+00  0.00000000000E+00  0.45593999997E+02  0.45594000000E+02  0.51100000000E-03 0.  1.
         11   -1    0    0    0    0 -0.00000000000E+00 -0.00000000000E+00 -0.45593999997E+02  0.45594000000E+02  0.51100000000E-03 0. -1.
    9900012    2    1    2    0    0 -0.12538083131E+02  0.19140237610E+01 -0.13777185546E+02  0.72461605335E+02  0.70000045647E+02 0.  0.
        -12    1    1    2    0    0  0.12538083131E+02 -0.19140237610E+01  0.13777185546E+02  0.18726394665E+02  0.00000000000E+00 0.  1.
         11    1    3    3    0    0 -0.19235903889E+02  0.13320695846E+02 -0.75839701551E+01  0.24596291180E+02  0.51100000000E-03 0.  1.
        -11    1    3    3    0    0  0.13416603821E+02 -0.18844725231E+02  0.12764556799E+02  0.26420878820E+02  0.51100000000E-03 0. -1.
         12    1    3    3    0    0 -0.67187830630E+01  0.74380531461E+01 -0.18957772190E+02  0.21444435335E+02  0.00000000000E+00 0. -1.
</event>
<event>
 7    1  0.1920603E-013  0.7246158E+02  0.7816164E-02  0.1226708E+00
        -11   -1    0    0    0    0  0.00000000000E+00  0.00000000000E+00  0.45593999997E+02  0.45594000000E+02  0.51100000000E-03 0. -1.
         11   -1    0    0    0    0 -0.00000000000E+00 -0.00000000000E+00 -0.45593999997E+02  0.45594000000E+02  0.51100000000E-03 0.  1.
    9900012    2    1    2    0    0  0.83580552314E+01  0.14740616469E+02  0.79709430258E+01  0.72461580324E+02  0.70000013066E+02 0.  0.
        -12    1    1    2    0    0 -0.83580552314E+01 -0.14740616469E+02 -0.79709430258E+01  0.18726419676E+02  0.00000000000E+00 0.  1.
         11    1    3    3    0    0  0.87558867966E+01  0.33432786875E+02  0.22751806158E+02  0.41377064607E+02  0.51100000000E-03 0. -1.
        -11    1    3    3    0    0 -0.96317608772E+01 -0.10669168488E+02 -0.43749453793E+01  0.15024717008E+02  0.51100000000E-03 0.  1.
         12    1    3    3    0    0  0.92339293119E+01 -0.80230019172E+01 -0.10405917753E+02  0.16059798709E+02  0.00000000000E+00 0. -1.
</event>
<event>
 7    1  0.1920603E-013  0.7246162E+02  0.7816164E-02  0.1226708E+00
        -11   -1    0    0    0    0  0.00000000000E+00  0.00000000000E+00  0.45593999997E+02  0.45594000000E+02  0.51100000000E-03 0. -1.
         11   -1    0    0    0    0 -0.00000000000E+00 -0.00000000000E+00 -0.45593999997E+02  0.45594000000E+02  0.51100000000E-03 0.  1.
    9900012    2    1    2    0    0 -0.87849602349E+01 -0.49766008571E+01  0.15771337991E+02  0.72461623296E+02  0.70000069045E+02 0.  0.
        -12    1    1    2    0    0  0.87849602349E+01  0.49766008571E+01 -0.15771337991E+02  0.18726376704E+02  0.00000000000E+00 0.  1.
         11    1    3    3    0    0  0.53170479714E+01  0.16354501238E+02  0.37861202213E+01  0.17608958415E+02  0.51100000000E-03 0. -1.
        -11    1    3    3    0    0 -0.20015701971E+02 -0.23434480168E+02 -0.96746258009E+01  0.32301727056E+02  0.51100000000E-03 0.  1.
        -12    1    3    3    0    0  0.59136937650E+01  0.21033780725E+01  0.21659843571E+02  0.22550937825E+02  0.00000000000E+00 0.  1.
</event>
<event>
 7    1  0.1920603E-013  0.7246204E+02  0.7816164E-02  0.1226707E+00
        -11   -1    0    0    0    0  0.00000000000E+00  0.00000000000E+00  0.45593999997E+02  0.45594000000E+02  0.51100000000E-03 0. -1.
         11   -1    0    0    0    0 -0.00000000000E+00 -0.00000000000E+00 -0.45593999997E+02  0.45594000000E+02  0.51100000000E-03 0.  1.
    9900012    2    1    2    0    0 -0.35676449370E+01  0.17163031711E+02  0.65851283307E+01  0.72462037727E+02  0.70000608916E+02 0.  0.
        -12    1    1    2    0    0  0.35676449370E+01 -0.17163031711E+02 -0.65851283307E+01  0.18725962273E+02  0.00000000000E+00 0.  1.
         11    1    3    3    0    0 -0.52356862035E+01 -0.25195803604E+01  0.26617537546E+02  0.27244338870E+02  0.51100000000E-03 0. -1.
        -11    1    3    3    0    0 -0.26935214074E+01  0.28269823327E+02 -0.21306819403E+02  0.35502373467E+02  0.51100000000E-03 0.  1.
        -12    1    3    3    0    0  0.43615626740E+01 -0.85872112553E+01  0.12744101880E+01  0.97153253898E+01  0.00000000000E+00 0.  1.
</event>
<event>
 7    1  0.1920603E-013  0.7246159E+02  0.7816164E-02  0.1226708E+00
        -11   -1    0    0    0    0  0.00000000000E+00  0.00000000000E+00  0.45593999997E+02  0.45594000000E+02  0.51100000000E-03 0. -1.
         11   -1    0    0    0    0 -0.00000000000E+00 -0.00000000000E+00 -0.45593999997E+02  0.45594000000E+02  0.51100000000E-03 0.  1.
    9900012    2    1    2    0    0  0.12294224913E+02  0.65747426748E+01  0.12502135470E+02  0.72461585534E+02  0.70000019852E+02 0.  0.
        -12    1    1    2    0    0 -0.12294224913E+02 -0.65747426748E+01 -0.12502135470E+02  0.18726414466E+02  0.00000000000E+00 0.  1.
         11    1    3    3    0    0 -0.56710816035E+01  0.19929767888E+02 -0.10446958882E+02  0.23205511517E+02  0.51100000000E-03 0. -1.
        -11    1    3    3    0    0  0.73781921908E+01  0.44059322285E+01  0.26869858800E+02  0.28210623372E+02  0.51100000000E-03 0.  1.
        -12    1    3    3    0    0  0.10587114325E+02 -0.17760957442E+02 -0.39207644483E+01  0.21045450645E+02  0.00000000000E+00 0.  1.
</event>
<event>
 7    1  0.1920603E-013  0.7246158E+02  0.7816164E-02  0.1226708E+00
        -11   -1    0    0    0    0  0.00000000000E+00  0.00000000000E+00  0.45593999997E+02  0.45594000000E+02  0.51100000000E-03 0.  1.
         11   -1    0    0    0    0 -0.00000000000E+00 -0.00000000000E+00 -0.45593999997E+02  0.45594000000E+02  0.51100000000E-03 0. -1.
    9900012    2    1    2    0    0 -0.14729372100E+02  0.10165922163E+02  0.55116772160E+01  0.72461575846E+02  0.70000007232E+02 0.  0.
        -12    1    1    2    0    0  0.14729372100E+02 -0.10165922163E+02 -0.55116772160E+01  0.18726424154E+02  0.00000000000E+00 0.  1.
         11    1    3    3    0    0  0.12938985963E+02  0.27029328737E+02  0.52040845460E+01  0.30415201231E+02  0.51100000000E-03 0.  1.
        -11    1    3    3    0    0 -0.18783483454E+02 -0.22842007292E+02  0.56033775554E+01  0.30099408435E+02  0.51100000000E-03 0. -1.
         12    1    3    3    0    0 -0.88848746080E+01  0.59786007182E+01 -0.52957848854E+01  0.11946966180E+02  0.00000000000E+00 0. -1.
</event>
<event>
 7    1  0.1920603E-013  0.7246159E+02  0.7816164E-02  0.1226708E+00
        -11   -1    0    0    0    0  0.00000000000E+00  0.00000000000E+00  0.45593999997E+02  0.45594000000E+02  0.51100000000E-03 0.  1.
         11   -1    0    0    0    0 -0.00000000000E+00 -0.00000000000E+00 -0.45593999997E+02  0.45594000000E+02  0.51100000000E-03 0. -1.
    9900012    2    1    2    0    0  0.17878750285E+02 -0.30946682733E+01  0.46315847523E+01  0.72461594558E+02  0.70000031607E+02 0.  0.
        -12    1    1    2    0    0 -0.17878750285E+02  0.30946682733E+01 -0.46315847523E+01  0.18726405442E+02  0.00000000000E+00 0.  1.
         11    1    3    3    0    0  0.12124819940E+02  0.19574715729E+02 -0.10999989488E+02  0.25518239035E+02  0.51100000000E-03 0. -1.
        -11    1    3    3    0    0  0.16934815068E+02 -0.95399183272E+01  0.21257093040E+02  0.28803854045E+02  0.51100000000E-03 0.  1.
        -12    1    3    3    0    0 -0.11180884723E+02 -0.13129465675E+02 -0.56255187999E+01  0.18139501478E+02  0.00000000000E+00 0.  1.
</event>
<event>
 7    1  0.1920603E-013  0.7246156E+02  0.7816164E-02  0.1226708E+00
        -11   -1    0    0    0    0  0.00000000000E+00  0.00000000000E+00  0.45593999997E+02  0.45594000000E+02  0.51100000000E-03 0. -1.
         11   -1    0    0    0    0 -0.00000000000E+00 -0.00000000000E+00 -0.45593999997E+02  0.45594000000E+02  0.51100000000E-03 0.  1.
    9900012    2    1    2    0    0 -0.15955152476E+02 -0.88649506496E+01  0.41863358818E+01  0.72461557501E+02  0.69999983334E+02 0.  0.
        -12    1    1    2    0    0  0.15955152476E+02  0.88649506496E+01 -0.41863358818E+01  0.18726442499E+02  0.00000000000E+00 0.  1.
         11    1    3    3    0    0 -0.22604201730E+02 -0.15791372928E+02 -0.40582274756E+01  0.27870891720E+02  0.51100000000E-03 0. -1.
        -11    1    3    3    0    0  0.10300610414E+02 -0.96480176099E+01  0.19612948703E+02  0.24163082912E+02  0.51100000000E-03 0.  1.
         12    1    3    3    0    0 -0.36515611598E+01  0.16574439888E+02 -0.11368385346E+02  0.20427582869E+02  0.00000000000E+00 0. -1.
</event>
<event>
 7    1  0.1920603E-013  0.7246155E+02  0.7816164E-02  0.1226708E+00
        -11   -1    0    0    0    0  0.00000000000E+00  0.00000000000E+00  0.45593999997E+02  0.45594000000E+02  0.51100000000E-03 0. -1.
         11   -1    0    0    0    0 -0.00000000000E+00 -0.00000000000E+00 -0.45593999997E+02  0.45594000000E+02  0.51100000000E-03 0.  1.
    9900012    2    1    2    0    0  0.83674070529E+01 -0.11844040997E+02  0.11848420874E+02  0.72461551188E+02  0.69999975110E+02 0.  0.
        -12    1    1    2    0    0 -0.83674070529E+01  0.11844040997E+02 -0.11848420874E+02  0.18726448812E+02  0.00000000000E+00 0.  1.
         11    1    3    3    0    0 -0.85128494883E+00 -0.98766993961E+01  0.24363928689E+02  0.26303514944E+02  0.51100000000E-03 0. -1.
        -11    1    3    3    0    0 -0.19087842816E+01  0.18546480417E+02 -0.13144432048E+02  0.22812090816E+02  0.51100000000E-03 0.  1.
        -12    1    3    3    0    0  0.11127476283E+02 -0.20513822017E+02  0.62892423330E+00  0.23345945427E+02  0.00000000000E+00 0.  1.
</event>
<event>
 7    1  0.1920603E-013  0.7246154E+02  0.7816164E-02  0.1226708E+00
        -11   -1    0    0    0    0  0.00000000000E+00  0.00000000000E+00  0.45593999997E+02  0.45594000000E+02  0.51100000000E-03 0.  1.
         11   -1    0    0    0    0 -0.00000000000E+00 -0.00000000000E+00 -0.45593999997E+02  0.45594000000E+02  0.51100000000E-03 0. -1.
    9900012    2    1    2    0    0  0.32078917308E+01 -0.16347504313E+02 -0.85527115770E+01  0.72461538990E+02  0.69999959221E+02 0.  0.
        -12    1    1    2    0    0 -0.32078917308E+01  0.16347504313E+02  0.85527115770E+01  0.18726461010E+02  0.00000000000E+00 0.  1.
         11    1    3    3    0    0  0.99589341649E+01 -0.36674591615E+02  0.12411621203E+02  0.39978173807E+02  0.51100000000E-03 0. -1.
        -11    1    3    3    0    0 -0.57273595523E+01  0.36122166244E+01 -0.17464009125E+01  0.69929016003E+01  0.51100000000E-03 0.  1.
         12    1    3    3    0    0 -0.10236828818E+01  0.16714870677E+02 -0.19217931868E+02  0.25490463583E+02  0.00000000000E+00 0. -1.
</event>
<event>
 7    1  0.1920603E-013  0.7246162E+02  0.7816164E-02  0.1226708E+00
        -11   -1    0    0    0    0  0.00000000000E+00  0.00000000000E+00  0.45593999997E+02  0.45594000000E+02  0.51100000000E-03 0.  1.
         11   -1    0    0    0    0 -0.00000000000E+00 -0.00000000000E+00 -0.45593999997E+02  0.45594000000E+02  0.51100000000E-03 0. -1.
    9900012    2    1    2    0    0 -0.11176501299E+02  0.15005383132E+02  0.77572581606E+00  0.72461616079E+02  0.70000059643E+02 0.  0.
        -12    1    1    2    0    0  0.11176501299E+02 -0.15005383132E+02 -0.77572581606E+00  0.18726383921E+02  0.00000000000E+00 0.  1.
         11    1    3    3    0    0 -0.15713786953E+02 -0.56241778396E+01 -0.54585474623E+01  0.17559903685E+02  0.51100000000E-03 0. -1.
        -11    1    3    3    0    0  0.64962507885E+01  0.33982173121E+02 -0.77633669493E+01  0.35457851472E+02  0.51100000000E-03 0.  1.
        -12    1    3    3    0    0 -0.19589651344E+01 -0.13352612149E+02  0.13997640228E+02  0.19443860922E+02  0.00000000000E+00 0.  1.
</event>
<event>
 7    1  0.1920603E-013  0.7246188E+02  0.7816164E-02  0.1226707E+00
        -11   -1    0    0    0    0  0.00000000000E+00  0.00000000000E+00  0.45593999997E+02  0.45594000000E+02  0.51100000000E-03 0. -1.
         11   -1    0    0    0    0 -0.00000000000E+00 -0.00000000000E+00 -0.45593999997E+02  0.45594000000E+02  0.51100000000E-03 0.  1.
    9900012    2    1    2    0    0  0.18479152669E+02  0.29205970058E+01 -0.81153837191E+00  0.72461880147E+02  0.70000403639E+02 0.  0.
        -12    1    1    2    0    0 -0.18479152669E+02 -0.29205970058E+01  0.81153837191E+00  0.18726119853E+02  0.00000000000E+00 0.  1.
         11    1    3    3    0    0 -0.79657380144E+01  0.11899864582E+02 -0.56382481323E+01  0.15389918825E+02  0.51100000000E-03 0. -1.
        -11    1    3    3    0    0  0.34015877451E+02 -0.19862325276E+02  0.13020854023E+02  0.41486558352E+02  0.51100000000E-03 0.  1.
        -12    1    3    3    0    0 -0.75709867680E+01  0.10883057700E+02 -0.81941442626E+01  0.15585402970E+02  0.00000000000E+00 0.  1.
</event>
<event>
 7    1  0.1920603E-013  0.7246160E+02  0.7816164E-02  0.1226708E+00
        -11   -1    0    0    0    0  0.00000000000E+00  0.00000000000E+00  0.45593999997E+02  0.45594000000E+02  0.51100000000E-03 0. -1.
         11   -1    0    0    0    0 -0.00000000000E+00 -0.00000000000E+00 -0.45593999997E+02  0.45594000000E+02  0.51100000000E-03 0.  1.
    9900012    2    1    2    0    0  0.52648412018E+01  0.17011673211E+02 -0.57933166074E+01  0.72461598968E+02  0.70000037353E+02 0.  0.
        -12    1    1    2    0    0 -0.52648412018E+01 -0.17011673211E+02  0.57933166074E+01  0.18726401032E+02  0.00000000000E+00 0.  1.
         11    1    3    3    0    0 -0.11136969957E+02  0.97841561664E+01  0.25555894249E+02  0.29544297975E+02  0.51100000000E-03 0. -1.
        -11    1    3    3    0    0  0.11799959544E+02 -0.59533438020E+01 -0.72719297559E+01  0.15085168554E+02  0.51100000000E-03 0.  1.
         12    1    3    3    0    0  0.46018516147E+01  0.13180860846E+02 -0.24077281100E+02  0.27832132439E+02  0.00000000000E+00 0. -1.
</event>
<event>
 7    1  0.1920603E-013  0.7246158E+02  0.7816164E-02  0.1226708E+00
        -11   -1    0    0    0    0  0.00000000000E+00  0.00000000000E+00  0.45593999997E+02  0.45594000000E+02  0.51100000000E-03 0.  1.
         11   -1    0    0    0    0 -0.00000000000E+00 -0.00000000000E+00 -0.45593999997E+02  0.45594000000E+02  0.51100000000E-03 0. -1.
    9900012    2    1    2    0    0 -0.46581693857E-02  0.18492484700E+02 -0.29507037334E+01  0.72461583776E+02  0.70000017562E+02 0.  0.
        -12    1    1    2    0    0  0.46581693857E-02 -0.18492484700E+02  0.29507037334E+01  0.18726416224E+02  0.00000000000E+00 0.  1.
         11    1    3    3    0    0 -0.15944157133E+02 -0.45880671532E+01  0.35235022117E+01  0.16961178467E+02  0.51100000000E-03 0.  1.
        -11    1    3    3    0    0  0.89515551432E+01  0.36320438908E+02 -0.12386075930E+02  0.39404561908E+02  0.51100000000E-03 0. -1.
        -12    1    3    3    0    0  0.69879438204E+01 -0.13239887055E+02  0.59118699853E+01  0.16095843401E+02  0.00000000000E+00 0.  1.
</event>
<event>
 7    1  0.1920603E-013  0.7246155E+02  0.7816164E-02  0.1226708E+00
        -11   -1    0    0    0    0  0.00000000000E+00  0.00000000000E+00  0.45593999997E+02  0.45594000000E+02  0.51100000000E-03 0. -1.
         11   -1    0    0    0    0 -0.00000000000E+00 -0.00000000000E+00 -0.45593999997E+02  0.45594000000E+02  0.51100000000E-03 0.  1.
    9900012    2    1    2    0    0  0.14379697849E+02  0.70712021986E+00  0.11975141724E+02  0.72461554834E+02  0.69999979860E+02 0.  0.
        -12    1    1    2    0    0 -0.14379697849E+02 -0.70712021986E+00 -0.11975141724E+02  0.18726445166E+02  0.00000000000E+00 0.  1.
         11    1    3    3    0    0  0.17290696565E+02 -0.18049676593E+02 -0.34172121215E+01  0.25227690179E+02  0.51100000000E-03 0. -1.
        -11    1    3    3    0    0  0.43142963989E+01  0.26770985867E+02  0.21704332895E+02  0.34732936881E+02  0.51100000000E-03 0.  1.
         12    1    3    3    0    0 -0.72252951150E+01 -0.80141890546E+01 -0.63119790495E+01  0.12500927774E+02  0.00000000000E+00 0. -1.
</event>
<event>
 7    1  0.1920603E-013  0.7246161E+02  0.7816164E-02  0.1226708E+00
        -11   -1    0    0    0    0  0.00000000000E+00  0.00000000000E+00  0.45593999997E+02  0.45594000000E+02  0.51100000000E-03 0.  1.
         11   -1    0    0    0    0 -0.00000000000E+00 -0.00000000000E+00 -0.45593999997E+02  0.45594000000E+02  0.51100000000E-03 0. -1.
    9900012    2    1    2    0    0  0.64307845455E+01  0.14556489217E+02 -0.98707315309E+01  0.72461609287E+02  0.70000050795E+02 0.  0.
        -12    1    1    2    0    0 -0.64307845455E+01 -0.14556489217E+02  0.98707315309E+01  0.18726390713E+02  0.00000000000E+00 0.  1.
         11    1    3    3    0    0  0.15970956479E+02 -0.25544047826E+02 -0.27941407207E+01  0.30255198773E+02  0.51100000000E-03 0. -1.
        -11    1    3    3    0    0 -0.50437492232E+01  0.22463656443E+02 -0.67892799667E+01  0.24003116250E+02  0.51100000000E-03 0.  1.
         12    1    3    3    0    0 -0.44964227102E+01  0.17636880600E+02 -0.28731084351E+00  0.18203294263E+02  0.00000000000E+00 0. -1.
</event>
<event>
 7    1  0.1920603E-013  0.7246148E+02  0.7816164E-02  0.1226708E+00
        -11   -1    0    0    0    0  0.00000000000E+00  0.00000000000E+00  0.45593999997E+02  0.45594000000E+02  0.51100000000E-03 0. -1.
         11   -1    0    0    0    0 -0.00000000000E+00 -0.00000000000E+00 -0.45593999997E+02  0.45594000000E+02  0.51100000000E-03 0.  1.
    9900012    2    1    2    0    0 -0.16133419934E+02  0.65971433163E+01  0.68463787194E+01  0.72461482965E+02  0.69999886237E+02 0.  0.
        -12    1    1    2    0    0  0.16133419934E+02 -0.65971433163E+01 -0.68463787194E+01  0.18726517035E+02  0.00000000000E+00 0.  1.
         11    1    3    3    0    0 -0.27138696640E+02 -0.82233963903E+01 -0.83266311733E+01  0.29554456356E+02  0.51100000000E-03 0. -1.
        -11    1    3    3    0    0  0.23182989830E+01  0.25533366969E+02  0.13608723246E+02  0.29026275814E+02  0.51100000000E-03 0.  1.
        -12    1    3    3    0    0  0.86869777236E+01 -0.10712827263E+02  0.15642866464E+01  0.13880750795E+02  0.00000000000E+00 0.  1.
</event>
<event>
 7    1  0.1920603E-013  0.7246164E+02  0.7816164E-02  0.1226708E+00
        -11   -1    0    0    0    0  0.00000000000E+00  0.00000000000E+00  0.45593999997E+02  0.45594000000E+02  0.51100000000E-03 0. -1.
         11   -1    0    0    0    0 -0.00000000000E+00 -0.00000000000E+00 -0.45593999997E+02  0.45594000000E+02  0.51100000000E-03 0.  1.
    9900012    2    1    2    0    0  0.97546501889E+01  0.92307538987E+01  0.13050536466E+02  0.72461641040E+02  0.70000092159E+02 0.  0.
        -12    1    1    2    0    0 -0.97546501889E+01 -0.92307538987E+01 -0.13050536466E+02  0.18726358960E+02  0.00000000000E+00 0.  1.
         11    1    3    3    0    0 -0.11459986509E+02 -0.15675637634E+02  0.19914216791E+02  0.27814257795E+02  0.51100000000E-03 0. -1.
        -11    1    3    3    0    0  0.20794738740E+02  0.11713411446E+02 -0.15875692920E+02  0.28664661046E+02  0.51100000000E-03 0.  1.
        -12    1    3    3    0    0  0.41989795768E+00  0.13192980087E+02  0.90120125947E+01  0.15982722198E+02  0.00000000000E+00 0.  1.
</event>
<event>
 7    1  0.1920603E-013  0.7246157E+02  0.7816164E-02  0.1226708E+00
        -11   -1    0    0    0    0  0.00000000000E+00  0.00000000000E+00  0.45593999997E+02  0.45594000000E+02  0.51100000000E-03 0. -1.
         11   -1    0    0    0    0 -0.00000000000E+00 -0.00000000000E+00 -0.45593999997E+02  0.45594000000E+02  0.51100000000E-03 0.  1.
    9900012    2    1    2    0    0  0.10941611346E+02  0.42248664846E+01  0.14598314536E+02  0.72461571004E+02  0.70000000925E+02 0.  0.
        -12    1    1    2    0    0 -0.10941611346E+02 -0.42248664846E+01 -0.14598314536E+02  0.18726428996E+02  0.00000000000E+00 0.  1.
         11    1    3    3    0    0  0.26234075230E+02  0.65705970445E+00 -0.49595354512E+01  0.26706842246E+02  0.51100000000E-03 0.  1.
        -11    1    3    3    0    0  0.19749697399E+01  0.76043058446E+01  0.25788732797E+02  0.26958944942E+02  0.51100000000E-03 0. -1.
         12    1    3    3    0    0 -0.17267433624E+02 -0.40364990644E+01 -0.62308828104E+01  0.18795783816E+02  0.00000000000E+00 0. -1.
</event>
<event>
 7    1  0.1920603E-013  0.7246155E+02  0.7816164E-02  0.1226708E+00
        -11   -1    0    0    0    0  0.00000000000E+00  0.00000000000E+00  0.45593999997E+02  0.45594000000E+02  0.51100000000E-03 0. -1.
         11   -1    0    0    0    0 -0.00000000000E+00 -0.00000000000E+00 -0.45593999997E+02  0.45594000000E+02  0.51100000000E-03 0.  1.
    9900012    2    1    2    0    0 -0.82066560874E+01  0.16633635206E+02 -0.25793418405E+01  0.72461547356E+02  0.69999970118E+02 0.  0.
        -12    1    1    2    0    0  0.82066560874E+01 -0.16633635206E+02  0.25793418405E+01  0.18726452644E+02  0.00000000000E+00 0.  1.
         11    1    3    3    0    0 -0.62343259305E+01 -0.11521287830E+02  0.72334415832E+01  0.14964276476E+02  0.51100000000E-03 0. -1.
        -11    1    3    3    0    0  0.10028422699E+02  0.24989269282E+02  0.14218722648E+02  0.30450039656E+02  0.51100000000E-03 0.  1.
        -12    1    3    3    0    0 -0.12000752856E+02  0.31656537537E+01 -0.24031506071E+02  0.27047231223E+02  0.00000000000E+00 0.  1.
</event>
<event>
 7    1  0.1920603E-013  0.7246154E+02  0.7816164E-02  0.1226708E+00
        -11   -1    0    0    0    0  0.00000000000E+00  0.00000000000E+00  0.45593999997E+02  0.45594000000E+02  0.51100000000E-03 0.  1.
         11   -1    0    0    0    0 -0.00000000000E+00 -0.00000000000E+00 -0.45593999997E+02  0.45594000000E+02  0.51100000000E-03 0. -1.
    9900012    2    1    2    0    0  0.13689002423E+02  0.73955497685E+01 -0.10420998299E+02  0.72461544135E+02  0.69999965922E+02 0.  0.
        -12    1    1    2    0    0 -0.13689002423E+02 -0.73955497685E+01  0.10420998299E+02  0.18726455865E+02  0.00000000000E+00 0.  1.
         11    1    3    3    0    0  0.33388496925E+01  0.83356381995E+01 -0.15763986263E+02  0.18142051831E+02  0.51100000000E-03 0. -1.
        -11    1    3    3    0    0  0.39880420856E+01  0.24986187331E+02  0.10025880997E+02  0.27216398128E+02  0.51100000000E-03 0.  1.
        -12    1    3    3    0    0  0.63621106448E+01 -0.25926275762E+02 -0.46828930324E+01  0.27103094176E+02  0.00000000000E+00 0.  1.
</event>
<event>
 7    1  0.1920603E-013  0.7246156E+02  0.7816164E-02  0.1226708E+00
        -11   -1    0    0    0    0  0.00000000000E+00  0.00000000000E+00  0.45593999997E+02  0.45594000000E+02  0.51100000000E-03 0.  1.
         11   -1    0    0    0    0 -0.00000000000E+00 -0.00000000000E+00 -0.45593999997E+02  0.45594000000E+02  0.51100000000E-03 0. -1.
    9900012    2    1    2    0    0 -0.40482399341E+01 -0.11245981220E+02 -0.14415941826E+02  0.72461555626E+02  0.69999980891E+02 0.  0.
        -12    1    1    2    0    0  0.40482399341E+01  0.11245981220E+02  0.14415941826E+02  0.18726444374E+02  0.00000000000E+00 0.  1.
         11    1    3    3    0    0  0.72944053783E+01 -0.28016829281E+02 -0.20609895763E+02  0.35537569928E+02  0.51100000000E-03 0. -1.
        -11    1    3    3    0    0 -0.48590073813E+01  0.22904028553E+02  0.11966964792E+02  0.26294728051E+02  0.51100000000E-03 0.  1.
        -12    1    3    3    0    0 -0.64836379312E+01 -0.61331804923E+01 -0.57730108556E+01  0.10629257646E+02  0.00000000000E+00 0.  1.
</event>
<event>
 7    1  0.1920603E-013  0.7246159E+02  0.7816164E-02  0.1226708E+00
        -11   -1    0    0    0    0  0.00000000000E+00  0.00000000000E+00  0.45593999997E+02  0.45594000000E+02  0.51100000000E-03 0.  1.
         11   -1    0    0    0    0 -0.00000000000E+00 -0.00000000000E+00 -0.45593999997E+02  0.45594000000E+02  0.51100000000E-03 0. -1.
    9900012    2    1    2    0    0  0.85703450814E+01 -0.14466663737E+02  0.82427657919E+01  0.72461591845E+02  0.70000028073E+02 0.  0.
        -12    1    1    2    0    0 -0.85703450814E+01  0.14466663737E+02 -0.82427657919E+01  0.18726408155E+02  0.00000000000E+00 0.  1.
         11    1    3    3    0    0  0.26428181266E+02  0.14419427655E+02  0.26212214974E+01  0.30219852106E+02  0.51100000000E-03 0.  1.
        -11    1    3    3    0    0 -0.15055340136E+02 -0.20930510276E+02  0.14838545981E+02  0.29747806207E+02  0.51100000000E-03 0. -1.
        -12    1    3    3    0    0 -0.28024960489E+01 -0.79555811161E+01 -0.92170016867E+01  0.12493933532E+02  0.00000000000E+00 0.  1.
</event>
<event>
 7    1  0.1920603E-013  0.7246158E+02  0.7816164E-02  0.1226708E+00
        -11   -1    0    0    0    0  0.00000000000E+00  0.00000000000E+00  0.45593999997E+02  0.45594000000E+02  0.51100000000E-03 0.  1.
         11   -1    0    0    0    0 -0.00000000000E+00 -0.00000000000E+00 -0.45593999997E+02  0.45594000000E+02  0.51100000000E-03 0. -1.
    9900012    2    1    2    0    0 -0.44267368749E+01  0.12928242820E+02 -0.12804032800E+02  0.72461582358E+02  0.70000015715E+02 0.  0.
        -12    1    1    2    0    0  0.44267368749E+01 -0.12928242820E+02  0.12804032800E+02  0.18726417642E+02  0.00000000000E+00 0.  1.
         11    1    3    3    0    0 -0.51783868036E+01  0.30775863843E+02 -0.13113421489E+02  0.33851607179E+02  0.51100000000E-03 0. -1.
        -11    1    3    3    0    0 -0.15644104684E+02 -0.88664947017E+01  0.61817738057E+01  0.19014916968E+02  0.51100000000E-03 0.  1.
         12    1    3    3    0    0  0.16395754613E+02 -0.89811263216E+01 -0.58723851166E+01  0.19595058211E+02  0.00000000000E+00 0. -1.
</event>
<event>
 7    1  0.1920603E-013  0.7246152E+02  0.7816164E-02  0.1226708E+00
        -11   -1    0    0    0    0  0.00000000000E+00  0.00000000000E+00  0.45593999997E+02  0.45594000000E+02  0.51100000000E-03 0. -1.
         11   -1    0    0    0    0 -0.00000000000E+00 -0.00000000000E+00 -0.45593999997E+02  0.45594000000E+02  0.51100000000E-03 0.  1.
    9900012    2    1    2    0    0  0.88027760313E+01  0.15840589914E+02  0.47188832281E+01  0.72461521057E+02  0.69999935859E+02 0.  0.
        -12    1    1    2    0    0 -0.88027760313E+01 -0.15840589914E+02 -0.47188832281E+01  0.18726478943E+02  0.00000000000E+00 0.  1.
         11    1    3    3    0    0 -0.12414524266E+02  0.22233562174E+02 -0.55980966703E+01  0.26072790152E+02  0.51100000000E-03 0. -1.
        -11    1    3    3    0    0  0.27176689493E+02  0.33253696061E-01  0.19687444712E+02  0.33558442115E+02  0.51100000000E-03 0.  1.
        -12    1    3    3    0    0 -0.59593891955E+01 -0.64262259560E+01 -0.93704648139E+01  0.12830288791E+02  0.00000000000E+00 0.  1.
</event>
<event>
 7    1  0.1920603E-013  0.7246154E+02  0.7816164E-02  0.1226708E+00
        -11   -1    0    0    0    0  0.00000000000E+00  0.00000000000E+00  0.45593999997E+02  0.45594000000E+02  0.51100000000E-03 0.  1.
         11   -1    0    0    0    0 -0.00000000000E+00 -0.00000000000E+00 -0.45593999997E+02  0.45594000000E+02  0.51100000000E-03 0. -1.
    9900012    2    1    2    0    0 -0.75239862796E+01 -0.11772492687E+01 -0.17108012746E+02  0.72461537827E+02  0.69999957706E+02 0.  0.
        -12    1    1    2    0    0  0.75239862796E+01  0.11772492687E+01  0.17108012746E+02  0.18726462173E+02  0.00000000000E+00 0.  1.
         11    1    3    3    0    0 -0.31483587704E+01  0.21933834962E+02 -0.17692152376E+02  0.28355202963E+02  0.51100000000E-03 0.  1.
        -11    1    3    3    0    0  0.82184725056E+01 -0.27519335554E+02  0.66010417370E+01  0.29469151192E+02  0.51100000000E-03 0. -1.
         12    1    3    3    0    0 -0.12594100015E+02  0.44082513232E+01 -0.60169021075E+01  0.14637183673E+02  0.00000000000E+00 0. -1.
</event>
<event>
 7    1  0.1920603E-013  0.7246131E+02  0.7816164E-02  0.1226709E+00
        -11   -1    0    0    0    0  0.00000000000E+00  0.00000000000E+00  0.45593999997E+02  0.45594000000E+02  0.51100000000E-03 0.  1.
         11   -1    0    0    0    0 -0.00000000000E+00 -0.00000000000E+00 -0.45593999997E+02  0.45594000000E+02  0.51100000000E-03 0. -1.
    9900012    2    1    2    0    0 -0.11926936653E+02 -0.13999358691E+02 -0.35291760452E+01  0.72461309282E+02  0.69999659982E+02 0.  0.
        -12    1    1    2    0    0  0.11926936653E+02  0.13999358691E+02  0.35291760452E+01  0.18726690718E+02  0.00000000000E+00 0.  1.
         11    1    3    3    0    0  0.10519697817E+02  0.21853724826E+02 -0.14283325816E+02  0.28147161981E+02  0.51100000000E-03 0. -1.
        -11    1    3    3    0    0 -0.10358395962E+02 -0.12766387497E+02  0.93832721593E+00  0.16466859897E+02  0.51100000000E-03 0.  1.
         12    1    3    3    0    0 -0.12088238508E+02 -0.23086696020E+02  0.98158225553E+01  0.27847287404E+02  0.00000000000E+00 0. -1.
</event>
<event>
 7    1  0.1920603E-013  0.7246164E+02  0.7816164E-02  0.1226708E+00
        -11   -1    0    0    0    0  0.00000000000E+00  0.00000000000E+00  0.45593999997E+02  0.45594000000E+02  0.51100000000E-03 0.  1.
         11   -1    0    0    0    0 -0.00000000000E+00 -0.00000000000E+00 -0.45593999997E+02  0.45594000000E+02  0.51100000000E-03 0. -1.
    9900012    2    1    2    0    0  0.24440333640E+01  0.88254624078E+01  0.16334458035E+02  0.72461638766E+02  0.70000089197E+02 0.  0.
        -12    1    1    2    0    0 -0.24440333640E+01 -0.88254624078E+01 -0.16334458035E+02  0.18726361234E+02  0.00000000000E+00 0.  1.
         11    1    3    3    0    0 -0.29516502121E+02 -0.17662299013E+01  0.81671755593E+01  0.30676476695E+02  0.51100000000E-03 0. -1.
        -11    1    3    3    0    0  0.13583730869E+02  0.16598780980E+02  0.22498338359E+01  0.21566154662E+02  0.51100000000E-03 0.  1.
         12    1    3    3    0    0  0.18376804616E+02 -0.60070886708E+01  0.59174486394E+01  0.20219007409E+02  0.00000000000E+00 0. -1.
</event>
<event>
 7    1  0.1920603E-013  0.7246153E+02  0.7816164E-02  0.1226708E+00
        -11   -1    0    0    0    0  0.00000000000E+00  0.00000000000E+00  0.45593999997E+02  0.45594000000E+02  0.51100000000E-03 0. -1.
         11   -1    0    0    0    0 -0.00000000000E+00 -0.00000000000E+00 -0.45593999997E+02  0.45594000000E+02  0.51100000000E-03 0.  1.
    9900012    2    1    2    0    0 -0.46545467557E+01 -0.55667078783E+01  0.17263472955E+02  0.72461533687E+02  0.69999952312E+02 0.  0.
        -12    1    1    2    0    0  0.46545467557E+01  0.55667078783E+01 -0.17263472955E+02  0.18726466313E+02  0.00000000000E+00 0.  1.
         11    1    3    3    0    0 -0.80733286427E+01  0.13503538790E+02  0.11269652311E+02  0.19352758426E+02  0.51100000000E-03 0. -1.
        -11    1    3    3    0    0  0.18110499088E+02 -0.27405870024E+02 -0.46002536640E+01  0.33169778760E+02  0.51100000000E-03 0.  1.
        -12    1    3    3    0    0 -0.14691717201E+02  0.83356233557E+01  0.10594074308E+02  0.19938996501E+02  0.00000000000E+00 0.  1.
</event>
<event>
 7    1  0.1920603E-013  0.7246163E+02  0.7816164E-02  0.1226708E+00
        -11   -1    0    0    0    0  0.00000000000E+00  0.00000000000E+00  0.45593999997E+02  0.45594000000E+02  0.51100000000E-03 0. -1.
         11   -1    0    0    0    0 -0.00000000000E+00 -0.00000000000E+00 -0.45593999997E+02  0.45594000000E+02  0.51100000000E-03 0.  1.
    9900012    2    1    2    0    0 -0.16003698579E+01 -0.18575443747E+02  0.17517527776E+01  0.72461630040E+02  0.70000077829E+02 0.  0.
        -12    1    1    2    0    0  0.16003698579E+01  0.18575443747E+02 -0.17517527776E+01  0.18726369960E+02  0.00000000000E+00 0.  1.
         11    1    3    3    0    0  0.18967682435E+02  0.14696392248E+01 -0.11324993544E+02  0.22140196373E+02  0.51100000000E-03 0. -1.
        -11    1    3    3    0    0 -0.71767657044E+01 -0.30538781910E+02  0.10688164958E+02  0.33141515308E+02  0.51100000000E-03 0.  1.
         12    1    3    3    0    0 -0.13391286588E+02  0.10493698937E+02  0.23885813632E+01  0.17179918358E+02  0.00000000000E+00 0. -1.
</event>
<event>
 7    1  0.1920603E-013  0.7246162E+02  0.7816164E-02  0.1226708E+00
        -11   -1    0    0    0    0  0.00000000000E+00  0.00000000000E+00  0.45593999997E+02  0.45594000000E+02  0.51100000000E-03 0.  1.
         11   -1    0    0    0    0 -0.00000000000E+00 -0.00000000000E+00 -0.45593999997E+02  0.45594000000E+02  0.51100000000E-03 0. -1.
    9900012    2    1    2    0    0  0.17598737179E+02 -0.39646261983E+01  0.50243074214E+01  0.72461615505E+02  0.70000058895E+02 0.  0.
        -12    1    1    2    0    0 -0.17598737179E+02  0.39646261983E+01 -0.50243074214E+01  0.18726384495E+02  0.00000000000E+00 0.  1.
         11    1    3    3    0    0 -0.14738401559E+02  0.71667469182E+01  0.36596677662E+01  0.16792138349E+02  0.51100000000E-03 0.  1.
        -11    1    3    3    0    0  0.80880117491E+01 -0.22201447335E+02 -0.11260033096E+02  0.26174578190E+02  0.51100000000E-03 0. -1.
         12    1    3    3    0    0  0.24249126989E+02  0.11070074219E+02  0.12624672752E+02  0.29494898966E+02  0.00000000000E+00 0. -1.
</event>
<event>
 7    1  0.1920603E-013  0.7246160E+02  0.7816164E-02  0.1226708E+00
        -11   -1    0    0    0    0  0.00000000000E+00  0.00000000000E+00  0.45593999997E+02  0.45594000000E+02  0.51100000000E-03 0.  1.
         11   -1    0    0    0    0 -0.00000000000E+00 -0.00000000000E+00 -0.45593999997E+02  0.45594000000E+02  0.51100000000E-03 0. -1.
    9900012    2    1    2    0    0  0.34156821874E+01 -0.96175667883E+01 -0.15700756695E+02  0.72461595205E+02  0.70000032451E+02 0.  0.
        -12    1    1    2    0    0 -0.34156821874E+01  0.96175667883E+01  0.15700756695E+02  0.18726404795E+02  0.00000000000E+00 0.  1.
         11    1    3    3    0    0 -0.76558365151E+01  0.99344379691E+01 -0.29245159467E+01  0.12878574622E+02  0.51100000000E-03 0. -1.
        -11    1    3    3    0    0  0.15292076872E+02 -0.36012001157E+02 -0.16031658547E+02  0.42281507996E+02  0.51100000000E-03 0.  1.
        -12    1    3    3    0    0 -0.42205581692E+01  0.16459996400E+02  0.32554177986E+01  0.17301512587E+02  0.00000000000E+00 0.  1.
</event>
<event>
 7    1  0.1920603E-013  0.7246158E+02  0.7816164E-02  0.1226708E+00
        -11   -1    0    0    0    0  0.00000000000E+00  0.00000000000E+00  0.45593999997E+02  0.45594000000E+02  0.51100000000E-03 0.  1.
         11   -1    0    0    0    0 -0.00000000000E+00 -0.00000000000E+00 -0.45593999997E+02  0.45594000000E+02  0.51100000000E-03 0. -1.
    9900012    2    1    2    0    0 -0.11045138964E+01  0.11452406358E+02 -0.14775027144E+02  0.72461575103E+02  0.70000006264E+02 0.  0.
        -12    1    1    2    0    0  0.11045138964E+01 -0.11452406358E+02  0.14775027144E+02  0.18726424897E+02  0.00000000000E+00 0.  1.
         11    1    3    3    0    0 -0.59568910207E+01 -0.46822120145E+01 -0.39820015311E+02  0.40534445594E+02  0.51100000000E-03 0. -1.
        -11    1    3    3    0    0  0.53260406769E+01  0.27248425861E+01  0.49545456982E+01  0.77678182102E+01  0.51100000000E-03 0.  1.
         12    1    3    3    0    0 -0.47366355262E+00  0.13409775787E+02  0.20090442469E+02  0.24159311299E+02  0.00000000000E+00 0. -1.
</event>
<event>
 7    1  0.1920603E-013  0.7246159E+02  0.7816164E-02  0.1226708E+00
        -11   -1    0    0    0    0  0.00000000000E+00  0.00000000000E+00  0.45593999997E+02  0.45594000000E+02  0.51100000000E-03 0.  1.
         11   -1    0    0    0    0 -0.00000000000E+00 -0.00000000000E+00 -0.45593999997E+02  0.45594000000E+02  0.51100000000E-03 0. -1.
    9900012    2    1    2    0    0 -0.45152655426E+01 -0.11697176796E+02  0.13909237164E+02  0.72461589602E+02  0.70000025152E+02 0.  0.
        -12    1    1    2    0    0  0.45152655426E+01  0.11697176796E+02 -0.13909237164E+02  0.18726410398E+02  0.00000000000E+00 0.  1.
         11    1    3    3    0    0 -0.31317913051E+02  0.16434985368E+01 -0.46297004708E+01  0.31700897337E+02  0.51100000000E-03 0. -1.
        -11    1    3    3    0    0  0.22914639986E+02 -0.95141534318E+01  0.38713349560E+01  0.25111492903E+02  0.51100000000E-03 0.  1.
         12    1    3    3    0    0  0.38880075220E+01 -0.38265219005E+01  0.14667602678E+02  0.15649199362E+02  0.00000000000E+00 0. -1.
</event>
<event>
 7    1  0.1920603E-013  0.7246158E+02  0.7816164E-02  0.1226708E+00
        -11   -1    0    0    0    0  0.00000000000E+00  0.00000000000E+00  0.45593999997E+02  0.45594000000E+02  0.51100000000E-03 0.  1.
         11   -1    0    0    0    0 -0.00000000000E+00 -0.00000000000E+00 -0.45593999997E+02  0.45594000000E+02  0.51100000000E-03 0. -1.
    9900012    2    1    2    0    0 -0.41176797084E+01 -0.34534295350E-01 -0.18268066098E+02  0.72461582356E+02  0.70000015713E+02 0.  0.
        -12    1    1    2    0    0  0.41176797084E+01  0.34534295350E-01  0.18268066098E+02  0.18726417644E+02  0.00000000000E+00 0.  1.
         11    1    3    3    0    0  0.20448240787E+01  0.70110519797E+01 -0.31411257208E+02  0.32249081150E+02  0.51100000000E-03 0. -1.
        -11    1    3    3    0    0  0.11497171908E+02  0.45331778046E+01  0.14499637454E+02  0.19051880470E+02  0.51100000000E-03 0.  1.
        -12    1    3    3    0    0 -0.17659675695E+02 -0.11578764080E+02 -0.13564463449E+01  0.21160620736E+02  0.00000000000E+00 0.  1.
</event>
<event>
 7    1  0.1920603E-013  0.7246156E+02  0.7816164E-02  0.1226708E+00
        -11   -1    0    0    0    0  0.00000000000E+00  0.00000000000E+00  0.45593999997E+02  0.45594000000E+02  0.51100000000E-03 0.  1.
         11   -1    0    0    0    0 -0.00000000000E+00 -0.00000000000E+00 -0.45593999997E+02  0.45594000000E+02  0.51100000000E-03 0. -1.
    9900012    2    1    2    0    0 -0.68956171477E+00 -0.18662860650E+02  0.13789756333E+01  0.72461563158E+02  0.69999990704E+02 0.  0.
        -12    1    1    2    0    0  0.68956171477E+00  0.18662860650E+02 -0.13789756333E+01  0.18726436842E+02  0.00000000000E+00 0.  1.
         11    1    3    3    0    0 -0.94244897757E+01 -0.40712560845E+02 -0.84815812104E+01  0.42641187111E+02  0.51100000000E-03 0. -1.
        -11    1    3    3    0    0  0.82813759026E+01  0.15297352435E+02 -0.54960446938E+00  0.17403799692E+02  0.51100000000E-03 0.  1.
         12    1    3    3    0    0  0.45355215830E+00  0.67523477604E+01  0.10410161313E+02  0.12416576356E+02  0.00000000000E+00 0. -1.
</event>
<event>
 7    1  0.1920603E-013  0.7246156E+02  0.7816164E-02  0.1226708E+00
        -11   -1    0    0    0    0  0.00000000000E+00  0.00000000000E+00  0.45593999997E+02  0.45594000000E+02  0.51100000000E-03 0.  1.
         11   -1    0    0    0    0 -0.00000000000E+00 -0.00000000000E+00 -0.45593999997E+02  0.45594000000E+02  0.51100000000E-03 0. -1.
    9900012    2    1    2    0    0  0.15886965455E+01 -0.14769008552E+02 -0.11403149206E+02  0.72461564617E+02  0.69999992605E+02 0.  0.
        -12    1    1    2    0    0 -0.15886965455E+01  0.14769008552E+02  0.11403149206E+02  0.18726435383E+02  0.00000000000E+00 0.  1.
         11    1    3    3    0    0  0.12393012660E+02 -0.34036066329E+02 -0.23856204921E+02  0.43372330897E+02  0.51100000000E-03 0. -1.
        -11    1    3    3    0    0 -0.10118346686E+02  0.14805593990E+02  0.15450504436E+02  0.23670754965E+02  0.51100000000E-03 0.  1.
         12    1    3    3    0    0 -0.68596942807E+00  0.44614637874E+01 -0.29974487217E+01  0.54184787553E+01  0.00000000000E+00 0. -1.
</event>
<event>
 7    1  0.1920603E-013  0.7246159E+02  0.7816164E-02  0.1226708E+00
        -11   -1    0    0    0    0  0.00000000000E+00  0.00000000000E+00  0.45593999997E+02  0.45594000000E+02  0.51100000000E-03 0.  1.
         11   -1    0    0    0    0 -0.00000000000E+00 -0.00000000000E+00 -0.45593999997E+02  0.45594000000E+02  0.51100000000E-03 0. -1.
    9900012    2    1    2    0    0  0.41520371334E+01 -0.17855673700E+02 -0.38228411259E+01  0.72461585236E+02  0.70000019464E+02 0.  0.
        -12    1    1    2    0    0 -0.41520371334E+01  0.17855673700E+02  0.38228411259E+01  0.18726414764E+02  0.00000000000E+00 0.  1.
         11    1    3    3    0    0  0.16378873820E+02 -0.57155577307E+01  0.28273592105E+02  0.33171239328E+02  0.51100000000E-03 0. -1.
        -11    1    3    3    0    0 -0.11081700971E+02 -0.98334512021E+00 -0.12690384784E+02  0.16876520088E+02  0.51100000000E-03 0.  1.
         12    1    3    3    0    0 -0.11451357147E+01 -0.11156770849E+02 -0.19406048447E+02  0.22413825820E+02  0.00000000000E+00 0. -1.
</event>
<event>
 7    1  0.1920603E-013  0.7246156E+02  0.7816164E-02  0.1226708E+00
        -11   -1    0    0    0    0  0.00000000000E+00  0.00000000000E+00  0.45593999997E+02  0.45594000000E+02  0.51100000000E-03 0.  1.
         11   -1    0    0    0    0 -0.00000000000E+00 -0.00000000000E+00 -0.45593999997E+02  0.45594000000E+02  0.51100000000E-03 0. -1.
    9900012    2    1    2    0    0 -0.13806434958E+02 -0.69687156399E+01  0.10559303309E+02  0.72461560661E+02  0.69999987451E+02 0.  0.
        -12    1    1    2    0    0  0.13806434958E+02  0.69687156399E+01 -0.10559303309E+02  0.18726439339E+02  0.00000000000E+00 0.  1.
         11    1    3    3    0    0 -0.33633288868E-01  0.17923710589E+01 -0.12760516809E+02  0.12885826117E+02  0.51100000000E-03 0. -1.
        -11    1    3    3    0    0 -0.32810454317E+02 -0.29522090746E+01  0.22029010094E+02  0.39629770840E+02  0.51100000000E-03 0.  1.
        -12    1    3    3    0    0  0.19037652647E+02 -0.58088776243E+01  0.12908100251E+01  0.19945963704E+02  0.00000000000E+00 0.  1.
</event>
<event>
 7    1  0.1920603E-013  0.7246154E+02  0.7816164E-02  0.1226708E+00
        -11   -1    0    0    0    0  0.00000000000E+00  0.00000000000E+00  0.45593999997E+02  0.45594000000E+02  0.51100000000E-03 0.  1.
         11   -1    0    0    0    0 -0.00000000000E+00 -0.00000000000E+00 -0.45593999997E+02  0.45594000000E+02  0.51100000000E-03 0. -1.
    9900012    2    1    2    0    0  0.75662180759E+01 -0.96779175961E+01 -0.14134022765E+02  0.72461538923E+02  0.69999959133E+02 0.  0.
        -12    1    1    2    0    0 -0.75662180759E+01  0.96779175961E+01  0.14134022765E+02  0.18726461077E+02  0.00000000000E+00 0.  1.
         11    1    3    3    0    0 -0.37184602138E+01  0.15550741255E+02 -0.33782932268E+01  0.16342134662E+02  0.51100000000E-03 0. -1.
        -11    1    3    3    0    0  0.25284913058E+02 -0.30888112312E+02 -0.89744365380E+01  0.40913846336E+02  0.51100000000E-03 0.  1.
        -12    1    3    3    0    0 -0.14000234768E+02  0.56594534609E+01 -0.17812929999E+01  0.15205557925E+02  0.00000000000E+00 0.  1.
</event>
<event>
 7    1  0.1920603E-013  0.7246159E+02  0.7816164E-02  0.1226708E+00
        -11   -1    0    0    0    0  0.00000000000E+00  0.00000000000E+00  0.45593999997E+02  0.45594000000E+02  0.51100000000E-03 0. -1.
         11   -1    0    0    0    0 -0.00000000000E+00 -0.00000000000E+00 -0.45593999997E+02  0.45594000000E+02  0.51100000000E-03 0.  1.
    9900012    2    1    2    0    0 -0.58422978475E+00 -0.16720653371E+02 -0.84117200557E+01  0.72461585290E+02  0.70000019534E+02 0.  0.
        -12    1    1    2    0    0  0.58422978475E+00  0.16720653371E+02  0.84117200557E+01  0.18726414710E+02  0.00000000000E+00 0.  1.
         11    1    3    3    0    0  0.40964810604E+01  0.53533640665E+00  0.21100604954E+02  0.21501238845E+02  0.51100000000E-03 0. -1.
        -11    1    3    3    0    0  0.31864146528E+01 -0.27823471100E+02 -0.23126692508E+02  0.36320003979E+02  0.51100000000E-03 0.  1.
        -12    1    3    3    0    0 -0.78671254979E+01  0.10567481322E+02 -0.63856325018E+01  0.14640342466E+02  0.00000000000E+00 0.  1.
</event>
<event>
 7    1  0.1920603E-013  0.7246160E+02  0.7816164E-02  0.1226708E+00
        -11   -1    0    0    0    0  0.00000000000E+00  0.00000000000E+00  0.45593999997E+02  0.45594000000E+02  0.51100000000E-03 0.  1.
         11   -1    0    0    0    0 -0.00000000000E+00 -0.00000000000E+00 -0.45593999997E+02  0.45594000000E+02  0.51100000000E-03 0. -1.
    9900012    2    1    2    0    0  0.26076818163E+01  0.18354587760E+02  0.26433057657E+01  0.72461602545E+02  0.70000042012E+02 0.  0.
        -12    1    1    2    0    0 -0.26076818163E+01 -0.18354587760E+02 -0.26433057657E+01  0.18726397455E+02  0.00000000000E+00 0.  1.
         11    1    3    3    0    0  0.10789335814E+02  0.29806112606E+02 -0.16828522469E+02  0.35888901972E+02  0.51100000000E-03 0. -1.
        -11    1    3    3    0    0  0.23641831925E+01  0.30483803611E+00  0.20601639847E+02  0.20739089976E+02  0.51100000000E-03 0.  1.
         12    1    3    3    0    0 -0.10545837190E+02 -0.11756362883E+02 -0.11298116119E+01  0.15833610597E+02  0.00000000000E+00 0. -1.
</event>
<event>
 7    1  0.1920603E-013  0.7246158E+02  0.7816164E-02  0.1226708E+00
        -11   -1    0    0    0    0  0.00000000000E+00  0.00000000000E+00  0.45593999997E+02  0.45594000000E+02  0.51100000000E-03 0.  1.
         11   -1    0    0    0    0 -0.00000000000E+00 -0.00000000000E+00 -0.45593999997E+02  0.45594000000E+02  0.51100000000E-03 0. -1.
    9900012    2    1    2    0    0 -0.83416645776E+01 -0.79112269952E+01 -0.14782008175E+02  0.72461584267E+02  0.70000018203E+02 0.  0.
        -12    1    1    2    0    0  0.83416645776E+01  0.79112269952E+01  0.14782008175E+02  0.18726415733E+02  0.00000000000E+00 0.  1.
         11    1    3    3    0    0  0.18144371154E+02  0.16274813957E+02 -0.38417022178E+01  0.24674814084E+02  0.51100000000E-03 0.  1.
        -11    1    3    3    0    0 -0.14155308506E+02 -0.15005827741E+02 -0.20982431616E+02  0.29424650582E+02  0.51100000000E-03 0. -1.
        -12    1    3    3    0    0 -0.12330727226E+02 -0.91802132115E+01  0.10042125658E+02  0.18362119601E+02  0.00000000000E+00 0.  1.
</event>
<event>
 7    1  0.1920603E-013  0.7246157E+02  0.7816164E-02  0.1226708E+00
        -11   -1    0    0    0    0  0.00000000000E+00  0.00000000000E+00  0.45593999997E+02  0.45594000000E+02  0.51100000000E-03 0.  1.
         11   -1    0    0    0    0 -0.00000000000E+00 -0.00000000000E+00 -0.45593999997E+02  0.45594000000E+02  0.51100000000E-03 0. -1.
    9900012    2    1    2    0    0  0.15112859750E+02  0.78582357449E+01 -0.77800228919E+01  0.72461570681E+02  0.70000000504E+02 0.  0.
        -12    1    1    2    0    0 -0.15112859750E+02 -0.78582357449E+01  0.77800228919E+01  0.18726429319E+02  0.00000000000E+00 0.  1.
         11    1    3    3    0    0 -0.18848246791E+02 -0.27376212200E+01  0.10529913434E+02  0.21763043313E+02  0.51100000000E-03 0.  1.
        -11    1    3    3    0    0  0.22946338338E+02  0.47346607624E+01 -0.26806975917E+02  0.35602884907E+02  0.51100000000E-03 0. -1.
        -12    1    3    3    0    0  0.11014768203E+02  0.58611962024E+01  0.84970395913E+01  0.15095642461E+02  0.00000000000E+00 0.  1.
</event>
<event>
 7    1  0.1920603E-013  0.7246157E+02  0.7816164E-02  0.1226708E+00
        -11   -1    0    0    0    0  0.00000000000E+00  0.00000000000E+00  0.45593999997E+02  0.45594000000E+02  0.51100000000E-03 0.  1.
         11   -1    0    0    0    0 -0.00000000000E+00 -0.00000000000E+00 -0.45593999997E+02  0.45594000000E+02  0.51100000000E-03 0. -1.
    9900012    2    1    2    0    0 -0.45223506869E+01  0.14575334983E+02  0.10852969661E+02  0.72461574926E+02  0.70000006033E+02 0.  0.
        -12    1    1    2    0    0  0.45223506869E+01 -0.14575334983E+02 -0.10852969661E+02  0.18726425074E+02  0.00000000000E+00 0.  1.
         11    1    3    3    0    0  0.17490468087E+02  0.98370908261E+01 -0.40420056666E+00  0.20071078899E+02  0.51100000000E-03 0. -1.
        -11    1    3    3    0    0 -0.13153857599E+02 -0.16977622811E+02  0.17961354292E+02  0.27997748022E+02  0.51100000000E-03 0.  1.
        -12    1    3    3    0    0 -0.88589611746E+01  0.21715866968E+02 -0.67041840643E+01  0.24392748004E+02  0.00000000000E+00 0.  1.
</event>
<event>
 7    1  0.1920603E-013  0.7246156E+02  0.7816164E-02  0.1226708E+00
        -11   -1    0    0    0    0  0.00000000000E+00  0.00000000000E+00  0.45593999997E+02  0.45594000000E+02  0.51100000000E-03 0.  1.
         11   -1    0    0    0    0 -0.00000000000E+00 -0.00000000000E+00 -0.45593999997E+02  0.45594000000E+02  0.51100000000E-03 0. -1.
    9900012    2    1    2    0    0  0.31009079535E+01  0.28193044838E+01 -0.18251448163E+02  0.72461562326E+02  0.69999989620E+02 0.  0.
        -12    1    1    2    0    0 -0.31009079535E+01 -0.28193044838E+01  0.18251448163E+02  0.18726437674E+02  0.00000000000E+00 0.  1.
         11    1    3    3    0    0 -0.13216654634E+02  0.64364358182E+01  0.89847355728E+01  0.17228846140E+02  0.51100000000E-03 0. -1.
        -11    1    3    3    0    0  0.27335379674E+02  0.96862072979E+01 -0.24033199933E+02  0.37664841603E+02  0.51100000000E-03 0.  1.
        -12    1    3    3    0    0 -0.11017817086E+02 -0.13303338632E+02 -0.32029838033E+01  0.17567874583E+02  0.00000000000E+00 0.  1.
</event>
<event>
 8    1  0.1920603E-013  0.7246163E+02  0.7816164E-02  0.1226708E+00
        -11   -1    0    0    0    0  0.00000000000E+00  0.00000000000E+00  0.45593999997E+02  0.45594000000E+02  0.51100000000E-03 0.  1.
         11   -1    0    0    0    0 -0.00000000000E+00 -0.00000000000E+00 -0.45593999997E+02  0.45594000000E+02  0.51100000000E-03 0. -1.
    9900012    2    1    2    0    0 -0.58201990975E+01 -0.11462542248E+02 -0.13616623041E+02  0.72461627812E+02  0.70000074927E+02 0.  0.
         24    2    3    3    0    0  0.69371667531E+01 -0.13175713670E+01 -0.55857654236E+01  0.54291171242E+02  0.53539426805E+02 0.  0.
        -12    1    1    2    0    0  0.58201990975E+01  0.11462542248E+02  0.13616623041E+02  0.18726372188E+02  0.00000000000E+00 0.  1.
         11    1    3    3    0    0 -0.12757365851E+02 -0.10144970881E+02 -0.80308576170E+01  0.18170456569E+02  0.51100000000E-03 0. -1.
        -11    1    4    4    0    0  0.27318928948E+01  0.25279212586E+02  0.39376737761E+01  0.25729498689E+02  0.51100000000E-03 0.  1.
         12    1    4    4    0    0  0.42052738583E+01 -0.26596783953E+02 -0.95234391997E+01  0.28561672553E+02  0.00000000000E+00 0. -1.
</event>
<event>
 7    1  0.1920603E-013  0.7246174E+02  0.7816164E-02  0.1226708E+00
        -11   -1    0    0    0    0  0.00000000000E+00  0.00000000000E+00  0.45593999997E+02  0.45594000000E+02  0.51100000000E-03 0. -1.
         11   -1    0    0    0    0 -0.00000000000E+00 -0.00000000000E+00 -0.45593999997E+02  0.45594000000E+02  0.51100000000E-03 0.  1.
    9900012    2    1    2    0    0 -0.85349338931E+01  0.13748593065E+02  0.94235782994E+01  0.72461742077E+02  0.70000223779E+02 0.  0.
        -12    1    1    2    0    0  0.85349338931E+01 -0.13748593065E+02 -0.94235782994E+01  0.18726257923E+02  0.00000000000E+00 0.  1.
         11    1    3    3    0    0 -0.22101119224E+02  0.25180215609E+02  0.10383607097E+02  0.35075946540E+02  0.51100000000E-03 0. -1.
        -11    1    3    3    0    0  0.24047297092E+02 -0.10598046000E+02  0.22953662783E+01  0.26379154328E+02  0.51100000000E-03 0.  1.
        -12    1    3    3    0    0 -0.10481111761E+02 -0.83357654394E+00 -0.32553950763E+01  0.11006641209E+02  0.00000000000E+00 0.  1.
</event>
<event>
 7    1  0.1920603E-013  0.7246168E+02  0.7816164E-02  0.1226708E+00
        -11   -1    0    0    0    0  0.00000000000E+00  0.00000000000E+00  0.45593999997E+02  0.45594000000E+02  0.51100000000E-03 0. -1.
         11   -1    0    0    0    0 -0.00000000000E+00 -0.00000000000E+00 -0.45593999997E+02  0.45594000000E+02  0.51100000000E-03 0.  1.
    9900012    2    1    2    0    0  0.18360571846E+02  0.23442274837E+01 -0.28405851455E+01  0.72461683625E+02  0.70000147634E+02 0.  0.
        -12    1    1    2    0    0 -0.18360571846E+02 -0.23442274837E+01  0.28405851455E+01  0.18726316375E+02  0.00000000000E+00 0.  1.
         11    1    3    3    0    0  0.12801724989E+01  0.53012593409E+01  0.21236478721E+02  0.21925560904E+02  0.51100000000E-03 0. -1.
        -11    1    3    3    0    0  0.94993677447E+00  0.10254164482E+02 -0.27538156389E+02  0.29400685820E+02  0.51100000000E-03 0.  1.
         12    1    3    3    0    0  0.16130462573E+02 -0.13211196340E+02  0.34610925225E+01  0.21135436901E+02  0.00000000000E+00 0. -1.
</event>
<event>
 7    1  0.1920603E-013  0.7246159E+02  0.7816164E-02  0.1226708E+00
        -11   -1    0    0    0    0  0.00000000000E+00  0.00000000000E+00  0.45593999997E+02  0.45594000000E+02  0.51100000000E-03 0.  1.
         11   -1    0    0    0    0 -0.00000000000E+00 -0.00000000000E+00 -0.45593999997E+02  0.45594000000E+02  0.51100000000E-03 0. -1.
    9900012    2    1    2    0    0  0.13469768519E+02 -0.62826581394E+01  0.11391747988E+02  0.72461591389E+02  0.70000027479E+02 0.  0.
        -12    1    1    2    0    0 -0.13469768519E+02  0.62826581394E+01 -0.11391747988E+02  0.18726408611E+02  0.00000000000E+00 0.  1.
         11    1    3    3    0    0 -0.27537073869E+01  0.69130690950E+01 -0.11640659178E+02  0.13815874024E+02  0.51100000000E-03 0. -1.
        -11    1    3    3    0    0  0.30189982960E+02 -0.92203033311E+00  0.25955339317E+02  0.39824174196E+02  0.51100000000E-03 0.  1.
        -12    1    3    3    0    0 -0.13966507054E+02 -0.12273696901E+02 -0.29229321514E+01  0.18821543169E+02  0.00000000000E+00 0.  1.
</event>
<event>
 7    1  0.1920603E-013  0.7246159E+02  0.7816164E-02  0.1226708E+00
        -11   -1    0    0    0    0  0.00000000000E+00  0.00000000000E+00  0.45593999997E+02  0.45594000000E+02  0.51100000000E-03 0.  1.
         11   -1    0    0    0    0 -0.00000000000E+00 -0.00000000000E+00 -0.45593999997E+02  0.45594000000E+02  0.51100000000E-03 0. -1.
    9900012    2    1    2    0    0 -0.40524659526E+01 -0.17924535177E+02  0.36009861162E+01  0.72461587033E+02  0.70000021805E+02 0.  0.
        -12    1    1    2    0    0  0.40524659526E+01  0.17924535177E+02 -0.36009861162E+01  0.18726412967E+02  0.00000000000E+00 0.  1.
         11    1    3    3    0    0  0.26020958983E+02 -0.65073188858E+01  0.93858434094E+01  0.28417064631E+02  0.51100000000E-03 0. -1.
        -11    1    3    3    0    0 -0.24214630054E+02 -0.15942104203E+02  0.64912230551E+01  0.29709173197E+02  0.51100000000E-03 0.  1.
        -12    1    3    3    0    0 -0.58587948823E+01  0.45248879123E+01 -0.12276080348E+02  0.14335349204E+02  0.00000000000E+00 0.  1.
</event>
<event>
 7    1  0.1920603E-013  0.7246159E+02  0.7816164E-02  0.1226708E+00
        -11   -1    0    0    0    0  0.00000000000E+00  0.00000000000E+00  0.45593999997E+02  0.45594000000E+02  0.51100000000E-03 0. -1.
         11   -1    0    0    0    0 -0.00000000000E+00 -0.00000000000E+00 -0.45593999997E+02  0.45594000000E+02  0.51100000000E-03 0.  1.
    9900012    2    1    2    0    0 -0.71477480708E+00  0.11906917887E+01  0.18674842911E+02  0.72461590635E+02  0.70000026498E+02 0.  0.
        -12    1    1    2    0    0  0.71477480708E+00 -0.11906917887E+01 -0.18674842911E+02  0.18726409365E+02  0.00000000000E+00 0.  1.
         11    1    3    3    0    0  0.27175200197E+02 -0.64650462087E+00  0.78217806374E-01  0.27183001900E+02  0.51100000000E-03 0.  1.
        -11    1    3    3    0    0 -0.33121270550E+02  0.19193582177E+01  0.21263582658E+02  0.39406121942E+02  0.51100000000E-03 0. -1.
         12    1    3    3    0    0  0.52312955455E+01 -0.82161808113E-01 -0.26669575533E+01  0.58724667933E+01  0.00000000000E+00 0. -1.
</event>
<event>
 7    1  0.1920603E-013  0.7246156E+02  0.7816164E-02  0.1226708E+00
        -11   -1    0    0    0    0  0.00000000000E+00  0.00000000000E+00  0.45593999997E+02  0.45594000000E+02  0.51100000000E-03 0.  1.
         11   -1    0    0    0    0 -0.00000000000E+00 -0.00000000000E+00 -0.45593999997E+02  0.45594000000E+02  0.51100000000E-03 0. -1.
    9900012    2    1    2    0    0 -0.16255278762E+02 -0.63938298510E+01 -0.67501467319E+01  0.72461558034E+02  0.69999984029E+02 0.  0.
        -12    1    1    2    0    0  0.16255278762E+02  0.63938298510E+01  0.67501467319E+01  0.18726441966E+02  0.00000000000E+00 0.  1.
         11    1    3    3    0    0 -0.22040365865E+02 -0.12187420850E+02 -0.12877308011E+02  0.28286675596E+02  0.51100000000E-03 0. -1.
        -11    1    3    3    0    0  0.13053568260E+02  0.21898154553E+02  0.60947977297E-01  0.25493695928E+02  0.51100000000E-03 0.  1.
        -12    1    3    3    0    0 -0.72684811578E+01 -0.16104563554E+02  0.60662133015E+01  0.18681186510E+02  0.00000000000E+00 0.  1.
</event>
<event>
 7    1  0.1920603E-013  0.7246159E+02  0.7816164E-02  0.1226708E+00
        -11   -1    0    0    0    0  0.00000000000E+00  0.00000000000E+00  0.45593999997E+02  0.45594000000E+02  0.51100000000E-03 0. -1.
         11   -1    0    0    0    0 -0.00000000000E+00 -0.00000000000E+00 -0.45593999997E+02  0.45594000000E+02  0.51100000000E-03 0.  1.
    9900012    2    1    2    0    0 -0.12491882244E+02  0.54041820131E+01  0.12861804738E+02  0.72461592807E+02  0.70000029327E+02 0.  0.
        -12    1    1    2    0    0  0.12491882244E+02 -0.54041820131E+01 -0.12861804738E+02  0.18726407193E+02  0.00000000000E+00 0.  1.
         11    1    3    3    0    0  0.94748727321E+01  0.59832054271E+01  0.19239852431E+02  0.22265306697E+02  0.51100000000E-03 0. -1.
        -11    1    3    3    0    0 -0.27439245765E+02  0.48676682129E+01  0.11939771949E+02  0.30317726768E+02  0.51100000000E-03 0.  1.
        -12    1    3    3    0    0  0.54724907889E+01 -0.54466916269E+01 -0.18317819641E+02  0.19878559342E+02  0.00000000000E+00 0.  1.
</event>
<event>
 7    1  0.1920603E-013  0.7246158E+02  0.7816164E-02  0.1226708E+00
        -11   -1    0    0    0    0  0.00000000000E+00  0.00000000000E+00  0.45593999997E+02  0.45594000000E+02  0.51100000000E-03 0. -1.
         11   -1    0    0    0    0 -0.00000000000E+00 -0.00000000000E+00 -0.45593999997E+02  0.45594000000E+02  0.51100000000E-03 0.  1.
    9900012    2    1    2    0    0  0.14528087010E+02 -0.27957400455E+01  0.11480309973E+02  0.72461575043E+02  0.70000006186E+02 0.  0.
        -12    1    1    2    0    0 -0.14528087010E+02  0.27957400455E+01 -0.11480309973E+02  0.18726424957E+02  0.00000000000E+00 0.  1.
         11    1    3    3    0    0 -0.12150052346E+02 -0.86618626642E+01  0.21361177530E+02  0.26056698612E+02  0.51100000000E-03 0. -1.
        -11    1    3    3    0    0  0.87813060827E+01  0.10673535543E+02 -0.20742067282E+02  0.24925269365E+02  0.51100000000E-03 0.  1.
         12    1    3    3    0    0  0.17896833274E+02 -0.48074129244E+01  0.10861199726E+02  0.21479607067E+02  0.00000000000E+00 0. -1.
</event>
<event>
 7    1  0.1920603E-013  0.7246144E+02  0.7816164E-02  0.1226708E+00
        -11   -1    0    0    0    0  0.00000000000E+00  0.00000000000E+00  0.45593999997E+02  0.45594000000E+02  0.51100000000E-03 0.  1.
         11   -1    0    0    0    0 -0.00000000000E+00 -0.00000000000E+00 -0.45593999997E+02  0.45594000000E+02  0.51100000000E-03 0. -1.
    9900012    2    1    2    0    0 -0.99577353041E+01 -0.14921222628E+02 -0.53744366726E+01  0.72461442744E+02  0.69999833842E+02 0.  0.
        -12    1    1    2    0    0  0.99577353041E+01  0.14921222628E+02  0.53744366726E+01  0.18726557256E+02  0.00000000000E+00 0.  1.
         11    1    3    3    0    0 -0.35786502530E+01  0.33125226947E+01 -0.22054108590E+00  0.48814119748E+01  0.51100000000E-03 0. -1.
        -11    1    3    3    0    0 -0.15108667749E+02 -0.20856639994E+02 -0.30924908014E+02  0.40244517750E+02  0.51100000000E-03 0.  1.
        -12    1    3    3    0    0  0.87295826975E+01  0.26228946714E+01  0.25771012427E+02  0.27335513020E+02  0.00000000000E+00 0.  1.
</event>
<event>
 7    1  0.1920603E-013  0.7246158E+02  0.7816164E-02  0.1226708E+00
        -11   -1    0    0    0    0  0.00000000000E+00  0.00000000000E+00  0.45593999997E+02  0.45594000000E+02  0.51100000000E-03 0.  1.
         11   -1    0    0    0    0 -0.00000000000E+00 -0.00000000000E+00 -0.45593999997E+02  0.45594000000E+02  0.51100000000E-03 0. -1.
    9900012    2    1    2    0    0  0.55275831060E+00  0.16622597588E+02 -0.86059559196E+01  0.72461580972E+02  0.70000013910E+02 0.  0.
        -12    1    1    2    0    0 -0.55275831060E+00 -0.16622597588E+02  0.86059559196E+01  0.18726419028E+02  0.00000000000E+00 0.  1.
         11    1    3    3    0    0  0.38399039161E+00  0.45352630226E+01 -0.24280946330E+02  0.24703854239E+02  0.51100000000E-03 0. -1.
        -11    1    3    3    0    0 -0.21024783736E+02  0.92284496494E+01  0.37287522712E+01  0.23261758485E+02  0.51100000000E-03 0.  1.
        -12    1    3    3    0    0  0.21193551655E+02  0.28588849159E+01  0.11946238139E+02  0.24495968248E+02  0.00000000000E+00 0.  1.
</event>
<event>
 7    1  0.1920603E-013  0.7246155E+02  0.7816164E-02  0.1226708E+00
        -11   -1    0    0    0    0  0.00000000000E+00  0.00000000000E+00  0.45593999997E+02  0.45594000000E+02  0.51100000000E-03 0.  1.
         11   -1    0    0    0    0 -0.00000000000E+00 -0.00000000000E+00 -0.45593999997E+02  0.45594000000E+02  0.51100000000E-03 0. -1.
    9900012    2    1    2    0    0 -0.14185058815E+02 -0.44222684942E+01 -0.11397695386E+02  0.72461553131E+02  0.69999977641E+02 0.  0.
        -12    1    1    2    0    0  0.14185058815E+02  0.44222684942E+01  0.11397695386E+02  0.18726446869E+02  0.00000000000E+00 0.  1.
         11    1    3    3    0    0 -0.15286507396E+02  0.79859663464E+01 -0.31318235965E+02  0.35753109949E+02  0.51100000000E-03 0. -1.
        -11    1    3    3    0    0 -0.11544125534E+02 -0.12446635900E+02  0.62603234934E+01  0.18093568749E+02  0.51100000000E-03 0.  1.
         12    1    3    3    0    0  0.12645574114E+02  0.38401059414E-01  0.13660217085E+02  0.18614874432E+02  0.00000000000E+00 0. -1.
</event>
<event>
 7    1  0.1920603E-013  0.7246157E+02  0.7816164E-02  0.1226708E+00
        -11   -1    0    0    0    0  0.00000000000E+00  0.00000000000E+00  0.45593999997E+02  0.45594000000E+02  0.51100000000E-03 0.  1.
         11   -1    0    0    0    0 -0.00000000000E+00 -0.00000000000E+00 -0.45593999997E+02  0.45594000000E+02  0.51100000000E-03 0. -1.
    9900012    2    1    2    0    0  0.10889301740E+02 -0.11605937886E+02 -0.98693710955E+01  0.72461570217E+02  0.69999999899E+02 0.  0.
        -12    1    1    2    0    0 -0.10889301740E+02  0.11605937886E+02  0.98693710955E+01  0.18726429783E+02  0.00000000000E+00 0.  1.
         11    1    3    3    0    0 -0.15246829317E+02  0.35920169714E+01 -0.17731121037E+02  0.23659269719E+02  0.51100000000E-03 0. -1.
        -11    1    3    3    0    0  0.31976244575E+02 -0.97084455238E+01 -0.48570381756E+01  0.33768697809E+02  0.51100000000E-03 0.  1.
        -12    1    3    3    0    0 -0.58401135172E+01 -0.54895093338E+01  0.12718788117E+02  0.15033602688E+02  0.00000000000E+00 0.  1.
</event>
<event>
 7    1  0.1920603E-013  0.7246164E+02  0.7816164E-02  0.1226708E+00
        -11   -1    0    0    0    0  0.00000000000E+00  0.00000000000E+00  0.45593999997E+02  0.45594000000E+02  0.51100000000E-03 0.  1.
         11   -1    0    0    0    0 -0.00000000000E+00 -0.00000000000E+00 -0.45593999997E+02  0.45594000000E+02  0.51100000000E-03 0. -1.
    9900012    2    1    2    0    0 -0.11997524295E+02 -0.12576358708E+02 -0.69692942026E+01  0.72461642927E+02  0.70000094617E+02 0.  0.
        -12    1    1    2    0    0  0.11997524295E+02  0.12576358708E+02  0.69692942026E+01  0.18726357073E+02  0.00000000000E+00 0.  1.
         11    1    3    3    0    0 -0.27611918321E+02 -0.16905186525E+02 -0.20236541148E+02  0.38180112136E+02  0.51100000000E-03 0. -1.
        -11    1    3    3    0    0  0.13513036532E+02  0.98169019996E+01 -0.30139193399E+01  0.16972254748E+02  0.51100000000E-03 0.  1.
         12    1    3    3    0    0  0.21013574947E+01 -0.54880741822E+01  0.16281166285E+02  0.17309276043E+02  0.00000000000E+00 0. -1.
</event>
<event>
 7    1  0.1920603E-013  0.7246155E+02  0.7816164E-02  0.1226708E+00
        -11   -1    0    0    0    0  0.00000000000E+00  0.00000000000E+00  0.45593999997E+02  0.45594000000E+02  0.51100000000E-03 0. -1.
         11   -1    0    0    0    0 -0.00000000000E+00 -0.00000000000E+00 -0.45593999997E+02  0.45594000000E+02  0.51100000000E-03 0.  1.
    9900012    2    1    2    0    0  0.13592954037E+02 -0.10356324136E+02 -0.76588452223E+01  0.72461554550E+02  0.69999979489E+02 0.  0.
        -12    1    1    2    0    0 -0.13592954037E+02  0.10356324136E+02  0.76588452223E+01  0.18726445450E+02  0.00000000000E+00 0.  1.
         11    1    3    3    0    0  0.23199570704E+02 -0.24409621839E+02 -0.52767394215E+01  0.34086561844E+02  0.51100000000E-03 0. -1.
        -11    1    3    3    0    0 -0.16004705387E+02  0.13530452422E-01 -0.12167480052E+02  0.20104684745E+02  0.51100000000E-03 0.  1.
         12    1    3    3    0    0  0.63980887206E+01  0.14039767251E+02  0.97853742515E+01  0.18270307960E+02  0.00000000000E+00 0. -1.
</event>
<event>
 7    1  0.1920603E-013  0.7246158E+02  0.7816164E-02  0.1226708E+00
        -11   -1    0    0    0    0  0.00000000000E+00  0.00000000000E+00  0.45593999997E+02  0.45594000000E+02  0.51100000000E-03 0.  1.
         11   -1    0    0    0    0 -0.00000000000E+00 -0.00000000000E+00 -0.45593999997E+02  0.45594000000E+02  0.51100000000E-03 0. -1.
    9900012    2    1    2    0    0 -0.22470276738E+01 -0.16633810464E+02 -0.83033765941E+01  0.72461578911E+02  0.70000011225E+02 0.  0.
        -12    1    1    2    0    0  0.22470276738E+01  0.16633810464E+02  0.83033765941E+01  0.18726421089E+02  0.00000000000E+00 0.  1.
         11    1    3    3    0    0  0.17955963018E+02 -0.20041544441E+02 -0.15258534896E+02  0.30933848757E+02  0.51100000000E-03 0. -1.
        -11    1    3    3    0    0 -0.12399095746E+02  0.23121848637E+01  0.21533687218E+02  0.24955629818E+02  0.51100000000E-03 0.  1.
         12    1    3    3    0    0 -0.78038949459E+01  0.10955491136E+01 -0.14578528916E+02  0.16572100336E+02  0.00000000000E+00 0. -1.
</event>
<event>
 7    1  0.1920603E-013  0.7246164E+02  0.7816164E-02  0.1226708E+00
        -11   -1    0    0    0    0  0.00000000000E+00  0.00000000000E+00  0.45593999997E+02  0.45594000000E+02  0.51100000000E-03 0.  1.
         11   -1    0    0    0    0 -0.00000000000E+00 -0.00000000000E+00 -0.45593999997E+02  0.45594000000E+02  0.51100000000E-03 0. -1.
    9900012    2    1    2    0    0  0.85679758387E+01 -0.87034638959E+01  0.14195640719E+02  0.72461635986E+02  0.70000085575E+02 0.  0.
        -12    1    1    2    0    0 -0.85679758387E+01  0.87034638959E+01 -0.14195640719E+02  0.18726364014E+02  0.00000000000E+00 0.  1.
         11    1    3    3    0    0 -0.93702004483E+01 -0.20667219393E+02  0.46601504487E+01  0.23165742301E+02  0.51100000000E-03 0. -1.
        -11    1    3    3    0    0  0.27049670525E+02  0.66007993843E+00 -0.63317012241E+01  0.27788681539E+02  0.51100000000E-03 0.  1.
        -12    1    3    3    0    0 -0.91114942377E+01  0.11303675558E+02  0.15867191495E+02  0.21507212146E+02  0.00000000000E+00 0.  1.
</event>
<event>
 7    1  0.1920603E-013  0.7246166E+02  0.7816164E-02  0.1226708E+00
        -11   -1    0    0    0    0  0.00000000000E+00  0.00000000000E+00  0.45593999997E+02  0.45594000000E+02  0.51100000000E-03 0. -1.
         11   -1    0    0    0    0 -0.00000000000E+00 -0.00000000000E+00 -0.45593999997E+02  0.45594000000E+02  0.51100000000E-03 0.  1.
    9900012    2    1    2    0    0  0.11501111500E+02 -0.11166289521E+02  0.96806113703E+01  0.72461659624E+02  0.70000116368E+02 0.  0.
        -12    1    1    2    0    0 -0.11501111500E+02  0.11166289521E+02 -0.96806113703E+01  0.18726340376E+02  0.00000000000E+00 0.  1.
         11    1    3    3    0    0 -0.22716392068E+01 -0.34616413264E+01 -0.10580855335E+02  0.11362121511E+02  0.51100000000E-03 0.  1.
        -11    1    3    3    0    0  0.50217859437E+01  0.22701932970E+02  0.17951852557E+02  0.29374565616E+02  0.51100000000E-03 0. -1.
        -12    1    3    3    0    0  0.87509647626E+01 -0.30406581164E+02  0.23096141483E+01  0.31724972496E+02  0.00000000000E+00 0.  1.
</event>
<event>
 7    1  0.1920603E-013  0.7246160E+02  0.7816164E-02  0.1226708E+00
        -11   -1    0    0    0    0  0.00000000000E+00  0.00000000000E+00  0.45593999997E+02  0.45594000000E+02  0.51100000000E-03 0.  1.
         11   -1    0    0    0    0 -0.00000000000E+00 -0.00000000000E+00 -0.45593999997E+02  0.45594000000E+02  0.51100000000E-03 0. -1.
    9900012    2    1    2    0    0 -0.12483460648E+02  0.12650068208E+02 -0.59006016576E+01  0.72461598441E+02  0.70000036666E+02 0.  0.
        -12    1    1    2    0    0  0.12483460648E+02 -0.12650068208E+02  0.59006016576E+01  0.18726401559E+02  0.00000000000E+00 0.  1.
         11    1    3    3    0    0  0.35888025060E+01 -0.13974398195E+02 -0.17084853783E+02  0.22361921594E+02  0.51100000000E-03 0. -1.
        -11    1    3    3    0    0 -0.99490609379E+01  0.21594891271E+02  0.24793424558E+02  0.34351667269E+02  0.51100000000E-03 0.  1.
         12    1    3    3    0    0 -0.61232022160E+01  0.50295751318E+01 -0.13609172432E+02  0.15748009578E+02  0.00000000000E+00 0. -1.
</event>
<event>
 7    1  0.1920603E-013  0.7246156E+02  0.7816164E-02  0.1226708E+00
        -11   -1    0    0    0    0  0.00000000000E+00  0.00000000000E+00  0.45593999997E+02  0.45594000000E+02  0.51100000000E-03 0.  1.
         11   -1    0    0    0    0 -0.00000000000E+00 -0.00000000000E+00 -0.45593999997E+02  0.45594000000E+02  0.51100000000E-03 0. -1.
    9900012    2    1    2    0    0 -0.18282398742E+02  0.33616312616E+01 -0.22656102633E+01  0.72461557242E+02  0.69999982997E+02 0.  0.
        -12    1    1    2    0    0  0.18282398742E+02 -0.33616312616E+01  0.22656102633E+01  0.18726442758E+02  0.00000000000E+00 0.  1.
         11    1    3    3    0    0 -0.13416402232E+02  0.16610468147E+02  0.28364206289E+01  0.21539563207E+02  0.51100000000E-03 0. -1.
        -11    1    3    3    0    0 -0.20591280228E+02 -0.23717016707E+02 -0.21553187207E+00  0.31409300488E+02  0.51100000000E-03 0.  1.
        -12    1    3    3    0    0  0.15725283718E+02  0.10468179822E+02 -0.48864990202E+01  0.19512693547E+02  0.00000000000E+00 0.  1.
</event>
<event>
 7    1  0.1920603E-013  0.7246133E+02  0.7816164E-02  0.1226709E+00
        -11   -1    0    0    0    0  0.00000000000E+00  0.00000000000E+00  0.45593999997E+02  0.45594000000E+02  0.51100000000E-03 0.  1.
         11   -1    0    0    0    0 -0.00000000000E+00 -0.00000000000E+00 -0.45593999997E+02  0.45594000000E+02  0.51100000000E-03 0. -1.
    9900012    2    1    2    0    0 -0.12874398661E+02 -0.83079089118E+01 -0.10766457647E+02  0.72461331806E+02  0.69999689324E+02 0.  0.
        -12    1    1    2    0    0  0.12874398661E+02  0.83079089118E+01  0.10766457647E+02  0.18726668194E+02  0.00000000000E+00 0.  1.
         11    1    3    3    0    0 -0.77448619898E+01 -0.30976141948E+02 -0.57801175231E+01  0.32448636583E+02  0.51100000000E-03 0. -1.
        -11    1    3    3    0    0 -0.13009638389E+02  0.10070169392E+02  0.97180039896E+01  0.19107553595E+02  0.51100000000E-03 0.  1.
         12    1    3    3    0    0  0.78801017174E+01  0.12598063645E+02 -0.14704344114E+02  0.20905141628E+02  0.00000000000E+00 0. -1.
</event>
<event>
 7    1  0.1920603E-013  0.7246160E+02  0.7816164E-02  0.1226708E+00
        -11   -1    0    0    0    0  0.00000000000E+00  0.00000000000E+00  0.45593999997E+02  0.45594000000E+02  0.51100000000E-03 0.  1.
         11   -1    0    0    0    0 -0.00000000000E+00 -0.00000000000E+00 -0.45593999997E+02  0.45594000000E+02  0.51100000000E-03 0. -1.
    9900012    2    1    2    0    0  0.10654978462E+02  0.72073130976E+01 -0.13608973971E+02  0.72461598833E+02  0.70000037177E+02 0.  0.
        -12    1    1    2    0    0 -0.10654978462E+02 -0.72073130976E+01  0.13608973971E+02  0.18726401167E+02  0.00000000000E+00 0.  1.
         11    1    3    3    0    0  0.21964101576E+02 -0.11807086096E+02 -0.88641328640E+01  0.26465107062E+02  0.51100000000E-03 0. -1.
        -11    1    3    3    0    0  0.28050824643E+01  0.28150014198E+02  0.77711500289E+00  0.28300100617E+02  0.51100000000E-03 0.  1.
        -12    1    3    3    0    0 -0.14114205578E+02 -0.91356150043E+01 -0.55219561100E+01  0.17696391154E+02  0.00000000000E+00 0.  1.
</event>
<event>
 7    1  0.1920603E-013  0.7246158E+02  0.7816164E-02  0.1226708E+00
        -11   -1    0    0    0    0  0.00000000000E+00  0.00000000000E+00  0.45593999997E+02  0.45594000000E+02  0.51100000000E-03 0.  1.
         11   -1    0    0    0    0 -0.00000000000E+00 -0.00000000000E+00 -0.45593999997E+02  0.45594000000E+02  0.51100000000E-03 0. -1.
    9900012    2    1    2    0    0 -0.26666143904E+01 -0.64187416806E+01 -0.17388719651E+02  0.72461584215E+02  0.70000018134E+02 0.  0.
        -12    1    1    2    0    0  0.26666143904E+01  0.64187416806E+01  0.17388719651E+02  0.18726415785E+02  0.00000000000E+00 0.  1.
         11    1    3    3    0    0 -0.14458490614E+02 -0.43150772641E+01 -0.26104078514E+02  0.30151131952E+02  0.51100000000E-03 0. -1.
        -11    1    3    3    0    0  0.13307205214E+02 -0.19136887860E+02  0.44032508163E+00  0.23313002252E+02  0.51100000000E-03 0.  1.
         12    1    3    3    0    0 -0.15153289904E+01  0.17033223443E+02  0.82750337819E+01  0.18997450011E+02  0.00000000000E+00 0. -1.
</event>
<event>
 7    1  0.1920603E-013  0.7246161E+02  0.7816164E-02  0.1226708E+00
        -11   -1    0    0    0    0  0.00000000000E+00  0.00000000000E+00  0.45593999997E+02  0.45594000000E+02  0.51100000000E-03 0. -1.
         11   -1    0    0    0    0 -0.00000000000E+00 -0.00000000000E+00 -0.45593999997E+02  0.45594000000E+02  0.51100000000E-03 0.  1.
    9900012    2    1    2    0    0 -0.89132920434E+01  0.13681897413E+02  0.91671431842E+01  0.72461612040E+02  0.70000054381E+02 0.  0.
        -12    1    1    2    0    0  0.89132920434E+01 -0.13681897413E+02 -0.91671431842E+01  0.18726387960E+02  0.00000000000E+00 0.  1.
         11    1    3    3    0    0 -0.24019464260E+02 -0.15411288957E+02  0.17150653565E+02  0.33295456276E+02  0.51100000000E-03 0.  1.
        -11    1    3    3    0    0  0.15226650453E+02  0.23051762957E+02  0.17800373471E+01  0.27683988019E+02  0.51100000000E-03 0. -1.
         12    1    3    3    0    0 -0.12047823638E+00  0.60414234131E+01 -0.97635477283E+01  0.11482167744E+02  0.00000000000E+00 0. -1.
</event>
<event>
 7    1  0.1920603E-013  0.7246142E+02  0.7816164E-02  0.1226708E+00
        -11   -1    0    0    0    0  0.00000000000E+00  0.00000000000E+00  0.45593999997E+02  0.45594000000E+02  0.51100000000E-03 0. -1.
         11   -1    0    0    0    0 -0.00000000000E+00 -0.00000000000E+00 -0.45593999997E+02  0.45594000000E+02  0.51100000000E-03 0.  1.
    9900012    2    1    2    0    0  0.12485457642E+02  0.13001418559E+02 -0.50755673178E+01  0.72461416737E+02  0.69999799963E+02 0.  0.
        -12    1    1    2    0    0 -0.12485457642E+02 -0.13001418559E+02  0.50755673178E+01  0.18726583263E+02  0.00000000000E+00 0.  1.
         11    1    3    3    0    0  0.72701968798E+01 -0.84195170084E+00  0.54004537013E+01  0.90955783642E+01  0.51100000000E-03 0. -1.
        -11    1    3    3    0    0  0.22287613601E+02  0.24052010252E+02 -0.22824934147E+02  0.39952653683E+02  0.51100000000E-03 0.  1.
        -12    1    3    3    0    0 -0.17072352838E+02 -0.10208639992E+02  0.12348913128E+02  0.23413184691E+02  0.00000000000E+00 0.  1.
</event>
<event>
 7    1  0.1920603E-013  0.7246159E+02  0.7816164E-02  0.1226708E+00
        -11   -1    0    0    0    0  0.00000000000E+00  0.00000000000E+00  0.45593999997E+02  0.45594000000E+02  0.51100000000E-03 0.  1.
         11   -1    0    0    0    0 -0.00000000000E+00 -0.00000000000E+00 -0.45593999997E+02  0.45594000000E+02  0.51100000000E-03 0. -1.
    9900012    2    1    2    0    0 -0.14834902020E+02 -0.74477796497E+01 -0.86680311938E+01  0.72461588052E+02  0.70000023133E+02 0.  0.
        -12    1    1    2    0    0  0.14834902020E+02  0.74477796497E+01  0.86680311938E+01  0.18726411948E+02  0.00000000000E+00 0.  1.
         11    1    3    3    0    0 -0.25671834363E+02  0.14380727275E+02 -0.13965032151E+02  0.32571007350E+02  0.51100000000E-03 0. -1.
        -11    1    3    3    0    0  0.33100755407E+01 -0.15780322259E+02 -0.11987648786E+02  0.20091761853E+02  0.51100000000E-03 0.  1.
         12    1    3    3    0    0  0.75268568026E+01 -0.60481846661E+01  0.17284649744E+02  0.19798818850E+02  0.00000000000E+00 0. -1.
</event>
<event>
 7    1  0.1920603E-013  0.7246161E+02  0.7816164E-02  0.1226708E+00
        -11   -1    0    0    0    0  0.00000000000E+00  0.00000000000E+00  0.45593999997E+02  0.45594000000E+02  0.51100000000E-03 0. -1.
         11   -1    0    0    0    0 -0.00000000000E+00 -0.00000000000E+00 -0.45593999997E+02  0.45594000000E+02  0.51100000000E-03 0.  1.
    9900012    2    1    2    0    0 -0.15526724589E+02 -0.88082806124E+00  0.10431802734E+02  0.72461613727E+02  0.70000056580E+02 0.  0.
        -12    1    1    2    0    0  0.15526724589E+02  0.88082806124E+00 -0.10431802734E+02  0.18726386273E+02  0.00000000000E+00 0.  1.
         11    1    3    3    0    0 -0.47383211937E+01  0.19646181790E+02  0.13055947469E+02  0.24059964905E+02  0.51100000000E-03 0.  1.
        -11    1    3    3    0    0 -0.14097527239E+02 -0.31606459751E+02 -0.81974361556E+01  0.35565524487E+02  0.51100000000E-03 0. -1.
         12    1    3    3    0    0  0.33091238434E+01  0.11079449899E+02  0.55732914211E+01  0.12836124335E+02  0.00000000000E+00 0. -1.
</event>
<event>
 7    1  0.1920603E-013  0.7246159E+02  0.7816164E-02  0.1226708E+00
        -11   -1    0    0    0    0  0.00000000000E+00  0.00000000000E+00  0.45593999997E+02  0.45594000000E+02  0.51100000000E-03 0.  1.
         11   -1    0    0    0    0 -0.00000000000E+00 -0.00000000000E+00 -0.45593999997E+02  0.45594000000E+02  0.51100000000E-03 0. -1.
    9900012    2    1    2    0    0 -0.12960590500E+02  0.66791302998E+01  0.11751203252E+02  0.72461589090E+02  0.70000024485E+02 0.  0.
        -12    1    1    2    0    0  0.12960590500E+02 -0.66791302998E+01 -0.11751203252E+02  0.18726410910E+02  0.00000000000E+00 0.  1.
         11    1    3    3    0    0 -0.12658840412E+02  0.69610928868E+01 -0.14504371861E+02  0.20471440059E+02  0.51100000000E-03 0. -1.
        -11    1    3    3    0    0  0.17002094885E+02 -0.12477720227E+02  0.43627110081E+01  0.21535969450E+02  0.51100000000E-03 0.  1.
        -12    1    3    3    0    0 -0.17303844972E+02  0.12195757640E+02  0.21892864105E+02  0.30454179581E+02  0.00000000000E+00 0.  1.
</event>
<event>
 7    1  0.1920603E-013  0.7246156E+02  0.7816164E-02  0.1226708E+00
        -11   -1    0    0    0    0  0.00000000000E+00  0.00000000000E+00  0.45593999997E+02  0.45594000000E+02  0.51100000000E-03 0. -1.
         11   -1    0    0    0    0 -0.00000000000E+00 -0.00000000000E+00 -0.45593999997E+02  0.45594000000E+02  0.51100000000E-03 0.  1.
    9900012    2    1    2    0    0  0.51044696457E+00  0.33706031934E+01  0.18413527783E+02  0.72461560738E+02  0.69999987551E+02 0.  0.
        -12    1    1    2    0    0 -0.51044696457E+00 -0.33706031934E+01 -0.18413527783E+02  0.18726439262E+02  0.00000000000E+00 0.  1.
         11    1    3    3    0    0 -0.74476646547E+01  0.43937457762E+00  0.35796791119E+02  0.36565981643E+02  0.51100000000E-03 0. -1.
        -11    1    3    3    0    0  0.84683789711E+01 -0.78777185998E+01 -0.21422463502E+02  0.24345304178E+02  0.51100000000E-03 0.  1.
         12    1    3    3    0    0 -0.51026735184E+00  0.10808947216E+02  0.40392001664E+01  0.11550274917E+02  0.00000000000E+00 0. -1.
</event>
<event>
 7    1  0.1920603E-013  0.7246160E+02  0.7816164E-02  0.1226708E+00
        -11   -1    0    0    0    0  0.00000000000E+00  0.00000000000E+00  0.45593999997E+02  0.45594000000E+02  0.51100000000E-03 0. -1.
         11   -1    0    0    0    0 -0.00000000000E+00 -0.00000000000E+00 -0.45593999997E+02  0.45594000000E+02  0.51100000000E-03 0.  1.
    9900012    2    1    2    0    0  0.98290365154E+01 -0.12775647836E+02  0.95315742471E+01  0.72461600344E+02  0.70000039145E+02 0.  0.
        -12    1    1    2    0    0 -0.98290365154E+01  0.12775647836E+02 -0.95315742471E+01  0.18726399656E+02  0.00000000000E+00 0.  1.
         11    1    3    3    0    0  0.23303585980E+02  0.90578268786E+01 -0.37259417368E+01  0.25278132632E+02  0.51100000000E-03 0. -1.
        -11    1    3    3    0    0 -0.11428831049E+02 -0.24514936696E+02 -0.59393888068E+01  0.27692537623E+02  0.51100000000E-03 0.  1.
         12    1    3    3    0    0 -0.20457184152E+01  0.26814619813E+01  0.19196904791E+02  0.19490930089E+02  0.00000000000E+00 0. -1.
</event>
<event>
 7    1  0.1920603E-013  0.7246165E+02  0.7816164E-02  0.1226708E+00
        -11   -1    0    0    0    0  0.00000000000E+00  0.00000000000E+00  0.45593999997E+02  0.45594000000E+02  0.51100000000E-03 0. -1.
         11   -1    0    0    0    0 -0.00000000000E+00 -0.00000000000E+00 -0.45593999997E+02  0.45594000000E+02  0.51100000000E-03 0.  1.
    9900012    2    1    2    0    0  0.86015862660E+01 -0.83725343319E+01  0.14373224243E+02  0.72461649780E+02  0.70000103545E+02 0.  0.
        -12    1    1    2    0    0 -0.86015862660E+01  0.83725343319E+01 -0.14373224243E+02  0.18726350220E+02  0.00000000000E+00 0.  1.
         11    1    3    3    0    0 -0.45736907546E+01 -0.14369985867E+02  0.27656303642E+02  0.31500575746E+02  0.51100000000E-03 0. -1.
        -11    1    3    3    0    0  0.47724551044E+01  0.11444391206E+02 -0.23552754051E+02  0.26617337234E+02  0.51100000000E-03 0.  1.
        -12    1    3    3    0    0  0.84028219162E+01 -0.54469396708E+01  0.10269674652E+02  0.14343736800E+02  0.00000000000E+00 0.  1.
</event>
<event>
 7    1  0.1920603E-013  0.7246159E+02  0.7816164E-02  0.1226708E+00
        -11   -1    0    0    0    0  0.00000000000E+00  0.00000000000E+00  0.45593999997E+02  0.45594000000E+02  0.51100000000E-03 0. -1.
         11   -1    0    0    0    0 -0.00000000000E+00 -0.00000000000E+00 -0.45593999997E+02  0.45594000000E+02  0.51100000000E-03 0.  1.
    9900012    2    1    2    0    0 -0.10919318950E+02 -0.13802092514E+02  0.63991394811E+01  0.72461594307E+02  0.70000031281E+02 0.  0.
        -12    1    1    2    0    0  0.10919318950E+02  0.13802092514E+02 -0.63991394811E+01  0.18726405693E+02  0.00000000000E+00 0.  1.
         11    1    3    3    0    0  0.10999961885E+02 -0.32644053932E+02  0.37361098202E+01  0.34649558950E+02  0.51100000000E-03 0. -1.
        -11    1    3    3    0    0 -0.22766455133E+00  0.13758402648E+02 -0.43889320181E+01  0.14443275221E+02  0.51100000000E-03 0.  1.
         12    1    3    3    0    0 -0.21691616284E+02  0.50835587692E+01  0.70519616790E+01  0.23368760136E+02  0.00000000000E+00 0. -1.
</event>
<event>
 7    1  0.1920603E-013  0.7246172E+02  0.7816164E-02  0.1226708E+00
        -11   -1    0    0    0    0  0.00000000000E+00  0.00000000000E+00  0.45593999997E+02  0.45594000000E+02  0.51100000000E-03 0. -1.
         11   -1    0    0    0    0 -0.00000000000E+00 -0.00000000000E+00 -0.45593999997E+02  0.45594000000E+02  0.51100000000E-03 0.  1.
    9900012    2    1    2    0    0  0.22428797008E+01 -0.10352385818E+01  0.18562629211E+02  0.72461723501E+02  0.70000199580E+02 0.  0.
        -12    1    1    2    0    0 -0.22428797008E+01  0.10352385818E+01 -0.18562629211E+02  0.18726276499E+02  0.00000000000E+00 0.  1.
         11    1    3    3    0    0 -0.48446643638E+01  0.11765366929E+02 -0.10741222137E+02  0.16651380874E+02  0.51100000000E-03 0.  1.
        -11    1    3    3    0    0  0.20189454143E+02 -0.15645231018E+01  0.32465431036E+02  0.38263115447E+02  0.51100000000E-03 0. -1.
        -12    1    3    3    0    0 -0.13101910078E+02 -0.11236082408E+02 -0.31615796877E+01  0.17547227180E+02  0.00000000000E+00 0.  1.
</event>
<event>
 7    1  0.1920603E-013  0.7246157E+02  0.7816164E-02  0.1226708E+00
        -11   -1    0    0    0    0  0.00000000000E+00  0.00000000000E+00  0.45593999997E+02  0.45594000000E+02  0.51100000000E-03 0.  1.
         11   -1    0    0    0    0 -0.00000000000E+00 -0.00000000000E+00 -0.45593999997E+02  0.45594000000E+02  0.51100000000E-03 0. -1.
    9900012    2    1    2    0    0 -0.74183773794E+01  0.10721252742E+02 -0.13442530826E+02  0.72461568992E+02  0.69999998303E+02 0.  0.
        -12    1    1    2    0    0  0.74183773794E+01 -0.10721252742E+02  0.13442530826E+02  0.18726431008E+02  0.00000000000E+00 0.  1.
         11    1    3    3    0    0 -0.15866642699E+02  0.76797819490E+01 -0.38822557141E+02  0.42637077110E+02  0.51100000000E-03 0. -1.
        -11    1    3    3    0    0  0.12325002792E+01  0.27738364375E+01 -0.39153798855E+00  0.30604783576E+01  0.51100000000E-03 0.  1.
         12    1    3    3    0    0  0.72157650402E+01  0.26763435549E+00  0.25771564304E+02  0.26764013524E+02  0.00000000000E+00 0. -1.
</event>
<event>
 7    1  0.1920603E-013  0.7246147E+02  0.7816164E-02  0.1226708E+00
        -11   -1    0    0    0    0  0.00000000000E+00  0.00000000000E+00  0.45593999997E+02  0.45594000000E+02  0.51100000000E-03 0.  1.
         11   -1    0    0    0    0 -0.00000000000E+00 -0.00000000000E+00 -0.45593999997E+02  0.45594000000E+02  0.51100000000E-03 0. -1.
    9900012    2    1    2    0    0  0.77141430175E+01 -0.21347426525E+01 -0.16929791181E+02  0.72461469138E+02  0.69999868225E+02 0.  0.
        -12    1    1    2    0    0 -0.77141430175E+01  0.21347426525E+01  0.16929791181E+02  0.18726530862E+02  0.00000000000E+00 0.  1.
         11    1    3    3    0    0 -0.16338166336E+02  0.24094059474E+02 -0.18206276730E+02  0.34335519419E+02  0.51100000000E-03 0. -1.
        -11    1    3    3    0    0  0.14586910888E+02 -0.22409137649E+02  0.51106610756E+01  0.27222532511E+02  0.51100000000E-03 0.  1.
         12    1    3    3    0    0  0.94653984652E+01 -0.38196644784E+01 -0.38341755272E+01  0.10903417208E+02  0.00000000000E+00 0. -1.
</event>
<event>
 7    1  0.1920603E-013  0.7246155E+02  0.7816164E-02  0.1226708E+00
        -11   -1    0    0    0    0  0.00000000000E+00  0.00000000000E+00  0.45593999997E+02  0.45594000000E+02  0.51100000000E-03 0.  1.
         11   -1    0    0    0    0 -0.00000000000E+00 -0.00000000000E+00 -0.45593999997E+02  0.45594000000E+02  0.51100000000E-03 0. -1.
    9900012    2    1    2    0    0  0.93475128622E+01 -0.10913161743E+02 -0.12008607634E+02  0.72461554709E+02  0.69999979697E+02 0.  0.
        -12    1    1    2    0    0 -0.93475128622E+01  0.10913161743E+02  0.12008607634E+02  0.18726445291E+02  0.00000000000E+00 0.  1.
         11    1    3    3    0    0  0.26171328117E+02 -0.27973980123E+02 -0.15438816589E+02  0.41301804286E+02  0.51100000000E-03 0. -1.
        -11    1    3    3    0    0  0.31476560478E+01  0.48041585537E+01  0.50819706350E+01  0.76690353891E+01  0.51100000000E-03 0.  1.
         12    1    3    3    0    0 -0.19971471303E+02  0.12256659827E+02 -0.16517616801E+01  0.23490715033E+02  0.00000000000E+00 0. -1.
</event>
<event>
 7    1  0.1920603E-013  0.7246173E+02  0.7816164E-02  0.1226708E+00
        -11   -1    0    0    0    0  0.00000000000E+00  0.00000000000E+00  0.45593999997E+02  0.45594000000E+02  0.51100000000E-03 0. -1.
         11   -1    0    0    0    0 -0.00000000000E+00 -0.00000000000E+00 -0.45593999997E+02  0.45594000000E+02  0.51100000000E-03 0.  1.
    9900012    2    1    2    0    0  0.16825787327E+02 -0.71094674890E+01  0.41257201510E+01  0.72461729311E+02  0.70000207148E+02 0.  0.
        -12    1    1    2    0    0 -0.16825787327E+02  0.71094674890E+01 -0.41257201510E+01  0.18726270689E+02  0.00000000000E+00 0.  1.
         11    1    3    3    0    0  0.15692938738E+02  0.15722184127E+02 -0.10167307048E+02  0.24430094818E+02  0.51100000000E-03 0. -1.
        -11    1    3    3    0    0 -0.15646123308E+02 -0.24190340568E+02  0.11233755623E+02  0.30922015087E+02  0.51100000000E-03 0.  1.
         12    1    3    3    0    0  0.16778971898E+02  0.13586889524E+01  0.30592715761E+01  0.17109619405E+02  0.00000000000E+00 0. -1.
</event>
<event>
 7    1  0.1920603E-013  0.7246154E+02  0.7816164E-02  0.1226708E+00
        -11   -1    0    0    0    0  0.00000000000E+00  0.00000000000E+00  0.45593999997E+02  0.45594000000E+02  0.51100000000E-03 0. -1.
         11   -1    0    0    0    0 -0.00000000000E+00 -0.00000000000E+00 -0.45593999997E+02  0.45594000000E+02  0.51100000000E-03 0.  1.
    9900012    2    1    2    0    0 -0.15056885421E+02  0.10698277724E+02  0.30850018234E+01  0.72461543286E+02  0.69999964816E+02 0.  0.
        -12    1    1    2    0    0  0.15056885421E+02 -0.10698277724E+02 -0.30850018234E+01  0.18726456714E+02  0.00000000000E+00 0.  1.
         11    1    3    3    0    0  0.18721991281E+02  0.17367982693E+02 -0.80667178810E+01  0.26781182162E+02  0.51100000000E-03 0.  1.
        -11    1    3    3    0    0 -0.37179708828E+02 -0.25653240198E+01  0.50991960843E+01  0.37615335128E+02  0.51100000000E-03 0. -1.
         12    1    3    3    0    0  0.34008321259E+01 -0.41043809497E+01  0.60525236201E+01  0.80650259951E+01  0.00000000000E+00 0. -1.
</event>
<event>
 7    1  0.1920603E-013  0.7246160E+02  0.7816164E-02  0.1226708E+00
        -11   -1    0    0    0    0  0.00000000000E+00  0.00000000000E+00  0.45593999997E+02  0.45594000000E+02  0.51100000000E-03 0.  1.
         11   -1    0    0    0    0 -0.00000000000E+00 -0.00000000000E+00 -0.45593999997E+02  0.45594000000E+02  0.51100000000E-03 0. -1.
    9900012    2    1    2    0    0 -0.87425867916E+01  0.13894778425E+02 -0.90100150264E+01  0.72461599864E+02  0.70000038520E+02 0.  0.
        -12    1    1    2    0    0  0.87425867916E+01 -0.13894778425E+02  0.90100150264E+01  0.18726400136E+02  0.00000000000E+00 0.  1.
         11    1    3    3    0    0  0.26754385676E+02  0.98636130997E+01  0.49955900020E+00  0.28519073893E+02  0.51100000000E-03 0. -1.
        -11    1    3    3    0    0 -0.24419219545E+02 -0.55524197442E+01  0.22707340725E+01  0.25145255650E+02  0.51100000000E-03 0.  1.
        -12    1    3    3    0    0 -0.11077752922E+02  0.95835850695E+01 -0.11780308099E+02  0.18797270320E+02  0.00000000000E+00 0.  1.
</event>
<event>
 7    1  0.1920603E-013  0.7246162E+02  0.7816164E-02  0.1226708E+00
        -11   -1    0    0    0    0  0.00000000000E+00  0.00000000000E+00  0.45593999997E+02  0.45594000000E+02  0.51100000000E-03 0. -1.
         11   -1    0    0    0    0 -0.00000000000E+00 -0.00000000000E+00 -0.45593999997E+02  0.45594000000E+02  0.51100000000E-03 0.  1.
    9900012    2    1    2    0    0 -0.60637591757E+01  0.15051411650E+02 -0.93468229350E+01  0.72461621092E+02  0.70000066174E+02 0.  0.
        -12    1    1    2    0    0  0.60637591757E+01 -0.15051411650E+02  0.93468229350E+01  0.18726378908E+02  0.00000000000E+00 0.  1.
         11    1    3    3    0    0  0.73591840394E+01  0.87665604858E+01  0.12478199750E+02  0.16932679698E+02  0.51100000000E-03 0. -1.
        -11    1    3    3    0    0 -0.35941069839E+01 -0.20629718177E+02 -0.15842142941E+02  0.26257882060E+02  0.51100000000E-03 0.  1.
        -12    1    3    3    0    0 -0.98288362312E+01  0.26914569342E+02 -0.59828797448E+01  0.29271059334E+02  0.00000000000E+00 0.  1.
</event>
<event>
 7    1  0.1993857E-013  0.7246165E+02  0.7816164E-02  0.1226708E+00
        -11   -1    0    0    0    0  0.00000000000E+00  0.00000000000E+00  0.45593999997E+02  0.45594000000E+02  0.51100000000E-03 0.  1.
         11   -1    0    0    0    0 -0.00000000000E+00 -0.00000000000E+00 -0.45593999997E+02  0.45594000000E+02  0.51100000000E-03 0. -1.
    9900012    2    1    2    0    0 -0.16614087191E+02 -0.21226042275E+01 -0.83751234312E+01  0.72461654004E+02  0.70000109047E+02 0.  0.
        -12    1    1    2    0    0  0.16614087191E+02  0.21226042275E+01  0.83751234312E+01  0.18726345996E+02  0.00000000000E+00 0.  1.
         11    1    3    3    0    0 -0.15406076673E+02  0.71051357753E+01 -0.27261421131E+02  0.32109425956E+02  0.51100000000E-03 0. -1.
        -11    1    3    3    0    0 -0.26596674506E+01 -0.21473799750E+02  0.17715597618E+02  0.27964983566E+02  0.51100000000E-03 0.  1.
        -12    1    3    3    0    0  0.14516569332E+01  0.12246059747E+02  0.11707000827E+01  0.12387244482E+02  0.00000000000E+00 0.  1.
</event>
<event>
 7    1  0.1920603E-013  0.7246158E+02  0.7816164E-02  0.1226708E+00
        -11   -1    0    0    0    0  0.00000000000E+00  0.00000000000E+00  0.45593999997E+02  0.45594000000E+02  0.51100000000E-03 0.  1.
         11   -1    0    0    0    0 -0.00000000000E+00 -0.00000000000E+00 -0.45593999997E+02  0.45594000000E+02  0.51100000000E-03 0. -1.
    9900012    2    1    2    0    0  0.18304129429E+02  0.14618338166E+01 -0.36743519506E+01  0.72461575501E+02  0.70000006782E+02 0.  0.
        -12    1    1    2    0    0 -0.18304129429E+02 -0.14618338166E+01  0.36743519506E+01  0.18726424499E+02  0.00000000000E+00 0.  1.
         11    1    3    3    0    0  0.30533939140E+01  0.29137556594E+00 -0.11890952711E+02  0.12280182033E+02  0.51100000000E-03 0. -1.
        -11    1    3    3    0    0  0.30797320650E+00  0.25073240872E+02  0.17415015233E+02  0.30529412231E+02  0.51100000000E-03 0.  1.
        -12    1    3    3    0    0  0.14942762309E+02 -0.23902782621E+02 -0.91984144727E+01  0.29651981237E+02  0.00000000000E+00 0.  1.
</event>
<event>
 7    1  0.1920603E-013  0.7246159E+02  0.7816164E-02  0.1226708E+00
        -11   -1    0    0    0    0  0.00000000000E+00  0.00000000000E+00  0.45593999997E+02  0.45594000000E+02  0.51100000000E-03 0. -1.
         11   -1    0    0    0    0 -0.00000000000E+00 -0.00000000000E+00 -0.45593999997E+02  0.45594000000E+02  0.51100000000E-03 0.  1.
    9900012    2    1    2    0    0 -0.14263860853E+02 -0.87643637392E+01 -0.83908625786E+01  0.72461591561E+02  0.70000027704E+02 0.  0.
        -12    1    1    2    0    0  0.14263860853E+02  0.87643637392E+01  0.83908625786E+01  0.18726408439E+02  0.00000000000E+00 0.  1.
         11    1    3    3    0    0 -0.24756425719E+02 -0.22148618897E+02 -0.15666996763E+01  0.33255021900E+02  0.51100000000E-03 0. -1.
        -11    1    3    3    0    0 -0.21064241547E+01  0.11378808392E+02 -0.18559967908E+02  0.21872053222E+02  0.51100000000E-03 0.  1.
        -12    1    3    3    0    0  0.12598989020E+02  0.20054467652E+01  0.11735805006E+02  0.17334516440E+02  0.00000000000E+00 0.  1.
</event>
<event>
 7    1  0.1920603E-013  0.7246142E+02  0.7816164E-02  0.1226708E+00
        -11   -1    0    0    0    0  0.00000000000E+00  0.00000000000E+00  0.45593999997E+02  0.45594000000E+02  0.51100000000E-03 0. -1.
         11   -1    0    0    0    0 -0.00000000000E+00 -0.00000000000E+00 -0.45593999997E+02  0.45594000000E+02  0.51100000000E-03 0.  1.
    9900012    2    1    2    0    0 -0.12533890239E+02 -0.82561521508E+01 -0.11199215005E+02  0.72461418102E+02  0.69999801741E+02 0.  0.
        -12    1    1    2    0    0  0.12533890239E+02  0.82561521508E+01  0.11199215005E+02  0.18726581898E+02  0.00000000000E+00 0.  1.
         11    1    3    3    0    0 -0.91126256124E+01  0.27100291326E+02  0.93561400628E+01  0.30083269314E+02  0.51100000000E-03 0. -1.
        -11    1    3    3    0    0  0.16322756887E+01 -0.23387464076E+02 -0.16838814861E+02  0.28864917911E+02  0.51100000000E-03 0.  1.
         12    1    3    3    0    0 -0.50535403153E+01 -0.11968979401E+02 -0.37165402064E+01  0.13513230877E+02  0.00000000000E+00 0. -1.
</event>
<event>
 7    1  0.1920603E-013  0.7246172E+02  0.7816164E-02  0.1226708E+00
        -11   -1    0    0    0    0  0.00000000000E+00  0.00000000000E+00  0.45593999997E+02  0.45594000000E+02  0.51100000000E-03 0.  1.
         11   -1    0    0    0    0 -0.00000000000E+00 -0.00000000000E+00 -0.45593999997E+02  0.45594000000E+02  0.51100000000E-03 0. -1.
    9900012    2    1    2    0    0  0.12021879580E+02 -0.12133431593E+02 -0.76764385627E+01  0.72461722744E+02  0.70000198594E+02 0.  0.
        -12    1    1    2    0    0 -0.12021879580E+02  0.12133431593E+02  0.76764385627E+01  0.18726277256E+02  0.00000000000E+00 0.  1.
         11    1    3    3    0    0  0.16366698038E+02  0.21862847601E+02 -0.13889288714E+02  0.30639276282E+02  0.51100000000E-03 0. -1.
        -11    1    3    3    0    0  0.57085189812E+01 -0.12501078382E+02  0.11013885804E+02  0.17611639062E+02  0.51100000000E-03 0.  1.
         12    1    3    3    0    0 -0.10053337438E+02 -0.21495200812E+02 -0.48010356532E+01  0.24210807399E+02  0.00000000000E+00 0. -1.
</event>
<event>
 7    1  0.1920603E-013  0.7246157E+02  0.7816164E-02  0.1226708E+00
        -11   -1    0    0    0    0  0.00000000000E+00  0.00000000000E+00  0.45593999997E+02  0.45594000000E+02  0.51100000000E-03 0. -1.
         11   -1    0    0    0    0 -0.00000000000E+00 -0.00000000000E+00 -0.45593999997E+02  0.45594000000E+02  0.51100000000E-03 0.  1.
    9900012    2    1    2    0    0 -0.16132964620E+02  0.85569271575E+01  0.41455657586E+01  0.72461567738E+02  0.69999996670E+02 0.  0.
        -12    1    1    2    0    0  0.16132964620E+02 -0.85569271575E+01 -0.41455657586E+01  0.18726432262E+02  0.00000000000E+00 0.  1.
         11    1    3    3    0    0  0.42674038240E+01  0.17957151718E+01  0.97370583049E+01  0.10781726813E+02  0.51100000000E-03 0. -1.
        -11    1    3    3    0    0 -0.35415032110E+02  0.20411899231E+02 -0.63849159122E+01  0.41371938328E+02  0.51100000000E-03 0.  1.
        -12    1    3    3    0    0  0.15014663666E+02 -0.13650687245E+02  0.79342336585E+00  0.20307902597E+02  0.00000000000E+00 0.  1.
</event>
<event>
 7    1  0.1920603E-013  0.7246156E+02  0.7816164E-02  0.1226708E+00
        -11   -1    0    0    0    0  0.00000000000E+00  0.00000000000E+00  0.45593999997E+02  0.45594000000E+02  0.51100000000E-03 0. -1.
         11   -1    0    0    0    0 -0.00000000000E+00 -0.00000000000E+00 -0.45593999997E+02  0.45594000000E+02  0.51100000000E-03 0.  1.
    9900012    2    1    2    0    0 -0.16956620875E+02  0.78315593203E+00  0.79081744325E+01  0.72461560200E+02  0.69999986851E+02 0.  0.
        -12    1    1    2    0    0  0.16956620875E+02 -0.78315593203E+00 -0.79081744325E+01  0.18726439800E+02  0.00000000000E+00 0.  1.
         11    1    3    3    0    0  0.67852779905E+01  0.76974345252E+01  0.28683272696E+02  0.30463431003E+02  0.51100000000E-03 0. -1.
        -11    1    3    3    0    0 -0.14888499952E+02 -0.91386857758E+01  0.18826109630E+01  0.17570635528E+02  0.51100000000E-03 0.  1.
         12    1    3    3    0    0 -0.88533989130E+01  0.22244071826E+01 -0.22657709226E+02  0.24427493670E+02  0.00000000000E+00 0. -1.
</event>
<event>
 7    1  0.1920603E-013  0.7246162E+02  0.7816164E-02  0.1226708E+00
        -11   -1    0    0    0    0  0.00000000000E+00  0.00000000000E+00  0.45593999997E+02  0.45594000000E+02  0.51100000000E-03 0.  1.
         11   -1    0    0    0    0 -0.00000000000E+00 -0.00000000000E+00 -0.45593999997E+02  0.45594000000E+02  0.51100000000E-03 0. -1.
    9900012    2    1    2    0    0 -0.17110034000E+02  0.58047669424E-01  0.76105583794E+01  0.72461622030E+02  0.70000067396E+02 0.  0.
        -12    1    1    2    0    0  0.17110034000E+02 -0.58047669424E-01 -0.76105583794E+01  0.18726377970E+02  0.00000000000E+00 0.  1.
         11    1    3    3    0    0 -0.16721723863E+02  0.14593916504E+02 -0.20736160212E+02  0.30374113789E+02  0.51100000000E-03 0. -1.
        -11    1    3    3    0    0  0.13427653005E+02 -0.79912879769E+01  0.16687616228E+02  0.22861301021E+02  0.51100000000E-03 0.  1.
        -12    1    3    3    0    0 -0.13815963142E+02 -0.65445808581E+01  0.11659102364E+02  0.19226207220E+02  0.00000000000E+00 0.  1.
</event>
<event>
 7    1  0.1920603E-013  0.7246156E+02  0.7816164E-02  0.1226708E+00
        -11   -1    0    0    0    0  0.00000000000E+00  0.00000000000E+00  0.45593999997E+02  0.45594000000E+02  0.51100000000E-03 0. -1.
         11   -1    0    0    0    0 -0.00000000000E+00 -0.00000000000E+00 -0.45593999997E+02  0.45594000000E+02  0.51100000000E-03 0.  1.
    9900012    2    1    2    0    0  0.81155715334E+01  0.48691133147E+00  0.16869499721E+02  0.72461558672E+02  0.69999984860E+02 0.  0.
        -12    1    1    2    0    0 -0.81155715334E+01 -0.48691133147E+00 -0.16869499721E+02  0.18726441328E+02  0.00000000000E+00 0.  1.
         11    1    3    3    0    0 -0.13893225203E+02 -0.74482619153E+01  0.14572525906E+02  0.21467576100E+02  0.51100000000E-03 0. -1.
        -11    1    3    3    0    0  0.16523450389E+02  0.27726361463E+01 -0.20794839294E+02  0.26704630038E+02  0.51100000000E-03 0.  1.
         12    1    3    3    0    0  0.54853463471E+01  0.51625371005E+01  0.23091813109E+02  0.24289352534E+02  0.00000000000E+00 0. -1.
</event>
<event>
 7    1  0.1920603E-013  0.7246161E+02  0.7816164E-02  0.1226708E+00
        -11   -1    0    0    0    0  0.00000000000E+00  0.00000000000E+00  0.45593999997E+02  0.45594000000E+02  0.51100000000E-03 0. -1.
         11   -1    0    0    0    0 -0.00000000000E+00 -0.00000000000E+00 -0.45593999997E+02  0.45594000000E+02  0.51100000000E-03 0.  1.
    9900012    2    1    2    0    0 -0.12218024578E+02  0.13070757188E+02  0.55274812333E+01  0.72461605076E+02  0.70000045310E+02 0.  0.
        -12    1    1    2    0    0  0.12218024578E+02 -0.13070757188E+02 -0.55274812333E+01  0.18726394924E+02  0.00000000000E+00 0.  1.
         11    1    3    3    0    0 -0.11952073521E+02  0.70619021543E+01  0.21976334722E+02  0.25993880271E+02  0.51100000000E-03 0. -1.
        -11    1    3    3    0    0 -0.31457260312E+01 -0.24648757179E+01 -0.29979686714E+02  0.30244880895E+02  0.51100000000E-03 0.  1.
         12    1    3    3    0    0  0.28797749741E+01  0.84737307520E+01  0.13530833226E+02  0.16222843911E+02  0.00000000000E+00 0. -1.
</event>
<event>
 7    1  0.1920603E-013  0.7246158E+02  0.7816164E-02  0.1226708E+00
        -11   -1    0    0    0    0  0.00000000000E+00  0.00000000000E+00  0.45593999997E+02  0.45594000000E+02  0.51100000000E-03 0. -1.
         11   -1    0    0    0    0 -0.00000000000E+00 -0.00000000000E+00 -0.45593999997E+02  0.45594000000E+02  0.51100000000E-03 0.  1.
    9900012    2    1    2    0    0 -0.17728525032E+01 -0.49225647333E+01  0.17980656015E+02  0.72461584425E+02  0.70000018408E+02 0.  0.
        -12    1    1    2    0    0  0.17728525032E+01  0.49225647333E+01 -0.17980656015E+02  0.18726415575E+02  0.00000000000E+00 0.  1.
         11    1    3    3    0    0  0.52856769284E+01 -0.39340369985E+01  0.12505544939E+02  0.14135193037E+02  0.51100000000E-03 0. -1.
        -11    1    3    3    0    0 -0.64692285159E+01  0.21374268537E+02 -0.15877686469E+02  0.27400934308E+02  0.51100000000E-03 0.  1.
        -12    1    3    3    0    0 -0.58930091570E+00 -0.22362796272E+02  0.21352797545E+02  0.30925457081E+02  0.00000000000E+00 0.  1.
</event>
<event>
 7    1  0.1920603E-013  0.7246158E+02  0.7816164E-02  0.1226708E+00
        -11   -1    0    0    0    0  0.00000000000E+00  0.00000000000E+00  0.45593999997E+02  0.45594000000E+02  0.51100000000E-03 0. -1.
         11   -1    0    0    0    0 -0.00000000000E+00 -0.00000000000E+00 -0.45593999997E+02  0.45594000000E+02  0.51100000000E-03 0.  1.
    9900012    2    1    2    0    0  0.13169945188E+02  0.20268113854E+01  0.13157630225E+02  0.72461584065E+02  0.70000017939E+02 0.  0.
        -12    1    1    2    0    0 -0.13169945188E+02 -0.20268113854E+01 -0.13157630225E+02  0.18726415935E+02  0.00000000000E+00 0.  1.
         11    1    3    3    0    0 -0.13561763188E+02 -0.16990837511E+02  0.17187875799E+02  0.27713409296E+02  0.51100000000E-03 0. -1.
        -11    1    3    3    0    0  0.38012219327E+01  0.18883117850E+02 -0.90379128059E+01  0.21276872328E+02  0.51100000000E-03 0.  1.
         12    1    3    3    0    0  0.22930486444E+02  0.13453104605E+00  0.50076672317E+01  0.23471302440E+02  0.00000000000E+00 0. -1.
</event>
<event>
 7    1  0.1920603E-013  0.7246158E+02  0.7816164E-02  0.1226708E+00
        -11   -1    0    0    0    0  0.00000000000E+00  0.00000000000E+00  0.45593999997E+02  0.45594000000E+02  0.51100000000E-03 0.  1.
         11   -1    0    0    0    0 -0.00000000000E+00 -0.00000000000E+00 -0.45593999997E+02  0.45594000000E+02  0.51100000000E-03 0. -1.
    9900012    2    1    2    0    0 -0.16287663321E+01  0.18572517214E+02  0.17571889309E+01  0.72461575131E+02  0.70000006301E+02 0.  0.
        -12    1    1    2    0    0  0.16287663321E+01 -0.18572517214E+02 -0.17571889309E+01  0.18726424869E+02  0.00000000000E+00 0.  1.
         11    1    3    3    0    0  0.17908258958E+02  0.44710781306E+01 -0.26812274507E+02  0.32551410768E+02  0.51100000000E-03 0. -1.
        -11    1    3    3    0    0 -0.18633673969E+02  0.80683557871E+01  0.15696818456E+02  0.25665195901E+02  0.51100000000E-03 0.  1.
         12    1    3    3    0    0 -0.90335132031E+00  0.60330832965E+01  0.12872644981E+02  0.14244968462E+02  0.00000000000E+00 0. -1.
</event>
<event>
 7    1  0.1920603E-013  0.7246156E+02  0.7816164E-02  0.1226708E+00
        -11   -1    0    0    0    0  0.00000000000E+00  0.00000000000E+00  0.45593999997E+02  0.45594000000E+02  0.51100000000E-03 0. -1.
         11   -1    0    0    0    0 -0.00000000000E+00 -0.00000000000E+00 -0.45593999997E+02  0.45594000000E+02  0.51100000000E-03 0.  1.
    9900012    2    1    2    0    0 -0.13971890683E+01 -0.18672017464E+02 -0.28855088344E+00  0.72461557863E+02  0.69999983806E+02 0.  0.
        -12    1    1    2    0    0  0.13971890683E+01  0.18672017464E+02  0.28855088344E+00  0.18726442137E+02  0.00000000000E+00 0.  1.
         11    1    3    3    0    0 -0.72347099909E+01 -0.40308015812E+01  0.22469667509E+02  0.23947324449E+02  0.51100000000E-03 0. -1.
        -11    1    3    3    0    0  0.29871554406E+01  0.13869892538E+02 -0.72315367114E+01  0.15924576607E+02  0.51100000000E-03 0.  1.
         12    1    3    3    0    0  0.28503654820E+01 -0.28511108422E+02 -0.15526681681E+02  0.32589656807E+02  0.00000000000E+00 0. -1.
</event>
<event>
 7    1  0.1920603E-013  0.7246154E+02  0.7816164E-02  0.1226708E+00
        -11   -1    0    0    0    0  0.00000000000E+00  0.00000000000E+00  0.45593999997E+02  0.45594000000E+02  0.51100000000E-03 0.  1.
         11   -1    0    0    0    0 -0.00000000000E+00 -0.00000000000E+00 -0.45593999997E+02  0.45594000000E+02  0.51100000000E-03 0. -1.
    9900012    2    1    2    0    0  0.17071729539E+02  0.70524701973E+01  0.30820377529E+01  0.72461541658E+02  0.69999962696E+02 0.  0.
        -12    1    1    2    0    0 -0.17071729539E+02 -0.70524701973E+01 -0.30820377529E+01  0.18726458342E+02  0.00000000000E+00 0.  1.
         11    1    3    3    0    0  0.51953482749E+01 -0.67602349097E+01 -0.14944895623E+00  0.85272947048E+01  0.51100000000E-03 0. -1.
        -11    1    3    3    0    0  0.35185338848E+02  0.17831809721E+02 -0.27342608447E+01  0.39540582828E+02  0.51100000000E-03 0.  1.
        -12    1    3    3    0    0 -0.23308957584E+02 -0.40191046142E+01  0.59657475539E+01  0.24393664125E+02  0.00000000000E+00 0.  1.
</event>
<event>
 7    1  0.1920603E-013  0.7246156E+02  0.7816164E-02  0.1226708E+00
        -11   -1    0    0    0    0  0.00000000000E+00  0.00000000000E+00  0.45593999997E+02  0.45594000000E+02  0.51100000000E-03 0.  1.
         11   -1    0    0    0    0 -0.00000000000E+00 -0.00000000000E+00 -0.45593999997E+02  0.45594000000E+02  0.51100000000E-03 0. -1.
    9900012    2    1    2    0    0 -0.61018158690E+01  0.15560652598E+02 -0.84447315280E+01  0.72461559955E+02  0.69999986532E+02 0.  0.
        -12    1    1    2    0    0  0.61018158690E+01 -0.15560652598E+02  0.84447315280E+01  0.18726440045E+02  0.00000000000E+00 0.  1.
         11    1    3    3    0    0 -0.68072569844E+01  0.13571511661E+02 -0.34770293832E+02  0.37940717045E+02  0.51100000000E-03 0. -1.
        -11    1    3    3    0    0 -0.68235572955E+00  0.10051762016E+02  0.41713391121E+01  0.10904292697E+02  0.51100000000E-03 0.  1.
         12    1    3    3    0    0  0.13877968450E+01 -0.80626210800E+01  0.22154223192E+02  0.23616550214E+02  0.00000000000E+00 0. -1.
</event>
<event>
 7    1  0.1920603E-013  0.7246161E+02  0.7816164E-02  0.1226708E+00
        -11   -1    0    0    0    0  0.00000000000E+00  0.00000000000E+00  0.45593999997E+02  0.45594000000E+02  0.51100000000E-03 0. -1.
         11   -1    0    0    0    0 -0.00000000000E+00 -0.00000000000E+00 -0.45593999997E+02  0.45594000000E+02  0.51100000000E-03 0.  1.
    9900012    2    1    2    0    0  0.12718037887E+02  0.13743456318E+02 -0.21561804100E+00  0.72461612992E+02  0.70000055621E+02 0.  0.
        -12    1    1    2    0    0 -0.12718037887E+02 -0.13743456318E+02  0.21561804100E+00  0.18726387008E+02  0.00000000000E+00 0.  1.
         11    1    3    3    0    0  0.25809639108E+02  0.79009085800E+01  0.46923870398E+01  0.27396721039E+02  0.51100000000E-03 0. -1.
        -11    1    3    3    0    0 -0.18236575413E+02 -0.61042561956E+01 -0.18192431533E+02  0.26472612108E+02  0.51100000000E-03 0.  1.
         12    1    3    3    0    0  0.51449741911E+01  0.11946803934E+02  0.13284426452E+02  0.18592279845E+02  0.00000000000E+00 0. -1.
</event>
<event>
 7    1  0.1920603E-013  0.7246158E+02  0.7816164E-02  0.1226708E+00
        -11   -1    0    0    0    0  0.00000000000E+00  0.00000000000E+00  0.45593999997E+02  0.45594000000E+02  0.51100000000E-03 0. -1.
         11   -1    0    0    0    0 -0.00000000000E+00 -0.00000000000E+00 -0.45593999997E+02  0.45594000000E+02  0.51100000000E-03 0.  1.
    9900012    2    1    2    0    0 -0.38362614674E+01 -0.87906162693E+01  0.16083750921E+02  0.72461578021E+02  0.70000010065E+02 0.  0.
        -12    1    1    2    0    0  0.38362614674E+01  0.87906162693E+01 -0.16083750921E+02  0.18726421979E+02  0.00000000000E+00 0.  1.
         11    1    3    3    0    0  0.81328371967E+01 -0.32661695535E+02  0.13829562989E+02  0.36389369448E+02  0.51100000000E-03 0. -1.
        -11    1    3    3    0    0 -0.14387624570E+02  0.52587966865E+01 -0.47515403828E+01  0.16038572867E+02  0.51100000000E-03 0.  1.
         12    1    3    3    0    0  0.24185259058E+01  0.18612282579E+02  0.70057283146E+01  0.20033635706E+02  0.00000000000E+00 0. -1.
</event>
<event>
 7    1  0.1920603E-013  0.7246148E+02  0.7816164E-02  0.1226708E+00
        -11   -1    0    0    0    0  0.00000000000E+00  0.00000000000E+00  0.45593999997E+02  0.45594000000E+02  0.51100000000E-03 0.  1.
         11   -1    0    0    0    0 -0.00000000000E+00 -0.00000000000E+00 -0.45593999997E+02  0.45594000000E+02  0.51100000000E-03 0. -1.
    9900012    2    1    2    0    0  0.18411632836E+02  0.34124940150E+01 -0.22224048848E+00  0.72461475231E+02  0.69999876163E+02 0.  0.
        -12    1    1    2    0    0 -0.18411632836E+02 -0.34124940150E+01  0.22224048848E+00  0.18726524769E+02  0.00000000000E+00 0.  1.
         11    1    3    3    0    0  0.71081825873E+01 -0.10056172041E+02 -0.18989594389E+02  0.22633107412E+02  0.51100000000E-03 0. -1.
        -11    1    3    3    0    0  0.23612360440E+02  0.15173596738E+02  0.23424388708E+02  0.36557948385E+02  0.51100000000E-03 0.  1.
         12    1    3    3    0    0 -0.12308910192E+02 -0.17049306820E+01 -0.46570348079E+01  0.13270419434E+02  0.00000000000E+00 0. -1.
</event>
<event>
 7    1  0.1920603E-013  0.7246158E+02  0.7816164E-02  0.1226708E+00
        -11   -1    0    0    0    0  0.00000000000E+00  0.00000000000E+00  0.45593999997E+02  0.45594000000E+02  0.51100000000E-03 0.  1.
         11   -1    0    0    0    0 -0.00000000000E+00 -0.00000000000E+00 -0.45593999997E+02  0.45594000000E+02  0.51100000000E-03 0. -1.
    9900012    2    1    2    0    0  0.14877463391E+01  0.95382269759E+01 -0.16046417946E+02  0.72461583046E+02  0.70000016612E+02 0.  0.
        -12    1    1    2    0    0 -0.14877463391E+01 -0.95382269759E+01  0.16046417946E+02  0.18726416954E+02  0.00000000000E+00 0.  1.
         11    1    3    3    0    0  0.36082180590E+01  0.66586827973E+00 -0.37571751239E+02  0.37750484892E+02  0.51100000000E-03 0. -1.
        -11    1    3    3    0    0  0.99599760390E+01  0.54197125459E+01  0.20322260431E+01  0.11519737398E+02  0.51100000000E-03 0.  1.
         12    1    3    3    0    0 -0.12080447759E+02  0.34526461503E+01  0.19493107249E+02  0.23191360756E+02  0.00000000000E+00 0. -1.
</event>
<event>
 7    1  0.1920603E-013  0.7246159E+02  0.7816164E-02  0.1226708E+00
        -11   -1    0    0    0    0  0.00000000000E+00  0.00000000000E+00  0.45593999997E+02  0.45594000000E+02  0.51100000000E-03 0.  1.
         11   -1    0    0    0    0 -0.00000000000E+00 -0.00000000000E+00 -0.45593999997E+02  0.45594000000E+02  0.51100000000E-03 0. -1.
    9900012    2    1    2    0    0  0.16643230297E+02 -0.33301946689E+01 -0.79114459738E+01  0.72461593814E+02  0.70000030638E+02 0.  0.
        -12    1    1    2    0    0 -0.16643230297E+02  0.33301946689E+01  0.79114459738E+01  0.18726406186E+02  0.00000000000E+00 0.  1.
         11    1    3    3    0    0  0.18627397997E+02  0.13833402950E+02  0.64927251838E+01  0.24093535936E+02  0.51100000000E-03 0.  1.
        -11    1    3    3    0    0 -0.97499721823E+01 -0.29779262698E+02 -0.10512279071E+02  0.33051088574E+02  0.51100000000E-03 0. -1.
         12    1    3    3    0    0  0.77658044824E+01  0.12615665079E+02 -0.38918920867E+01  0.15316969304E+02  0.00000000000E+00 0. -1.
</event>
<event>
 7    1  0.1920603E-013  0.7246159E+02  0.7816164E-02  0.1226708E+00
        -11   -1    0    0    0    0  0.00000000000E+00  0.00000000000E+00  0.45593999997E+02  0.45594000000E+02  0.51100000000E-03 0.  1.
         11   -1    0    0    0    0 -0.00000000000E+00 -0.00000000000E+00 -0.45593999997E+02  0.45594000000E+02  0.51100000000E-03 0. -1.
    9900012    2    1    2    0    0  0.10464460922E+02  0.71859386457E+01  0.13767198835E+02  0.72461590296E+02  0.70000026056E+02 0.  0.
        -12    1    1    2    0    0 -0.10464460922E+02 -0.71859386457E+01 -0.13767198835E+02  0.18726409704E+02  0.00000000000E+00 0.  1.
         11    1    3    3    0    0  0.13943180236E+02  0.44430768731E+01  0.90632575774E+01  0.17213246218E+02  0.51100000000E-03 0. -1.
        -11    1    3    3    0    0 -0.19600051320E+02 -0.10495585559E+02  0.19580898226E+02  0.29626523650E+02  0.51100000000E-03 0.  1.
        -12    1    3    3    0    0  0.16121332007E+02  0.13238447331E+02 -0.14876956968E+02  0.25621820428E+02  0.00000000000E+00 0.  1.
</event>
<event>
 7    1  0.1920603E-013  0.7246159E+02  0.7816164E-02  0.1226708E+00
        -11   -1    0    0    0    0  0.00000000000E+00  0.00000000000E+00  0.45593999997E+02  0.45594000000E+02  0.51100000000E-03 0. -1.
         11   -1    0    0    0    0 -0.00000000000E+00 -0.00000000000E+00 -0.45593999997E+02  0.45594000000E+02  0.51100000000E-03 0.  1.
    9900012    2    1    2    0    0 -0.12871644290E+02 -0.11139434848E+02  0.78046271068E+01  0.72461589780E+02  0.70000025384E+02 0.  0.
        -12    1    1    2    0    0  0.12871644290E+02  0.11139434848E+02 -0.78046271068E+01  0.18726410220E+02  0.00000000000E+00 0.  1.
         11    1    3    3    0    0  0.20596837022E+02 -0.57454540031E+01  0.90200462684E+01  0.23207782573E+02  0.51100000000E-03 0. -1.
        -11    1    3    3    0    0 -0.41635013027E+01  0.50465116231E+01 -0.14129461046E+02  0.15570603468E+02  0.51100000000E-03 0.  1.
         12    1    3    3    0    0 -0.29304980009E+02 -0.10440492468E+02  0.12914041884E+02  0.33683203739E+02  0.00000000000E+00 0. -1.
</event>
<event>
 7    1  0.1920603E-013  0.7246156E+02  0.7816164E-02  0.1226708E+00
        -11   -1    0    0    0    0  0.00000000000E+00  0.00000000000E+00  0.45593999997E+02  0.45594000000E+02  0.51100000000E-03 0. -1.
         11   -1    0    0    0    0 -0.00000000000E+00 -0.00000000000E+00 -0.45593999997E+02  0.45594000000E+02  0.51100000000E-03 0.  1.
    9900012    2    1    2    0    0  0.72504617068E+01 -0.16206576419E+02 -0.59545886005E+01  0.72461563083E+02  0.69999990606E+02 0.  0.
        -12    1    1    2    0    0 -0.72504617068E+01  0.16206576419E+02  0.59545886005E+01  0.18726436917E+02  0.00000000000E+00 0.  1.
         11    1    3    3    0    0 -0.17067039229E+02  0.32138973795E+01  0.98122493029E-01  0.17367285128E+02  0.51100000000E-03 0.  1.
        -11    1    3    3    0    0  0.29560657864E+02  0.28465810876E+01  0.42595973383E+01  0.30001328087E+02  0.51100000000E-03 0. -1.
         12    1    3    3    0    0 -0.52431569280E+01 -0.22267054887E+02 -0.10312308432E+02  0.25092949868E+02  0.00000000000E+00 0. -1.
</event>
<event>
 7    1  0.1920603E-013  0.7246157E+02  0.7816164E-02  0.1226708E+00
        -11   -1    0    0    0    0  0.00000000000E+00  0.00000000000E+00  0.45593999997E+02  0.45594000000E+02  0.51100000000E-03 0. -1.
         11   -1    0    0    0    0 -0.00000000000E+00 -0.00000000000E+00 -0.45593999997E+02  0.45594000000E+02  0.51100000000E-03 0.  1.
    9900012    2    1    2    0    0  0.10224887163E+02  0.23594069836E+01  0.15510124200E+02  0.72461572911E+02  0.70000003409E+02 0.  0.
        -12    1    1    2    0    0 -0.10224887163E+02 -0.23594069836E+01 -0.15510124200E+02  0.18726427089E+02  0.00000000000E+00 0.  1.
         11    1    3    3    0    0  0.94533514162E+01 -0.65290487945E+01  0.30332963626E+02  0.32435829167E+02  0.51100000000E-03 0. -1.
        -11    1    3    3    0    0  0.53016410444E+00  0.20761096956E+02  0.33447870936E+00  0.20770558420E+02  0.51100000000E-03 0.  1.
         12    1    3    3    0    0  0.24137164222E+00 -0.11872641178E+02 -0.15157318136E+02  0.19255185324E+02  0.00000000000E+00 0. -1.
</event>
<event>
 7    1  0.1920603E-013  0.7246180E+02  0.7816164E-02  0.1226707E+00
        -11   -1    0    0    0    0  0.00000000000E+00  0.00000000000E+00  0.45593999997E+02  0.45594000000E+02  0.51100000000E-03 0. -1.
         11   -1    0    0    0    0 -0.00000000000E+00 -0.00000000000E+00 -0.45593999997E+02  0.45594000000E+02  0.51100000000E-03 0.  1.
    9900012    2    1    2    0    0  0.75873921200E+01 -0.82087316746E+01  0.15023938528E+02  0.72461801139E+02  0.70000300718E+02 0.  0.
        -12    1    1    2    0    0 -0.75873921200E+01  0.82087316746E+01 -0.15023938528E+02  0.18726198861E+02  0.00000000000E+00 0.  1.
         11    1    3    3    0    0  0.13791821515E+01  0.13711166753E+02  0.24976448882E+02  0.28525799483E+02  0.51100000000E-03 0. -1.
        -11    1    3    3    0    0  0.15023216953E+02 -0.26057555079E+02 -0.14260955722E+02  0.33287656612E+02  0.51100000000E-03 0.  1.
        -12    1    3    3    0    0 -0.88150069848E+01  0.41376566519E+01  0.43084453676E+01  0.10648345045E+02  0.00000000000E+00 0.  1.
</event>
<event>
 7    1  0.1920603E-013  0.7246158E+02  0.7816164E-02  0.1226708E+00
        -11   -1    0    0    0    0  0.00000000000E+00  0.00000000000E+00  0.45593999997E+02  0.45594000000E+02  0.51100000000E-03 0.  1.
         11   -1    0    0    0    0 -0.00000000000E+00 -0.00000000000E+00 -0.45593999997E+02  0.45594000000E+02  0.51100000000E-03 0. -1.
    9900012    2    1    2    0    0 -0.80956227865E+01  0.76943270003E+01 -0.15031201416E+02  0.72461580367E+02  0.70000013121E+02 0.  0.
        -12    1    1    2    0    0  0.80956227865E+01 -0.76943270003E+01  0.15031201416E+02  0.18726419633E+02  0.00000000000E+00 0.  1.
         11    1    3    3    0    0 -0.23864538345E+02  0.39663607063E+01 -0.35308978661E+02  0.42801544155E+02  0.51100000000E-03 0. -1.
        -11    1    3    3    0    0  0.96141263840E+01  0.12467239168E+01  0.15838164238E+01  0.98231472236E+01  0.51100000000E-03 0.  1.
         12    1    3    3    0    0  0.61547891747E+01  0.24812423772E+01  0.18693960822E+02  0.19836888988E+02  0.00000000000E+00 0. -1.
</event>
<event>
 7    1  0.2094206E-013  0.7246161E+02  0.7816164E-02  0.1226708E+00
        -11   -1    0    0    0    0  0.00000000000E+00  0.00000000000E+00  0.45593999997E+02  0.45594000000E+02  0.51100000000E-03 0.  1.
         11   -1    0    0    0    0 -0.00000000000E+00 -0.00000000000E+00 -0.45593999997E+02  0.45594000000E+02  0.51100000000E-03 0. -1.
    9900012    2    1    2    0    0  0.10913836136E+02 -0.14814350234E+02 -0.34786547212E+01  0.72461606040E+02  0.70000046566E+02 0.  0.
        -12    1    1    2    0    0 -0.10913836136E+02  0.14814350234E+02  0.34786547212E+01  0.18726393960E+02  0.00000000000E+00 0.  1.
         11    1    3    3    0    0  0.93912769987E+01 -0.31567652898E+02  0.15301745279E+01  0.32970505417E+02  0.51100000000E-03 0. -1.
        -11    1    3    3    0    0 -0.12248643273E+02  0.77124728696E+01 -0.14492365416E+02  0.20482679400E+02  0.51100000000E-03 0.  1.
         12    1    3    3    0    0  0.13771202410E+02  0.90408297938E+01  0.94835361668E+01  0.19008421223E+02  0.00000000000E+00 0. -1.
</event>
<event>
 7    1  0.1920603E-013  0.7246163E+02  0.7816164E-02  0.1226708E+00
        -11   -1    0    0    0    0  0.00000000000E+00  0.00000000000E+00  0.45593999997E+02  0.45594000000E+02  0.51100000000E-03 0.  1.
         11   -1    0    0    0    0 -0.00000000000E+00 -0.00000000000E+00 -0.45593999997E+02  0.45594000000E+02  0.51100000000E-03 0. -1.
    9900012    2    1    2    0    0 -0.99143574551E+01  0.44504737473E+00 -0.15880319298E+02  0.72461625767E+02  0.70000072263E+02 0.  0.
        -12    1    1    2    0    0  0.99143574551E+01 -0.44504737473E+00  0.15880319298E+02  0.18726374233E+02  0.00000000000E+00 0.  1.
         11    1    3    3    0    0  0.18120030353E+02 -0.65285983188E+01 -0.13988245603E+02  0.23803972595E+02  0.51100000000E-03 0. -1.
        -11    1    3    3    0    0 -0.35672069532E+02 -0.32727002054E+01 -0.79172023946E+00  0.35830628414E+02  0.51100000000E-03 0.  1.
        -12    1    3    3    0    0  0.76376817240E+01  0.10246345899E+02 -0.11003534558E+01  0.12827024757E+02  0.00000000000E+00 0.  1.
</event>
<event>
 7    1  0.1920603E-013  0.7246159E+02  0.7816164E-02  0.1226708E+00
        -11   -1    0    0    0    0  0.00000000000E+00  0.00000000000E+00  0.45593999997E+02  0.45594000000E+02  0.51100000000E-03 0. -1.
         11   -1    0    0    0    0 -0.00000000000E+00 -0.00000000000E+00 -0.45593999997E+02  0.45594000000E+02  0.51100000000E-03 0.  1.
    9900012    2    1    2    0    0 -0.10131160820E+02 -0.79127714534E+01  0.13617127922E+02  0.72461586984E+02  0.70000021741E+02 0.  0.
        -12    1    1    2    0    0  0.10131160820E+02  0.79127714534E+01 -0.13617127922E+02  0.18726413016E+02  0.00000000000E+00 0.  1.
         11    1    3    3    0    0 -0.12813436689E+02  0.19318977205E+02  0.73196921651E+01  0.24310181688E+02  0.51100000000E-03 0. -1.
        -11    1    3    3    0    0  0.88984727561E+01 -0.15793144901E+02 -0.14772181263E+02  0.23384259295E+02  0.51100000000E-03 0.  1.
        -12    1    3    3    0    0 -0.62161968870E+01 -0.11438603758E+02  0.21069617019E+02  0.24767146001E+02  0.00000000000E+00 0.  1.
</event>
<event>
 7    1  0.1920603E-013  0.7246173E+02  0.7816164E-02  0.1226708E+00
        -11   -1    0    0    0    0  0.00000000000E+00  0.00000000000E+00  0.45593999997E+02  0.45594000000E+02  0.51100000000E-03 0. -1.
         11   -1    0    0    0    0 -0.00000000000E+00 -0.00000000000E+00 -0.45593999997E+02  0.45594000000E+02  0.51100000000E-03 0.  1.
    9900012    2    1    2    0    0 -0.12727986266E+02 -0.98709276759E+01  0.95517748824E+01  0.72461728322E+02  0.70000205860E+02 0.  0.
        -12    1    1    2    0    0  0.12727986266E+02  0.98709276759E+01 -0.95517748824E+01  0.18726271678E+02  0.00000000000E+00 0.  1.
         11    1    3    3    0    0 -0.13835356549E+02 -0.18013707689E+01  0.20544558782E+02  0.24834269131E+02  0.51100000000E-03 0. -1.
        -11    1    3    3    0    0 -0.18441229847E+02 -0.99215394071E+01 -0.17129958946E+02  0.27054600279E+02  0.51100000000E-03 0.  1.
        -12    1    3    3    0    0  0.19548600131E+02  0.18519825001E+01  0.61371750473E+01  0.20572858912E+02  0.00000000000E+00 0.  1.
</event>
<event>
 7    1  0.1920603E-013  0.7246157E+02  0.7816164E-02  0.1226708E+00
        -11   -1    0    0    0    0  0.00000000000E+00  0.00000000000E+00  0.45593999997E+02  0.45594000000E+02  0.51100000000E-03 0.  1.
         11   -1    0    0    0    0 -0.00000000000E+00 -0.00000000000E+00 -0.45593999997E+02  0.45594000000E+02  0.51100000000E-03 0. -1.
    9900012    2    1    2    0    0 -0.66010684797E+01  0.10150561825E+02  0.14285349883E+02  0.72461568634E+02  0.69999997837E+02 0.  0.
        -12    1    1    2    0    0  0.66010684797E+01 -0.10150561825E+02 -0.14285349883E+02  0.18726431366E+02  0.00000000000E+00 0.  1.
         11    1    3    3    0    0 -0.43771540403E+01 -0.20585841087E+02 -0.11490262505E+01  0.21077395293E+02  0.51100000000E-03 0. -1.
        -11    1    3    3    0    0 -0.10442407573E+02  0.37143475116E+02  0.12508026336E+02  0.40560231048E+02  0.51100000000E-03 0.  1.
        -12    1    3    3    0    0  0.82184931338E+01 -0.64070722039E+01  0.29263497972E+01  0.10823942292E+02  0.00000000000E+00 0.  1.
</event>
<event>
 7    1  0.1920603E-013  0.7246156E+02  0.7816164E-02  0.1226708E+00
        -11   -1    0    0    0    0  0.00000000000E+00  0.00000000000E+00  0.45593999997E+02  0.45594000000E+02  0.51100000000E-03 0. -1.
         11   -1    0    0    0    0 -0.00000000000E+00 -0.00000000000E+00 -0.45593999997E+02  0.45594000000E+02  0.51100000000E-03 0.  1.
    9900012    2    1    2    0    0  0.50775539199E+01  0.18020369558E+02 -0.40516919532E+00  0.72461563209E+02  0.69999990770E+02 0.  0.
        -12    1    1    2    0    0 -0.50775539199E+01 -0.18020369558E+02  0.40516919532E+00  0.18726436791E+02  0.00000000000E+00 0.  1.
         11    1    3    3    0    0 -0.96893551076E+01  0.33032690162E+02 -0.12182049136E+02  0.36516359939E+02  0.51100000000E-03 0. -1.
        -11    1    3    3    0    0  0.18724523433E+02 -0.26118144649E+01  0.12888555806E+02  0.22881088776E+02  0.51100000000E-03 0.  1.
         12    1    3    3    0    0 -0.39576144049E+01 -0.12400506139E+02 -0.11116758646E+01  0.13064114494E+02  0.00000000000E+00 0. -1.
</event>
<event>
 7    1  0.1920603E-013  0.7246113E+02  0.7816164E-02  0.1226709E+00
        -11   -1    0    0    0    0  0.00000000000E+00  0.00000000000E+00  0.45593999997E+02  0.45594000000E+02  0.51100000000E-03 0.  1.
         11   -1    0    0    0    0 -0.00000000000E+00 -0.00000000000E+00 -0.45593999997E+02  0.45594000000E+02  0.51100000000E-03 0. -1.
    9900012    2    1    2    0    0  0.15068205343E+02  0.93619894707E+01 -0.59998455365E+01  0.72461126113E+02  0.69999421369E+02 0.  0.
        -12    1    1    2    0    0 -0.15068205343E+02 -0.93619894707E+01  0.59998455365E+01  0.18726873887E+02  0.00000000000E+00 0.  1.
         11    1    3    3    0    0  0.71321250653E+01  0.82720708701E+01 -0.15683967774E+02  0.19112331355E+02  0.51100000000E-03 0. -1.
        -11    1    3    3    0    0 -0.83262940214E+01 -0.20888248633E+02  0.12728758451E+02  0.25839260730E+02  0.51100000000E-03 0.  1.
        -12    1    3    3    0    0  0.16262374299E+02  0.21978167234E+02 -0.30446362132E+01  0.27509534029E+02  0.00000000000E+00 0.  1.
</event>
<event>
 7    1  0.1920603E-013  0.7246157E+02  0.7816164E-02  0.1226708E+00
        -11   -1    0    0    0    0  0.00000000000E+00  0.00000000000E+00  0.45593999997E+02  0.45594000000E+02  0.51100000000E-03 0.  1.
         11   -1    0    0    0    0 -0.00000000000E+00 -0.00000000000E+00 -0.45593999997E+02  0.45594000000E+02  0.51100000000E-03 0. -1.
    9900012    2    1    2    0    0  0.12440809119E+02 -0.70305684120E+00  0.13978956656E+02  0.72461568155E+02  0.69999997213E+02 0.  0.
        -12    1    1    2    0    0 -0.12440809119E+02  0.70305684120E+00 -0.13978956656E+02  0.18726431845E+02  0.00000000000E+00 0.  1.
         11    1    3    3    0    0  0.20625383261E+02  0.83493910755E+01  0.85430126917E+01  0.23834886870E+02  0.51100000000E-03 0. -1.
        -11    1    3    3    0    0 -0.22981082620E+02 -0.34593000492E+01  0.17200703612E+02  0.28912992240E+02  0.51100000000E-03 0.  1.
        -12    1    3    3    0    0  0.14796508477E+02 -0.55931478676E+01 -0.11764759648E+02  0.19713689045E+02  0.00000000000E+00 0.  1.
</event>
<event>
 7    1  0.1920603E-013  0.7246157E+02  0.7816164E-02  0.1226708E+00
        -11   -1    0    0    0    0  0.00000000000E+00  0.00000000000E+00  0.45593999997E+02  0.45594000000E+02  0.51100000000E-03 0. -1.
         11   -1    0    0    0    0 -0.00000000000E+00 -0.00000000000E+00 -0.45593999997E+02  0.45594000000E+02  0.51100000000E-03 0.  1.
    9900012    2    1    2    0    0 -0.14996507511E+02 -0.12438854071E+01  0.11146154293E+02  0.72461568307E+02  0.69999997411E+02 0.  0.
        -12    1    1    2    0    0  0.14996507511E+02  0.12438854071E+01 -0.11146154293E+02  0.18726431693E+02  0.00000000000E+00 0.  1.
         11    1    3    3    0    0  0.56634429963E+01 -0.10845400441E+02  0.33358526855E+02  0.35531515750E+02  0.51100000000E-03 0. -1.
        -11    1    3    3    0    0 -0.12344652345E+02  0.46658236975E+00 -0.10138434441E+01  0.12394999775E+02  0.51100000000E-03 0.  1.
         12    1    3    3    0    0 -0.83152981617E+01  0.91349326638E+01 -0.21198529117E+02  0.24535052782E+02  0.00000000000E+00 0. -1.
</event>
<event>
 7    1  0.1920603E-013  0.7246158E+02  0.7816164E-02  0.1226708E+00
        -11   -1    0    0    0    0  0.00000000000E+00  0.00000000000E+00  0.45593999997E+02  0.45594000000E+02  0.51100000000E-03 0.  1.
         11   -1    0    0    0    0 -0.00000000000E+00 -0.00000000000E+00 -0.45593999997E+02  0.45594000000E+02  0.51100000000E-03 0. -1.
    9900012    2    1    2    0    0 -0.15331214936E+02 -0.87931329990E+00 -0.10717257635E+02  0.72461576035E+02  0.70000007478E+02 0.  0.
        -12    1    1    2    0    0  0.15331214936E+02  0.87931329990E+00  0.10717257635E+02  0.18726423965E+02  0.00000000000E+00 0.  1.
         11    1    3    3    0    0 -0.95733696390E+01  0.54080419280E+00 -0.30109756375E+02  0.31599672540E+02  0.51100000000E-03 0. -1.
        -11    1    3    3    0    0 -0.79252033585E+01 -0.76837242574E+01  0.27942445279E+02  0.30043779975E+02  0.51100000000E-03 0.  1.
        -12    1    3    3    0    0  0.21673580611E+01  0.62636067647E+01 -0.85499465395E+01  0.10818123520E+02  0.00000000000E+00 0.  1.
</event>
<event>
 7    1  0.1920603E-013  0.7246157E+02  0.7816164E-02  0.1226708E+00
        -11   -1    0    0    0    0  0.00000000000E+00  0.00000000000E+00  0.45593999997E+02  0.45594000000E+02  0.51100000000E-03 0.  1.
         11   -1    0    0    0    0 -0.00000000000E+00 -0.00000000000E+00 -0.45593999997E+02  0.45594000000E+02  0.51100000000E-03 0. -1.
    9900012    2    1    2    0    0 -0.12101238718E+02 -0.12883645063E+02 -0.61847162973E+01  0.72461574706E+02  0.70000005747E+02 0.  0.
        -12    1    1    2    0    0  0.12101238718E+02  0.12883645063E+02  0.61847162973E+01  0.18726425294E+02  0.00000000000E+00 0.  1.
         11    1    3    3    0    0  0.59687421611E+01 -0.15311484679E+02  0.46857479319E+01  0.17088700360E+02  0.51100000000E-03 0.  1.
        -11    1    3    3    0    0 -0.16043011692E+02  0.20941424269E+02  0.92507436570E+01  0.27955280950E+02  0.51100000000E-03 0. -1.
        -12    1    3    3    0    0 -0.20269691878E+01 -0.18513584653E+02 -0.20121207886E+02  0.27417593395E+02  0.00000000000E+00 0.  1.
</event>
<event>
 7    1  0.1920603E-013  0.7246158E+02  0.7816164E-02  0.1226708E+00
        -11   -1    0    0    0    0  0.00000000000E+00  0.00000000000E+00  0.45593999997E+02  0.45594000000E+02  0.51100000000E-03 0.  1.
         11   -1    0    0    0    0 -0.00000000000E+00 -0.00000000000E+00 -0.45593999997E+02  0.45594000000E+02  0.51100000000E-03 0. -1.
    9900012    2    1    2    0    0 -0.11288855906E+02 -0.71379583214E+01 -0.13125935930E+02  0.72461577205E+02  0.70000009002E+02 0.  0.
        -12    1    1    2    0    0  0.11288855906E+02  0.71379583214E+01  0.13125935930E+02  0.18726422795E+02  0.00000000000E+00 0.  1.
         11    1    3    3    0    0 -0.48050652424E+01  0.19218549990E+02 -0.60051955130E+01  0.20700330652E+02  0.51100000000E-03 0. -1.
        -11    1    3    3    0    0  0.70837659631E+01 -0.28523870651E+02  0.88498617094E+01  0.30693826573E+02  0.51100000000E-03 0.  1.
        -12    1    3    3    0    0 -0.13567556627E+02  0.21673623403E+01 -0.15970602126E+02  0.21067419980E+02  0.00000000000E+00 0.  1.
</event>
<event>
 7    1  0.1920603E-013  0.7246141E+02  0.7816164E-02  0.1226708E+00
        -11   -1    0    0    0    0  0.00000000000E+00  0.00000000000E+00  0.45593999997E+02  0.45594000000E+02  0.51100000000E-03 0.  1.
         11   -1    0    0    0    0 -0.00000000000E+00 -0.00000000000E+00 -0.45593999997E+02  0.45594000000E+02  0.51100000000E-03 0. -1.
    9900012    2    1    2    0    0  0.66264570107E+01 -0.15719144288E+02 -0.77255370213E+01  0.72461405224E+02  0.69999784964E+02 0.  0.
        -12    1    1    2    0    0 -0.66264570107E+01  0.15719144288E+02  0.77255370213E+01  0.18726594776E+02  0.00000000000E+00 0.  1.
         11    1    3    3    0    0 -0.72337147286E+01 -0.32830900914E+02  0.54604502301E+00  0.33622802516E+02  0.51100000000E-03 0. -1.
        -11    1    3    3    0    0 -0.81360910188E+01  0.13303350993E+02 -0.41624326137E+01  0.16140042449E+02  0.51100000000E-03 0.  1.
         12    1    3    3    0    0  0.21996262758E+02  0.38084056332E+01 -0.41091494305E+01  0.22698560259E+02  0.00000000000E+00 0. -1.
</event>
<event>
 7    1  0.1920603E-013  0.7246152E+02  0.7816164E-02  0.1226708E+00
        -11   -1    0    0    0    0  0.00000000000E+00  0.00000000000E+00  0.45593999997E+02  0.45594000000E+02  0.51100000000E-03 0. -1.
         11   -1    0    0    0    0 -0.00000000000E+00 -0.00000000000E+00 -0.45593999997E+02  0.45594000000E+02  0.51100000000E-03 0.  1.
    9900012    2    1    2    0    0  0.15654024947E+02  0.99543886722E+01  0.25578493414E+01  0.72461522912E+02  0.69999938276E+02 0.  0.
        -12    1    1    2    0    0 -0.15654024947E+02 -0.99543886722E+01 -0.25578493414E+01  0.18726477088E+02  0.00000000000E+00 0.  1.
         11    1    3    3    0    0  0.33369003600E+02  0.16346042036E+02  0.38544763229E+01  0.37356933486E+02  0.51100000000E-03 0. -1.
        -11    1    3    3    0    0  0.11339547625E+01 -0.93983522485E+01  0.93022887130E+01  0.13272055378E+02  0.51100000000E-03 0.  1.
         12    1    3    3    0    0 -0.18848933415E+02  0.30066988844E+01 -0.10598915694E+02  0.21832534049E+02  0.00000000000E+00 0. -1.
</event>
<event>
 7    1  0.1920603E-013  0.7246117E+02  0.7816164E-02  0.1226709E+00
        -11   -1    0    0    0    0  0.00000000000E+00  0.00000000000E+00  0.45593999997E+02  0.45594000000E+02  0.51100000000E-03 0. -1.
         11   -1    0    0    0    0 -0.00000000000E+00 -0.00000000000E+00 -0.45593999997E+02  0.45594000000E+02  0.51100000000E-03 0.  1.
    9900012    2    1    2    0    0 -0.14222606312E+02 -0.58430466266E+01 -0.10689728338E+02  0.72461173891E+02  0.69999483609E+02 0.  0.
        -12    1    1    2    0    0  0.14222606312E+02  0.58430466266E+01  0.10689728338E+02  0.18726826109E+02  0.00000000000E+00 0.  1.
         11    1    3    3    0    0 -0.12737755009E+02 -0.18582988013E+02  0.17405109842E+02  0.28469557338E+02  0.51100000000E-03 0. -1.
        -11    1    3    3    0    0 -0.14237617522E+02  0.12319690608E+02 -0.24178393346E+02  0.30644399724E+02  0.51100000000E-03 0.  1.
         12    1    3    3    0    0  0.12752766219E+02  0.42025077882E+00 -0.39164448339E+01  0.13347216829E+02  0.00000000000E+00 0. -1.
</event>
<event>
 7    1  0.1920603E-013  0.7246146E+02  0.7816164E-02  0.1226708E+00
        -11   -1    0    0    0    0  0.00000000000E+00  0.00000000000E+00  0.45593999997E+02  0.45594000000E+02  0.51100000000E-03 0.  1.
         11   -1    0    0    0    0 -0.00000000000E+00 -0.00000000000E+00 -0.45593999997E+02  0.45594000000E+02  0.51100000000E-03 0. -1.
    9900012    2    1    2    0    0 -0.56089805650E+01  0.14350365943E+02  0.10643765009E+02  0.72461457360E+02  0.69999852882E+02 0.  0.
        -12    1    1    2    0    0  0.56089805650E+01 -0.14350365943E+02 -0.10643765009E+02  0.18726542640E+02  0.00000000000E+00 0.  1.
         11    1    3    3    0    0  0.95983138191E+01 -0.15098814911E+02  0.13678292005E+02  0.22521045986E+02  0.51100000000E-03 0.  1.
        -11    1    3    3    0    0 -0.15355551994E+02  0.77196747526E+01 -0.16948152770E+02  0.24137651872E+02  0.51100000000E-03 0. -1.
         12    1    3    3    0    0  0.14825761014E+00  0.21729506102E+02  0.13913625774E+02  0.25802759502E+02  0.00000000000E+00 0. -1.
</event>
<event>
 7    1  0.1920603E-013  0.7246156E+02  0.7816164E-02  0.1226708E+00
        -11   -1    0    0    0    0  0.00000000000E+00  0.00000000000E+00  0.45593999997E+02  0.45594000000E+02  0.51100000000E-03 0. -1.
         11   -1    0    0    0    0 -0.00000000000E+00 -0.00000000000E+00 -0.45593999997E+02  0.45594000000E+02  0.51100000000E-03 0.  1.
    9900012    2    1    2    0    0 -0.12090053080E+02 -0.60880479122E+00  0.14287743364E+02  0.72461557808E+02  0.69999983734E+02 0.  0.
        -12    1    1    2    0    0  0.12090053080E+02  0.60880479122E+00 -0.14287743364E+02  0.18726442192E+02  0.00000000000E+00 0.  1.
         11    1    3    3    0    0 -0.26323277517E+02  0.66007874972E+01  0.29443422367E+02  0.40042483137E+02  0.51100000000E-03 0. -1.
        -11    1    3    3    0    0  0.10089326981E+02  0.77751160844E+01 -0.94409166517E+01  0.15854900080E+02  0.51100000000E-03 0.  1.
        -12    1    3    3    0    0  0.41438974560E+01 -0.14984708373E+02 -0.57147623518E+01  0.16564174591E+02  0.00000000000E+00 0.  1.
</event>
<event>
 7    1  0.1920603E-013  0.7246160E+02  0.7816164E-02  0.1226708E+00
        -11   -1    0    0    0    0  0.00000000000E+00  0.00000000000E+00  0.45593999997E+02  0.45594000000E+02  0.51100000000E-03 0.  1.
         11   -1    0    0    0    0 -0.00000000000E+00 -0.00000000000E+00 -0.45593999997E+02  0.45594000000E+02  0.51100000000E-03 0. -1.
    9900012    2    1    2    0    0 -0.42907669451E+01 -0.17613570350E+02 -0.46935744950E+01  0.72461596635E+02  0.70000034313E+02 0.  0.
        -12    1    1    2    0    0  0.42907669451E+01  0.17613570350E+02  0.46935744950E+01  0.18726403365E+02  0.00000000000E+00 0.  1.
         11    1    3    3    0    0 -0.13497365906E+02 -0.17795319113E+02 -0.30100423025E+02  0.37481832070E+02  0.51100000000E-03 0. -1.
        -11    1    3    3    0    0  0.28328320069E+01  0.62180153086E+01 -0.12219577092E+01  0.69413134537E+01  0.51100000000E-03 0.  1.
         12    1    3    3    0    0  0.63737669541E+01 -0.60362665458E+01  0.26628806239E+02  0.28038451111E+02  0.00000000000E+00 0. -1.
</event>
<event>
 7    1  0.1920603E-013  0.7246146E+02  0.7816164E-02  0.1226708E+00
        -11   -1    0    0    0    0  0.00000000000E+00  0.00000000000E+00  0.45593999997E+02  0.45594000000E+02  0.51100000000E-03 0.  1.
         11   -1    0    0    0    0 -0.00000000000E+00 -0.00000000000E+00 -0.45593999997E+02  0.45594000000E+02  0.51100000000E-03 0. -1.
    9900012    2    1    2    0    0  0.13113754291E+02  0.99648508537E+01 -0.89114892814E+01  0.72461456129E+02  0.69999851278E+02 0.  0.
        -12    1    1    2    0    0 -0.13113754291E+02 -0.99648508537E+01  0.89114892814E+01  0.18726543871E+02  0.00000000000E+00 0.  1.
         11    1    3    3    0    0 -0.22455597580E+02  0.14679382396E+02 -0.62238184631E+01  0.27540407526E+02  0.51100000000E-03 0. -1.
        -11    1    3    3    0    0  0.19027929008E+02 -0.33072298534E+01  0.12014716263E+02  0.22745400828E+02  0.51100000000E-03 0.  1.
         12    1    3    3    0    0  0.16541422862E+02 -0.14073016893E+01 -0.14702387082E+02  0.22175647775E+02  0.00000000000E+00 0. -1.
</event>
<event>
 7    1  0.1920603E-013  0.7246156E+02  0.7816164E-02  0.1226708E+00
        -11   -1    0    0    0    0  0.00000000000E+00  0.00000000000E+00  0.45593999997E+02  0.45594000000E+02  0.51100000000E-03 0.  1.
         11   -1    0    0    0    0 -0.00000000000E+00 -0.00000000000E+00 -0.45593999997E+02  0.45594000000E+02  0.51100000000E-03 0. -1.
    9900012    2    1    2    0    0  0.48384629254E+01  0.11746138485E+02 -0.13758531923E+02  0.72461556305E+02  0.69999981776E+02 0.  0.
        -12    1    1    2    0    0 -0.48384629254E+01 -0.11746138485E+02  0.13758531923E+02  0.18726443695E+02  0.00000000000E+00 0.  1.
         11    1    3    3    0    0  0.16262568865E+02 -0.15549122046E+02 -0.20957161633E+02  0.30748153870E+02  0.51100000000E-03 0. -1.
        -11    1    3    3    0    0 -0.97330880178E+01 -0.57660680947E+00  0.96053082971E+01  0.13686760958E+02  0.51100000000E-03 0.  1.
         12    1    3    3    0    0 -0.16910179217E+01  0.27871867340E+02 -0.24066785875E+01  0.28026641477E+02  0.00000000000E+00 0. -1.
</event>
<event>
 7    1  0.1920603E-013  0.7246156E+02  0.7816164E-02  0.1226708E+00
        -11   -1    0    0    0    0  0.00000000000E+00  0.00000000000E+00  0.45593999997E+02  0.45594000000E+02  0.51100000000E-03 0.  1.
         11   -1    0    0    0    0 -0.00000000000E+00 -0.00000000000E+00 -0.45593999997E+02  0.45594000000E+02  0.51100000000E-03 0. -1.
    9900012    2    1    2    0    0 -0.79596888875E+01 -0.11890324542E+02 -0.12080695352E+02  0.72461557063E+02  0.69999982763E+02 0.  0.
        -12    1    1    2    0    0  0.79596888875E+01  0.11890324542E+02  0.12080695352E+02  0.18726442937E+02  0.00000000000E+00 0.  1.
         11    1    3    3    0    0 -0.15937148293E+02 -0.31108824448E+02 -0.22589279402E+02  0.41617630861E+02  0.51100000000E-03 0. -1.
        -11    1    3    3    0    0  0.12431313808E+02  0.52987499011E+01  0.13138339086E+01  0.13577204179E+02  0.51100000000E-03 0.  1.
         12    1    3    3    0    0 -0.44538544029E+01  0.13919750005E+02  0.91947501420E+01  0.17266722023E+02  0.00000000000E+00 0. -1.
</event>
<event>
 7    1  0.1920603E-013  0.7246154E+02  0.7816164E-02  0.1226708E+00
        -11   -1    0    0    0    0  0.00000000000E+00  0.00000000000E+00  0.45593999997E+02  0.45594000000E+02  0.51100000000E-03 0. -1.
         11   -1    0    0    0    0 -0.00000000000E+00 -0.00000000000E+00 -0.45593999997E+02  0.45594000000E+02  0.51100000000E-03 0.  1.
    9900012    2    1    2    0    0 -0.84564606307E+01 -0.61611892379E+01  0.15530881117E+02  0.72461541512E+02  0.69999962506E+02 0.  0.
        -12    1    1    2    0    0  0.84564606307E+01  0.61611892379E+01 -0.15530881117E+02  0.18726458488E+02  0.00000000000E+00 0.  1.
         11    1    3    3    0    0  0.94028471109E+01  0.22400644328E+02  0.12648029613E+02  0.27389323713E+02  0.51100000000E-03 0. -1.
        -11    1    3    3    0    0 -0.32169081143E+01 -0.30081523945E+02  0.15984179639E+01  0.30295239245E+02  0.51100000000E-03 0.  1.
        -12    1    3    3    0    0 -0.14642399627E+02  0.15196903793E+01  0.12844335395E+01  0.14776978555E+02  0.00000000000E+00 0.  1.
</event>
<event>
 7    1  0.1920603E-013  0.7246162E+02  0.7816164E-02  0.1226708E+00
        -11   -1    0    0    0    0  0.00000000000E+00  0.00000000000E+00  0.45593999997E+02  0.45594000000E+02  0.51100000000E-03 0.  1.
         11   -1    0    0    0    0 -0.00000000000E+00 -0.00000000000E+00 -0.45593999997E+02  0.45594000000E+02  0.51100000000E-03 0. -1.
    9900012    2    1    2    0    0 -0.99065010481E+01  0.11669623613E+02 -0.10786962393E+02  0.72461616581E+02  0.70000060297E+02 0.  0.
        -12    1    1    2    0    0  0.99065010481E+01 -0.11669623613E+02  0.10786962393E+02  0.18726383419E+02  0.00000000000E+00 0.  1.
         11    1    3    3    0    0 -0.26120387463E+02 -0.33161346137E+01  0.76644523421E+01  0.27422895907E+02  0.51100000000E-03 0. -1.
        -11    1    3    3    0    0  0.70294545696E+01  0.11284859198E+02  0.88672111790E+01  0.15980885864E+02  0.51100000000E-03 0.  1.
         12    1    3    3    0    0  0.91844318451E+01  0.37008990291E+01 -0.27318625914E+02  0.29057834809E+02  0.00000000000E+00 0. -1.
</event>
<event>
 7    1  0.1920603E-013  0.7246150E+02  0.7816164E-02  0.1226708E+00
        -11   -1    0    0    0    0  0.00000000000E+00  0.00000000000E+00  0.45593999997E+02  0.45594000000E+02  0.51100000000E-03 0.  1.
         11   -1    0    0    0    0 -0.00000000000E+00 -0.00000000000E+00 -0.45593999997E+02  0.45594000000E+02  0.51100000000E-03 0. -1.
    9900012    2    1    2    0    0 -0.20924771922E+01 -0.11991935225E+02 -0.14230138534E+02  0.72461499688E+02  0.69999908022E+02 0.  0.
        -12    1    1    2    0    0  0.20924771922E+01  0.11991935225E+02  0.14230138534E+02  0.18726500312E+02  0.00000000000E+00 0.  1.
         11    1    3    3    0    0 -0.46824651129E+01 -0.31985081265E+02 -0.46748767381E+01  0.32662292875E+02  0.51100000000E-03 0. -1.
        -11    1    3    3    0    0  0.34786646324E+01  0.25982395220E+02 -0.16194921786E+02  0.30813332519E+02  0.51100000000E-03 0.  1.
        -12    1    3    3    0    0 -0.88867671172E+00 -0.59892491805E+01  0.66396599897E+01  0.89858742937E+01  0.00000000000E+00 0.  1.
</event>
<event>
 7    1  0.1920603E-013  0.7246157E+02  0.7816164E-02  0.1226708E+00
        -11   -1    0    0    0    0  0.00000000000E+00  0.00000000000E+00  0.45593999997E+02  0.45594000000E+02  0.51100000000E-03 0.  1.
         11   -1    0    0    0    0 -0.00000000000E+00 -0.00000000000E+00 -0.45593999997E+02  0.45594000000E+02  0.51100000000E-03 0. -1.
    9900012    2    1    2    0    0  0.88346107308E+01  0.16364669936E+02  0.21969260978E+01  0.72461568062E+02  0.69999997091E+02 0.  0.
        -12    1    1    2    0    0 -0.88346107308E+01 -0.16364669936E+02 -0.21969260978E+01  0.18726431938E+02  0.00000000000E+00 0.  1.
         11    1    3    3    0    0  0.79232005198E+01  0.51595946019E+01  0.11720386690E+02  0.15058751189E+02  0.51100000000E-03 0. -1.
        -11    1    3    3    0    0 -0.17027654682E+02 -0.13492437838E+02 -0.14986425526E+02  0.26392799266E+02  0.51100000000E-03 0.  1.
        -12    1    3    3    0    0  0.17939064893E+02  0.24697513172E+02  0.54629649339E+01  0.31010017607E+02  0.00000000000E+00 0.  1.
</event>
<event>
 7    1  0.1920603E-013  0.7246160E+02  0.7816164E-02  0.1226708E+00
        -11   -1    0    0    0    0  0.00000000000E+00  0.00000000000E+00  0.45593999997E+02  0.45594000000E+02  0.51100000000E-03 0. -1.
         11   -1    0    0    0    0 -0.00000000000E+00 -0.00000000000E+00 -0.45593999997E+02  0.45594000000E+02  0.51100000000E-03 0.  1.
    9900012    2    1    2    0    0 -0.12663557292E+01  0.63594971138E+01  0.17567905119E+02  0.72461597499E+02  0.70000035439E+02 0.  0.
        -12    1    1    2    0    0  0.12663557292E+01 -0.63594971138E+01 -0.17567905119E+02  0.18726402501E+02  0.00000000000E+00 0.  1.
         11    1    3    3    0    0 -0.14409063818E+01  0.21400054366E+02 -0.12134741235E+02  0.24643264458E+02  0.51100000000E-03 0.  1.
        -11    1    3    3    0    0  0.12083113454E+02 -0.22843137077E+01  0.27632226129E+02  0.30244993651E+02  0.51100000000E-03 0. -1.
         12    1    3    3    0    0 -0.11908562802E+02 -0.12756243545E+02  0.20704202243E+01  0.17573339389E+02  0.00000000000E+00 0. -1.
</event>
<event>
 7    1  0.1920603E-013  0.7246156E+02  0.7816164E-02  0.1226708E+00
        -11   -1    0    0    0    0  0.00000000000E+00  0.00000000000E+00  0.45593999997E+02  0.45594000000E+02  0.51100000000E-03 0.  1.
         11   -1    0    0    0    0 -0.00000000000E+00 -0.00000000000E+00 -0.45593999997E+02  0.45594000000E+02  0.51100000000E-03 0. -1.
    9900012    2    1    2    0    0 -0.99329552772E+01 -0.14981309498E+02  0.52513101311E+01  0.72461561660E+02  0.69999988752E+02 0.  0.
        -12    1    1    2    0    0  0.99329552772E+01  0.14981309498E+02 -0.52513101311E+01  0.18726438340E+02  0.00000000000E+00 0.  1.
         11    1    3    3    0    0 -0.12553068937E+02 -0.19319042763E+02  0.14432178190E+02  0.27186259775E+02  0.51100000000E-03 0. -1.
        -11    1    3    3    0    0  0.12314015404E+01  0.23698893874E+02  0.16551406174E+00  0.23731441502E+02  0.51100000000E-03 0.  1.
         12    1    3    3    0    0  0.13887121194E+01 -0.19361160609E+02 -0.93463821204E+01  0.21543860383E+02  0.00000000000E+00 0. -1.
</event>
<event>
 7    1  0.1920603E-013  0.7246155E+02  0.7816164E-02  0.1226708E+00
        -11   -1    0    0    0    0  0.00000000000E+00  0.00000000000E+00  0.45593999997E+02  0.45594000000E+02  0.51100000000E-03 0. -1.
         11   -1    0    0    0    0 -0.00000000000E+00 -0.00000000000E+00 -0.45593999997E+02  0.45594000000E+02  0.51100000000E-03 0.  1.
    9900012    2    1    2    0    0  0.12229632236E+02  0.12308140402E+02  0.70445561877E+01  0.72461548209E+02  0.69999971230E+02 0.  0.
        -12    1    1    2    0    0 -0.12229632236E+02 -0.12308140402E+02 -0.70445561877E+01  0.18726451791E+02  0.00000000000E+00 0.  1.
         11    1    3    3    0    0 -0.20096594416E+02 -0.17462247442E+02  0.68026756202E-01  0.26623444945E+02  0.51100000000E-03 0.  1.
        -11    1    3    3    0    0  0.17104764412E+02  0.22271998648E+02  0.19914774410E+01  0.28152812861E+02  0.51100000000E-03 0. -1.
        -12    1    3    3    0    0  0.15221462240E+02  0.74983891963E+01  0.49850519905E+01  0.17685290403E+02  0.00000000000E+00 0.  1.
</event>
<event>
 7    1  0.1920603E-013  0.7246161E+02  0.7816164E-02  0.1226708E+00
        -11   -1    0    0    0    0  0.00000000000E+00  0.00000000000E+00  0.45593999997E+02  0.45594000000E+02  0.51100000000E-03 0.  1.
         11   -1    0    0    0    0 -0.00000000000E+00 -0.00000000000E+00 -0.45593999997E+02  0.45594000000E+02  0.51100000000E-03 0. -1.
    9900012    2    1    2    0    0  0.30583730834E+01 -0.18044972504E+02 -0.39627125791E+01  0.72461607673E+02  0.70000048693E+02 0.  0.
        -12    1    1    2    0    0 -0.30583730834E+01  0.18044972504E+02  0.39627125791E+01  0.18726392327E+02  0.00000000000E+00 0.  1.
         11    1    3    3    0    0  0.76692572640E+01 -0.56207867474E+01 -0.89448064848E+01  0.13054513164E+02  0.51100000000E-03 0. -1.
        -11    1    3    3    0    0 -0.25573564697E+02 -0.24128498818E+02  0.20399867735E+01  0.35218648651E+02  0.51100000000E-03 0.  1.
        -12    1    3    3    0    0  0.20962680516E+02  0.11704313061E+02  0.29421071322E+01  0.24188445858E+02  0.00000000000E+00 0.  1.
</event>
<event>
 7    1  0.1920603E-013  0.7246159E+02  0.7816164E-02  0.1226708E+00
        -11   -1    0    0    0    0  0.00000000000E+00  0.00000000000E+00  0.45593999997E+02  0.45594000000E+02  0.51100000000E-03 0.  1.
         11   -1    0    0    0    0 -0.00000000000E+00 -0.00000000000E+00 -0.45593999997E+02  0.45594000000E+02  0.51100000000E-03 0. -1.
    9900012    2    1    2    0    0  0.13952238901E+02  0.98137359896E+01  0.77268285741E+01  0.72461594466E+02  0.70000031488E+02 0.  0.
        -12    1    1    2    0    0 -0.13952238901E+02 -0.98137359896E+01 -0.77268285741E+01  0.18726405534E+02  0.00000000000E+00 0.  1.
         11    1    3    3    0    0 -0.15393898601E+02  0.31480297589E+02  0.17657537129E+01  0.35087022343E+02  0.51100000000E-03 0. -1.
        -11    1    3    3    0    0  0.14372740371E+02 -0.82515158680E+01  0.47220051045E+01  0.17232542249E+02  0.51100000000E-03 0.  1.
         12    1    3    3    0    0  0.14973397131E+02 -0.13415045731E+02  0.12390697568E+01  0.20142029875E+02  0.00000000000E+00 0. -1.
</event>
<event>
 7    1  0.1920603E-013  0.7246154E+02  0.7816164E-02  0.1226708E+00
        -11   -1    0    0    0    0  0.00000000000E+00  0.00000000000E+00  0.45593999997E+02  0.45594000000E+02  0.51100000000E-03 0.  1.
         11   -1    0    0    0    0 -0.00000000000E+00 -0.00000000000E+00 -0.45593999997E+02  0.45594000000E+02  0.51100000000E-03 0. -1.
    9900012    2    1    2    0    0 -0.14216087841E+02  0.12189065526E+02  0.98639511425E-01  0.72461542736E+02  0.69999964100E+02 0.  0.
        -12    1    1    2    0    0  0.14216087841E+02 -0.12189065526E+02 -0.98639511425E-01  0.18726457264E+02  0.00000000000E+00 0.  1.
         11    1    3    3    0    0 -0.10800513061E+02  0.69755572406E+01  0.35889623369E+00  0.12862281600E+02  0.51100000000E-03 0. -1.
        -11    1    3    3    0    0  0.23653223482E+02  0.10393237483E+02  0.13104983216E+02  0.28969552151E+02  0.51100000000E-03 0.  1.
        -12    1    3    3    0    0 -0.27068798262E+02 -0.51797291971E+01 -0.13365239938E+02  0.30629708985E+02  0.00000000000E+00 0.  1.
</event>
<event>
 7    1  0.1920603E-013  0.7246167E+02  0.7816164E-02  0.1226708E+00
        -11   -1    0    0    0    0  0.00000000000E+00  0.00000000000E+00  0.45593999997E+02  0.45594000000E+02  0.51100000000E-03 0.  1.
         11   -1    0    0    0    0 -0.00000000000E+00 -0.00000000000E+00 -0.45593999997E+02  0.45594000000E+02  0.51100000000E-03 0. -1.
    9900012    2    1    2    0    0 -0.96991544261E+01  0.11377990504E+02 -0.11275783522E+02  0.72461666709E+02  0.70000125597E+02 0.  0.
        -12    1    1    2    0    0  0.96991544261E+01 -0.11377990504E+02  0.11275783522E+02  0.18726333291E+02  0.00000000000E+00 0.  1.
         11    1    3    3    0    0  0.30258004767E+01 -0.90856488727E+01 -0.20481900505E+02  0.22610013987E+02  0.51100000000E-03 0. -1.
        -11    1    3    3    0    0 -0.28384927228E+02  0.14622237697E+02  0.31936314301E+01  0.32089144753E+02  0.51100000000E-03 0.  1.
        -12    1    3    3    0    0  0.15659972325E+02  0.58414016802E+01  0.60124855522E+01  0.17762507968E+02  0.00000000000E+00 0.  1.
</event>
<event>
 7    1  0.1920603E-013  0.7246157E+02  0.7816164E-02  0.1226708E+00
        -11   -1    0    0    0    0  0.00000000000E+00  0.00000000000E+00  0.45593999997E+02  0.45594000000E+02  0.51100000000E-03 0.  1.
         11   -1    0    0    0    0 -0.00000000000E+00 -0.00000000000E+00 -0.45593999997E+02  0.45594000000E+02  0.51100000000E-03 0. -1.
    9900012    2    1    2    0    0 -0.39956104905E+01  0.17559221375E+02 -0.51369320523E+01  0.72461568695E+02  0.69999997917E+02 0.  0.
        -12    1    1    2    0    0  0.39956104905E+01 -0.17559221375E+02  0.51369320523E+01  0.18726431305E+02  0.00000000000E+00 0.  1.
         11    1    3    3    0    0  0.84438920969E+01 -0.52031545487E+01  0.66146425740E+01  0.11921645341E+02  0.51100000000E-03 0.  1.
        -11    1    3    3    0    0 -0.21072899690E+02  0.32471502926E+02  0.53337396957E+01  0.39075751855E+02  0.51100000000E-03 0. -1.
        -12    1    3    3    0    0  0.86333971025E+01 -0.97091270017E+01 -0.17085314322E+02  0.21464171499E+02  0.00000000000E+00 0.  1.
</event>
<event>
 7    1  0.1920603E-013  0.7246158E+02  0.7816164E-02  0.1226708E+00
        -11   -1    0    0    0    0  0.00000000000E+00  0.00000000000E+00  0.45593999997E+02  0.45594000000E+02  0.51100000000E-03 0.  1.
         11   -1    0    0    0    0 -0.00000000000E+00 -0.00000000000E+00 -0.45593999997E+02  0.45594000000E+02  0.51100000000E-03 0. -1.
    9900012    2    1    2    0    0 -0.13286033478E+02  0.11776893899E+02  0.59552420648E+01  0.72461579533E+02  0.70000012035E+02 0.  0.
        -12    1    1    2    0    0  0.13286033478E+02 -0.11776893899E+02 -0.59552420648E+01  0.18726420467E+02  0.00000000000E+00 0.  1.
         11    1    3    3    0    0 -0.17746827182E+02  0.19332483007E+02  0.23958598520E+01  0.26352133101E+02  0.51100000000E-03 0. -1.
        -11    1    3    3    0    0  0.80676884269E+01 -0.22465167000E+02  0.13888485445E+02  0.27616324034E+02  0.51100000000E-03 0.  1.
        -12    1    3    3    0    0 -0.36068947221E+01  0.14909577892E+02 -0.10329103233E+02  0.18493122398E+02  0.00000000000E+00 0.  1.
</event>
<event>
 7    1  0.1920603E-013  0.7246153E+02  0.7816164E-02  0.1226708E+00
        -11   -1    0    0    0    0  0.00000000000E+00  0.00000000000E+00  0.45593999997E+02  0.45594000000E+02  0.51100000000E-03 0.  1.
         11   -1    0    0    0    0 -0.00000000000E+00 -0.00000000000E+00 -0.45593999997E+02  0.45594000000E+02  0.51100000000E-03 0. -1.
    9900012    2    1    2    0    0 -0.75481098374E+01  0.17126132457E+02  0.63422527983E+00  0.72461531653E+02  0.69999949662E+02 0.  0.
        -12    1    1    2    0    0  0.75481098374E+01 -0.17126132457E+02 -0.63422527983E+00  0.18726468347E+02  0.00000000000E+00 0.  1.
         11    1    3    3    0    0  0.15095912899E+01 -0.17512242986E+02 -0.12932485469E+02  0.21822160776E+02  0.51100000000E-03 0. -1.
        -11    1    3    3    0    0  0.70116290991E+01  0.31680701745E+02  0.92180035243E+01  0.33731311788E+02  0.51100000000E-03 0.  1.
         12    1    3    3    0    0 -0.16069330226E+02  0.29576736981E+01  0.43487072244E+01  0.16908059089E+02  0.00000000000E+00 0. -1.
</event>
<event>
 7    1  0.1920603E-013  0.7246157E+02  0.7816164E-02  0.1226708E+00
        -11   -1    0    0    0    0  0.00000000000E+00  0.00000000000E+00  0.45593999997E+02  0.45594000000E+02  0.51100000000E-03 0. -1.
         11   -1    0    0    0    0 -0.00000000000E+00 -0.00000000000E+00 -0.45593999997E+02  0.45594000000E+02  0.51100000000E-03 0.  1.
    9900012    2    1    2    0    0  0.53515091736E+01  0.17620142292E+02 -0.34016400080E+01  0.72461568958E+02  0.69999998259E+02 0.  0.
        -12    1    1    2    0    0 -0.53515091736E+01 -0.17620142292E+02  0.34016400080E+01  0.18726431042E+02  0.00000000000E+00 0.  1.
         11    1    3    3    0    0  0.48787039719E+01 -0.45428806482E+01  0.20111398802E+02  0.21187446261E+02  0.51100000000E-03 0. -1.
        -11    1    3    3    0    0  0.81216309831E+01 -0.35978426843E+01 -0.22714742317E+02  0.24389852000E+02  0.51100000000E-03 0.  1.
         12    1    3    3    0    0 -0.76488257814E+01  0.25760865625E+02 -0.79829649345E+00  0.26884270696E+02  0.00000000000E+00 0. -1.
</event>
<event>
 7    1  0.1920603E-013  0.7246161E+02  0.7816164E-02  0.1226708E+00
        -11   -1    0    0    0    0  0.00000000000E+00  0.00000000000E+00  0.45593999997E+02  0.45594000000E+02  0.51100000000E-03 0. -1.
         11   -1    0    0    0    0 -0.00000000000E+00 -0.00000000000E+00 -0.45593999997E+02  0.45594000000E+02  0.51100000000E-03 0.  1.
    9900012    2    1    2    0    0  0.49014734111E+01  0.75303976659E+01  0.16430042370E+02  0.72461611590E+02  0.70000053795E+02 0.  0.
        -12    1    1    2    0    0 -0.49014734111E+01 -0.75303976659E+01 -0.16430042370E+02  0.18726388410E+02  0.00000000000E+00 0.  1.
         11    1    3    3    0    0 -0.21112215093E+01 -0.12798927973E+02  0.13721069049E+02  0.18882201927E+02  0.51100000000E-03 0. -1.
        -11    1    3    3    0    0  0.12095282244E+02  0.33965762417E+02  0.98394709759E+01  0.37373574334E+02  0.51100000000E-03 0.  1.
        -12    1    3    3    0    0 -0.50825873232E+01 -0.13636436779E+02 -0.71304976542E+01  0.16205835329E+02  0.00000000000E+00 0.  1.
</event>
<event>
 7    1  0.1920603E-013  0.7246158E+02  0.7816164E-02  0.1226708E+00
        -11   -1    0    0    0    0  0.00000000000E+00  0.00000000000E+00  0.45593999997E+02  0.45594000000E+02  0.51100000000E-03 0.  1.
         11   -1    0    0    0    0 -0.00000000000E+00 -0.00000000000E+00 -0.45593999997E+02  0.45594000000E+02  0.51100000000E-03 0. -1.
    9900012    2    1    2    0    0 -0.25295203127E+01 -0.62503625667E+01 -0.17470358320E+02  0.72461576822E+02  0.70000008503E+02 0.  0.
        -12    1    1    2    0    0  0.25295203127E+01  0.62503625667E+01  0.17470358320E+02  0.18726423178E+02  0.00000000000E+00 0.  1.
         11    1    3    3    0    0  0.89067055306E+01 -0.74015786770E+01 -0.25837524953E+02  0.28314138982E+02  0.51100000000E-03 0. -1.
        -11    1    3    3    0    0  0.33053529243E+01 -0.41001841136E+01  0.22471445491E+02  0.23080353776E+02  0.51100000000E-03 0.  1.
         12    1    3    3    0    0 -0.14741578768E+02  0.52514002239E+01 -0.14104278858E+02  0.21067084064E+02  0.00000000000E+00 0. -1.
</event>
<event>
 7    1  0.1920603E-013  0.7246168E+02  0.7816164E-02  0.1226708E+00
        -11   -1    0    0    0    0  0.00000000000E+00  0.00000000000E+00  0.45593999997E+02  0.45594000000E+02  0.51100000000E-03 0.  1.
         11   -1    0    0    0    0 -0.00000000000E+00 -0.00000000000E+00 -0.45593999997E+02  0.45594000000E+02  0.51100000000E-03 0. -1.
    9900012    2    1    2    0    0  0.11929272784E+02 -0.14434901262E+02 -0.31559903164E-01  0.72461683768E+02  0.70000147820E+02 0.  0.
        -12    1    1    2    0    0 -0.11929272784E+02  0.14434901262E+02  0.31559903164E-01  0.18726316232E+02  0.00000000000E+00 0.  1.
         11    1    3    3    0    0 -0.57344397417E+01 -0.27997609387E+02  0.16447731829E+02  0.32973895935E+02  0.51100000000E-03 0.  1.
        -11    1    3    3    0    0 -0.23484306602E+01  0.39830051748E+01 -0.16670758727E+02  0.17300105595E+02  0.51100000000E-03 0. -1.
         12    1    3    3    0    0  0.20012143186E+02  0.95797029499E+01  0.19146699490E+00  0.22187682238E+02  0.00000000000E+00 0. -1.
</event>
<event>
 7    1  0.1920603E-013  0.7246159E+02  0.7816164E-02  0.1226708E+00
        -11   -1    0    0    0    0  0.00000000000E+00  0.00000000000E+00  0.45593999997E+02  0.45594000000E+02  0.51100000000E-03 0. -1.
         11   -1    0    0    0    0 -0.00000000000E+00 -0.00000000000E+00 -0.45593999997E+02  0.45594000000E+02  0.51100000000E-03 0.  1.
    9900012    2    1    2    0    0  0.15759029964E+02 -0.25845570400E+01  0.97801656701E+01  0.72461585473E+02  0.70000019773E+02 0.  0.
        -12    1    1    2    0    0 -0.15759029964E+02  0.25845570400E+01 -0.97801656701E+01  0.18726414527E+02  0.00000000000E+00 0.  1.
         11    1    3    3    0    0  0.13816110403E+02 -0.74481028631E+01  0.61873899432E+01  0.16871364423E+02  0.51100000000E-03 0. -1.
        -11    1    3    3    0    0 -0.21149295247E+02 -0.12605361767E+02 -0.55250915091E+01  0.25233201762E+02  0.51100000000E-03 0.  1.
        -12    1    3    3    0    0  0.23092214808E+02  0.17468907590E+02  0.91178672360E+01  0.30357019288E+02  0.00000000000E+00 0.  1.
</event>
<event>
 7    1  0.1920603E-013  0.7246158E+02  0.7816164E-02  0.1226708E+00
        -11   -1    0    0    0    0  0.00000000000E+00  0.00000000000E+00  0.45593999997E+02  0.45594000000E+02  0.51100000000E-03 0. -1.
         11   -1    0    0    0    0 -0.00000000000E+00 -0.00000000000E+00 -0.45593999997E+02  0.45594000000E+02  0.51100000000E-03 0.  1.
    9900012    2    1    2    0    0 -0.15389447931E+02 -0.85566472701E+01 -0.63739605155E+01  0.72461583023E+02  0.70000016582E+02 0.  0.
        -12    1    1    2    0    0  0.15389447931E+02  0.85566472701E+01  0.63739605155E+01  0.18726416977E+02  0.00000000000E+00 0.  1.
         11    1    3    3    0    0 -0.35572828308E+02 -0.20115435404E+01  0.15771759946E+02  0.38964353367E+02  0.51100000000E-03 0. -1.
        -11    1    3    3    0    0  0.10599773625E+02  0.11573771918E+01 -0.36158016466E+01  0.11259162698E+02  0.51100000000E-03 0.  1.
         12    1    3    3    0    0  0.95836067519E+01 -0.77024809215E+01 -0.18529918815E+02  0.22238066958E+02  0.00000000000E+00 0. -1.
</event>
<event>
 7    1  0.1920603E-013  0.7246150E+02  0.7816164E-02  0.1226708E+00
        -11   -1    0    0    0    0  0.00000000000E+00  0.00000000000E+00  0.45593999997E+02  0.45594000000E+02  0.51100000000E-03 0. -1.
         11   -1    0    0    0    0 -0.00000000000E+00 -0.00000000000E+00 -0.45593999997E+02  0.45594000000E+02  0.51100000000E-03 0.  1.
    9900012    2    1    2    0    0  0.23464228261E+01 -0.14569236338E+02  0.11528815811E+02  0.72461496280E+02  0.69999903583E+02 0.  0.
        -12    1    1    2    0    0 -0.23464228261E+01  0.14569236338E+02 -0.11528815811E+02  0.18726503720E+02  0.00000000000E+00 0.  1.
         11    1    3    3    0    0 -0.21930903327E+02 -0.29138492809E+02  0.17222455409E+02  0.40331492094E+02  0.51100000000E-03 0. -1.
        -11    1    3    3    0    0  0.12639833285E+02  0.44127790521E+01  0.39030909962E+01  0.13945326243E+02  0.51100000000E-03 0.  1.
         12    1    3    3    0    0  0.11637492868E+02  0.10156477419E+02 -0.95967305940E+01  0.18184677943E+02  0.00000000000E+00 0. -1.
</event>
<event>
 7    1  0.1920603E-013  0.7246159E+02  0.7816164E-02  0.1226708E+00
        -11   -1    0    0    0    0  0.00000000000E+00  0.00000000000E+00  0.45593999997E+02  0.45594000000E+02  0.51100000000E-03 0.  1.
         11   -1    0    0    0    0 -0.00000000000E+00 -0.00000000000E+00 -0.45593999997E+02  0.45594000000E+02  0.51100000000E-03 0. -1.
    9900012    2    1    2    0    0  0.82306129677E+01  0.55002446399E+01 -0.15895999747E+02  0.72461588468E+02  0.70000023674E+02 0.  0.
        -12    1    1    2    0    0 -0.82306129677E+01 -0.55002446399E+01  0.15895999747E+02  0.18726411532E+02  0.00000000000E+00 0.  1.
         11    1    3    3    0    0  0.32251566792E+02  0.12855492857E+02  0.60953778364E+01  0.35250260827E+02  0.51100000000E-03 0. -1.
        -11    1    3    3    0    0 -0.24410938239E+00 -0.55098297589E+01 -0.74852690157E+01  0.92976914264E+01  0.51100000000E-03 0.  1.
         12    1    3    3    0    0 -0.23776844442E+02 -0.18454184585E+01 -0.14506108568E+02  0.27913636214E+02  0.00000000000E+00 0. -1.
</event>
<event>
 7    1  0.1920603E-013  0.7246151E+02  0.7816164E-02  0.1226708E+00
        -11   -1    0    0    0    0  0.00000000000E+00  0.00000000000E+00  0.45593999997E+02  0.45594000000E+02  0.51100000000E-03 0. -1.
         11   -1    0    0    0    0 -0.00000000000E+00 -0.00000000000E+00 -0.45593999997E+02  0.45594000000E+02  0.51100000000E-03 0.  1.
    9900012    2    1    2    0    0 -0.22621368999E+01  0.18583495853E+02  0.46659997014E+00  0.72461513490E+02  0.69999926002E+02 0.  0.
        -12    1    1    2    0    0  0.22621368999E+01 -0.18583495853E+02 -0.46659997014E+00  0.18726486510E+02  0.00000000000E+00 0.  1.
         11    1    3    3    0    0 -0.72800219900E+00  0.24800943288E+02  0.31470656872E+02  0.40075167116E+02  0.51100000000E-03 0. -1.
        -11    1    3    3    0    0  0.54249293798E+00 -0.23565448574E+01 -0.22598850350E+01  0.33097859275E+01  0.51100000000E-03 0.  1.
         12    1    3    3    0    0 -0.20766276389E+01 -0.38609025779E+01 -0.28744171867E+02  0.29076560446E+02  0.00000000000E+00 0. -1.
</event>
<event>
 7    1  0.1920603E-013  0.7246158E+02  0.7816164E-02  0.1226708E+00
        -11   -1    0    0    0    0  0.00000000000E+00  0.00000000000E+00  0.45593999997E+02  0.45594000000E+02  0.51100000000E-03 0.  1.
         11   -1    0    0    0    0 -0.00000000000E+00 -0.00000000000E+00 -0.45593999997E+02  0.45594000000E+02  0.51100000000E-03 0. -1.
    9900012    2    1    2    0    0 -0.31323349325E+00 -0.15063029579E+02 -0.11121413407E+02  0.72461579854E+02  0.70000012453E+02 0.  0.
        -12    1    1    2    0    0  0.31323349325E+00  0.15063029579E+02  0.11121413407E+02  0.18726420146E+02  0.00000000000E+00 0.  1.
         11    1    3    3    0    0  0.65527149831E+00 -0.89257146206E+01 -0.59313290085E+01  0.10736779140E+02  0.51100000000E-03 0. -1.
        -11    1    3    3    0    0 -0.23673486114E+02  0.15673613339E+02 -0.95182638556E+01  0.29944840073E+02  0.51100000000E-03 0.  1.
        -12    1    3    3    0    0  0.22704981122E+02 -0.21810928298E+02  0.43281794568E+01  0.31779960642E+02  0.00000000000E+00 0.  1.
</event>
<event>
 7    1  0.1920603E-013  0.7246169E+02  0.7816164E-02  0.1226708E+00
        -11   -1    0    0    0    0  0.00000000000E+00  0.00000000000E+00  0.45593999997E+02  0.45594000000E+02  0.51100000000E-03 0.  1.
         11   -1    0    0    0    0 -0.00000000000E+00 -0.00000000000E+00 -0.45593999997E+02  0.45594000000E+02  0.51100000000E-03 0. -1.
    9900012    2    1    2    0    0  0.39685670945E+01  0.39048854227E+01 -0.17879512351E+02  0.72461691852E+02  0.70000158351E+02 0.  0.
        -12    1    1    2    0    0 -0.39685670945E+01 -0.39048854227E+01  0.17879512351E+02  0.18726308148E+02  0.00000000000E+00 0.  1.
         11    1    3    3    0    0  0.12672638546E+02  0.14059939733E+02 -0.28603127672E+02  0.34298929807E+02  0.51100000000E-03 0. -1.
        -11    1    3    3    0    0  0.53461897552E+01 -0.17869266807E+02 -0.39365644002E+00  0.18656028698E+02  0.51100000000E-03 0.  1.
         12    1    3    3    0    0 -0.14050261207E+02  0.77142124973E+01  0.11117271761E+02  0.19506733347E+02  0.00000000000E+00 0. -1.
</event>
<event>
 7    1  0.1920603E-013  0.7246155E+02  0.7816164E-02  0.1226708E+00
        -11   -1    0    0    0    0  0.00000000000E+00  0.00000000000E+00  0.45593999997E+02  0.45594000000E+02  0.51100000000E-03 0. -1.
         11   -1    0    0    0    0 -0.00000000000E+00 -0.00000000000E+00 -0.45593999997E+02  0.45594000000E+02  0.51100000000E-03 0.  1.
    9900012    2    1    2    0    0  0.18466878564E+02 -0.14761600845E+01  0.27341207534E+01  0.72461546283E+02  0.69999968721E+02 0.  0.
        -12    1    1    2    0    0 -0.18466878564E+02  0.14761600845E+01 -0.27341207534E+01  0.18726453717E+02  0.00000000000E+00 0.  1.
         11    1    3    3    0    0  0.65690545750E+01 -0.11751884222E+02  0.21575918169E+02  0.25431860056E+02  0.51100000000E-03 0. -1.
        -11    1    3    3    0    0  0.24883703766E+02  0.15185089764E+02 -0.13878954695E+02  0.32286391064E+02  0.51100000000E-03 0.  1.
        -12    1    3    3    0    0 -0.12985879776E+02 -0.49093656260E+01 -0.49628427208E+01  0.14743295164E+02  0.00000000000E+00 0.  1.
</event>
<event>
 7    1  0.1920603E-013  0.7246138E+02  0.7816164E-02  0.1226709E+00
        -11   -1    0    0    0    0  0.00000000000E+00  0.00000000000E+00  0.45593999997E+02  0.45594000000E+02  0.51100000000E-03 0.  1.
         11   -1    0    0    0    0 -0.00000000000E+00 -0.00000000000E+00 -0.45593999997E+02  0.45594000000E+02  0.51100000000E-03 0. -1.
    9900012    2    1    2    0    0 -0.13164408810E+00  0.15895740923E+02 -0.98992141253E+01  0.72461378576E+02  0.69999750251E+02 0.  0.
        -12    1    1    2    0    0  0.13164408810E+00 -0.15895740923E+02  0.98992141253E+01  0.18726621424E+02  0.00000000000E+00 0.  1.
         11    1    3    3    0    0  0.23853138294E+01  0.28125871584E+01 -0.30051164406E+02  0.30276605672E+02  0.51100000000E-03 0. -1.
        -11    1    3    3    0    0  0.50723014717E+01 -0.10527959521E+02  0.10021549157E+02  0.15394727074E+02  0.51100000000E-03 0.  1.
        -12    1    3    3    0    0 -0.75892593892E+01  0.23611113286E+02  0.10130401124E+02  0.26790045830E+02  0.00000000000E+00 0.  1.
</event>
<event>
 7    1  0.1920603E-013  0.7246159E+02  0.7816164E-02  0.1226708E+00
        -11   -1    0    0    0    0  0.00000000000E+00  0.00000000000E+00  0.45593999997E+02  0.45594000000E+02  0.51100000000E-03 0.  1.
         11   -1    0    0    0    0 -0.00000000000E+00 -0.00000000000E+00 -0.45593999997E+02  0.45594000000E+02  0.51100000000E-03 0. -1.
    9900012    2    1    2    0    0  0.14876845370E+02 -0.88532169330E+01 -0.71399295961E+01  0.72461586225E+02  0.70000020753E+02 0.  0.
        -12    1    1    2    0    0 -0.14876845370E+02  0.88532169330E+01  0.71399295961E+01  0.18726413775E+02  0.00000000000E+00 0.  1.
         11    1    3    3    0    0  0.88423298443E+01  0.10844043350E+02 -0.17633843768E+02  0.22510720103E+02  0.51100000000E-03 0. -1.
        -11    1    3    3    0    0 -0.83844988118E+01 -0.21473595859E+02  0.21656697140E+02  0.31629537946E+02  0.51100000000E-03 0.  1.
        -12    1    3    3    0    0  0.14419014338E+02  0.17763355759E+01 -0.11162782968E+02  0.18321328176E+02  0.00000000000E+00 0.  1.
</event>
<event>
 7    1  0.1920603E-013  0.7246159E+02  0.7816164E-02  0.1226708E+00
        -11   -1    0    0    0    0  0.00000000000E+00  0.00000000000E+00  0.45593999997E+02  0.45594000000E+02  0.51100000000E-03 0.  1.
         11   -1    0    0    0    0 -0.00000000000E+00 -0.00000000000E+00 -0.45593999997E+02  0.45594000000E+02  0.51100000000E-03 0. -1.
    9900012    2    1    2    0    0 -0.15764472653E+01 -0.14729784400E+02 -0.11455421564E+02  0.72461590369E+02  0.70000026151E+02 0.  0.
        -12    1    1    2    0    0  0.15764472653E+01  0.14729784400E+02  0.11455421564E+02  0.18726409631E+02  0.00000000000E+00 0.  1.
         11    1    3    3    0    0 -0.19811395147E+00 -0.18672731426E+02  0.57016632824E+01  0.19524833226E+02  0.51100000000E-03 0. -1.
        -11    1    3    3    0    0 -0.49650160811E+00  0.19401265129E+02  0.98817377712E+01  0.21778529429E+02  0.51100000000E-03 0.  1.
        -12    1    3    3    0    0 -0.88183170575E+00 -0.15458318103E+02 -0.27038822618E+02  0.31158227714E+02  0.00000000000E+00 0.  1.
</event>
<event>
 7    1  0.1920603E-013  0.7246165E+02  0.7816164E-02  0.1226708E+00
        -11   -1    0    0    0    0  0.00000000000E+00  0.00000000000E+00  0.45593999997E+02  0.45594000000E+02  0.51100000000E-03 0.  1.
         11   -1    0    0    0    0 -0.00000000000E+00 -0.00000000000E+00 -0.45593999997E+02  0.45594000000E+02  0.51100000000E-03 0. -1.
    9900012    2    1    2    0    0 -0.79207300460E+01  0.18006925012E+01 -0.16872928902E+02  0.72461649911E+02  0.70000103715E+02 0.  0.
        -12    1    1    2    0    0  0.79207300460E+01 -0.18006925012E+01  0.16872928902E+02  0.18726350089E+02  0.00000000000E+00 0.  1.
         11    1    3    3    0    0 -0.38214215550E+02 -0.93342041616E+00 -0.11383953141E+02  0.39884733084E+02  0.51100000000E-03 0. -1.
        -11    1    3    3    0    0  0.92265291801E+01 -0.16865176362E+01  0.23481342741E+01  0.96688632879E+01  0.51100000000E-03 0.  1.
         12    1    3    3    0    0  0.21066956324E+02  0.44206305536E+01 -0.78371100347E+01  0.22908053539E+02  0.00000000000E+00 0. -1.
</event>
<event>
 7    1  0.1920603E-013  0.7246158E+02  0.7816164E-02  0.1226708E+00
        -11   -1    0    0    0    0  0.00000000000E+00  0.00000000000E+00  0.45593999997E+02  0.45594000000E+02  0.51100000000E-03 0. -1.
         11   -1    0    0    0    0 -0.00000000000E+00 -0.00000000000E+00 -0.45593999997E+02  0.45594000000E+02  0.51100000000E-03 0.  1.
    9900012    2    1    2    0    0 -0.10076505086E+02  0.92753743861E+01  0.12771466611E+02  0.72461577914E+02  0.70000009926E+02 0.  0.
        -12    1    1    2    0    0  0.10076505086E+02 -0.92753743861E+01 -0.12771466611E+02  0.18726422086E+02  0.00000000000E+00 0.  1.
         11    1    3    3    0    0 -0.10019737786E+02 -0.26254742217E+02  0.17361163679E+02  0.33032054716E+02  0.51100000000E-03 0. -1.
        -11    1    3    3    0    0 -0.27696042162E+01  0.19906179743E+02 -0.10289257079E+02  0.22578651664E+02  0.51100000000E-03 0.  1.
        -12    1    3    3    0    0  0.27128369164E+01  0.15623936860E+02  0.56995600103E+01  0.16850871534E+02  0.00000000000E+00 0.  1.
</event>
<event>
 7    1  0.1920603E-013  0.7246167E+02  0.7816164E-02  0.1226708E+00
        -11   -1    0    0    0    0  0.00000000000E+00  0.00000000000E+00  0.45593999997E+02  0.45594000000E+02  0.51100000000E-03 0. -1.
         11   -1    0    0    0    0 -0.00000000000E+00 -0.00000000000E+00 -0.45593999997E+02  0.45594000000E+02  0.51100000000E-03 0.  1.
    9900012    2    1    2    0    0 -0.16279940454E+02 -0.88186870286E+01  0.28052916411E+01  0.72461671922E+02  0.70000132389E+02 0.  0.
        -12    1    1    2    0    0  0.16279940454E+02  0.88186870286E+01 -0.28052916411E+01  0.18726328078E+02  0.00000000000E+00 0.  1.
         11    1    3    3    0    0 -0.11684420078E+02 -0.16701976703E+02 -0.62034797070E+00  0.20392805845E+02  0.51100000000E-03 0. -1.
        -11    1    3    3    0    0  0.56132663081E+01  0.28161449195E+02  0.56197044211E+01  0.29260161610E+02  0.51100000000E-03 0.  1.
        -12    1    3    3    0    0 -0.10208786684E+02 -0.20278159520E+02 -0.21940648093E+01  0.22808704467E+02  0.00000000000E+00 0.  1.
</event>
<event>
 7    1  0.1920603E-013  0.7246135E+02  0.7816164E-02  0.1226709E+00
        -11   -1    0    0    0    0  0.00000000000E+00  0.00000000000E+00  0.45593999997E+02  0.45594000000E+02  0.51100000000E-03 0. -1.
         11   -1    0    0    0    0 -0.00000000000E+00 -0.00000000000E+00 -0.45593999997E+02  0.45594000000E+02  0.51100000000E-03 0.  1.
    9900012    2    1    2    0    0  0.79660245890E+01 -0.13755896051E+02  0.98997633254E+01  0.72461346860E+02  0.69999708935E+02 0.  0.
        -12    1    1    2    0    0 -0.79660245890E+01  0.13755896051E+02 -0.98997633254E+01  0.18726653140E+02  0.00000000000E+00 0.  1.
         11    1    3    3    0    0 -0.14542020883E+02 -0.28095196926E+02 -0.74628997796E+01  0.32503927994E+02  0.51100000000E-03 0. -1.
        -11    1    3    3    0    0  0.10139321300E+02 -0.39231565748E+01 -0.14491364966E+01  0.10967998486E+02  0.51100000000E-03 0.  1.
         12    1    3    3    0    0  0.12368724172E+02  0.18262457449E+02  0.18811799602E+02  0.28989420380E+02  0.00000000000E+00 0. -1.
</event>
<event>
 7    1  0.1920603E-013  0.7246156E+02  0.7816164E-02  0.1226708E+00
        -11   -1    0    0    0    0  0.00000000000E+00  0.00000000000E+00  0.45593999997E+02  0.45594000000E+02  0.51100000000E-03 0. -1.
         11   -1    0    0    0    0 -0.00000000000E+00 -0.00000000000E+00 -0.45593999997E+02  0.45594000000E+02  0.51100000000E-03 0.  1.
    9900012    2    1    2    0    0 -0.54543102605E+01 -0.15597021258E+02  0.88126572125E+01  0.72461561479E+02  0.69999988516E+02 0.  0.
        -12    1    1    2    0    0  0.54543102605E+01  0.15597021258E+02 -0.88126572125E+01  0.18726438521E+02  0.00000000000E+00 0.  1.
         11    1    3    3    0    0 -0.42373912751E+00  0.22065093334E+02 -0.65721949885E+01  0.23026976483E+02  0.51100000000E-03 0. -1.
        -11    1    3    3    0    0 -0.99287009333E+01 -0.22619769841E+02 -0.33332965555E+01  0.24926771874E+02  0.51100000000E-03 0.  1.
         12    1    3    3    0    0  0.48981298003E+01 -0.15042344751E+02  0.18718148756E+02  0.24507813122E+02  0.00000000000E+00 0. -1.
</event>
<event>
 7    1  0.1920603E-013  0.7246145E+02  0.7816164E-02  0.1226708E+00
        -11   -1    0    0    0    0  0.00000000000E+00  0.00000000000E+00  0.45593999997E+02  0.45594000000E+02  0.51100000000E-03 0.  1.
         11   -1    0    0    0    0 -0.00000000000E+00 -0.00000000000E+00 -0.45593999997E+02  0.45594000000E+02  0.51100000000E-03 0. -1.
    9900012    2    1    2    0    0 -0.76807724042E+00  0.12764596814E+02 -0.13680603159E+02  0.72461447267E+02  0.69999839733E+02 0.  0.
        -12    1    1    2    0    0  0.76807724042E+00 -0.12764596814E+02  0.13680603159E+02  0.18726552733E+02  0.00000000000E+00 0.  1.
         11    1    3    3    0    0 -0.76739265929E+01  0.10116345534E+02  0.77652335760E+01  0.14883831801E+02  0.51100000000E-03 0. -1.
        -11    1    3    3    0    0  0.11135228402E+02  0.77127387606E+01 -0.37686975790E+02  0.40047319451E+02  0.51100000000E-03 0.  1.
        -12    1    3    3    0    0 -0.42293790491E+01 -0.50644874808E+01  0.16241139055E+02  0.17530296015E+02  0.00000000000E+00 0.  1.
</event>
<event>
 7    1  0.1920603E-013  0.7246159E+02  0.7816164E-02  0.1226708E+00
        -11   -1    0    0    0    0  0.00000000000E+00  0.00000000000E+00  0.45593999997E+02  0.45594000000E+02  0.51100000000E-03 0.  1.
         11   -1    0    0    0    0 -0.00000000000E+00 -0.00000000000E+00 -0.45593999997E+02  0.45594000000E+02  0.51100000000E-03 0. -1.
    9900012    2    1    2    0    0  0.56585604651E+01 -0.17828694288E+02 -0.89268232276E+00  0.72461587416E+02  0.70000022304E+02 0.  0.
        -12    1    1    2    0    0 -0.56585604651E+01  0.17828694288E+02  0.89268232276E+00  0.18726412584E+02  0.00000000000E+00 0.  1.
         11    1    3    3    0    0  0.17505881597E+02 -0.29126257577E+02 -0.88539724532E+01  0.35116770914E+02  0.51100000000E-03 0. -1.
        -11    1    3    3    0    0  0.11030475360E+02  0.71727341598E+01  0.40861008610E+01  0.13777362683E+02  0.51100000000E-03 0.  1.
         12    1    3    3    0    0 -0.22877796492E+02  0.41248291294E+01  0.38751892694E+01  0.23567453820E+02  0.00000000000E+00 0. -1.
</event>
<event>
 7    1  0.1920603E-013  0.7246164E+02  0.7816164E-02  0.1226708E+00
        -11   -1    0    0    0    0  0.00000000000E+00  0.00000000000E+00  0.45593999997E+02  0.45594000000E+02  0.51100000000E-03 0.  1.
         11   -1    0    0    0    0 -0.00000000000E+00 -0.00000000000E+00 -0.45593999997E+02  0.45594000000E+02  0.51100000000E-03 0. -1.
    9900012    2    1    2    0    0  0.12216256981E+02 -0.13300798789E+02  0.49526011982E+01  0.72461643129E+02  0.70000094880E+02 0.  0.
        -12    1    1    2    0    0 -0.12216256981E+02  0.13300798789E+02 -0.49526011982E+01  0.18726356871E+02  0.00000000000E+00 0.  1.
         11    1    3    3    0    0 -0.43059393143E+01 -0.21949042298E+01 -0.26706422247E+02  0.27140223054E+02  0.51100000000E-03 0. -1.
        -11    1    3    3    0    0  0.84376945831E+01  0.47484061172E+01  0.24125858668E+02  0.25996136391E+02  0.51100000000E-03 0.  1.
         12    1    3    3    0    0  0.80845017123E+01 -0.15854300676E+02  0.75331647768E+01  0.19325283683E+02  0.00000000000E+00 0. -1.
</event>
<event>
 7    1  0.1920603E-013  0.7246120E+02  0.7816164E-02  0.1226709E+00
        -11   -1    0    0    0    0  0.00000000000E+00  0.00000000000E+00  0.45593999997E+02  0.45594000000E+02  0.51100000000E-03 0. -1.
         11   -1    0    0    0    0 -0.00000000000E+00 -0.00000000000E+00 -0.45593999997E+02  0.45594000000E+02  0.51100000000E-03 0.  1.
    9900012    2    1    2    0    0 -0.12587642828E+02 -0.17494171211E+01  0.13754408413E+02  0.72461202009E+02  0.69999520238E+02 0.  0.
        -12    1    1    2    0    0  0.12587642828E+02  0.17494171211E+01 -0.13754408413E+02  0.18726797991E+02  0.00000000000E+00 0.  1.
         11    1    3    3    0    0 -0.91083618353E+01 -0.17592089955E+02 -0.13376408903E+02  0.23903393059E+02  0.51100000000E-03 0.  1.
        -11    1    3    3    0    0  0.16348266204E+02  0.11458407428E+02  0.13607509079E+02  0.24160405879E+02  0.51100000000E-03 0. -1.
         12    1    3    3    0    0 -0.19827547196E+02  0.43842654065E+01  0.13523308236E+02  0.24397403071E+02  0.00000000000E+00 0. -1.
</event>
<event>
 7    1  0.1920603E-013  0.7246167E+02  0.7816164E-02  0.1226708E+00
        -11   -1    0    0    0    0  0.00000000000E+00  0.00000000000E+00  0.45593999997E+02  0.45594000000E+02  0.51100000000E-03 0.  1.
         11   -1    0    0    0    0 -0.00000000000E+00 -0.00000000000E+00 -0.45593999997E+02  0.45594000000E+02  0.51100000000E-03 0. -1.
    9900012    2    1    2    0    0  0.17812326169E+01  0.18537150479E+02  0.19689749242E+01  0.72461665608E+02  0.70000124164E+02 0.  0.
        -12    1    1    2    0    0 -0.17812326169E+01 -0.18537150479E+02 -0.19689749242E+01  0.18726334392E+02  0.00000000000E+00 0.  1.
         11    1    3    3    0    0  0.14581874733E+02  0.27532426512E+02 -0.74632250590E+01  0.32036936634E+02  0.51100000000E-03 0. -1.
        -11    1    3    3    0    0  0.38410735325E+01 -0.12611481005E+02  0.17229353484E+02  0.21694559704E+02  0.51100000000E-03 0.  1.
         12    1    3    3    0    0 -0.16641715649E+02  0.36162049720E+01 -0.77971535012E+01  0.18730169269E+02  0.00000000000E+00 0. -1.
</event>
<event>
 7    1  0.1920603E-013  0.7246152E+02  0.7816164E-02  0.1226708E+00
        -11   -1    0    0    0    0  0.00000000000E+00  0.00000000000E+00  0.45593999997E+02  0.45594000000E+02  0.51100000000E-03 0. -1.
         11   -1    0    0    0    0 -0.00000000000E+00 -0.00000000000E+00 -0.45593999997E+02  0.45594000000E+02  0.51100000000E-03 0.  1.
    9900012    2    1    2    0    0 -0.18304764208E+02 -0.34077583053E+01 -0.20009839662E+01  0.72461517517E+02  0.69999931247E+02 0.  0.
        -12    1    1    2    0    0  0.18304764208E+02  0.34077583053E+01  0.20009839662E+01  0.18726482483E+02  0.00000000000E+00 0.  1.
         11    1    3    3    0    0  0.10518960959E+02 -0.18414751459E+02  0.27562058261E+01  0.21385702742E+02  0.51100000000E-03 0. -1.
        -11    1    3    3    0    0 -0.11752369074E+02  0.15450503222E+02  0.15311990669E+02  0.24724346041E+02  0.51100000000E-03 0.  1.
         12    1    3    3    0    0 -0.17071356093E+02 -0.44351006806E+00 -0.20069180461E+02  0.26351468733E+02  0.00000000000E+00 0. -1.
</event>
<event>
 7    1  0.1920603E-013  0.7246157E+02  0.7816164E-02  0.1226708E+00
        -11   -1    0    0    0    0  0.00000000000E+00  0.00000000000E+00  0.45593999997E+02  0.45594000000E+02  0.51100000000E-03 0.  1.
         11   -1    0    0    0    0 -0.00000000000E+00 -0.00000000000E+00 -0.45593999997E+02  0.45594000000E+02  0.51100000000E-03 0. -1.
    9900012    2    1    2    0    0  0.16868049361E+02  0.46353642365E+01 -0.66829150429E+01  0.72461573637E+02  0.70000004355E+02 0.  0.
        -12    1    1    2    0    0 -0.16868049361E+02 -0.46353642365E+01  0.66829150429E+01  0.18726426363E+02  0.00000000000E+00 0.  1.
         11    1    3    3    0    0  0.73458819747E+01  0.98133578328E+01 -0.32243841508E+02  0.34495351707E+02  0.51100000000E-03 0. -1.
        -11    1    3    3    0    0  0.63021897916E+01 -0.15317641447E+02  0.10809054541E+02  0.19778356757E+02  0.51100000000E-03 0.  1.
        -12    1    3    3    0    0  0.32199775949E+01  0.10139647851E+02  0.14751871924E+02  0.18187865172E+02  0.00000000000E+00 0.  1.
</event>
<event>
 7    1  0.1920603E-013  0.7246167E+02  0.7816164E-02  0.1226708E+00
        -11   -1    0    0    0    0  0.00000000000E+00  0.00000000000E+00  0.45593999997E+02  0.45594000000E+02  0.51100000000E-03 0.  1.
         11   -1    0    0    0    0 -0.00000000000E+00 -0.00000000000E+00 -0.45593999997E+02  0.45594000000E+02  0.51100000000E-03 0. -1.
    9900012    2    1    2    0    0 -0.79783340012E+01 -0.15564517878E+02 -0.66908489272E+01  0.72461668550E+02  0.70000127996E+02 0.  0.
        -12    1    1    2    0    0  0.79783340012E+01  0.15564517878E+02  0.66908489272E+01  0.18726331450E+02  0.00000000000E+00 0.  1.
         11    1    3    3    0    0  0.61294967744E+01 -0.27042707874E+02 -0.27795679122E+02  0.39261667794E+02  0.51100000000E-03 0. -1.
        -11    1    3    3    0    0 -0.11790098007E+02  0.10467344959E+01  0.30552422861E+01  0.12224425132E+02  0.51100000000E-03 0.  1.
         12    1    3    3    0    0 -0.23177327683E+01  0.10431455500E+02  0.18049587909E+02  0.20975575623E+02  0.00000000000E+00 0. -1.
</event>
<event>
 7    1  0.1920603E-013  0.7246151E+02  0.7816164E-02  0.1226708E+00
        -11   -1    0    0    0    0  0.00000000000E+00  0.00000000000E+00  0.45593999997E+02  0.45594000000E+02  0.51100000000E-03 0. -1.
         11   -1    0    0    0    0 -0.00000000000E+00 -0.00000000000E+00 -0.45593999997E+02  0.45594000000E+02  0.51100000000E-03 0.  1.
    9900012    2    1    2    0    0  0.15744639583E+02  0.96849050843E+01 -0.29984155444E+01  0.72461506525E+02  0.69999916928E+02 0.  0.
        -12    1    1    2    0    0 -0.15744639583E+02 -0.96849050843E+01  0.29984155444E+01  0.18726493475E+02  0.00000000000E+00 0.  1.
         11    1    3    3    0    0  0.24416479891E+02 -0.13735664427E+02  0.95591906403E+01  0.29600863052E+02  0.51100000000E-03 0. -1.
        -11    1    3    3    0    0 -0.10010074586E+02  0.21580598775E+02  0.56994497109E+01  0.24462370367E+02  0.51100000000E-03 0.  1.
        -12    1    3    3    0    0  0.13382342790E+01  0.18399707362E+01 -0.18257055896E+02  0.18398273106E+02  0.00000000000E+00 0.  1.
</event>
<event>
 7    1  0.1920603E-013  0.7246157E+02  0.7816164E-02  0.1226708E+00
        -11   -1    0    0    0    0  0.00000000000E+00  0.00000000000E+00  0.45593999997E+02  0.45594000000E+02  0.51100000000E-03 0.  1.
         11   -1    0    0    0    0 -0.00000000000E+00 -0.00000000000E+00 -0.45593999997E+02  0.45594000000E+02  0.51100000000E-03 0. -1.
    9900012    2    1    2    0    0  0.31150329855E+01 -0.18458236533E+02  0.51893947119E+00  0.72461568824E+02  0.69999998084E+02 0.  0.
        -12    1    1    2    0    0 -0.31150329855E+01  0.18458236533E+02 -0.51893947119E+00  0.18726431176E+02  0.00000000000E+00 0.  1.
         11    1    3    3    0    0  0.11999030385E+02 -0.92111121259E+01 -0.15512689830E+02  0.21667137854E+02  0.51100000000E-03 0. -1.
        -11    1    3    3    0    0  0.99631108170E+01  0.83079688725E+01  0.20883787697E+02  0.24584924502E+02  0.51100000000E-03 0.  1.
        -12    1    3    3    0    0 -0.18847108216E+02 -0.17555093280E+02 -0.48521583954E+01  0.26209506468E+02  0.00000000000E+00 0.  1.
</event>
<event>
 7    1  0.1920603E-013  0.7246162E+02  0.7816164E-02  0.1226708E+00
        -11   -1    0    0    0    0  0.00000000000E+00  0.00000000000E+00  0.45593999997E+02  0.45594000000E+02  0.51100000000E-03 0.  1.
         11   -1    0    0    0    0 -0.00000000000E+00 -0.00000000000E+00 -0.45593999997E+02  0.45594000000E+02  0.51100000000E-03 0. -1.
    9900012    2    1    2    0    0 -0.13297362533E+02 -0.36098495086E+01 -0.12681739220E+02  0.72461618250E+02  0.70000062472E+02 0.  0.
        -12    1    1    2    0    0  0.13297362533E+02  0.36098495086E+01  0.12681739220E+02  0.18726381750E+02  0.00000000000E+00 0.  1.
         11    1    3    3    0    0 -0.20591944098E+02 -0.76609824408E+01 -0.10562951192E+02  0.24378161371E+02  0.51100000000E-03 0. -1.
        -11    1    3    3    0    0  0.24250402200E+02  0.63736546196E+01 -0.12551547453E+02  0.28040093149E+02  0.51100000000E-03 0.  1.
        -12    1    3    3    0    0 -0.16955820635E+02 -0.23225216874E+01  0.10432759426E+02  0.20043363730E+02  0.00000000000E+00 0.  1.
</event>
<event>
 7    1  0.1920603E-013  0.7246161E+02  0.7816164E-02  0.1226708E+00
        -11   -1    0    0    0    0  0.00000000000E+00  0.00000000000E+00  0.45593999997E+02  0.45594000000E+02  0.51100000000E-03 0. -1.
         11   -1    0    0    0    0 -0.00000000000E+00 -0.00000000000E+00 -0.45593999997E+02  0.45594000000E+02  0.51100000000E-03 0.  1.
    9900012    2    1    2    0    0  0.14830759227E+02 -0.86038220812E+01  0.75299622122E+01  0.72461614749E+02  0.70000057911E+02 0.  0.
        -12    1    1    2    0    0 -0.14830759227E+02  0.86038220812E+01 -0.75299622122E+01  0.18726385251E+02  0.00000000000E+00 0.  1.
         11    1    3    3    0    0  0.97849845382E+01  0.20676729715E+02  0.37027574799E+01  0.23172904163E+02  0.51100000000E-03 0. -1.
        -11    1    3    3    0    0  0.20097007440E+02 -0.26589282821E+02 -0.71766133617E+00  0.33337587001E+02  0.51100000000E-03 0.  1.
        -12    1    3    3    0    0 -0.15051232752E+02 -0.26912689752E+01  0.45448660685E+01  0.15951123585E+02  0.00000000000E+00 0.  1.
</event>
<event>
 7    1  0.1920603E-013  0.7246158E+02  0.7816164E-02  0.1226708E+00
        -11   -1    0    0    0    0  0.00000000000E+00  0.00000000000E+00  0.45593999997E+02  0.45594000000E+02  0.51100000000E-03 0.  1.
         11   -1    0    0    0    0 -0.00000000000E+00 -0.00000000000E+00 -0.45593999997E+02  0.45594000000E+02  0.51100000000E-03 0. -1.
    9900012    2    1    2    0    0  0.76351351876E+01 -0.15510927026E+02 -0.71968531629E+01  0.72461579039E+02  0.70000011392E+02 0.  0.
        -12    1    1    2    0    0 -0.76351351876E+01  0.15510927026E+02  0.71968531629E+01  0.18726420961E+02  0.00000000000E+00 0.  1.
         11    1    3    3    0    0  0.23662739115E+02 -0.18328583115E+01 -0.15107082723E+01  0.23781649055E+02  0.51100000000E-03 0. -1.
        -11    1    3    3    0    0 -0.15135069826E+02  0.12634725071E+02 -0.98259397662E+01  0.22028520350E+02  0.51100000000E-03 0.  1.
        -12    1    3    3    0    0 -0.89253410146E+00 -0.26312793785E+02  0.41397948755E+01  0.26651409635E+02  0.00000000000E+00 0.  1.
</event>
<event>
 8    1  0.1920603E-013  0.7246149E+02  0.7816164E-02  0.1226708E+00
        -11   -1    0    0    0    0  0.00000000000E+00  0.00000000000E+00  0.45593999997E+02  0.45594000000E+02  0.51100000000E-03 0.  1.
         11   -1    0    0    0    0 -0.00000000000E+00 -0.00000000000E+00 -0.45593999997E+02  0.45594000000E+02  0.51100000000E-03 0. -1.
    9900012    2    1    2    0    0  0.12927508428E+02 -0.22265418800E+01 -0.13364295633E+02  0.72461485090E+02  0.69999889006E+02 0.  0.
        -24    2    3    3    0    0 -0.24921195051E+01  0.87846980883E+01 -0.84145512557E+01  0.52878014997E+02  0.51399398995E+02 0.  0.
        -12    1    1    2    0    0 -0.12927508428E+02  0.22265418800E+01  0.13364295633E+02  0.18726514910E+02  0.00000000000E+00 0.  1.
         11    1    4    4    0    0  0.60538780854E+01  0.15387413096E+02 -0.26837765741E+02  0.31522810660E+02  0.51100000000E-03 0. -1.
        -11    1    3    3    0    0  0.15419627933E+02 -0.11011239968E+02 -0.49497443775E+01  0.19583470093E+02  0.51100000000E-03 0.  1.
        -12    1    4    4    0    0 -0.85459975905E+01 -0.66027150076E+01  0.18423214486E+02  0.21355204337E+02  0.00000000000E+00 0.  1.
</event>
<event>
 7    1  0.1920603E-013  0.7246195E+02  0.7816164E-02  0.1226707E+00
        -11   -1    0    0    0    0  0.00000000000E+00  0.00000000000E+00  0.45593999997E+02  0.45594000000E+02  0.51100000000E-03 0.  1.
         11   -1    0    0    0    0 -0.00000000000E+00 -0.00000000000E+00 -0.45593999997E+02  0.45594000000E+02  0.51100000000E-03 0. -1.
    9900012    2    1    2    0    0 -0.36043654046E+01 -0.17690243358E+02 -0.49728184144E+01  0.72461946411E+02  0.70000489960E+02 0.  0.
        -12    1    1    2    0    0  0.36043654046E+01  0.17690243358E+02  0.49728184144E+01  0.18726053589E+02  0.00000000000E+00 0.  1.
         11    1    3    3    0    0 -0.25826542485E+02  0.89178594904E+00  0.84411317951E+01  0.27185626444E+02  0.51100000000E-03 0.  1.
        -11    1    3    3    0    0  0.25255612055E+02 -0.21723889896E+02 -0.23667902881E+01  0.33397230859E+02  0.51100000000E-03 0. -1.
         12    1    3    3    0    0 -0.30334349750E+01  0.31418605886E+01 -0.11047159921E+02  0.11879089108E+02  0.00000000000E+00 0. -1.
</event>
<event>
 7    1  0.1920603E-013  0.7246153E+02  0.7816164E-02  0.1226708E+00
        -11   -1    0    0    0    0  0.00000000000E+00  0.00000000000E+00  0.45593999997E+02  0.45594000000E+02  0.51100000000E-03 0. -1.
         11   -1    0    0    0    0 -0.00000000000E+00 -0.00000000000E+00 -0.45593999997E+02  0.45594000000E+02  0.51100000000E-03 0.  1.
    9900012    2    1    2    0    0 -0.15563922025E+02 -0.82020781157E+01  0.64164682224E+01  0.72461526262E+02  0.69999942640E+02 0.  0.
        -12    1    1    2    0    0  0.15563922025E+02  0.82020781157E+01 -0.64164682224E+01  0.18726473738E+02  0.00000000000E+00 0.  1.
         11    1    3    3    0    0 -0.12017670222E+02  0.10590426522E+01  0.26591133101E+02  0.29199902889E+02  0.51100000000E-03 0. -1.
        -11    1    3    3    0    0  0.26293721414E+01 -0.21861790929E+02 -0.19166901522E+02  0.29192834989E+02  0.51100000000E-03 0.  1.
        -12    1    3    3    0    0 -0.61756239443E+01  0.12600670161E+02 -0.10077633566E+01  0.14068788384E+02  0.00000000000E+00 0.  1.
</event>
<event>
 7    1  0.1920603E-013  0.7246158E+02  0.7816164E-02  0.1226708E+00
        -11   -1    0    0    0    0  0.00000000000E+00  0.00000000000E+00  0.45593999997E+02  0.45594000000E+02  0.51100000000E-03 0.  1.
         11   -1    0    0    0    0 -0.00000000000E+00 -0.00000000000E+00 -0.45593999997E+02  0.45594000000E+02  0.51100000000E-03 0. -1.
    9900012    2    1    2    0    0  0.10100259513E+02 -0.15620337034E+02 -0.21607232202E+01  0.72461577594E+02  0.70000009509E+02 0.  0.
        -12    1    1    2    0    0 -0.10100259513E+02  0.15620337034E+02  0.21607232202E+01  0.18726422406E+02  0.00000000000E+00 0.  1.
         11    1    3    3    0    0 -0.38446912253E+01 -0.75058086419E+01 -0.32733892373E+01  0.90462086726E+01  0.51100000000E-03 0. -1.
        -11    1    3    3    0    0  0.29922922546E+02 -0.18608303121E+02 -0.15113446065E+02  0.38341446125E+02  0.51100000000E-03 0.  1.
        -12    1    3    3    0    0 -0.15977971807E+02  0.10493774729E+02  0.16226112082E+02  0.25073922797E+02  0.00000000000E+00 0.  1.
</event>
<event>
 7    1  0.1920603E-013  0.7246186E+02  0.7816164E-02  0.1226707E+00
        -11   -1    0    0    0    0  0.00000000000E+00  0.00000000000E+00  0.45593999997E+02  0.45594000000E+02  0.51100000000E-03 0.  1.
         11   -1    0    0    0    0 -0.00000000000E+00 -0.00000000000E+00 -0.45593999997E+02  0.45594000000E+02  0.51100000000E-03 0. -1.
    9900012    2    1    2    0    0 -0.90946963507E+01  0.18177766120E+01 -0.16268083965E+02  0.72461858662E+02  0.70000375652E+02 0.  0.
        -12    1    1    2    0    0  0.90946963507E+01 -0.18177766120E+01  0.16268083965E+02  0.18726141338E+02  0.00000000000E+00 0.  1.
         11    1    3    3    0    0 -0.10468280894E+02 -0.99210457866E+01 -0.29503279123E+02  0.32839846736E+02  0.51100000000E-03 0. -1.
        -11    1    3    3    0    0  0.95343579921E+01 -0.10067226401E+02  0.69267065330E+01  0.15499428808E+02  0.51100000000E-03 0.  1.
         12    1    3    3    0    0 -0.81607734492E+01  0.21806048799E+02  0.63084886255E+01  0.24122583118E+02  0.00000000000E+00 0. -1.
</event>
<event>
 7    1  0.1920603E-013  0.7246160E+02  0.7816164E-02  0.1226708E+00
        -11   -1    0    0    0    0  0.00000000000E+00  0.00000000000E+00  0.45593999997E+02  0.45594000000E+02  0.51100000000E-03 0. -1.
         11   -1    0    0    0    0 -0.00000000000E+00 -0.00000000000E+00 -0.45593999997E+02  0.45594000000E+02  0.51100000000E-03 0.  1.
    9900012    2    1    2    0    0 -0.16815646709E+02  0.65085679812E+00  0.82151374169E+01  0.72461599610E+02  0.70000038189E+02 0.  0.
        -12    1    1    2    0    0  0.16815646709E+02 -0.65085679812E+00 -0.82151374169E+01  0.18726400390E+02  0.00000000000E+00 0.  1.
         11    1    3    3    0    0  0.12116004029E+02  0.87790965162E+01 -0.13371758666E+02  0.20066739131E+02  0.51100000000E-03 0.  1.
        -11    1    3    3    0    0 -0.32677496601E+02  0.58750607700E+01  0.13981961523E+02  0.36025412856E+02  0.51100000000E-03 0. -1.
        -12    1    3    3    0    0  0.37458458635E+01 -0.14003300488E+02  0.76049345607E+01  0.16369447622E+02  0.00000000000E+00 0.  1.
</event>
<event>
 7    1  0.1920603E-013  0.7246157E+02  0.7816164E-02  0.1226708E+00
        -11   -1    0    0    0    0  0.00000000000E+00  0.00000000000E+00  0.45593999997E+02  0.45594000000E+02  0.51100000000E-03 0.  1.
         11   -1    0    0    0    0 -0.00000000000E+00 -0.00000000000E+00 -0.45593999997E+02  0.45594000000E+02  0.51100000000E-03 0. -1.
    9900012    2    1    2    0    0  0.33730607144E+01  0.15490036205E+02 -0.99679647336E+01  0.72461572654E+02  0.70000003074E+02 0.  0.
        -12    1    1    2    0    0 -0.33730607144E+01 -0.15490036205E+02  0.99679647336E+01  0.18726427346E+02  0.00000000000E+00 0.  1.
         11    1    3    3    0    0  0.67661458094E+01  0.12317294561E+02 -0.22602738007E+02  0.26615413581E+02  0.51100000000E-03 0. -1.
        -11    1    3    3    0    0 -0.23384142892E+02  0.60867887484E+00  0.32614322766E+01  0.23618331218E+02  0.51100000000E-03 0.  1.
        -12    1    3    3    0    0  0.19991057797E+02  0.25640627694E+01  0.93733409969E+01  0.22227827855E+02  0.00000000000E+00 0.  1.
</event>
<event>
 7    1  0.1920603E-013  0.7246157E+02  0.7816164E-02  0.1226708E+00
        -11   -1    0    0    0    0  0.00000000000E+00  0.00000000000E+00  0.45593999997E+02  0.45594000000E+02  0.51100000000E-03 0.  1.
         11   -1    0    0    0    0 -0.00000000000E+00 -0.00000000000E+00 -0.45593999997E+02  0.45594000000E+02  0.51100000000E-03 0. -1.
    9900012    2    1    2    0    0  0.90392573759E+01 -0.45532119407E+01 -0.15755612788E+02  0.72461568220E+02  0.69999997298E+02 0.  0.
        -12    1    1    2    0    0 -0.90392573759E+01  0.45532119407E+01  0.15755612788E+02  0.18726431780E+02  0.00000000000E+00 0.  1.
         11    1    3    3    0    0 -0.12240255745E+02 -0.43819754459E+01 -0.32312442995E+02  0.34829865663E+02  0.51100000000E-03 0. -1.
        -11    1    3    3    0    0  0.10159866823E+01  0.20561930876E+01  0.17086009006E+02  0.17239253551E+02  0.51100000000E-03 0.  1.
         12    1    3    3    0    0  0.20263526439E+02 -0.22274295824E+01 -0.52917879904E+00  0.20392449006E+02  0.00000000000E+00 0. -1.
</event>
<event>
 7    1  0.1920603E-013  0.7246155E+02  0.7816164E-02  0.1226708E+00
        -11   -1    0    0    0    0  0.00000000000E+00  0.00000000000E+00  0.45593999997E+02  0.45594000000E+02  0.51100000000E-03 0. -1.
         11   -1    0    0    0    0 -0.00000000000E+00 -0.00000000000E+00 -0.45593999997E+02  0.45594000000E+02  0.51100000000E-03 0.  1.
    9900012    2    1    2    0    0 -0.65761352967E+01 -0.11413675327E+02  0.13310242875E+02  0.72461545309E+02  0.69999967452E+02 0.  0.
        -12    1    1    2    0    0  0.65761352967E+01  0.11413675327E+02 -0.13310242875E+02  0.18726454691E+02  0.00000000000E+00 0.  1.
         11    1    3    3    0    0 -0.24064864564E+02 -0.17716445296E+02 -0.24278525803E+01  0.29981404384E+02  0.51100000000E-03 0. -1.
        -11    1    3    3    0    0  0.28175032726E+02  0.45062982225E+01  0.10124246794E+02  0.30276055988E+02  0.51100000000E-03 0.  1.
        -12    1    3    3    0    0 -0.10686303459E+02  0.17964717467E+01  0.56138486615E+01  0.12204084937E+02  0.00000000000E+00 0.  1.
</event>
<event>
 7    1  0.1920603E-013  0.7246160E+02  0.7816164E-02  0.1226708E+00
        -11   -1    0    0    0    0  0.00000000000E+00  0.00000000000E+00  0.45593999997E+02  0.45594000000E+02  0.51100000000E-03 0.  1.
         11   -1    0    0    0    0 -0.00000000000E+00 -0.00000000000E+00 -0.45593999997E+02  0.45594000000E+02  0.51100000000E-03 0. -1.
    9900012    2    1    2    0    0 -0.11337859453E+01  0.16146835085E+02 -0.94165913840E+01  0.72461602933E+02  0.70000042518E+02 0.  0.
        -12    1    1    2    0    0  0.11337859453E+01 -0.16146835085E+02  0.94165913840E+01  0.18726397067E+02  0.00000000000E+00 0.  1.
         11    1    3    3    0    0 -0.70400256512E+01 -0.19160328846E+02  0.10504293164E+02  0.22956923527E+02  0.51100000000E-03 0. -1.
        -11    1    3    3    0    0 -0.48029584015E+01  0.28760785252E+02 -0.22326100188E+02  0.36724731824E+02  0.51100000000E-03 0.  1.
        -12    1    3    3    0    0  0.10709198108E+02  0.65463786796E+01  0.24052156400E+01  0.12779947582E+02  0.00000000000E+00 0.  1.
</event>
<event>
 7    1  0.1920603E-013  0.7246160E+02  0.7816164E-02  0.1226708E+00
        -11   -1    0    0    0    0  0.00000000000E+00  0.00000000000E+00  0.45593999997E+02  0.45594000000E+02  0.51100000000E-03 0. -1.
         11   -1    0    0    0    0 -0.00000000000E+00 -0.00000000000E+00 -0.45593999997E+02  0.45594000000E+02  0.51100000000E-03 0.  1.
    9900012    2    1    2    0    0  0.33404343852E+01  0.64238333391E+01  0.17270027925E+02  0.72461601489E+02  0.70000040637E+02 0.  0.
        -12    1    1    2    0    0 -0.33404343852E+01 -0.64238333391E+01 -0.17270027925E+02  0.18726398511E+02  0.00000000000E+00 0.  1.
         11    1    3    3    0    0 -0.65041048167E+01 -0.21133504111E+02 -0.28905152747E+01  0.22299853235E+02  0.51100000000E-03 0.  1.
        -11    1    3    3    0    0  0.89870414601E+01  0.24525584221E+02  0.30030691552E+02  0.39800925000E+02  0.51100000000E-03 0. -1.
        -12    1    3    3    0    0  0.85749774181E+00  0.30317532293E+01 -0.98701483518E+01  0.10360823254E+02  0.00000000000E+00 0.  1.
</event>
<event>
 7    1  0.1920603E-013  0.7246155E+02  0.7816164E-02  0.1226708E+00
        -11   -1    0    0    0    0  0.00000000000E+00  0.00000000000E+00  0.45593999997E+02  0.45594000000E+02  0.51100000000E-03 0. -1.
         11   -1    0    0    0    0 -0.00000000000E+00 -0.00000000000E+00 -0.45593999997E+02  0.45594000000E+02  0.51100000000E-03 0.  1.
    9900012    2    1    2    0    0  0.14310281373E+01 -0.86150976586E+01  0.16565387418E+02  0.72461553207E+02  0.69999977740E+02 0.  0.
        -12    1    1    2    0    0 -0.14310281373E+01  0.86150976586E+01 -0.16565387418E+02  0.18726446793E+02  0.00000000000E+00 0.  1.
         11    1    3    3    0    0 -0.12879491812E+02 -0.56263474098E+01  0.14440132524E+02  0.20150794577E+02  0.51100000000E-03 0. -1.
        -11    1    3    3    0    0  0.16869076899E+02 -0.24886592161E+02  0.32185956402E+01  0.30236858021E+02  0.51100000000E-03 0.  1.
        -12    1    3    3    0    0 -0.25585569500E+01  0.21897841913E+02 -0.10933407469E+01  0.22073900609E+02  0.00000000000E+00 0.  1.
</event>
<event>
 7    1  0.1920603E-013  0.7246152E+02  0.7816164E-02  0.1226708E+00
        -11   -1    0    0    0    0  0.00000000000E+00  0.00000000000E+00  0.45593999997E+02  0.45594000000E+02  0.51100000000E-03 0.  1.
         11   -1    0    0    0    0 -0.00000000000E+00 -0.00000000000E+00 -0.45593999997E+02  0.45594000000E+02  0.51100000000E-03 0. -1.
    9900012    2    1    2    0    0  0.15659609482E+01  0.75183383066E+01 -0.17079326393E+02  0.72461520496E+02  0.69999935128E+02 0.  0.
        -12    1    1    2    0    0 -0.15659609482E+01 -0.75183383066E+01  0.17079326393E+02  0.18726479504E+02  0.00000000000E+00 0.  1.
         11    1    3    3    0    0  0.18395745510E+02 -0.11336824234E+02  0.14648244319E+02  0.26105518544E+02  0.51100000000E-03 0. -1.
        -11    1    3    3    0    0 -0.10036881003E+02 -0.18825805031E+01 -0.17637466969E+02  0.20380464444E+02  0.51100000000E-03 0.  1.
         12    1    3    3    0    0 -0.67929035591E+01  0.20737743043E+02 -0.14090103743E+02  0.25975537507E+02  0.00000000000E+00 0. -1.
</event>
<event>
 7    1  0.1920603E-013  0.7246158E+02  0.7816164E-02  0.1226708E+00
        -11   -1    0    0    0    0  0.00000000000E+00  0.00000000000E+00  0.45593999997E+02  0.45594000000E+02  0.51100000000E-03 0. -1.
         11   -1    0    0    0    0 -0.00000000000E+00 -0.00000000000E+00 -0.45593999997E+02  0.45594000000E+02  0.51100000000E-03 0.  1.
    9900012    2    1    2    0    0  0.12285014134E+02 -0.10548063149E+02  0.94072121861E+01  0.72461578836E+02  0.70000011128E+02 0.  0.
        -12    1    1    2    0    0 -0.12285014134E+02  0.10548063149E+02 -0.94072121861E+01  0.18726421164E+02  0.00000000000E+00 0.  1.
         11    1    3    3    0    0  0.71322853787E+01  0.71310227282E+01 -0.10833731006E+02  0.14801712997E+02  0.51100000000E-03 0. -1.
        -11    1    3    3    0    0 -0.21765390291E+02 -0.12859562810E+02  0.33087829138E+01  0.25496050965E+02  0.51100000000E-03 0.  1.
        -12    1    3    3    0    0  0.26918119046E+02 -0.48195230673E+01  0.16932160278E+02  0.32163814875E+02  0.00000000000E+00 0.  1.
</event>
<event>
 7    1  0.1920603E-013  0.7246158E+02  0.7816164E-02  0.1226708E+00
        -11   -1    0    0    0    0  0.00000000000E+00  0.00000000000E+00  0.45593999997E+02  0.45594000000E+02  0.51100000000E-03 0.  1.
         11   -1    0    0    0    0 -0.00000000000E+00 -0.00000000000E+00 -0.45593999997E+02  0.45594000000E+02  0.51100000000E-03 0. -1.
    9900012    2    1    2    0    0  0.31984665092E+01 -0.34883313212E+01 -0.18118502311E+02  0.72461580977E+02  0.70000013917E+02 0.  0.
        -12    1    1    2    0    0 -0.31984665092E+01  0.34883313212E+01  0.18118502311E+02  0.18726419023E+02  0.00000000000E+00 0.  1.
         11    1    3    3    0    0 -0.24542538732E+02 -0.83856634635E+01 -0.83355419471E+01  0.27242188219E+02  0.51100000000E-03 0. -1.
        -11    1    3    3    0    0  0.11163094694E+02  0.11990374378E+02 -0.18901744775E+02  0.25013190853E+02  0.51100000000E-03 0.  1.
        -12    1    3    3    0    0  0.16577910548E+02 -0.70930422354E+01  0.91187844114E+01  0.20206201905E+02  0.00000000000E+00 0.  1.
</event>
<event>
 7    1  0.1920603E-013  0.7246154E+02  0.7816164E-02  0.1226708E+00
        -11   -1    0    0    0    0  0.00000000000E+00  0.00000000000E+00  0.45593999997E+02  0.45594000000E+02  0.51100000000E-03 0. -1.
         11   -1    0    0    0    0 -0.00000000000E+00 -0.00000000000E+00 -0.45593999997E+02  0.45594000000E+02  0.51100000000E-03 0.  1.
    9900012    2    1    2    0    0 -0.66132078215E+01  0.10446487259E+02  0.14064732702E+02  0.72461539584E+02  0.69999959994E+02 0.  0.
        -12    1    1    2    0    0  0.66132078215E+01 -0.10446487259E+02 -0.14064732702E+02  0.18726460416E+02  0.00000000000E+00 0.  1.
         11    1    3    3    0    0 -0.14719384817E+02  0.21928573628E+02  0.61364111441E+01  0.27114169225E+02  0.51100000000E-03 0. -1.
        -11    1    3    3    0    0  0.20038899265E+02 -0.50104667355E+01  0.18819661444E+02  0.27943548768E+02  0.51100000000E-03 0.  1.
        -12    1    3    3    0    0 -0.11932722269E+02 -0.64716196338E+01 -0.10891339886E+02  0.17403821590E+02  0.00000000000E+00 0.  1.
</event>
<event>
 7    1  0.1920603E-013  0.7246157E+02  0.7816164E-02  0.1226708E+00
        -11   -1    0    0    0    0  0.00000000000E+00  0.00000000000E+00  0.45593999997E+02  0.45594000000E+02  0.51100000000E-03 0. -1.
         11   -1    0    0    0    0 -0.00000000000E+00 -0.00000000000E+00 -0.45593999997E+02  0.45594000000E+02  0.51100000000E-03 0.  1.
    9900012    2    1    2    0    0 -0.45730681785E+01  0.14933880604E+02  0.10331760307E+02  0.72461574460E+02  0.70000005426E+02 0.  0.
        -12    1    1    2    0    0  0.45730681785E+01 -0.14933880604E+02 -0.10331760307E+02  0.18726425540E+02  0.00000000000E+00 0.  1.
         11    1    3    3    0    0 -0.56683126437E+01  0.49504197323E+01  0.74220900105E+01  0.10569950054E+02  0.51100000000E-03 0. -1.
        -11    1    3    3    0    0  0.12373765087E+02 -0.19878942920E+02  0.14943349654E+02  0.27777439284E+02  0.51100000000E-03 0.  1.
        -12    1    3    3    0    0 -0.11278520622E+02  0.29862403792E+02 -0.12033679358E+02  0.34114185122E+02  0.00000000000E+00 0.  1.
</event>
<event>
 7    1  0.1920603E-013  0.7246159E+02  0.7816164E-02  0.1226708E+00
        -11   -1    0    0    0    0  0.00000000000E+00  0.00000000000E+00  0.45593999997E+02  0.45594000000E+02  0.51100000000E-03 0. -1.
         11   -1    0    0    0    0 -0.00000000000E+00 -0.00000000000E+00 -0.45593999997E+02  0.45594000000E+02  0.51100000000E-03 0.  1.
    9900012    2    1    2    0    0 -0.80165297844E+01 -0.12938156129E+02  0.10909533815E+02  0.72461586519E+02  0.70000021135E+02 0.  0.
        -12    1    1    2    0    0  0.80165297844E+01  0.12938156129E+02 -0.10909533815E+02  0.18726413481E+02  0.00000000000E+00 0.  1.
         11    1    3    3    0    0  0.28795026516E+01  0.21028109237E+01  0.24343339825E+02  0.24603079958E+02  0.51100000000E-03 0. -1.
        -11    1    3    3    0    0  0.10861248821E+02 -0.19211903902E+02 -0.13176042894E+02  0.25703542248E+02  0.51100000000E-03 0.  1.
        -12    1    3    3    0    0 -0.21757281257E+02  0.41709368495E+01 -0.25776311604E+00  0.22154964313E+02  0.00000000000E+00 0.  1.
</event>
<event>
 7    1  0.1920603E-013  0.7246151E+02  0.7816164E-02  0.1226708E+00
        -11   -1    0    0    0    0  0.00000000000E+00  0.00000000000E+00  0.45593999997E+02  0.45594000000E+02  0.51100000000E-03 0. -1.
         11   -1    0    0    0    0 -0.00000000000E+00 -0.00000000000E+00 -0.45593999997E+02  0.45594000000E+02  0.51100000000E-03 0.  1.
    9900012    2    1    2    0    0 -0.99003001939E+01 -0.84850794416E+01  0.13441307817E+02  0.72461514134E+02  0.69999926840E+02 0.  0.
        -12    1    1    2    0    0  0.99003001939E+01  0.84850794416E+01 -0.13441307817E+02  0.18726485866E+02  0.00000000000E+00 0.  1.
         11    1    3    3    0    0  0.15223305528E+02 -0.24537241084E+02 -0.26804578992E+01  0.29000173897E+02  0.51100000000E-03 0. -1.
        -11    1    3    3    0    0 -0.11362338085E+02  0.77344209013E+01 -0.69003042506E+01  0.15379798193E+02  0.51100000000E-03 0.  1.
         12    1    3    3    0    0 -0.13761267637E+02  0.83177407411E+01  0.23022069967E+02  0.28081542044E+02  0.00000000000E+00 0. -1.
</event>
<event>
 7    1  0.1920603E-013  0.7246178E+02  0.7816164E-02  0.1226707E+00
        -11   -1    0    0    0    0  0.00000000000E+00  0.00000000000E+00  0.45593999997E+02  0.45594000000E+02  0.51100000000E-03 0.  1.
         11   -1    0    0    0    0 -0.00000000000E+00 -0.00000000000E+00 -0.45593999997E+02  0.45594000000E+02  0.51100000000E-03 0. -1.
    9900012    2    1    2    0    0  0.21721264366E+01  0.10356359030E+01 -0.18570965732E+02  0.72461776590E+02  0.70000268738E+02 0.  0.
        -12    1    1    2    0    0 -0.21721264366E+01 -0.10356359030E+01  0.18570965732E+02  0.18726223410E+02  0.00000000000E+00 0.  1.
         11    1    3    3    0    0  0.14449575338E+02  0.31042616064E+01  0.23143656968E+02  0.27460071480E+02  0.51100000000E-03 0.  1.
        -11    1    3    3    0    0 -0.12300952451E+02  0.20432894176E+01 -0.34677338346E+02  0.36851136452E+02  0.51100000000E-03 0. -1.
        -12    1    3    3    0    0  0.23503549393E-01 -0.41119151210E+01 -0.70372843537E+01  0.81505686583E+01  0.00000000000E+00 0.  1.
</event>
<event>
 7    1  0.1920603E-013  0.7246158E+02  0.7816164E-02  0.1226708E+00
        -11   -1    0    0    0    0  0.00000000000E+00  0.00000000000E+00  0.45593999997E+02  0.45594000000E+02  0.51100000000E-03 0.  1.
         11   -1    0    0    0    0 -0.00000000000E+00 -0.00000000000E+00 -0.45593999997E+02  0.45594000000E+02  0.51100000000E-03 0. -1.
    9900012    2    1    2    0    0  0.87416679757E+01 -0.48436962534E+01 -0.15836684376E+02  0.72461582179E+02  0.70000015481E+02 0.  0.
        -12    1    1    2    0    0 -0.87416679757E+01  0.48436962534E+01  0.15836684376E+02  0.18726417821E+02  0.00000000000E+00 0.  1.
         11    1    3    3    0    0 -0.48334140335E+01 -0.25877579322E+01  0.16489603554E+01  0.57251596353E+01  0.51100000000E-03 0. -1.
        -11    1    3    3    0    0  0.14736525212E+02 -0.10821154092E+02 -0.39260485932E+02  0.43308755548E+02  0.51100000000E-03 0.  1.
        -12    1    3    3    0    0 -0.11614432026E+01  0.85652157712E+01  0.21774841201E+02  0.23427666995E+02  0.00000000000E+00 0.  1.
</event>
<event>
 7    1  0.1920603E-013  0.7246157E+02  0.7816164E-02  0.1226708E+00
        -11   -1    0    0    0    0  0.00000000000E+00  0.00000000000E+00  0.45593999997E+02  0.45594000000E+02  0.51100000000E-03 0.  1.
         11   -1    0    0    0    0 -0.00000000000E+00 -0.00000000000E+00 -0.45593999997E+02  0.45594000000E+02  0.51100000000E-03 0. -1.
    9900012    2    1    2    0    0  0.50144645459E+01 -0.67907129233E+01 -0.16715878889E+02  0.72461568313E+02  0.69999997419E+02 0.  0.
        -12    1    1    2    0    0 -0.50144645459E+01  0.67907129233E+01  0.16715878889E+02  0.18726431687E+02  0.00000000000E+00 0.  1.
         11    1    3    3    0    0  0.17335046606E+02 -0.12044046483E+00  0.20747950658E+02  0.27036934063E+02  0.51100000000E-03 0. -1.
        -11    1    3    3    0    0 -0.47684688683E+01 -0.99930358228E+01 -0.54052669118E+01  0.12321362382E+02  0.51100000000E-03 0.  1.
         12    1    3    3    0    0 -0.75521131923E+01  0.33227633644E+01 -0.32058562636E+02  0.33103271867E+02  0.00000000000E+00 0. -1.
</event>
<event>
 7    1  0.1920603E-013  0.7246079E+02  0.7816164E-02  0.1226710E+00
        -11   -1    0    0    0    0  0.00000000000E+00  0.00000000000E+00  0.45593999997E+02  0.45594000000E+02  0.51100000000E-03 0.  1.
         11   -1    0    0    0    0 -0.00000000000E+00 -0.00000000000E+00 -0.45593999997E+02  0.45594000000E+02  0.51100000000E-03 0. -1.
    9900012    2    1    2    0    0 -0.11075358939E+02  0.14737658278E+02 -0.32933607589E+01  0.72460790591E+02  0.69998984285E+02 0.  0.
        -12    1    1    2    0    0  0.11075358939E+02 -0.14737658278E+02  0.32933607589E+01  0.18727209409E+02  0.00000000000E+00 0.  1.
         11    1    3    3    0    0 -0.21225555689E+02  0.22490737903E+02 -0.14300754591E+02  0.34071528992E+02  0.51100000000E-03 0. -1.
        -11    1    3    3    0    0 -0.37075418889E+01 -0.16805091132E+02 -0.20172524308E+01  0.17327038479E+02  0.51100000000E-03 0.  1.
         12    1    3    3    0    0  0.13857738638E+02  0.90520115063E+01  0.13024646263E+02  0.21062223120E+02  0.00000000000E+00 0. -1.
</event>
<event>
 7    1  0.1920603E-013  0.7246156E+02  0.7816164E-02  0.1226708E+00
        -11   -1    0    0    0    0  0.00000000000E+00  0.00000000000E+00  0.45593999997E+02  0.45594000000E+02  0.51100000000E-03 0. -1.
         11   -1    0    0    0    0 -0.00000000000E+00 -0.00000000000E+00 -0.45593999997E+02  0.45594000000E+02  0.51100000000E-03 0.  1.
    9900012    2    1    2    0    0  0.15850008894E+02  0.59232205377E+01 -0.80232356236E+01  0.72461557910E+02  0.69999983867E+02 0.  0.
        -12    1    1    2    0    0 -0.15850008894E+02 -0.59232205377E+01  0.80232356236E+01  0.18726442090E+02  0.00000000000E+00 0.  1.
         11    1    3    3    0    0  0.81368278373E+01  0.19359765082E+02 -0.22484383323E+02  0.30766149661E+02  0.51100000000E-03 0. -1.
        -11    1    3    3    0    0 -0.12071701698E+02 -0.14996481050E+02  0.75807713791E+01  0.20690300160E+02  0.51100000000E-03 0.  1.
         12    1    3    3    0    0  0.19784882755E+02  0.15599365053E+01  0.68803763205E+01  0.21005108089E+02  0.00000000000E+00 0. -1.
</event>
<event>
 7    1  0.1920603E-013  0.7246157E+02  0.7816164E-02  0.1226708E+00
        -11   -1    0    0    0    0  0.00000000000E+00  0.00000000000E+00  0.45593999997E+02  0.45594000000E+02  0.51100000000E-03 0.  1.
         11   -1    0    0    0    0 -0.00000000000E+00 -0.00000000000E+00 -0.45593999997E+02  0.45594000000E+02  0.51100000000E-03 0. -1.
    9900012    2    1    2    0    0  0.12925956256E+02 -0.93618384065E+01 -0.97956617918E+01  0.72461565384E+02  0.69999993603E+02 0.  0.
        -12    1    1    2    0    0 -0.12925956256E+02  0.93618384065E+01  0.97956617918E+01  0.18726434616E+02  0.00000000000E+00 0.  1.
         11    1    3    3    0    0 -0.88350605718E+00  0.55221070867E+01 -0.96054790748E+01  0.11114831449E+02  0.51100000000E-03 0. -1.
        -11    1    3    3    0    0  0.34635773526E+01 -0.12442343501E+02  0.28208017292E+02  0.31024192490E+02  0.51100000000E-03 0.  1.
        -12    1    3    3    0    0  0.10345884961E+02 -0.24416019922E+01 -0.28398200009E+02  0.30322541444E+02  0.00000000000E+00 0.  1.
</event>
<event>
 7    1  0.1920603E-013  0.7246155E+02  0.7816164E-02  0.1226708E+00
        -11   -1    0    0    0    0  0.00000000000E+00  0.00000000000E+00  0.45593999997E+02  0.45594000000E+02  0.51100000000E-03 0. -1.
         11   -1    0    0    0    0 -0.00000000000E+00 -0.00000000000E+00 -0.45593999997E+02  0.45594000000E+02  0.51100000000E-03 0.  1.
    9900012    2    1    2    0    0  0.26369715153E+01  0.17959522767E+02  0.46023551313E+01  0.72461554808E+02  0.69999979826E+02 0.  0.
        -12    1    1    2    0    0 -0.26369715153E+01 -0.17959522767E+02 -0.46023551313E+01  0.18726445192E+02  0.00000000000E+00 0.  1.
         11    1    3    3    0    0  0.23434463046E+02 -0.78784388086E+01 -0.51805486736E+01  0.25260283868E+02  0.51100000000E-03 0. -1.
        -11    1    3    3    0    0  0.46555136125E+00  0.20390442073E+02 -0.46660296590E+01  0.20922683839E+02  0.51100000000E-03 0.  1.
         12    1    3    3    0    0 -0.21263042891E+02  0.54475195023E+01  0.14448933464E+02  0.26278587100E+02  0.00000000000E+00 0. -1.
</event>
<event>
 7    1  0.1920603E-013  0.7246143E+02  0.7816164E-02  0.1226708E+00
        -11   -1    0    0    0    0  0.00000000000E+00  0.00000000000E+00  0.45593999997E+02  0.45594000000E+02  0.51100000000E-03 0.  1.
         11   -1    0    0    0    0 -0.00000000000E+00 -0.00000000000E+00 -0.45593999997E+02  0.45594000000E+02  0.51100000000E-03 0. -1.
    9900012    2    1    2    0    0  0.64062869585E+01 -0.27994401749E+01 -0.17372590243E+02  0.72461434120E+02  0.69999822608E+02 0.  0.
        -12    1    1    2    0    0 -0.64062869585E+01  0.27994401749E+01  0.17372590243E+02  0.18726565880E+02  0.00000000000E+00 0.  1.
         11    1    3    3    0    0 -0.75909008708E+01  0.16145518955E+02 -0.32792949261E+02  0.37331984676E+02  0.51100000000E-03 0. -1.
        -11    1    3    3    0    0  0.40534474457E+01 -0.93064516402E+01  0.18353704492E+02  0.20973768072E+02  0.51100000000E-03 0.  1.
        -12    1    3    3    0    0  0.99437403837E+01 -0.96385074894E+01 -0.29333454737E+01  0.14155681372E+02  0.00000000000E+00 0.  1.
</event>
<event>
 7    1  0.1920603E-013  0.7246157E+02  0.7816164E-02  0.1226708E+00
        -11   -1    0    0    0    0  0.00000000000E+00  0.00000000000E+00  0.45593999997E+02  0.45594000000E+02  0.51100000000E-03 0. -1.
         11   -1    0    0    0    0 -0.00000000000E+00 -0.00000000000E+00 -0.45593999997E+02  0.45594000000E+02  0.51100000000E-03 0.  1.
    9900012    2    1    2    0    0 -0.98441739114E+01  0.60718407006E+01  0.14727662480E+02  0.72461573442E+02  0.70000004101E+02 0.  0.
        -12    1    1    2    0    0  0.98441739114E+01 -0.60718407006E+01 -0.14727662480E+02  0.18726426558E+02  0.00000000000E+00 0.  1.
         11    1    3    3    0    0  0.15400251378E+02  0.74223251099E+01  0.28619189303E+02  0.33336416262E+02  0.51100000000E-03 0. -1.
        -11    1    3    3    0    0 -0.19048248255E+01  0.48715706214E+01 -0.14026470865E+02  0.14970051540E+02  0.51100000000E-03 0.  1.
         12    1    3    3    0    0 -0.23339600463E+02 -0.62220550307E+01  0.13494404181E+00  0.24155105640E+02  0.00000000000E+00 0. -1.
</event>
<event>
 7    1  0.1920603E-013  0.7246154E+02  0.7816164E-02  0.1226708E+00
        -11   -1    0    0    0    0  0.00000000000E+00  0.00000000000E+00  0.45593999997E+02  0.45594000000E+02  0.51100000000E-03 0. -1.
         11   -1    0    0    0    0 -0.00000000000E+00 -0.00000000000E+00 -0.45593999997E+02  0.45594000000E+02  0.51100000000E-03 0.  1.
    9900012    2    1    2    0    0 -0.51455871883E+01 -0.17965848817E+02  0.11964836030E+01  0.72461538395E+02  0.69999958445E+02 0.  0.
        -12    1    1    2    0    0  0.51455871883E+01  0.17965848817E+02 -0.11964836030E+01  0.18726461605E+02  0.00000000000E+00 0.  1.
         11    1    3    3    0    0 -0.18856595979E+02 -0.19590054235E+02  0.23150034987E+02  0.35710860491E+02  0.51100000000E-03 0. -1.
        -11    1    3    3    0    0  0.28449876093E+01  0.70356159415E+01  0.36455719567E+01  0.84192660800E+01  0.51100000000E-03 0.  1.
         12    1    3    3    0    0  0.10866021181E+02 -0.54114105229E+01 -0.25599123340E+02  0.28331411824E+02  0.00000000000E+00 0. -1.
</event>
<event>
 7    1  0.1920603E-013  0.7246157E+02  0.7816164E-02  0.1226708E+00
        -11   -1    0    0    0    0  0.00000000000E+00  0.00000000000E+00  0.45593999997E+02  0.45594000000E+02  0.51100000000E-03 0. -1.
         11   -1    0    0    0    0 -0.00000000000E+00 -0.00000000000E+00 -0.45593999997E+02  0.45594000000E+02  0.51100000000E-03 0.  1.
    9900012    2    1    2    0    0  0.17440139099E+02  0.59237286990E+01  0.33808547087E+01  0.72461569693E+02  0.69999999216E+02 0.  0.
        -12    1    1    2    0    0 -0.17440139099E+02 -0.59237286990E+01 -0.33808547087E+01  0.18726430307E+02  0.00000000000E+00 0.  1.
         11    1    3    3    0    0  0.15469446661E+02  0.16933888751E+02 -0.10364063942E+02  0.25168913165E+02  0.51100000000E-03 0. -1.
        -11    1    3    3    0    0 -0.19637966817E+02  0.22556994851E+01  0.42602425064E+01  0.20220969001E+02  0.51100000000E-03 0.  1.
        -12    1    3    3    0    0  0.21608659254E+02 -0.13265859537E+02  0.94846761446E+01  0.27071687527E+02  0.00000000000E+00 0.  1.
</event>
<event>
 7    1  0.1920603E-013  0.7246156E+02  0.7816164E-02  0.1226708E+00
        -11   -1    0    0    0    0  0.00000000000E+00  0.00000000000E+00  0.45593999997E+02  0.45594000000E+02  0.51100000000E-03 0. -1.
         11   -1    0    0    0    0 -0.00000000000E+00 -0.00000000000E+00 -0.45593999997E+02  0.45594000000E+02  0.51100000000E-03 0.  1.
    9900012    2    1    2    0    0 -0.55921290287E+01 -0.80738728624E+01  0.15944280414E+02  0.72461563927E+02  0.69999991706E+02 0.  0.
        -12    1    1    2    0    0  0.55921290287E+01  0.80738728624E+01 -0.15944280414E+02  0.18726436073E+02  0.00000000000E+00 0.  1.
         11    1    3    3    0    0 -0.19305668935E+02 -0.22012254246E+02  0.10411816074E+02  0.31074975531E+02  0.51100000000E-03 0. -1.
        -11    1    3    3    0    0  0.24796350899E+02  0.45570485089E+01 -0.14934706113E+01  0.25255814455E+02  0.51100000000E-03 0.  1.
        -12    1    3    3    0    0 -0.11082810993E+02  0.93813328747E+01  0.70259349511E+01  0.16130773941E+02  0.00000000000E+00 0.  1.
</event>
<event>
 7    1  0.1920603E-013  0.7246151E+02  0.7816164E-02  0.1226708E+00
        -11   -1    0    0    0    0  0.00000000000E+00  0.00000000000E+00  0.45593999997E+02  0.45594000000E+02  0.51100000000E-03 0.  1.
         11   -1    0    0    0    0 -0.00000000000E+00 -0.00000000000E+00 -0.45593999997E+02  0.45594000000E+02  0.51100000000E-03 0. -1.
    9900012    2    1    2    0    0  0.11961169830E+02  0.10951116616E+02 -0.93640199185E+01  0.72461510530E+02  0.69999922145E+02 0.  0.
        -12    1    1    2    0    0 -0.11961169830E+02 -0.10951116616E+02  0.93640199185E+01  0.18726489470E+02  0.00000000000E+00 0.  1.
         11    1    3    3    0    0  0.30975437246E+02  0.20755299936E+02  0.88898468216E+01  0.38331313110E+02  0.51100000000E-03 0. -1.
        -11    1    3    3    0    0  0.55024630573E+00 -0.92444970474E+01 -0.61683371822E+01  0.11127078705E+02  0.51100000000E-03 0.  1.
         12    1    3    3    0    0 -0.19564513721E+02 -0.55968627212E+00 -0.12085529558E+02  0.23003118714E+02  0.00000000000E+00 0. -1.
</event>
<event>
 7    1  0.1920603E-013  0.7246149E+02  0.7816164E-02  0.1226708E+00
        -11   -1    0    0    0    0  0.00000000000E+00  0.00000000000E+00  0.45593999997E+02  0.45594000000E+02  0.51100000000E-03 0.  1.
         11   -1    0    0    0    0 -0.00000000000E+00 -0.00000000000E+00 -0.45593999997E+02  0.45594000000E+02  0.51100000000E-03 0. -1.
    9900012    2    1    2    0    0  0.58593831846E+01  0.55966487973E+01 -0.16882753033E+02  0.72461489405E+02  0.69999894627E+02 0.  0.
        -12    1    1    2    0    0 -0.58593831846E+01 -0.55966487973E+01  0.16882753033E+02  0.18726510595E+02  0.00000000000E+00 0.  1.
         11    1    3    3    0    0 -0.97518488291E+01  0.12591529908E+02 -0.23104819450E+02  0.28062035975E+02  0.51100000000E-03 0. -1.
        -11    1    3    3    0    0  0.21045850930E+02  0.90187331077E+01  0.12826676354E+02  0.26244790241E+02  0.51100000000E-03 0.  1.
         12    1    3    3    0    0 -0.54346189159E+01 -0.16013614218E+02 -0.66046099379E+01  0.18154663190E+02  0.00000000000E+00 0. -1.
</event>
<event>
 7    1  0.1920603E-013  0.7246152E+02  0.7816164E-02  0.1226708E+00
        -11   -1    0    0    0    0  0.00000000000E+00  0.00000000000E+00  0.45593999997E+02  0.45594000000E+02  0.51100000000E-03 0. -1.
         11   -1    0    0    0    0 -0.00000000000E+00 -0.00000000000E+00 -0.45593999997E+02  0.45594000000E+02  0.51100000000E-03 0.  1.
    9900012    2    1    2    0    0  0.90862078474E+00 -0.18634162046E+02  0.16197209817E+01  0.72461519206E+02  0.69999933448E+02 0.  0.
        -12    1    1    2    0    0 -0.90862078474E+00  0.18634162046E+02 -0.16197209817E+01  0.18726480794E+02  0.00000000000E+00 0.  1.
         11    1    3    3    0    0 -0.42582343976E+01  0.15641247574E+01  0.22368472590E+02  0.22823838693E+02  0.51100000000E-03 0. -1.
        -11    1    3    3    0    0 -0.12540879545E+01  0.57573767486E+01 -0.22093546528E+02  0.22865802458E+02  0.51100000000E-03 0.  1.
         12    1    3    3    0    0  0.64209431368E+01 -0.25955663552E+02  0.13447949198E+01  0.26771878054E+02  0.00000000000E+00 0. -1.
</event>
<event>
 7    1  0.1920603E-013  0.7246173E+02  0.7816164E-02  0.1226708E+00
        -11   -1    0    0    0    0  0.00000000000E+00  0.00000000000E+00  0.45593999997E+02  0.45594000000E+02  0.51100000000E-03 0.  1.
         11   -1    0    0    0    0 -0.00000000000E+00 -0.00000000000E+00 -0.45593999997E+02  0.45594000000E+02  0.51100000000E-03 0. -1.
    9900012    2    1    2    0    0  0.15469129405E+02 -0.10112628022E+02  0.30189168245E+01  0.72461733184E+02  0.70000212194E+02 0.  0.
        -12    1    1    2    0    0 -0.15469129405E+02  0.10112628022E+02 -0.30189168245E+01  0.18726266816E+02  0.00000000000E+00 0.  1.
         11    1    3    3    0    0 -0.62224965135E+01 -0.20007367620E+01  0.29214083887E+02  0.29936350948E+02  0.51100000000E-03 0.  1.
        -11    1    3    3    0    0  0.71584974843E+00 -0.86803972781E+01 -0.18003369568E+02  0.19999576341E+02  0.51100000000E-03 0. -1.
         12    1    3    3    0    0  0.20975776170E+02  0.56850601783E+00 -0.81917974947E+01  0.22525805895E+02  0.00000000000E+00 0. -1.
</event>
<event>
 7    1  0.1920603E-013  0.7246160E+02  0.7816164E-02  0.1226708E+00
        -11   -1    0    0    0    0  0.00000000000E+00  0.00000000000E+00  0.45593999997E+02  0.45594000000E+02  0.51100000000E-03 0. -1.
         11   -1    0    0    0    0 -0.00000000000E+00 -0.00000000000E+00 -0.45593999997E+02  0.45594000000E+02  0.51100000000E-03 0.  1.
    9900012    2    1    2    0    0 -0.13187763828E+02 -0.10006378807E+02 -0.87540525451E+01  0.72461597047E+02  0.70000034850E+02 0.  0.
        -12    1    1    2    0    0  0.13187763828E+02  0.10006378807E+02  0.87540525451E+01  0.18726402953E+02  0.00000000000E+00 0.  1.
         11    1    3    3    0    0  0.70874077262E+01 -0.22178818823E+02  0.12629996846E+02  0.26488642345E+02  0.51100000000E-03 0. -1.
        -11    1    3    3    0    0 -0.90389241438E+00  0.19841853068E+02 -0.10504538111E+02  0.22469122722E+02  0.51100000000E-03 0.  1.
        -12    1    3    3    0    0 -0.19371279140E+02 -0.76694130517E+01 -0.10879511280E+02  0.23503831980E+02  0.00000000000E+00 0.  1.
</event>
<event>
 7    1  0.1920603E-013  0.7246159E+02  0.7816164E-02  0.1226708E+00
        -11   -1    0    0    0    0  0.00000000000E+00  0.00000000000E+00  0.45593999997E+02  0.45594000000E+02  0.51100000000E-03 0.  1.
         11   -1    0    0    0    0 -0.00000000000E+00 -0.00000000000E+00 -0.45593999997E+02  0.45594000000E+02  0.51100000000E-03 0. -1.
    9900012    2    1    2    0    0 -0.15044758647E+02 -0.98835574834E+01 -0.51622544979E+01  0.72461592369E+02  0.70000028756E+02 0.  0.
        -12    1    1    2    0    0  0.15044758647E+02  0.98835574834E+01  0.51622544979E+01  0.18726407631E+02  0.00000000000E+00 0.  1.
         11    1    3    3    0    0  0.94336399965E+01 -0.17935962654E+02 -0.26366567754E+02  0.33254897614E+02  0.51100000000E-03 0. -1.
        -11    1    3    3    0    0 -0.85888346807E+01  0.12842072241E+02  0.14870408379E+02  0.21443319385E+02  0.51100000000E-03 0.  1.
         12    1    3    3    0    0 -0.15889563963E+02 -0.47896670706E+01  0.63339048771E+01  0.17763375371E+02  0.00000000000E+00 0. -1.
</event>
<event>
 7    1  0.1920603E-013  0.7246156E+02  0.7816164E-02  0.1226708E+00
        -11   -1    0    0    0    0  0.00000000000E+00  0.00000000000E+00  0.45593999997E+02  0.45594000000E+02  0.51100000000E-03 0. -1.
         11   -1    0    0    0    0 -0.00000000000E+00 -0.00000000000E+00 -0.45593999997E+02  0.45594000000E+02  0.51100000000E-03 0.  1.
    9900012    2    1    2    0    0 -0.10103680271E+02 -0.62560199575E+01  0.14472646994E+02  0.72461557419E+02  0.69999983228E+02 0.  0.
        -12    1    1    2    0    0  0.10103680271E+02  0.62560199575E+01 -0.14472646994E+02  0.18726442581E+02  0.00000000000E+00 0.  1.
         11    1    3    3    0    0  0.93576965121E+01 -0.27676351137E+02  0.22316692552E+02  0.36763863549E+02  0.51100000000E-03 0. -1.
        -11    1    3    3    0    0 -0.20645567642E+02  0.19543944342E+02 -0.12100964394E+02  0.30897225818E+02  0.51100000000E-03 0.  1.
        -12    1    3    3    0    0  0.11841908591E+01  0.18763868377E+01  0.42569188350E+01  0.48004680525E+01  0.00000000000E+00 0.  1.
</event>
<event>
 7    1  0.1920603E-013  0.7246167E+02  0.7816164E-02  0.1226708E+00
        -11   -1    0    0    0    0  0.00000000000E+00  0.00000000000E+00  0.45593999997E+02  0.45594000000E+02  0.51100000000E-03 0. -1.
         11   -1    0    0    0    0 -0.00000000000E+00 -0.00000000000E+00 -0.45593999997E+02  0.45594000000E+02  0.51100000000E-03 0.  1.
    9900012    2    1    2    0    0 -0.83882237030E+01 -0.16700019711E+02 -0.11927511031E+01  0.72461665323E+02  0.70000123793E+02 0.  0.
        -12    1    1    2    0    0  0.83882237030E+01  0.16700019711E+02  0.11927511031E+01  0.18726334677E+02  0.00000000000E+00 0.  1.
         11    1    3    3    0    0 -0.13522404524E+02 -0.36585368598E+02 -0.77074778723E+01  0.39758644783E+02  0.51100000000E-03 0. -1.
        -11    1    3    3    0    0 -0.32298214614E+01  0.22142760973E+02  0.93146316582E+00  0.22396455838E+02  0.51100000000E-03 0.  1.
         12    1    3    3    0    0  0.83640022825E+01 -0.22574120857E+01  0.55832636034E+01  0.10306564703E+02  0.00000000000E+00 0. -1.
</event>
<event>
 7    1  0.1920603E-013  0.7246161E+02  0.7816164E-02  0.1226708E+00
        -11   -1    0    0    0    0  0.00000000000E+00  0.00000000000E+00  0.45593999997E+02  0.45594000000E+02  0.51100000000E-03 0. -1.
         11   -1    0    0    0    0 -0.00000000000E+00 -0.00000000000E+00 -0.45593999997E+02  0.45594000000E+02  0.51100000000E-03 0.  1.
    9900012    2    1    2    0    0 -0.54830921715E+01  0.60494320058E+01  0.16852825963E+02  0.72461610324E+02  0.70000052147E+02 0.  0.
        -12    1    1    2    0    0  0.54830921715E+01 -0.60494320058E+01 -0.16852825963E+02  0.18726389676E+02  0.00000000000E+00 0.  1.
         11    1    3    3    0    0 -0.24916815923E+02 -0.12907245519E+02 -0.76550244337E+01  0.29086837262E+02  0.51100000000E-03 0. -1.
        -11    1    3    3    0    0  0.14621814732E+02  0.20959843850E+02  0.91305877895E+01  0.27138167844E+02  0.51100000000E-03 0.  1.
         12    1    3    3    0    0  0.48119090188E+01 -0.20031663255E+01  0.15377262607E+02  0.16236605218E+02  0.00000000000E+00 0. -1.
</event>
<event>
 7    1  0.1920603E-013  0.7246156E+02  0.7816164E-02  0.1226708E+00
        -11   -1    0    0    0    0  0.00000000000E+00  0.00000000000E+00  0.45593999997E+02  0.45594000000E+02  0.51100000000E-03 0.  1.
         11   -1    0    0    0    0 -0.00000000000E+00 -0.00000000000E+00 -0.45593999997E+02  0.45594000000E+02  0.51100000000E-03 0. -1.
    9900012    2    1    2    0    0 -0.10345974008E+02  0.15111704981E+02  0.39085467183E+01  0.72461560321E+02  0.69999987008E+02 0.  0.
        -12    1    1    2    0    0  0.10345974008E+02 -0.15111704981E+02 -0.39085467183E+01  0.18726439679E+02  0.00000000000E+00 0.  1.
         11    1    3    3    0    0  0.16490551739E+02 -0.83677604392E+01 -0.62629210104E+00  0.18502701248E+02  0.51100000000E-03 0. -1.
        -11    1    3    3    0    0 -0.12207591524E+02  0.27779996701E+02 -0.10919218800E+02  0.32248765046E+02  0.51100000000E-03 0.  1.
         12    1    3    3    0    0 -0.14628934223E+02 -0.43005312810E+01  0.15454057619E+02  0.21710094027E+02  0.00000000000E+00 0. -1.
</event>
<event>
 7    1  0.1920603E-013  0.7246158E+02  0.7816164E-02  0.1226708E+00
        -11   -1    0    0    0    0  0.00000000000E+00  0.00000000000E+00  0.45593999997E+02  0.45594000000E+02  0.51100000000E-03 0.  1.
         11   -1    0    0    0    0 -0.00000000000E+00 -0.00000000000E+00 -0.45593999997E+02  0.45594000000E+02  0.51100000000E-03 0. -1.
    9900012    2    1    2    0    0  0.81231975519E+01 -0.16699251422E+02  0.24140390484E+01  0.72461576928E+02  0.70000008642E+02 0.  0.
        -12    1    1    2    0    0 -0.81231975519E+01  0.16699251422E+02 -0.24140390484E+01  0.18726423072E+02  0.00000000000E+00 0.  1.
         11    1    3    3    0    0  0.11046234934E+02 -0.19087893193E+02 -0.15145011314E+02  0.26753286540E+02  0.51100000000E-03 0. -1.
        -11    1    3    3    0    0 -0.18604633326E+02  0.49181569588E+01  0.21986397293E+02  0.29218526918E+02  0.51100000000E-03 0.  1.
        -12    1    3    3    0    0  0.15681595944E+02 -0.25295151881E+01 -0.44273469311E+01  0.16489763470E+02  0.00000000000E+00 0.  1.
</event>
<event>
 7    1  0.1920603E-013  0.7246156E+02  0.7816164E-02  0.1226708E+00
        -11   -1    0    0    0    0  0.00000000000E+00  0.00000000000E+00  0.45593999997E+02  0.45594000000E+02  0.51100000000E-03 0.  1.
         11   -1    0    0    0    0 -0.00000000000E+00 -0.00000000000E+00 -0.45593999997E+02  0.45594000000E+02  0.51100000000E-03 0. -1.
    9900012    2    1    2    0    0 -0.58724776557E+01  0.12437966885E+02 -0.12707898995E+02  0.72461555839E+02  0.69999981170E+02 0.  0.
        -12    1    1    2    0    0  0.58724776557E+01 -0.12437966885E+02  0.12707898995E+02  0.18726444161E+02  0.00000000000E+00 0.  1.
         11    1    3    3    0    0  0.14510044106E+02 -0.19153212186E+01 -0.31562782283E+02  0.34791077320E+02  0.51100000000E-03 0. -1.
        -11    1    3    3    0    0 -0.13076893541E+02  0.17731855934E+02  0.65836081488E+01  0.22994950664E+02  0.51100000000E-03 0.  1.
         12    1    3    3    0    0 -0.73056282215E+01 -0.33785678305E+01  0.12271275139E+02  0.14675527856E+02  0.00000000000E+00 0. -1.
</event>
<event>
 7    1  0.1920603E-013  0.7246152E+02  0.7816164E-02  0.1226708E+00
        -11   -1    0    0    0    0  0.00000000000E+00  0.00000000000E+00  0.45593999997E+02  0.45594000000E+02  0.51100000000E-03 0.  1.
         11   -1    0    0    0    0 -0.00000000000E+00 -0.00000000000E+00 -0.45593999997E+02  0.45594000000E+02  0.51100000000E-03 0. -1.
    9900012    2    1    2    0    0  0.78438287129E+01 -0.19131863576E+01 -0.16896597620E+02  0.72461522968E+02  0.69999938348E+02 0.  0.
        -12    1    1    2    0    0 -0.78438287129E+01  0.19131863576E+01  0.16896597620E+02  0.18726477032E+02  0.00000000000E+00 0.  1.
         11    1    3    3    0    0  0.12845414890E+02 -0.95613644906E+01 -0.40472155966E+02  0.43524932894E+02  0.51100000000E-03 0. -1.
        -11    1    3    3    0    0  0.40911857414E+01 -0.10184119381E+01  0.57801473021E+01  0.71543739587E+01  0.51100000000E-03 0.  1.
         12    1    3    3    0    0 -0.90927719188E+01  0.86665900711E+01  0.17795411045E+02  0.21782216115E+02  0.00000000000E+00 0. -1.
</event>
<event>
 7    1  0.1920603E-013  0.7246157E+02  0.7816164E-02  0.1226708E+00
        -11   -1    0    0    0    0  0.00000000000E+00  0.00000000000E+00  0.45593999997E+02  0.45594000000E+02  0.51100000000E-03 0.  1.
         11   -1    0    0    0    0 -0.00000000000E+00 -0.00000000000E+00 -0.45593999997E+02  0.45594000000E+02  0.51100000000E-03 0. -1.
    9900012    2    1    2    0    0  0.12248605070E+02 -0.11300962532E+02 -0.85404356372E+01  0.72461571585E+02  0.70000001682E+02 0.  0.
        -12    1    1    2    0    0 -0.12248605070E+02  0.11300962532E+02  0.85404356372E+01  0.18726428415E+02  0.00000000000E+00 0.  1.
         11    1    3    3    0    0 -0.16488113487E+02 -0.59848202667E+01 -0.93543382968E+01  0.19879124860E+02  0.51100000000E-03 0. -1.
        -11    1    3    3    0    0  0.39472336706E+02 -0.99491488557E+01  0.24263200618E+01  0.40779136299E+02  0.51100000000E-03 0.  1.
        -12    1    3    3    0    0 -0.10735618150E+02  0.46330065908E+01 -0.16124174021E+01  0.11803310426E+02  0.00000000000E+00 0.  1.
</event>
<event>
 7    1  0.1920603E-013  0.7246159E+02  0.7816164E-02  0.1226708E+00
        -11   -1    0    0    0    0  0.00000000000E+00  0.00000000000E+00  0.45593999997E+02  0.45594000000E+02  0.51100000000E-03 0. -1.
         11   -1    0    0    0    0 -0.00000000000E+00 -0.00000000000E+00 -0.45593999997E+02  0.45594000000E+02  0.51100000000E-03 0.  1.
    9900012    2    1    2    0    0  0.10316467436E+02 -0.12534067545E+02  0.93351968253E+01  0.72461594863E+02  0.70000032006E+02 0.  0.
        -12    1    1    2    0    0 -0.10316467436E+02  0.12534067545E+02 -0.93351968253E+01  0.18726405137E+02  0.00000000000E+00 0.  1.
         11    1    3    3    0    0  0.13889194805E+02  0.17684305254E+01 -0.15453353082E+02  0.20852894298E+02  0.51100000000E-03 0. -1.
        -11    1    3    3    0    0  0.83134248637E+01 -0.13536748003E+02  0.33349981968E+02  0.36940193245E+02  0.51100000000E-03 0.  1.
        -12    1    3    3    0    0 -0.11886152233E+02 -0.76575006664E+00 -0.85614320611E+01  0.14668507320E+02  0.00000000000E+00 0.  1.
</event>
<event>
 7    1  0.1920603E-013  0.7246154E+02  0.7816164E-02  0.1226708E+00
        -11   -1    0    0    0    0  0.00000000000E+00  0.00000000000E+00  0.45593999997E+02  0.45594000000E+02  0.51100000000E-03 0.  1.
         11   -1    0    0    0    0 -0.00000000000E+00 -0.00000000000E+00 -0.45593999997E+02  0.45594000000E+02  0.51100000000E-03 0. -1.
    9900012    2    1    2    0    0 -0.57332359607E+01  0.17827047661E+02  0.82420414711E-01  0.72461537013E+02  0.69999956645E+02 0.  0.
        -12    1    1    2    0    0  0.57332359607E+01 -0.17827047661E+02 -0.82420414711E-01  0.18726462987E+02  0.00000000000E+00 0.  1.
         11    1    3    3    0    0 -0.23002764426E+02 -0.88629742018E+01  0.17483701694E+02  0.30221834956E+02  0.51100000000E-03 0. -1.
        -11    1    3    3    0    0  0.34520739676E+01  0.13894542811E+02  0.28365481862E+01  0.14595243762E+02  0.51100000000E-03 0.  1.
         12    1    3    3    0    0  0.13817454497E+02  0.12795479052E+02 -0.20237829465E+02  0.27644458295E+02  0.00000000000E+00 0. -1.
</event>
<event>
 7    1  0.1920603E-013  0.7246158E+02  0.7816164E-02  0.1226708E+00
        -11   -1    0    0    0    0  0.00000000000E+00  0.00000000000E+00  0.45593999997E+02  0.45594000000E+02  0.51100000000E-03 0.  1.
         11   -1    0    0    0    0 -0.00000000000E+00 -0.00000000000E+00 -0.45593999997E+02  0.45594000000E+02  0.51100000000E-03 0. -1.
    9900012    2    1    2    0    0 -0.64793198010E-01  0.48224132802E+01 -0.18094718124E+02  0.72461583045E+02  0.70000016610E+02 0.  0.
        -12    1    1    2    0    0  0.64793198010E-01 -0.48224132802E+01  0.18094718124E+02  0.18726416955E+02  0.00000000000E+00 0.  1.
         11    1    3    3    0    0 -0.23430845428E+02  0.16396548694E+02 -0.25785714319E+02  0.38506549959E+02  0.51100000000E-03 0. -1.
        -11    1    3    3    0    0  0.81440684957E+01 -0.14687498756E+02  0.75598270691E+01  0.18417368350E+02  0.51100000000E-03 0.  1.
         12    1    3    3    0    0  0.15221983734E+02  0.31133633422E+01  0.13116912579E+00  0.15537664736E+02  0.00000000000E+00 0. -1.
</event>
<event>
 7    1  0.1920603E-013  0.7246156E+02  0.7816164E-02  0.1226708E+00
        -11   -1    0    0    0    0  0.00000000000E+00  0.00000000000E+00  0.45593999997E+02  0.45594000000E+02  0.51100000000E-03 0.  1.
         11   -1    0    0    0    0 -0.00000000000E+00 -0.00000000000E+00 -0.45593999997E+02  0.45594000000E+02  0.51100000000E-03 0. -1.
    9900012    2    1    2    0    0  0.52815451091E+01  0.14977408034E+02 -0.99228100929E+01  0.72461557991E+02  0.69999983973E+02 0.  0.
        -12    1    1    2    0    0 -0.52815451091E+01 -0.14977408034E+02  0.99228100929E+01  0.18726442009E+02  0.00000000000E+00 0.  1.
         11    1    3    3    0    0 -0.14096043348E+02 -0.10792630245E+02 -0.42057659848E+01  0.18244664246E+02  0.51100000000E-03 0.  1.
        -11    1    3    3    0    0  0.31709317711E+02  0.87459863160E+01 -0.35362630701E+01  0.33082899860E+02  0.51100000000E-03 0. -1.
         12    1    3    3    0    0 -0.12331729254E+02  0.17024051963E+02 -0.21807810380E+01  0.21133993886E+02  0.00000000000E+00 0. -1.
</event>
<event>
 7    1  0.1920603E-013  0.7246154E+02  0.7816164E-02  0.1226708E+00
        -11   -1    0    0    0    0  0.00000000000E+00  0.00000000000E+00  0.45593999997E+02  0.45594000000E+02  0.51100000000E-03 0.  1.
         11   -1    0    0    0    0 -0.00000000000E+00 -0.00000000000E+00 -0.45593999997E+02  0.45594000000E+02  0.51100000000E-03 0. -1.
    9900012    2    1    2    0    0  0.79496242963E+01 -0.76289034754E+01 -0.15142117376E+02  0.72461537085E+02  0.69999956739E+02 0.  0.
        -12    1    1    2    0    0 -0.79496242963E+01  0.76289034754E+01  0.15142117376E+02  0.18726462915E+02  0.00000000000E+00 0.  1.
         11    1    3    3    0    0  0.11622512897E+02 -0.12703121163E+02 -0.24714107283E+02  0.30120411558E+02  0.51100000000E-03 0. -1.
        -11    1    3    3    0    0 -0.22016885212E+02  0.53267523715E+01  0.29812432297E+01  0.22847436108E+02  0.51100000000E-03 0.  1.
        -12    1    3    3    0    0  0.18343996610E+02 -0.25253468403E+00  0.65907466778E+01  0.19493689419E+02  0.00000000000E+00 0.  1.
</event>
<event>
 7    1  0.1920603E-013  0.7246157E+02  0.7816164E-02  0.1226708E+00
        -11   -1    0    0    0    0  0.00000000000E+00  0.00000000000E+00  0.45593999997E+02  0.45594000000E+02  0.51100000000E-03 0. -1.
         11   -1    0    0    0    0 -0.00000000000E+00 -0.00000000000E+00 -0.45593999997E+02  0.45594000000E+02  0.51100000000E-03 0.  1.
    9900012    2    1    2    0    0 -0.14213913929E+02 -0.12093686421E+02 -0.15448338151E+01  0.72461571832E+02  0.70000002003E+02 0.  0.
        -12    1    1    2    0    0  0.14213913929E+02  0.12093686421E+02  0.15448338151E+01  0.18726428168E+02  0.00000000000E+00 0.  1.
         11    1    3    3    0    0  0.23503620492E+02 -0.80229274455E+01 -0.13875521980E+02  0.28448508775E+02  0.51100000000E-03 0. -1.
        -11    1    3    3    0    0 -0.36158081486E+02 -0.50324810666E+01  0.54726790358E+01  0.36914535599E+02  0.51100000000E-03 0.  1.
         12    1    3    3    0    0 -0.15594529360E+01  0.96172209156E+00  0.68580091295E+01  0.70985274572E+01  0.00000000000E+00 0. -1.
</event>
<event>
 7    1  0.1920603E-013  0.7246155E+02  0.7816164E-02  0.1226708E+00
        -11   -1    0    0    0    0  0.00000000000E+00  0.00000000000E+00  0.45593999997E+02  0.45594000000E+02  0.51100000000E-03 0.  1.
         11   -1    0    0    0    0 -0.00000000000E+00 -0.00000000000E+00 -0.45593999997E+02  0.45594000000E+02  0.51100000000E-03 0. -1.
    9900012    2    1    2    0    0 -0.15321602901E+01  0.74393866576E+00 -0.18648828329E+02  0.72461554584E+02  0.69999979534E+02 0.  0.
        -12    1    1    2    0    0  0.15321602901E+01 -0.74393866576E+00  0.18648828329E+02  0.18726445416E+02  0.00000000000E+00 0.  1.
         11    1    3    3    0    0  0.41237158997E+01 -0.23866952620E+00 -0.10746364141E+02  0.11512877072E+02  0.51100000000E-03 0. -1.
        -11    1    3    3    0    0 -0.89235271326E+01 -0.12558076807E+02  0.22637360668E+02  0.27382197280E+02  0.51100000000E-03 0.  1.
        -12    1    3    3    0    0  0.32676509428E+01  0.13540684999E+02 -0.30539824856E+02  0.33566480232E+02  0.00000000000E+00 0.  1.
</event>
<event>
 7    1  0.1920603E-013  0.7246159E+02  0.7816164E-02  0.1226708E+00
        -11   -1    0    0    0    0  0.00000000000E+00  0.00000000000E+00  0.45593999997E+02  0.45594000000E+02  0.51100000000E-03 0. -1.
         11   -1    0    0    0    0 -0.00000000000E+00 -0.00000000000E+00 -0.45593999997E+02  0.45594000000E+02  0.51100000000E-03 0.  1.
    9900012    2    1    2    0    0  0.31572128108E+01 -0.18066884625E+02  0.37812723443E+01  0.72461592621E+02  0.70000029084E+02 0.  0.
        -12    1    1    2    0    0 -0.31572128108E+01  0.18066884625E+02 -0.37812723443E+01  0.18726407379E+02  0.00000000000E+00 0.  1.
         11    1    3    3    0    0 -0.27118015785E+01 -0.15234463309E+02  0.78863920314E+01  0.17367726381E+02  0.51100000000E-03 0. -1.
        -11    1    3    3    0    0  0.18030178184E+01  0.96976602698E+01 -0.26963613959E+02  0.28711181898E+02  0.51100000000E-03 0.  1.
        -12    1    3    3    0    0  0.40659965709E+01 -0.12530081586E+02  0.22858494272E+02  0.26382684341E+02  0.00000000000E+00 0.  1.
</event>
<event>
 7    1  0.1920603E-013  0.7246157E+02  0.7816164E-02  0.1226708E+00
        -11   -1    0    0    0    0  0.00000000000E+00  0.00000000000E+00  0.45593999997E+02  0.45594000000E+02  0.51100000000E-03 0.  1.
         11   -1    0    0    0    0 -0.00000000000E+00 -0.00000000000E+00 -0.45593999997E+02  0.45594000000E+02  0.51100000000E-03 0. -1.
    9900012    2    1    2    0    0  0.86788721590E-01  0.17959498582E+02 -0.53035740718E+01  0.72461574299E+02  0.70000005217E+02 0.  0.
        -12    1    1    2    0    0 -0.86788721590E-01 -0.17959498582E+02  0.53035740718E+01  0.18726425701E+02  0.00000000000E+00 0.  1.
         11    1    3    3    0    0 -0.15063564791E+02  0.34297730641E+02 -0.39045523250E+01  0.37662857571E+02  0.51100000000E-03 0. -1.
        -11    1    3    3    0    0 -0.54956432747E+01 -0.98673581577E+01  0.48294702442E+01  0.12283754927E+02  0.51100000000E-03 0.  1.
         12    1    3    3    0    0  0.20645996788E+02 -0.64708739014E+01 -0.62284919910E+01  0.22514961801E+02  0.00000000000E+00 0. -1.
</event>
<event>
 7    1  0.1920603E-013  0.7246160E+02  0.7816164E-02  0.1226708E+00
        -11   -1    0    0    0    0  0.00000000000E+00  0.00000000000E+00  0.45593999997E+02  0.45594000000E+02  0.51100000000E-03 0.  1.
         11   -1    0    0    0    0 -0.00000000000E+00 -0.00000000000E+00 -0.45593999997E+02  0.45594000000E+02  0.51100000000E-03 0. -1.
    9900012    2    1    2    0    0  0.14327597058E+02  0.11113081645E+02 -0.46794891265E+01  0.72461595124E+02  0.70000032345E+02 0.  0.
        -12    1    1    2    0    0 -0.14327597058E+02 -0.11113081645E+02  0.46794891265E+01  0.18726404876E+02  0.00000000000E+00 0.  1.
         11    1    3    3    0    0  0.33622001049E+01  0.97466064557E+00 -0.17295416221E+02  0.17646126358E+02  0.51100000000E-03 0. -1.
        -11    1    3    3    0    0  0.18060178705E+02 -0.14932255820E+02  0.16237684224E+02  0.28509730058E+02  0.51100000000E-03 0.  1.
        -12    1    3    3    0    0 -0.70947817521E+01  0.25070676820E+02 -0.36217571290E+01  0.26305738709E+02  0.00000000000E+00 0.  1.
</event>
<event>
 7    1  0.1920603E-013  0.7246156E+02  0.7816164E-02  0.1226708E+00
        -11   -1    0    0    0    0  0.00000000000E+00  0.00000000000E+00  0.45593999997E+02  0.45594000000E+02  0.51100000000E-03 0.  1.
         11   -1    0    0    0    0 -0.00000000000E+00 -0.00000000000E+00 -0.45593999997E+02  0.45594000000E+02  0.51100000000E-03 0. -1.
    9900012    2    1    2    0    0 -0.28574294817E+01  0.17445616740E+02 -0.61777806345E+01  0.72461563600E+02  0.69999991279E+02 0.  0.
        -12    1    1    2    0    0  0.28574294817E+01 -0.17445616740E+02  0.61777806345E+01  0.18726436400E+02  0.00000000000E+00 0.  1.
         11    1    3    3    0    0  0.13770455656E+02  0.31214240108E+02  0.67950345423E+01  0.34786875818E+02  0.51100000000E-03 0. -1.
        -11    1    3    3    0    0 -0.90101647914E+00 -0.13744627213E+02 -0.16564183423E+02  0.21542951994E+02  0.51100000000E-03 0.  1.
         12    1    3    3    0    0 -0.15726868659E+02 -0.23996155220E-01  0.35913682459E+01  0.16131735787E+02  0.00000000000E+00 0. -1.
</event>
<event>
 7    1  0.1920603E-013  0.7246159E+02  0.7816164E-02  0.1226708E+00
        -11   -1    0    0    0    0  0.00000000000E+00  0.00000000000E+00  0.45593999997E+02  0.45594000000E+02  0.51100000000E-03 0. -1.
         11   -1    0    0    0    0 -0.00000000000E+00 -0.00000000000E+00 -0.45593999997E+02  0.45594000000E+02  0.51100000000E-03 0.  1.
    9900012    2    1    2    0    0 -0.41326970206E+01 -0.10577125623E+02  0.14890390216E+02  0.72461588387E+02  0.70000023569E+02 0.  0.
        -12    1    1    2    0    0  0.41326970206E+01  0.10577125623E+02 -0.14890390216E+02  0.18726411613E+02  0.00000000000E+00 0.  1.
         11    1    3    3    0    0  0.11899062275E+02  0.30567919644E+01  0.34354216924E+02  0.36484844536E+02  0.51100000000E-03 0. -1.
        -11    1    3    3    0    0 -0.24340140407E+01 -0.16161087278E+02 -0.92106408456E+01  0.18760092522E+02  0.51100000000E-03 0.  1.
         12    1    3    3    0    0 -0.13597745255E+02  0.25271696905E+01 -0.10253185862E+02  0.17216651329E+02  0.00000000000E+00 0. -1.
</event>
<event>
 7    1  0.1920603E-013  0.7246209E+02  0.7816164E-02  0.1226707E+00
        -11   -1    0    0    0    0  0.00000000000E+00  0.00000000000E+00  0.45593999997E+02  0.45594000000E+02  0.51100000000E-03 0. -1.
         11   -1    0    0    0    0 -0.00000000000E+00 -0.00000000000E+00 -0.45593999997E+02  0.45594000000E+02  0.51100000000E-03 0.  1.
    9900012    2    1    2    0    0 -0.16193836993E+02 -0.73163593338E+01  0.59068040931E+01  0.72462087337E+02  0.70000673541E+02 0.  0.
        -12    1    1    2    0    0  0.16193836993E+02  0.73163593338E+01 -0.59068040931E+01  0.18725912663E+02  0.00000000000E+00 0.  1.
         11    1    3    3    0    0 -0.33393639496E+02 -0.13470493790E+02 -0.56931838180E+01  0.36455475638E+02  0.51100000000E-03 0. -1.
        -11    1    3    3    0    0  0.11134450504E+02  0.16986029734E+02  0.21879777262E+01  0.20427639143E+02  0.51100000000E-03 0.  1.
        -12    1    3    3    0    0  0.60653519989E+01 -0.10831895278E+02  0.94120101848E+01  0.15578972556E+02  0.00000000000E+00 0.  1.
</event>
<event>
 7    1  0.1920603E-013  0.7246137E+02  0.7816164E-02  0.1226709E+00
        -11   -1    0    0    0    0  0.00000000000E+00  0.00000000000E+00  0.45593999997E+02  0.45594000000E+02  0.51100000000E-03 0. -1.
         11   -1    0    0    0    0 -0.00000000000E+00 -0.00000000000E+00 -0.45593999997E+02  0.45594000000E+02  0.51100000000E-03 0.  1.
    9900012    2    1    2    0    0  0.17636245713E+02 -0.80710308878E+00  0.62448588715E+01  0.72461365477E+02  0.69999733186E+02 0.  0.
        -12    1    1    2    0    0 -0.17636245713E+02  0.80710308878E+00 -0.62448588715E+01  0.18726634523E+02  0.00000000000E+00 0.  1.
         11    1    3    3    0    0  0.14505152420E+02  0.30123010009E+02  0.18064026274E+02  0.38001371346E+02  0.51100000000E-03 0. -1.
        -11    1    3    3    0    0  0.60095442880E+01 -0.18761529496E+02 -0.89097380244E+01  0.21621587442E+02  0.51100000000E-03 0.  1.
         12    1    3    3    0    0 -0.28784509952E+01 -0.12168583601E+02 -0.29094293780E+01  0.12838406688E+02  0.00000000000E+00 0. -1.
</event>
<event>
 7    1  0.1920603E-013  0.7246183E+02  0.7816164E-02  0.1226707E+00
        -11   -1    0    0    0    0  0.00000000000E+00  0.00000000000E+00  0.45593999997E+02  0.45594000000E+02  0.51100000000E-03 0.  1.
         11   -1    0    0    0    0 -0.00000000000E+00 -0.00000000000E+00 -0.45593999997E+02  0.45594000000E+02  0.51100000000E-03 0. -1.
    9900012    2    1    2    0    0  0.15351724808E+02 -0.36064397328E+01 -0.10098884119E+02  0.72461833212E+02  0.70000342498E+02 0.  0.
        -12    1    1    2    0    0 -0.15351724808E+02  0.36064397328E+01  0.10098884119E+02  0.18726166788E+02  0.00000000000E+00 0.  1.
         11    1    3    3    0    0 -0.12298043078E+02  0.12765682798E+02  0.10188917331E+02  0.20445502133E+02  0.51100000000E-03 0.  1.
        -11    1    3    3    0    0  0.33876648404E+02 -0.20781028662E+02 -0.19718252481E+02  0.44365391247E+02  0.51100000000E-03 0. -1.
         12    1    3    3    0    0 -0.62268805193E+01  0.44089061314E+01 -0.56954896980E+00  0.76509398316E+01  0.00000000000E+00 0. -1.
</event>
<event>
 7    1  0.1920603E-013  0.7246159E+02  0.7816164E-02  0.1226708E+00
        -11   -1    0    0    0    0  0.00000000000E+00  0.00000000000E+00  0.45593999997E+02  0.45594000000E+02  0.51100000000E-03 0. -1.
         11   -1    0    0    0    0 -0.00000000000E+00 -0.00000000000E+00 -0.45593999997E+02  0.45594000000E+02  0.51100000000E-03 0.  1.
    9900012    2    1    2    0    0  0.51091785297E+01 -0.12500697433E+02  0.12973329869E+02  0.72461590055E+02  0.70000025742E+02 0.  0.
        -12    1    1    2    0    0 -0.51091785297E+01  0.12500697433E+02 -0.12973329869E+02  0.18726409945E+02  0.00000000000E+00 0.  1.
         11    1    3    3    0    0 -0.19293494140E+02 -0.62649291467E+01 -0.10977729581E+02  0.23065099184E+02  0.51100000000E-03 0. -1.
        -11    1    3    3    0    0  0.10890695360E+02  0.14674956494E+02  0.11055913445E+02  0.21358717562E+02  0.51100000000E-03 0.  1.
         12    1    3    3    0    0  0.13511977310E+02 -0.20910724780E+02  0.12895146004E+02  0.28037773309E+02  0.00000000000E+00 0. -1.
</event>
<event>
 7    1  0.1920603E-013  0.7246160E+02  0.7816164E-02  0.1226708E+00
        -11   -1    0    0    0    0  0.00000000000E+00  0.00000000000E+00  0.45593999997E+02  0.45594000000E+02  0.51100000000E-03 0.  1.
         11   -1    0    0    0    0 -0.00000000000E+00 -0.00000000000E+00 -0.45593999997E+02  0.45594000000E+02  0.51100000000E-03 0. -1.
    9900012    2    1    2    0    0  0.17210563746E+02  0.16377284808E+00  0.73788759478E+01  0.72461597882E+02  0.70000035939E+02 0.  0.
        -12    1    1    2    0    0 -0.17210563746E+02 -0.16377284808E+00 -0.73788759478E+01  0.18726402118E+02  0.00000000000E+00 0.  1.
         11    1    3    3    0    0  0.53354462341E+01 -0.20126203094E+02  0.20715541542E+02  0.29371154202E+02  0.51100000000E-03 0.  1.
        -11    1    3    3    0    0  0.70499821807E+01  0.14847496249E+02 -0.24658083127E+02  0.29633957841E+02  0.51100000000E-03 0. -1.
         12    1    3    3    0    0  0.48251353317E+01  0.54424796938E+01  0.11321417533E+02  0.13456485839E+02  0.00000000000E+00 0. -1.
</event>
<event>
 7    1  0.1920603E-013  0.7246159E+02  0.7816164E-02  0.1226708E+00
        -11   -1    0    0    0    0  0.00000000000E+00  0.00000000000E+00  0.45593999997E+02  0.45594000000E+02  0.51100000000E-03 0. -1.
         11   -1    0    0    0    0 -0.00000000000E+00 -0.00000000000E+00 -0.45593999997E+02  0.45594000000E+02  0.51100000000E-03 0.  1.
    9900012    2    1    2    0    0  0.24454073931E+01 -0.16734562351E+02 -0.80407029920E+01  0.72461588197E+02  0.70000023322E+02 0.  0.
        -12    1    1    2    0    0 -0.24454073931E+01  0.16734562351E+02  0.80407029920E+01  0.18726411803E+02  0.00000000000E+00 0.  1.
         11    1    3    3    0    0  0.37436120860E+01  0.23822327706E+02 -0.29989458563E+01  0.24300444550E+02  0.51100000000E-03 0. -1.
        -11    1    3    3    0    0 -0.11928236849E+02 -0.15708634557E+02 -0.73201609587E+01  0.21038744989E+02  0.51100000000E-03 0.  1.
         12    1    3    3    0    0  0.10630032156E+02 -0.24848255500E+02  0.22784038230E+01  0.27122398659E+02  0.00000000000E+00 0. -1.
</event>
<event>
 7    1  0.1920603E-013  0.7246186E+02  0.7816164E-02  0.1226707E+00
        -11   -1    0    0    0    0  0.00000000000E+00  0.00000000000E+00  0.45593999997E+02  0.45594000000E+02  0.51100000000E-03 0. -1.
         11   -1    0    0    0    0 -0.00000000000E+00 -0.00000000000E+00 -0.45593999997E+02  0.45594000000E+02  0.51100000000E-03 0.  1.
    9900012    2    1    2    0    0  0.42549684016E+01  0.17802626344E+02  0.39535100843E+01  0.72461855100E+02  0.70000371011E+02 0.  0.
        -12    1    1    2    0    0 -0.42549684016E+01 -0.17802626344E+02 -0.39535100843E+01  0.18726144900E+02  0.00000000000E+00 0.  1.
         11    1    3    3    0    0  0.99277026528E+00  0.12644909097E+02  0.17983390247E+02  0.22006400067E+02  0.51100000000E-03 0. -1.
        -11    1    3    3    0    0  0.92779560355E+01 -0.38829845863E+01 -0.29718999067E+02  0.31374781964E+02  0.51100000000E-03 0.  1.
        -12    1    3    3    0    0 -0.60157578992E+01  0.90407018338E+01  0.15689118905E+02  0.19080673069E+02  0.00000000000E+00 0.  1.
</event>
<event>
 7    1  0.1920603E-013  0.7246158E+02  0.7816164E-02  0.1226708E+00
        -11   -1    0    0    0    0  0.00000000000E+00  0.00000000000E+00  0.45593999997E+02  0.45594000000E+02  0.51100000000E-03 0.  1.
         11   -1    0    0    0    0 -0.00000000000E+00 -0.00000000000E+00 -0.45593999997E+02  0.45594000000E+02  0.51100000000E-03 0. -1.
    9900012    2    1    2    0    0 -0.79430565390E+01 -0.10658452656E+02 -0.13190297783E+02  0.72461582409E+02  0.70000015782E+02 0.  0.
        -12    1    1    2    0    0  0.79430565390E+01  0.10658452656E+02  0.13190297783E+02  0.18726417591E+02  0.00000000000E+00 0.  1.
         11    1    3    3    0    0 -0.24013525549E+02 -0.22419822026E+02  0.13493392459E+02  0.35515763674E+02  0.51100000000E-03 0. -1.
        -11    1    3    3    0    0  0.64141998165E+01 -0.54807411553E+00 -0.17858476417E+02  0.18983348617E+02  0.51100000000E-03 0.  1.
         12    1    3    3    0    0  0.96562691939E+01  0.12309443486E+02 -0.88252138250E+01  0.17962470118E+02  0.00000000000E+00 0. -1.
</event>
<event>
 7    1  0.1920603E-013  0.7246154E+02  0.7816164E-02  0.1226708E+00
        -11   -1    0    0    0    0  0.00000000000E+00  0.00000000000E+00  0.45593999997E+02  0.45594000000E+02  0.51100000000E-03 0.  1.
         11   -1    0    0    0    0 -0.00000000000E+00 -0.00000000000E+00 -0.45593999997E+02  0.45594000000E+02  0.51100000000E-03 0. -1.
    9900012    2    1    2    0    0 -0.27274191602E+01  0.54241942964E+01 -0.17714956244E+02  0.72461538141E+02  0.69999958114E+02 0.  0.
        -12    1    1    2    0    0  0.27274191602E+01 -0.54241942964E+01  0.17714956244E+02  0.18726461859E+02  0.00000000000E+00 0.  1.
         11    1    3    3    0    0  0.93721906631E+01 -0.95802916106E+01 -0.18016043962E+02  0.22454348921E+02  0.51100000000E-03 0. -1.
        -11    1    3    3    0    0  0.20238352237E+01  0.15785003128E+02  0.20123290327E+02  0.25655585096E+02  0.51100000000E-03 0.  1.
        -12    1    3    3    0    0 -0.14123445047E+02 -0.78051722097E+00 -0.19822202610E+02  0.24351604124E+02  0.00000000000E+00 0.  1.
</event>
<event>
 7    1  0.1920603E-013  0.7246150E+02  0.7816164E-02  0.1226708E+00
        -11   -1    0    0    0    0  0.00000000000E+00  0.00000000000E+00  0.45593999997E+02  0.45594000000E+02  0.51100000000E-03 0.  1.
         11   -1    0    0    0    0 -0.00000000000E+00 -0.00000000000E+00 -0.45593999997E+02  0.45594000000E+02  0.51100000000E-03 0. -1.
    9900012    2    1    2    0    0 -0.11779950205E+01 -0.14517474621E+02 -0.11770173906E+02  0.72461501785E+02  0.69999910754E+02 0.  0.
        -12    1    1    2    0    0  0.11779950205E+01  0.14517474621E+02  0.11770173906E+02  0.18726498215E+02  0.00000000000E+00 0.  1.
         11    1    3    3    0    0 -0.39957786935E+01 -0.83853766974E+01 -0.26521148357E+00  0.92925307165E+01  0.51100000000E-03 0. -1.
        -11    1    3    3    0    0  0.21838573342E+02  0.18960429404E+02  0.18210273176E+01  0.28978221298E+02  0.51100000000E-03 0.  1.
        -12    1    3    3    0    0 -0.19020789669E+02 -0.25092527328E+02 -0.13325989740E+02  0.34190749771E+02  0.00000000000E+00 0.  1.
</event>
<event>
 7    1  0.1920603E-013  0.7246153E+02  0.7816164E-02  0.1226708E+00
        -11   -1    0    0    0    0  0.00000000000E+00  0.00000000000E+00  0.45593999997E+02  0.45594000000E+02  0.51100000000E-03 0.  1.
         11   -1    0    0    0    0 -0.00000000000E+00 -0.00000000000E+00 -0.45593999997E+02  0.45594000000E+02  0.51100000000E-03 0. -1.
    9900012    2    1    2    0    0 -0.51430054261E+01  0.16150324372E+02 -0.79622244827E+01  0.72461534747E+02  0.69999953693E+02 0.  0.
        -12    1    1    2    0    0  0.51430054261E+01 -0.16150324372E+02  0.79622244827E+01  0.18726465253E+02  0.00000000000E+00 0.  1.
         11    1    3    3    0    0 -0.21026134631E+02  0.23328231111E+02  0.46876269609E+01  0.31753402197E+02  0.51100000000E-03 0. -1.
        -11    1    3    3    0    0  0.17614692366E+02  0.98725124984E+01 -0.12142827130E+02  0.23562515595E+02  0.51100000000E-03 0.  1.
        -12    1    3    3    0    0 -0.17315631610E+01 -0.17050419237E+02 -0.50702431371E+00  0.17145616956E+02  0.00000000000E+00 0.  1.
</event>
<event>
 7    1  0.1920603E-013  0.7246157E+02  0.7816164E-02  0.1226708E+00
        -11   -1    0    0    0    0  0.00000000000E+00  0.00000000000E+00  0.45593999997E+02  0.45594000000E+02  0.51100000000E-03 0. -1.
         11   -1    0    0    0    0 -0.00000000000E+00 -0.00000000000E+00 -0.45593999997E+02  0.45594000000E+02  0.51100000000E-03 0.  1.
    9900012    2    1    2    0    0  0.10889869941E+02  0.14201631894E+02  0.55139365313E+01  0.72461571834E+02  0.70000002005E+02 0.  0.
        -12    1    1    2    0    0 -0.10889869941E+02 -0.14201631894E+02 -0.55139365313E+01  0.18726428166E+02  0.00000000000E+00 0.  1.
         11    1    3    3    0    0  0.30405428911E+02 -0.62166514878E+01  0.10525854674E+02  0.32770878533E+02  0.51100000000E-03 0. -1.
        -11    1    3    3    0    0 -0.74519850468E+01  0.11818212904E+02  0.11069480266E+02  0.17825140420E+02  0.51100000000E-03 0.  1.
         12    1    3    3    0    0 -0.12063573923E+02  0.86000704782E+01 -0.16081398408E+02  0.21865552881E+02  0.00000000000E+00 0. -1.
</event>
<event>
 7    1  0.1920603E-013  0.7246156E+02  0.7816164E-02  0.1226708E+00
        -11   -1    0    0    0    0  0.00000000000E+00  0.00000000000E+00  0.45593999997E+02  0.45594000000E+02  0.51100000000E-03 0.  1.
         11   -1    0    0    0    0 -0.00000000000E+00 -0.00000000000E+00 -0.45593999997E+02  0.45594000000E+02  0.51100000000E-03 0. -1.
    9900012    2    1    2    0    0  0.14823611034E+02  0.18845894658E+01 -0.11286642118E+02  0.72461563824E+02  0.69999991572E+02 0.  0.
        -12    1    1    2    0    0 -0.14823611034E+02 -0.18845894658E+01  0.11286642118E+02  0.18726436176E+02  0.00000000000E+00 0.  1.
         11    1    3    3    0    0  0.43933142247E+01 -0.25218117579E+02 -0.19073870188E+01  0.25668907059E+02  0.51100000000E-03 0. -1.
        -11    1    3    3    0    0  0.23167820945E+02  0.15204658039E+02 -0.17521977234E+01  0.27766882262E+02  0.51100000000E-03 0.  1.
        -12    1    3    3    0    0 -0.12737524136E+02  0.11898049005E+02 -0.76270573759E+01  0.19025774504E+02  0.00000000000E+00 0.  1.
</event>
<event>
 7    1  0.1920603E-013  0.7246157E+02  0.7816164E-02  0.1226708E+00
        -11   -1    0    0    0    0  0.00000000000E+00  0.00000000000E+00  0.45593999997E+02  0.45594000000E+02  0.51100000000E-03 0.  1.
         11   -1    0    0    0    0 -0.00000000000E+00 -0.00000000000E+00 -0.45593999997E+02  0.45594000000E+02  0.51100000000E-03 0. -1.
    9900012    2    1    2    0    0 -0.39705221305E+01  0.66545178248E+01 -0.17047915843E+02  0.72461572470E+02  0.70000002834E+02 0.  0.
        -12    1    1    2    0    0  0.39705221305E+01 -0.66545178248E+01  0.17047915843E+02  0.18726427530E+02  0.00000000000E+00 0.  1.
         11    1    3    3    0    0  0.69845820185E+01  0.12798094695E+02  0.17041632754E+02  0.22427502334E+02  0.51100000000E-03 0. -1.
        -11    1    3    3    0    0  0.72602034674E+01 -0.13879966349E+02 -0.89537635671E+01  0.18042558093E+02  0.51100000000E-03 0.  1.
         12    1    3    3    0    0 -0.18215307616E+02  0.77363894794E+01 -0.25135785029E+02  0.31991512043E+02  0.00000000000E+00 0. -1.
</event>
<event>
 7    1  0.1920603E-013  0.7246157E+02  0.7816164E-02  0.1226708E+00
        -11   -1    0    0    0    0  0.00000000000E+00  0.00000000000E+00  0.45593999997E+02  0.45594000000E+02  0.51100000000E-03 0.  1.
         11   -1    0    0    0    0 -0.00000000000E+00 -0.00000000000E+00 -0.45593999997E+02  0.45594000000E+02  0.51100000000E-03 0. -1.
    9900012    2    1    2    0    0  0.88528302552E+01  0.75594850849E+01 -0.14668362641E+02  0.72461567322E+02  0.69999996128E+02 0.  0.
        -12    1    1    2    0    0 -0.88528302552E+01 -0.75594850849E+01  0.14668362641E+02  0.18726432678E+02  0.00000000000E+00 0.  1.
         11    1    3    3    0    0  0.24086050325E+01  0.14210421364E+02  0.19094602601E+02  0.23923655705E+02  0.51100000000E-03 0. -1.
        -11    1    3    3    0    0  0.19534874824E+02 -0.44101741297E+01 -0.12950780282E+02  0.23849186158E+02  0.51100000000E-03 0.  1.
         12    1    3    3    0    0 -0.13090649601E+02 -0.22407621491E+01 -0.20812184960E+02  0.24688725459E+02  0.00000000000E+00 0. -1.
</event>
<event>
 7    1  0.1920603E-013  0.7246158E+02  0.7816164E-02  0.1226708E+00
        -11   -1    0    0    0    0  0.00000000000E+00  0.00000000000E+00  0.45593999997E+02  0.45594000000E+02  0.51100000000E-03 0. -1.
         11   -1    0    0    0    0 -0.00000000000E+00 -0.00000000000E+00 -0.45593999997E+02  0.45594000000E+02  0.51100000000E-03 0.  1.
    9900012    2    1    2    0    0  0.18119922924E+02  0.18260264190E+01 -0.43603716113E+01  0.72461579631E+02  0.70000012163E+02 0.  0.
        -12    1    1    2    0    0 -0.18119922924E+02 -0.18260264190E+01  0.43603716113E+01  0.18726420369E+02  0.00000000000E+00 0.  1.
         11    1    3    3    0    0 -0.13379864527E+01  0.26033595118E+02  0.79502370397E+01  0.27253340195E+02  0.51100000000E-03 0.  1.
        -11    1    3    3    0    0  0.11262358234E+00 -0.20783795705E+02 -0.14643033530E+02  0.25424344224E+02  0.51100000000E-03 0. -1.
        -12    1    3    3    0    0  0.19345285794E+02 -0.34237729938E+01  0.23324248793E+01  0.19783895213E+02  0.00000000000E+00 0.  1.
</event>
<event>
 7    1  0.1920603E-013  0.7246153E+02  0.7816164E-02  0.1226708E+00
        -11   -1    0    0    0    0  0.00000000000E+00  0.00000000000E+00  0.45593999997E+02  0.45594000000E+02  0.51100000000E-03 0. -1.
         11   -1    0    0    0    0 -0.00000000000E+00 -0.00000000000E+00 -0.45593999997E+02  0.45594000000E+02  0.51100000000E-03 0.  1.
    9900012    2    1    2    0    0 -0.46149082764E+01 -0.90449395113E+01  0.15734427977E+02  0.72461533891E+02  0.69999952578E+02 0.  0.
        -12    1    1    2    0    0  0.46149082764E+01  0.90449395113E+01 -0.15734427977E+02  0.18726466109E+02  0.00000000000E+00 0.  1.
         11    1    3    3    0    0 -0.29956658851E+01  0.63411755937E+01  0.28125841958E+01  0.75561334110E+01  0.51100000000E-03 0. -1.
        -11    1    3    3    0    0 -0.62977200255E+01 -0.35300822345E+02  0.22483795119E+02  0.42324111083E+02  0.51100000000E-03 0.  1.
        -12    1    3    3    0    0  0.46784776342E+01  0.19914707240E+02 -0.95619513378E+01  0.22581289397E+02  0.00000000000E+00 0.  1.
</event>
<event>
 7    1  0.1920603E-013  0.7246158E+02  0.7816164E-02  0.1226708E+00
        -11   -1    0    0    0    0  0.00000000000E+00  0.00000000000E+00  0.45593999997E+02  0.45594000000E+02  0.51100000000E-03 0. -1.
         11   -1    0    0    0    0 -0.00000000000E+00 -0.00000000000E+00 -0.45593999997E+02  0.45594000000E+02  0.51100000000E-03 0.  1.
    9900012    2    1    2    0    0 -0.94284972499E+01  0.83327730911E-01  0.16179469202E+02  0.72461582095E+02  0.70000015372E+02 0.  0.
        -12    1    1    2    0    0  0.94284972499E+01 -0.83327730911E-01 -0.16179469202E+02  0.18726417905E+02  0.00000000000E+00 0.  1.
         11    1    3    3    0    0 -0.29979087283E+01  0.22449690417E+02 -0.23364185752E+01  0.22769165742E+02  0.51100000000E-03 0. -1.
        -11    1    3    3    0    0  0.69886448308E+01 -0.14888328671E+02  0.27391970415E+02  0.31950329117E+02  0.51100000000E-03 0.  1.
        -12    1    3    3    0    0 -0.13419233352E+02 -0.74780340153E+01 -0.88760826381E+01  0.17742087236E+02  0.00000000000E+00 0.  1.
</event>
<event>
 7    1  0.1920603E-013  0.7246150E+02  0.7816164E-02  0.1226708E+00
        -11   -1    0    0    0    0  0.00000000000E+00  0.00000000000E+00  0.45593999997E+02  0.45594000000E+02  0.51100000000E-03 0. -1.
         11   -1    0    0    0    0 -0.00000000000E+00 -0.00000000000E+00 -0.45593999997E+02  0.45594000000E+02  0.51100000000E-03 0.  1.
    9900012    2    1    2    0    0 -0.93355009457E+01  0.15899043777E+02 -0.32788140160E+01  0.72461500266E+02  0.69999908775E+02 0.  0.
        -12    1    1    2    0    0  0.93355009457E+01 -0.15899043777E+02  0.32788140160E+01  0.18726499734E+02  0.00000000000E+00 0.  1.
         11    1    3    3    0    0 -0.26007604196E+02 -0.11250578131E+02 -0.13055361233E+02  0.31199574380E+02  0.51100000000E-03 0. -1.
        -11    1    3    3    0    0  0.20752201935E+02  0.15827694743E+02  0.56296819325E+00  0.26105300984E+02  0.51100000000E-03 0.  1.
         12    1    3    3    0    0 -0.40800986848E+01  0.11321927165E+02  0.92135790233E+01  0.15156624902E+02  0.00000000000E+00 0. -1.
</event>
<event>
 7    1  0.1920603E-013  0.7246157E+02  0.7816164E-02  0.1226708E+00
        -11   -1    0    0    0    0  0.00000000000E+00  0.00000000000E+00  0.45593999997E+02  0.45594000000E+02  0.51100000000E-03 0. -1.
         11   -1    0    0    0    0 -0.00000000000E+00 -0.00000000000E+00 -0.45593999997E+02  0.45594000000E+02  0.51100000000E-03 0.  1.
    9900012    2    1    2    0    0 -0.17212842067E+02  0.68526773796E+01 -0.27272561143E+01  0.72461573613E+02  0.70000004324E+02 0.  0.
        -12    1    1    2    0    0  0.17212842067E+02 -0.68526773796E+01  0.27272561143E+01  0.18726426387E+02  0.00000000000E+00 0.  1.
         11    1    3    3    0    0 -0.23793301570E+02  0.15492420639E+02  0.52662504480E+01  0.28876801950E+02  0.51100000000E-03 0. -1.
        -11    1    3    3    0    0  0.17061597595E+01 -0.47294647180E+01 -0.24982274909E+02  0.25483188136E+02  0.51100000000E-03 0.  1.
        -12    1    3    3    0    0  0.48742997429E+01 -0.39102785412E+01  0.16988768347E+02  0.18101583528E+02  0.00000000000E+00 0.  1.
</event>
<event>
 7    1  0.1920603E-013  0.7246155E+02  0.7816164E-02  0.1226708E+00
        -11   -1    0    0    0    0  0.00000000000E+00  0.00000000000E+00  0.45593999997E+02  0.45594000000E+02  0.51100000000E-03 0. -1.
         11   -1    0    0    0    0 -0.00000000000E+00 -0.00000000000E+00 -0.45593999997E+02  0.45594000000E+02  0.51100000000E-03 0.  1.
    9900012    2    1    2    0    0  0.21639171201E+01 -0.16161162934E+02  0.92094541083E+01  0.72461554271E+02  0.69999979126E+02 0.  0.
        -12    1    1    2    0    0 -0.21639171201E+01  0.16161162934E+02 -0.92094541083E+01  0.18726445729E+02  0.00000000000E+00 0.  1.
         11    1    3    3    0    0  0.18674652980E+01  0.22776092067E+02 -0.13526912786E+01  0.22892522151E+02  0.51100000000E-03 0.  1.
        -11    1    3    3    0    0  0.71613623456E+01 -0.39947351354E+02  0.54459043443E+01  0.40947940915E+02  0.51100000000E-03 0. -1.
         12    1    3    3    0    0 -0.68649105235E+01  0.10100963523E+01  0.51162410426E+01  0.86210912037E+01  0.00000000000E+00 0. -1.
</event>
<event>
 7    1  0.1920603E-013  0.7246164E+02  0.7816164E-02  0.1226708E+00
        -11   -1    0    0    0    0  0.00000000000E+00  0.00000000000E+00  0.45593999997E+02  0.45594000000E+02  0.51100000000E-03 0.  1.
         11   -1    0    0    0    0 -0.00000000000E+00 -0.00000000000E+00 -0.45593999997E+02  0.45594000000E+02  0.51100000000E-03 0. -1.
    9900012    2    1    2    0    0 -0.10265191725E+02 -0.12151877127E+02 -0.98810077804E+01  0.72461639072E+02  0.70000089595E+02 0.  0.
        -12    1    1    2    0    0  0.10265191725E+02  0.12151877127E+02  0.98810077804E+01  0.18726360928E+02  0.00000000000E+00 0.  1.
         11    1    3    3    0    0 -0.30434407497E+02 -0.30232222707E+01 -0.24688533356E+02  0.39305428532E+02  0.51100000000E-03 0. -1.
        -11    1    3    3    0    0  0.69422197955E+01 -0.31527618786E+01  0.16853934087E+02  0.18498362566E+02  0.51100000000E-03 0.  1.
         12    1    3    3    0    0  0.13226995976E+02 -0.59758929774E+01 -0.20464085109E+01  0.14657847974E+02  0.00000000000E+00 0. -1.
</event>
<event>
 7    1  0.1920603E-013  0.7246157E+02  0.7816164E-02  0.1226708E+00
        -11   -1    0    0    0    0  0.00000000000E+00  0.00000000000E+00  0.45593999997E+02  0.45594000000E+02  0.51100000000E-03 0.  1.
         11   -1    0    0    0    0 -0.00000000000E+00 -0.00000000000E+00 -0.45593999997E+02  0.45594000000E+02  0.51100000000E-03 0. -1.
    9900012    2    1    2    0    0 -0.62706747104E+01  0.17491034055E+02 -0.23284342874E+01  0.72461568416E+02  0.69999997553E+02 0.  0.
        -12    1    1    2    0    0  0.62706747104E+01 -0.17491034055E+02  0.23284342874E+01  0.18726431584E+02  0.00000000000E+00 0.  1.
         11    1    3    3    0    0 -0.19199521353E+01  0.17259042417E+02 -0.32844695132E+02  0.37152856686E+02  0.51100000000E-03 0. -1.
        -11    1    3    3    0    0 -0.84696121571E+01 -0.58289666100E+01  0.15503926833E+02  0.18603304259E+02  0.51100000000E-03 0.  1.
        -12    1    3    3    0    0  0.41188895819E+01  0.60609582481E+01  0.15012334012E+02  0.16705407470E+02  0.00000000000E+00 0.  1.
</event>
<event>
 7    1  0.1920603E-013  0.7246155E+02  0.7816164E-02  0.1226708E+00
        -11   -1    0    0    0    0  0.00000000000E+00  0.00000000000E+00  0.45593999997E+02  0.45594000000E+02  0.51100000000E-03 0. -1.
         11   -1    0    0    0    0 -0.00000000000E+00 -0.00000000000E+00 -0.45593999997E+02  0.45594000000E+02  0.51100000000E-03 0.  1.
    9900012    2    1    2    0    0 -0.33941641180E+01 -0.80969452476E-01  0.18416103809E+02  0.72461553845E+02  0.69999978571E+02 0.  0.
        -12    1    1    2    0    0  0.33941641180E+01  0.80969452476E-01 -0.18416103809E+02  0.18726446155E+02  0.00000000000E+00 0.  1.
         11    1    3    3    0    0  0.43802496160E+00 -0.16809814352E+01 -0.23007760065E+02  0.23073243983E+02  0.51100000000E-03 0.  1.
        -11    1    3    3    0    0  0.65391188773E+00 -0.10213779226E+02  0.32077367794E+02  0.33670557045E+02  0.51100000000E-03 0. -1.
        -12    1    3    3    0    0 -0.44861009673E+01  0.11813791209E+02  0.93464960797E+01  0.15717752816E+02  0.00000000000E+00 0.  1.
</event>
<event>
 7    1  0.1920603E-013  0.7246156E+02  0.7816164E-02  0.1226708E+00
        -11   -1    0    0    0    0  0.00000000000E+00  0.00000000000E+00  0.45593999997E+02  0.45594000000E+02  0.51100000000E-03 0.  1.
         11   -1    0    0    0    0 -0.00000000000E+00 -0.00000000000E+00 -0.45593999997E+02  0.45594000000E+02  0.51100000000E-03 0. -1.
    9900012    2    1    2    0    0 -0.16146773228E+02 -0.66035680242E+01 -0.68083824061E+01  0.72461562343E+02  0.69999989642E+02 0.  0.
        -12    1    1    2    0    0  0.16146773228E+02  0.66035680242E+01  0.68083824061E+01  0.18726437657E+02  0.00000000000E+00 0.  1.
         11    1    3    3    0    0  0.67795482505E+01 -0.24349700431E+02 -0.18054942079E+01  0.25340284039E+02  0.51100000000E-03 0. -1.
        -11    1    3    3    0    0  0.77437122567E+01  0.13941612993E+02 -0.14965331862E+01  0.16017904488E+02  0.51100000000E-03 0.  1.
         12    1    3    3    0    0 -0.30670033735E+02  0.38045194140E+01 -0.35063550120E+01  0.31103373816E+02  0.00000000000E+00 0. -1.
</event>
<event>
 7    1  0.1920603E-013  0.7246154E+02  0.7816164E-02  0.1226708E+00
        -11   -1    0    0    0    0  0.00000000000E+00  0.00000000000E+00  0.45593999997E+02  0.45594000000E+02  0.51100000000E-03 0. -1.
         11   -1    0    0    0    0 -0.00000000000E+00 -0.00000000000E+00 -0.45593999997E+02  0.45594000000E+02  0.51100000000E-03 0.  1.
    9900012    2    1    2    0    0  0.12665780340E+02 -0.13180638799E+02  0.40655921411E+01  0.72461540905E+02  0.69999961715E+02 0.  0.
        -12    1    1    2    0    0 -0.12665780340E+02  0.13180638799E+02 -0.40655921411E+01  0.18726459095E+02  0.00000000000E+00 0.  1.
         11    1    3    3    0    0  0.12509686927E+02  0.65821400355E+01 -0.25251688940E+02  0.28938981134E+02  0.51100000000E-03 0.  1.
        -11    1    3    3    0    0  0.92349047883E+01 -0.21041751882E+02  0.21630232166E+02  0.31557974151E+02  0.51100000000E-03 0. -1.
        -12    1    3    3    0    0 -0.90788113747E+01  0.12789730481E+01  0.76870489160E+01  0.11964585621E+02  0.00000000000E+00 0.  1.
</event>
<event>
 7    1  0.1920603E-013  0.7246168E+02  0.7816164E-02  0.1226708E+00
        -11   -1    0    0    0    0  0.00000000000E+00  0.00000000000E+00  0.45593999997E+02  0.45594000000E+02  0.51100000000E-03 0. -1.
         11   -1    0    0    0    0 -0.00000000000E+00 -0.00000000000E+00 -0.45593999997E+02  0.45594000000E+02  0.51100000000E-03 0.  1.
    9900012    2    1    2    0    0  0.35089574693E+01 -0.12118355002E+01  0.18354666512E+02  0.72461678670E+02  0.70000141179E+02 0.  0.
        -12    1    1    2    0    0 -0.35089574693E+01  0.12118355002E+01 -0.18354666512E+02  0.18726321330E+02  0.00000000000E+00 0.  1.
         11    1    3    3    0    0 -0.37716279152E+01 -0.33098545279E+02  0.11836362997E+02  0.35353053135E+02  0.51100000000E-03 0.  1.
        -11    1    3    3    0    0  0.52404184106E+00  0.21615354523E+02  0.10697540155E+02  0.24123340080E+02  0.51100000000E-03 0. -1.
        -12    1    3    3    0    0  0.67565435434E+01  0.10271355256E+02 -0.41792366401E+01  0.12985285455E+02  0.00000000000E+00 0.  1.
</event>
<event>
 7    1  0.1920603E-013  0.7246176E+02  0.7816164E-02  0.1226708E+00
        -11   -1    0    0    0    0  0.00000000000E+00  0.00000000000E+00  0.45593999997E+02  0.45594000000E+02  0.51100000000E-03 0.  1.
         11   -1    0    0    0    0 -0.00000000000E+00 -0.00000000000E+00 -0.45593999997E+02  0.45594000000E+02  0.51100000000E-03 0. -1.
    9900012    2    1    2    0    0  0.58227435004E+01  0.47180626526E+01 -0.17161227339E+02  0.72461756894E+02  0.70000243081E+02 0.  0.
        -12    1    1    2    0    0 -0.58227435004E+01 -0.47180626526E+01  0.17161227339E+02  0.18726243106E+02  0.00000000000E+00 0.  1.
         11    1    3    3    0    0 -0.16605540304E+02 -0.48198311533E+01 -0.21366713909E+02  0.27486564075E+02  0.51100000000E-03 0. -1.
        -11    1    3    3    0    0  0.29376057560E+02  0.13451965055E+02 -0.51116296397E+01  0.32711418181E+02  0.51100000000E-03 0.  1.
        -12    1    3    3    0    0 -0.69477737555E+01 -0.39140712488E+01  0.93171162097E+01  0.12263774638E+02  0.00000000000E+00 0.  1.
</event>
<event>
 7    1  0.1920603E-013  0.7246163E+02  0.7816164E-02  0.1226708E+00
        -11   -1    0    0    0    0  0.00000000000E+00  0.00000000000E+00  0.45593999997E+02  0.45594000000E+02  0.51100000000E-03 0.  1.
         11   -1    0    0    0    0 -0.00000000000E+00 -0.00000000000E+00 -0.45593999997E+02  0.45594000000E+02  0.51100000000E-03 0. -1.
    9900012    2    1    2    0    0  0.14868838891E+02 -0.10608354155E+02  0.41300520004E+01  0.72461631496E+02  0.70000079726E+02 0.  0.
        -12    1    1    2    0    0 -0.14868838891E+02  0.10608354155E+02 -0.41300520004E+01  0.18726368504E+02  0.00000000000E+00 0.  1.
         11    1    3    3    0    0  0.61030388859E+01  0.12354905632E+02 -0.25716558982E+02  0.29175883584E+02  0.51100000000E-03 0. -1.
        -11    1    3    3    0    0  0.29165078509E+01 -0.11121112284E+02  0.97747368719E+00  0.11538657268E+02  0.51100000000E-03 0.  1.
         12    1    3    3    0    0  0.58492921541E+01 -0.11842147502E+02  0.28869137295E+02  0.31747090643E+02  0.00000000000E+00 0. -1.
</event>
<event>
 7    1  0.1920603E-013  0.7246157E+02  0.7816164E-02  0.1226708E+00
        -11   -1    0    0    0    0  0.00000000000E+00  0.00000000000E+00  0.45593999997E+02  0.45594000000E+02  0.51100000000E-03 0.  1.
         11   -1    0    0    0    0 -0.00000000000E+00 -0.00000000000E+00 -0.45593999997E+02  0.45594000000E+02  0.51100000000E-03 0. -1.
    9900012    2    1    2    0    0  0.17761551487E+02 -0.52089608347E+01 -0.28413438432E+01  0.72461568972E+02  0.69999998278E+02 0.  0.
        -12    1    1    2    0    0 -0.17761551487E+02  0.52089608347E+01  0.28413438432E+01  0.18726431028E+02  0.00000000000E+00 0.  1.
         11    1    3    3    0    0  0.16884950620E+02  0.15959519723E+02 -0.54835561381E+01  0.23872101194E+02  0.51100000000E-03 0. -1.
        -11    1    3    3    0    0 -0.19909860395E+02 -0.59788436770E+01 -0.56495222781E+01  0.21542196149E+02  0.51100000000E-03 0.  1.
        -12    1    3    3    0    0  0.20786461263E+02 -0.15189636881E+02  0.82917345730E+01  0.27047271630E+02  0.00000000000E+00 0.  1.
</event>
<event>
 7    1  0.1920603E-013  0.7246156E+02  0.7816164E-02  0.1226708E+00
        -11   -1    0    0    0    0  0.00000000000E+00  0.00000000000E+00  0.45593999997E+02  0.45594000000E+02  0.51100000000E-03 0.  1.
         11   -1    0    0    0    0 -0.00000000000E+00 -0.00000000000E+00 -0.45593999997E+02  0.45594000000E+02  0.51100000000E-03 0. -1.
    9900012    2    1    2    0    0 -0.13326493434E+02 -0.11618357537E+02 -0.61723368803E+01  0.72461564096E+02  0.69999991926E+02 0.  0.
        -12    1    1    2    0    0  0.13326493434E+02  0.11618357537E+02  0.61723368803E+01  0.18726435904E+02  0.00000000000E+00 0.  1.
         11    1    3    3    0    0 -0.39576593903E+01 -0.22276427390E+02 -0.17363538537E+02  0.28520076366E+02  0.51100000000E-03 0. -1.
        -11    1    3    3    0    0  0.73667395901E+00  0.20290566730E+02 -0.65789062514E+01  0.21343190822E+02  0.51100000000E-03 0.  1.
        -12    1    3    3    0    0 -0.10105508003E+02 -0.96324968764E+01  0.17770107908E+02  0.22598296908E+02  0.00000000000E+00 0.  1.
</event>
<event>
 7    1  0.1920603E-013  0.7246161E+02  0.7816164E-02  0.1226708E+00
        -11   -1    0    0    0    0  0.00000000000E+00  0.00000000000E+00  0.45593999997E+02  0.45594000000E+02  0.51100000000E-03 0. -1.
         11   -1    0    0    0    0 -0.00000000000E+00 -0.00000000000E+00 -0.45593999997E+02  0.45594000000E+02  0.51100000000E-03 0.  1.
    9900012    2    1    2    0    0  0.26624914025E+01 -0.82178729376E+01  0.16614915046E+02  0.72461609582E+02  0.70000051180E+02 0.  0.
        -12    1    1    2    0    0 -0.26624914025E+01  0.82178729376E+01 -0.16614915046E+02  0.18726390418E+02  0.00000000000E+00 0.  1.
         11    1    3    3    0    0  0.60405344892E+00  0.27361320589E+02  0.21164571488E+02  0.34596904940E+02  0.51100000000E-03 0. -1.
        -11    1    3    3    0    0 -0.63941652201E+00 -0.34759573657E+02 -0.40400235024E+01  0.34999408630E+02  0.51100000000E-03 0.  1.
        -12    1    3    3    0    0  0.26978544756E+01 -0.81961986921E+00 -0.50963293935E+00  0.28652960116E+01  0.00000000000E+00 0.  1.
</event>
<event>
 7    1  0.1920603E-013  0.7246153E+02  0.7816164E-02  0.1226708E+00
        -11   -1    0    0    0    0  0.00000000000E+00  0.00000000000E+00  0.45593999997E+02  0.45594000000E+02  0.51100000000E-03 0.  1.
         11   -1    0    0    0    0 -0.00000000000E+00 -0.00000000000E+00 -0.45593999997E+02  0.45594000000E+02  0.51100000000E-03 0. -1.
    9900012    2    1    2    0    0  0.15919827667E+02  0.39516330699E+00 -0.98531082136E+01  0.72461526534E+02  0.69999942995E+02 0.  0.
        -12    1    1    2    0    0 -0.15919827667E+02 -0.39516330699E+00  0.98531082136E+01  0.18726473466E+02  0.00000000000E+00 0.  1.
         11    1    3    3    0    0  0.16251315020E+02  0.17613630273E+02 -0.26663979430E+02  0.35851262329E+02  0.51100000000E-03 0. -1.
        -11    1    3    3    0    0 -0.65282371560E+01 -0.22872612016E+02  0.99907652472E+01  0.25799024231E+02  0.51100000000E-03 0.  1.
        -12    1    3    3    0    0  0.61967498026E+01  0.56541450496E+01  0.68201059690E+01  0.10811239975E+02  0.00000000000E+00 0.  1.
</event>
<event>
 7    1  0.1920603E-013  0.7246158E+02  0.7816164E-02  0.1226708E+00
        -11   -1    0    0    0    0  0.00000000000E+00  0.00000000000E+00  0.45593999997E+02  0.45594000000E+02  0.51100000000E-03 0. -1.
         11   -1    0    0    0    0 -0.00000000000E+00 -0.00000000000E+00 -0.45593999997E+02  0.45594000000E+02  0.51100000000E-03 0.  1.
    9900012    2    1    2    0    0 -0.69719674166E+01 -0.10306072281E+02  0.13994836448E+02  0.72461577418E+02  0.70000009280E+02 0.  0.
        -12    1    1    2    0    0  0.69719674166E+01  0.10306072281E+02 -0.13994836448E+02  0.18726422582E+02  0.00000000000E+00 0.  1.
         11    1    3    3    0    0 -0.15918692707E+02  0.88785391321E+01 -0.19320370686E+02  0.26561437429E+02  0.51100000000E-03 0. -1.
        -11    1    3    3    0    0  0.38405148292E+01 -0.16975634086E+02  0.66036059495E+01  0.18615297971E+02  0.51100000000E-03 0.  1.
         12    1    3    3    0    0  0.51062104614E+01 -0.22089773271E+01  0.26711601184E+02  0.27284842017E+02  0.00000000000E+00 0. -1.
</event>
<event>
 7    1  0.1920603E-013  0.7246159E+02  0.7816164E-02  0.1226708E+00
        -11   -1    0    0    0    0  0.00000000000E+00  0.00000000000E+00  0.45593999997E+02  0.45594000000E+02  0.51100000000E-03 0.  1.
         11   -1    0    0    0    0 -0.00000000000E+00 -0.00000000000E+00 -0.45593999997E+02  0.45594000000E+02  0.51100000000E-03 0. -1.
    9900012    2    1    2    0    0 -0.73937464356E+01  0.25482123908E+01 -0.17015218706E+02  0.72461587093E+02  0.70000021884E+02 0.  0.
        -12    1    1    2    0    0  0.73937464356E+01 -0.25482123908E+01  0.17015218706E+02  0.18726412907E+02  0.00000000000E+00 0.  1.
         11    1    3    3    0    0  0.15335810174E+02  0.84677761855E+01 -0.98430299570E+01  0.20094166970E+02  0.51100000000E-03 0. -1.
        -11    1    3    3    0    0 -0.33969559727E+02  0.70143268187E+01 -0.36918032943E+01  0.34882104016E+02  0.51100000000E-03 0.  1.
        -12    1    3    3    0    0  0.11240003117E+02 -0.12933890613E+02 -0.34803854546E+01  0.17485316108E+02  0.00000000000E+00 0.  1.
</event>
<event>
 7    1  0.1920603E-013  0.7246156E+02  0.7816164E-02  0.1226708E+00
        -11   -1    0    0    0    0  0.00000000000E+00  0.00000000000E+00  0.45593999997E+02  0.45594000000E+02  0.51100000000E-03 0. -1.
         11   -1    0    0    0    0 -0.00000000000E+00 -0.00000000000E+00 -0.45593999997E+02  0.45594000000E+02  0.51100000000E-03 0.  1.
    9900012    2    1    2    0    0  0.60333247756E+01  0.16607591354E+02 -0.62021369622E+01  0.72461558765E+02  0.69999984980E+02 0.  0.
        -12    1    1    2    0    0 -0.60333247756E+01 -0.16607591354E+02  0.62021369622E+01  0.18726441235E+02  0.00000000000E+00 0.  1.
         11    1    3    3    0    0  0.34426111803E+01  0.15706668683E+02 -0.35337791374E+02  0.38824097058E+02  0.51100000000E-03 0. -1.
        -11    1    3    3    0    0  0.62753709012E+01 -0.31749044564E+01  0.43930052573E+01  0.82920922394E+01  0.51100000000E-03 0.  1.
         12    1    3    3    0    0 -0.36846573060E+01  0.40758271275E+01  0.24742649155E+02  0.25345369467E+02  0.00000000000E+00 0. -1.
</event>
<event>
 7    1  0.1920603E-013  0.7246158E+02  0.7816164E-02  0.1226708E+00
        -11   -1    0    0    0    0  0.00000000000E+00  0.00000000000E+00  0.45593999997E+02  0.45594000000E+02  0.51100000000E-03 0.  1.
         11   -1    0    0    0    0 -0.00000000000E+00 -0.00000000000E+00 -0.45593999997E+02  0.45594000000E+02  0.51100000000E-03 0. -1.
    9900012    2    1    2    0    0  0.70253579661E+00  0.18653658715E+02 -0.14921237965E+01  0.72461575530E+02  0.70000006820E+02 0.  0.
        -12    1    1    2    0    0 -0.70253579661E+00 -0.18653658715E+02  0.14921237965E+01  0.18726424470E+02  0.00000000000E+00 0.  1.
         11    1    3    3    0    0  0.20148025015E+02  0.12499171624E+02 -0.20545767968E+02  0.31373568254E+02  0.51100000000E-03 0. -1.
        -11    1    3    3    0    0 -0.12912132066E+02 -0.10953072314E+02  0.40393474283E+01  0.17407161616E+02  0.51100000000E-03 0.  1.
        -12    1    3    3    0    0 -0.65333571526E+01  0.17107559406E+02  0.15014296743E+02  0.23680845661E+02  0.00000000000E+00 0.  1.
</event>
<event>
 7    1  0.1920603E-013  0.7246147E+02  0.7816164E-02  0.1226708E+00
        -11   -1    0    0    0    0  0.00000000000E+00  0.00000000000E+00  0.45593999997E+02  0.45594000000E+02  0.51100000000E-03 0. -1.
         11   -1    0    0    0    0 -0.00000000000E+00 -0.00000000000E+00 -0.45593999997E+02  0.45594000000E+02  0.51100000000E-03 0.  1.
    9900012    2    1    2    0    0 -0.76357265634E+01  0.10478960484E+02  0.13511841500E+02  0.72461473528E+02  0.69999873944E+02 0.  0.
        -12    1    1    2    0    0  0.76357265634E+01 -0.10478960484E+02 -0.13511841500E+02  0.18726526472E+02  0.00000000000E+00 0.  1.
         11    1    3    3    0    0 -0.23684712687E+02 -0.13973891874E+02  0.16477928123E+02  0.32058655378E+02  0.51100000000E-03 0. -1.
        -11    1    3    3    0    0  0.10439837509E+02  0.34492915917E+01 -0.12514784654E+02  0.16658561010E+02  0.51100000000E-03 0.  1.
         12    1    3    3    0    0  0.56091486138E+01  0.21003560767E+02  0.95486980314E+01  0.23744257140E+02  0.00000000000E+00 0. -1.
</event>
<event>
 7    1  0.1920603E-013  0.7246159E+02  0.7816164E-02  0.1226708E+00
        -11   -1    0    0    0    0  0.00000000000E+00  0.00000000000E+00  0.45593999997E+02  0.45594000000E+02  0.51100000000E-03 0.  1.
         11   -1    0    0    0    0 -0.00000000000E+00 -0.00000000000E+00 -0.45593999997E+02  0.45594000000E+02  0.51100000000E-03 0. -1.
    9900012    2    1    2    0    0  0.24323895834E+01  0.92784757301E+01 -0.16083281809E+02  0.72461585909E+02  0.70000020341E+02 0.  0.
        -12    1    1    2    0    0 -0.24323895834E+01 -0.92784757301E+01  0.16083281809E+02  0.18726414091E+02  0.00000000000E+00 0.  1.
         11    1    3    3    0    0 -0.11333627621E+02 -0.94109392266E+01 -0.20699038040E+02  0.25406043931E+02  0.51100000000E-03 0. -1.
        -11    1    3    3    0    0  0.27190850405E+01  0.14728575573E+02  0.21676906466E+02  0.26347915213E+02  0.51100000000E-03 0.  1.
        -12    1    3    3    0    0  0.11046932164E+02  0.39608393833E+01 -0.17061150235E+02  0.20707626764E+02  0.00000000000E+00 0.  1.
</event>
<event>
 7    1  0.1920603E-013  0.7246156E+02  0.7816164E-02  0.1226708E+00
        -11   -1    0    0    0    0  0.00000000000E+00  0.00000000000E+00  0.45593999997E+02  0.45594000000E+02  0.51100000000E-03 0. -1.
         11   -1    0    0    0    0 -0.00000000000E+00 -0.00000000000E+00 -0.45593999997E+02  0.45594000000E+02  0.51100000000E-03 0.  1.
    9900012    2    1    2    0    0  0.88436967951E+01 -0.12327303646E+02  0.10977531610E+02  0.72461559109E+02  0.69999985430E+02 0.  0.
        -12    1    1    2    0    0 -0.88436967951E+01  0.12327303646E+02 -0.10977531610E+02  0.18726440891E+02  0.00000000000E+00 0.  1.
         11    1    3    3    0    0 -0.89393016161E+01 -0.22122931823E+02  0.22791337242E+02  0.32996670732E+02  0.51100000000E-03 0. -1.
        -11    1    3    3    0    0  0.13877483862E+00  0.82459105122E+01 -0.18718305458E+02  0.20454565704E+02  0.51100000000E-03 0.  1.
         12    1    3    3    0    0  0.17644223573E+02  0.15497176653E+01  0.69044998257E+01  0.19010322674E+02  0.00000000000E+00 0. -1.
</event>
<event>
 7    1  0.1920603E-013  0.7246152E+02  0.7816164E-02  0.1226708E+00
        -11   -1    0    0    0    0  0.00000000000E+00  0.00000000000E+00  0.45593999997E+02  0.45594000000E+02  0.51100000000E-03 0.  1.
         11   -1    0    0    0    0 -0.00000000000E+00 -0.00000000000E+00 -0.45593999997E+02  0.45594000000E+02  0.51100000000E-03 0. -1.
    9900012    2    1    2    0    0 -0.18363706845E+00  0.86364644780E-01 -0.18725376985E+02  0.72461523432E+02  0.69999938954E+02 0.  0.
        -12    1    1    2    0    0  0.18363706845E+00 -0.86364644780E-01  0.18725376985E+02  0.18726476568E+02  0.00000000000E+00 0.  1.
         11    1    3    3    0    0  0.12937503972E+02 -0.11205882020E+02 -0.34753033058E+02  0.38739180526E+02  0.51100000000E-03 0. -1.
        -11    1    3    3    0    0 -0.99438994605E+01 -0.20566189111E+01 -0.26986157024E+01  0.10506823725E+02  0.51100000000E-03 0.  1.
         12    1    3    3    0    0 -0.31772415800E+01  0.13348865576E+02  0.18726271776E+02  0.23215519181E+02  0.00000000000E+00 0. -1.
</event>
<event>
 7    1  0.1920603E-013  0.7246153E+02  0.7816164E-02  0.1226708E+00
        -11   -1    0    0    0    0  0.00000000000E+00  0.00000000000E+00  0.45593999997E+02  0.45594000000E+02  0.51100000000E-03 0.  1.
         11   -1    0    0    0    0 -0.00000000000E+00 -0.00000000000E+00 -0.45593999997E+02  0.45594000000E+02  0.51100000000E-03 0. -1.
    9900012    2    1    2    0    0  0.18157325117E+02  0.38869922901E+01  0.24255945789E+01  0.72461530137E+02  0.69999947688E+02 0.  0.
        -12    1    1    2    0    0 -0.18157325117E+02 -0.38869922901E+01 -0.24255945789E+01  0.18726469863E+02  0.00000000000E+00 0.  1.
         11    1    3    3    0    0  0.15538976200E+02 -0.10623122651E+02 -0.95932833297E+01  0.21126798184E+02  0.51100000000E-03 0. -1.
        -11    1    3    3    0    0 -0.21278812550E+02  0.47533510853E+01 -0.21161300596E+01  0.21905711967E+02  0.51100000000E-03 0.  1.
         12    1    3    3    0    0  0.23897161467E+02  0.97567638561E+01  0.14135007968E+02  0.29429019987E+02  0.00000000000E+00 0. -1.
</event>
<event>
 7    1  0.1920603E-013  0.7246157E+02  0.7816164E-02  0.1226708E+00
        -11   -1    0    0    0    0  0.00000000000E+00  0.00000000000E+00  0.45593999997E+02  0.45594000000E+02  0.51100000000E-03 0. -1.
         11   -1    0    0    0    0 -0.00000000000E+00 -0.00000000000E+00 -0.45593999997E+02  0.45594000000E+02  0.51100000000E-03 0.  1.
    9900012    2    1    2    0    0 -0.46957413011E+01  0.14061639722E+02  0.11441133122E+02  0.72461568809E+02  0.69999998065E+02 0.  0.
        -12    1    1    2    0    0  0.46957413011E+01 -0.14061639722E+02 -0.11441133122E+02  0.18726431191E+02  0.00000000000E+00 0.  1.
         11    1    3    3    0    0 -0.82913622284E+01  0.29461476616E+02 -0.91961489721E+01  0.31957697792E+02  0.51100000000E-03 0. -1.
        -11    1    3    3    0    0 -0.10330665764E+02 -0.16354235131E+02  0.17741428701E+02  0.26247703794E+02  0.51100000000E-03 0.  1.
        -12    1    3    3    0    0  0.13926286691E+02  0.95439823688E+00  0.28958533926E+01  0.14256167222E+02  0.00000000000E+00 0.  1.
</event>
<event>
 7    1  0.1920603E-013  0.7246155E+02  0.7816164E-02  0.1226708E+00
        -11   -1    0    0    0    0  0.00000000000E+00  0.00000000000E+00  0.45593999997E+02  0.45594000000E+02  0.51100000000E-03 0.  1.
         11   -1    0    0    0    0 -0.00000000000E+00 -0.00000000000E+00 -0.45593999997E+02  0.45594000000E+02  0.51100000000E-03 0. -1.
    9900012    2    1    2    0    0  0.26915271619E+00  0.11472013262E+02 -0.14798665847E+02  0.72461546990E+02  0.69999969642E+02 0.  0.
        -12    1    1    2    0    0 -0.26915271619E+00 -0.11472013262E+02  0.14798665847E+02  0.18726453010E+02  0.00000000000E+00 0.  1.
         11    1    3    3    0    0  0.11708864760E+02 -0.25204935838E+02 -0.23557090656E+01  0.27891498167E+02  0.51100000000E-03 0. -1.
        -11    1    3    3    0    0 -0.40841659004E+01  0.29200165637E+02 -0.16654579188E+01  0.29531404211E+02  0.51100000000E-03 0.  1.
         12    1    3    3    0    0 -0.73555461431E+01  0.74767834628E+01 -0.10777498863E+02  0.15038644612E+02  0.00000000000E+00 0. -1.
</event>
<event>
 7    1  0.1920603E-013  0.7246158E+02  0.7816164E-02  0.1226708E+00
        -11   -1    0    0    0    0  0.00000000000E+00  0.00000000000E+00  0.45593999997E+02  0.45594000000E+02  0.51100000000E-03 0.  1.
         11   -1    0    0    0    0 -0.00000000000E+00 -0.00000000000E+00 -0.45593999997E+02  0.45594000000E+02  0.51100000000E-03 0. -1.
    9900012    2    1    2    0    0  0.10392722129E+00  0.11866585601E+00 -0.18725758225E+02  0.72461577395E+02  0.70000009250E+02 0.  0.
        -12    1    1    2    0    0 -0.10392722129E+00 -0.11866585601E+00  0.18725758225E+02  0.18726422605E+02  0.00000000000E+00 0.  1.
         11    1    3    3    0    0 -0.32166926587E+02  0.42552996795E+01 -0.14761544044E+02  0.35647186765E+02  0.51100000000E-03 0. -1.
        -11    1    3    3    0    0  0.90852821789E+01  0.61723393696E+01  0.73744881410E+00  0.11008358487E+02  0.51100000000E-03 0.  1.
         12    1    3    3    0    0  0.23185571629E+02 -0.10308973193E+02 -0.47016629960E+01  0.25806032144E+02  0.00000000000E+00 0. -1.
</event>
<event>
 7    1  0.1920603E-013  0.7246155E+02  0.7816164E-02  0.1226708E+00
        -11   -1    0    0    0    0  0.00000000000E+00  0.00000000000E+00  0.45593999997E+02  0.45594000000E+02  0.51100000000E-03 0. -1.
         11   -1    0    0    0    0 -0.00000000000E+00 -0.00000000000E+00 -0.45593999997E+02  0.45594000000E+02  0.51100000000E-03 0.  1.
    9900012    2    1    2    0    0 -0.16824287643E+02 -0.64393638537E+01 -0.51144665370E+01  0.72461552673E+02  0.69999977045E+02 0.  0.
        -12    1    1    2    0    0  0.16824287643E+02  0.64393638537E+01  0.51144665370E+01  0.18726447327E+02  0.00000000000E+00 0.  1.
         11    1    3    3    0    0 -0.89915174719E+01 -0.19712448703E+02 -0.22943619293E+02  0.31556896027E+02  0.51100000000E-03 0. -1.
        -11    1    3    3    0    0 -0.19660003765E+02  0.61180270332E+01  0.17588368802E+02  0.27079451992E+02  0.51100000000E-03 0.  1.
        -12    1    3    3    0    0  0.11827233594E+02  0.71550578158E+01  0.24078395393E+00  0.13825204655E+02  0.00000000000E+00 0.  1.
</event>
<event>
 7    1  0.1920603E-013  0.7246155E+02  0.7816164E-02  0.1226708E+00
        -11   -1    0    0    0    0  0.00000000000E+00  0.00000000000E+00  0.45593999997E+02  0.45594000000E+02  0.51100000000E-03 0.  1.
         11   -1    0    0    0    0 -0.00000000000E+00 -0.00000000000E+00 -0.45593999997E+02  0.45594000000E+02  0.51100000000E-03 0. -1.
    9900012    2    1    2    0    0 -0.62360709098E+01 -0.15601705544E+02 -0.82691021113E+01  0.72461552232E+02  0.69999976470E+02 0.  0.
        -12    1    1    2    0    0  0.62360709098E+01  0.15601705544E+02  0.82691021113E+01  0.18726447768E+02  0.00000000000E+00 0.  1.
         11    1    3    3    0    0  0.11459748215E+02  0.13688711609E+02  0.18490207210E+02  0.25702031390E+02  0.51100000000E-03 0.  1.
        -11    1    3    3    0    0 -0.12015137371E+02 -0.24985013307E+02 -0.28135917380E+02  0.39499927381E+02  0.51100000000E-03 0. -1.
        -12    1    3    3    0    0 -0.56806817541E+01 -0.43054038461E+01  0.13766080589E+01  0.72595934609E+01  0.00000000000E+00 0.  1.
</event>
<event>
 7    1  0.1920603E-013  0.7246157E+02  0.7816164E-02  0.1226708E+00
        -11   -1    0    0    0    0  0.00000000000E+00  0.00000000000E+00  0.45593999997E+02  0.45594000000E+02  0.51100000000E-03 0. -1.
         11   -1    0    0    0    0 -0.00000000000E+00 -0.00000000000E+00 -0.45593999997E+02  0.45594000000E+02  0.51100000000E-03 0.  1.
    9900012    2    1    2    0    0  0.72297997020E+01 -0.40333391089E+01  0.16797058410E+02  0.72461574839E+02  0.70000005920E+02 0.  0.
        -12    1    1    2    0    0 -0.72297997020E+01  0.40333391089E+01 -0.16797058410E+02  0.18726425161E+02  0.00000000000E+00 0.  1.
         11    1    3    3    0    0 -0.12832922733E+02 -0.19593566952E+02  0.13822402592E+02  0.27196517892E+02  0.51100000000E-03 0. -1.
        -11    1    3    3    0    0  0.23037891364E+02 -0.22510378739E+01 -0.75697187185E+01  0.24353896028E+02  0.51100000000E-03 0.  1.
         12    1    3    3    0    0 -0.29751689284E+01  0.17811265717E+02  0.10544374536E+02  0.20911160919E+02  0.00000000000E+00 0. -1.
</event>
<event>
 7    1  0.1920603E-013  0.7246159E+02  0.7816164E-02  0.1226708E+00
        -11   -1    0    0    0    0  0.00000000000E+00  0.00000000000E+00  0.45593999997E+02  0.45594000000E+02  0.51100000000E-03 0.  1.
         11   -1    0    0    0    0 -0.00000000000E+00 -0.00000000000E+00 -0.45593999997E+02  0.45594000000E+02  0.51100000000E-03 0. -1.
    9900012    2    1    2    0    0  0.51215166679E+01 -0.10184820613E+02 -0.14856579034E+02  0.72461589653E+02  0.70000025219E+02 0.  0.
        -12    1    1    2    0    0 -0.51215166679E+01  0.10184820613E+02  0.14856579034E+02  0.18726410347E+02  0.00000000000E+00 0.  1.
         11    1    3    3    0    0 -0.17594088226E+02 -0.25077185239E+01  0.13060152763E+02  0.22054663524E+02  0.51100000000E-03 0. -1.
        -11    1    3    3    0    0  0.26672446991E+02  0.49649925597E+01 -0.11910077308E+02  0.29629723613E+02  0.51100000000E-03 0.  1.
         12    1    3    3    0    0 -0.39568420978E+01 -0.12642094649E+02 -0.16006654489E+02  0.20777202517E+02  0.00000000000E+00 0. -1.
</event>
<event>
 7    1  0.1920603E-013  0.7246148E+02  0.7816164E-02  0.1226708E+00
        -11   -1    0    0    0    0  0.00000000000E+00  0.00000000000E+00  0.45593999997E+02  0.45594000000E+02  0.51100000000E-03 0.  1.
         11   -1    0    0    0    0 -0.00000000000E+00 -0.00000000000E+00 -0.45593999997E+02  0.45594000000E+02  0.51100000000E-03 0. -1.
    9900012    2    1    2    0    0  0.15230242243E+02  0.99264786844E+01 -0.44930297557E+01  0.72461479388E+02  0.69999881578E+02 0.  0.
        -12    1    1    2    0    0 -0.15230242243E+02 -0.99264786844E+01  0.44930297557E+01  0.18726520612E+02  0.00000000000E+00 0.  1.
         11    1    3    3    0    0  0.35169998236E+02  0.50616161753E+01 -0.19830609969E+02  0.40691544899E+02  0.51100000000E-03 0. -1.
        -11    1    3    3    0    0  0.55835927373E+00  0.50559927366E+01  0.89574312811E+01  0.10300990392E+02  0.51100000000E-03 0.  1.
         12    1    3    3    0    0 -0.20498115267E+02 -0.19113022740E+00  0.63801489323E+01  0.21468944098E+02  0.00000000000E+00 0. -1.
</event>
<event>
 7    1  0.1920603E-013  0.7246153E+02  0.7816164E-02  0.1226708E+00
        -11   -1    0    0    0    0  0.00000000000E+00  0.00000000000E+00  0.45593999997E+02  0.45594000000E+02  0.51100000000E-03 0.  1.
         11   -1    0    0    0    0 -0.00000000000E+00 -0.00000000000E+00 -0.45593999997E+02  0.45594000000E+02  0.51100000000E-03 0. -1.
    9900012    2    1    2    0    0  0.18024465245E+02 -0.15438935299E+00  0.50769567682E+01  0.72461530139E+02  0.69999947690E+02 0.  0.
        -12    1    1    2    0    0 -0.18024465245E+02  0.15438935299E+00 -0.50769567682E+01  0.18726469861E+02  0.00000000000E+00 0.  1.
         11    1    3    3    0    0  0.35938479006E+02  0.14438852099E+02 -0.85121609119E+01  0.39654906466E+02  0.51100000000E-03 0. -1.
        -11    1    3    3    0    0 -0.16151019213E+02 -0.13705507953E+02  0.22552679845E+01  0.21302173687E+02  0.51100000000E-03 0.  1.
         12    1    3    3    0    0 -0.17629945485E+01 -0.88773349918E+00  0.11333849696E+02  0.11504449985E+02  0.00000000000E+00 0. -1.
</event>
<event>
 7    1  0.1920603E-013  0.7246154E+02  0.7816164E-02  0.1226708E+00
        -11   -1    0    0    0    0  0.00000000000E+00  0.00000000000E+00  0.45593999997E+02  0.45594000000E+02  0.51100000000E-03 0. -1.
         11   -1    0    0    0    0 -0.00000000000E+00 -0.00000000000E+00 -0.45593999997E+02  0.45594000000E+02  0.51100000000E-03 0.  1.
    9900012    2    1    2    0    0  0.15062702876E+02  0.26092981493E+01  0.10816047707E+02  0.72461538969E+02  0.69999959192E+02 0.  0.
        -12    1    1    2    0    0 -0.15062702876E+02 -0.26092981493E+01 -0.10816047707E+02  0.18726461031E+02  0.00000000000E+00 0.  1.
         11    1    3    3    0    0  0.29563807760E+02  0.17218170075E+02  0.23108214579E+02  0.41285272087E+02  0.51100000000E-03 0. -1.
        -11    1    3    3    0    0 -0.11798253548E+02 -0.27561186880E+01 -0.14420128130E+02  0.18834411925E+02  0.51100000000E-03 0.  1.
        -12    1    3    3    0    0 -0.27028513356E+01 -0.11852753238E+02  0.21279612589E+01  0.12341854957E+02  0.00000000000E+00 0.  1.
</event>
<event>
 7    1  0.1920603E-013  0.7246150E+02  0.7816164E-02  0.1226708E+00
        -11   -1    0    0    0    0  0.00000000000E+00  0.00000000000E+00  0.45593999997E+02  0.45594000000E+02  0.51100000000E-03 0. -1.
         11   -1    0    0    0    0 -0.00000000000E+00 -0.00000000000E+00 -0.45593999997E+02  0.45594000000E+02  0.51100000000E-03 0.  1.
    9900012    2    1    2    0    0 -0.22897151478E+01 -0.12722011770E+02  0.13549519416E+02  0.72461498583E+02  0.69999906582E+02 0.  0.
        -12    1    1    2    0    0  0.22897151478E+01  0.12722011770E+02 -0.13549519416E+02  0.18726501417E+02  0.00000000000E+00 0.  1.
         11    1    3    3    0    0 -0.12141347684E+02  0.63873511950E+01 -0.10372639146E+02  0.17198901766E+02  0.51100000000E-03 0. -1.
        -11    1    3    3    0    0  0.12341508428E+02 -0.31749486191E+02  0.83879827779E+01  0.35081347737E+02  0.51100000000E-03 0.  1.
        -12    1    3    3    0    0 -0.24898758921E+01  0.12640123226E+02  0.15534175784E+02  0.20181249080E+02  0.00000000000E+00 0.  1.
</event>
<event>
 7    1  0.1920603E-013  0.7246160E+02  0.7816164E-02  0.1226708E+00
        -11   -1    0    0    0    0  0.00000000000E+00  0.00000000000E+00  0.45593999997E+02  0.45594000000E+02  0.51100000000E-03 0.  1.
         11   -1    0    0    0    0 -0.00000000000E+00 -0.00000000000E+00 -0.45593999997E+02  0.45594000000E+02  0.51100000000E-03 0. -1.
    9900012    2    1    2    0    0 -0.75117082173E+01  0.11653491476E+02 -0.12587624453E+02  0.72461603836E+02  0.70000043695E+02 0.  0.
        -12    1    1    2    0    0  0.75117082173E+01 -0.11653491476E+02  0.12587624453E+02  0.18726396164E+02  0.00000000000E+00 0.  1.
         11    1    3    3    0    0  0.19349568456E+02  0.24910506608E+02 -0.21831267341E+02  0.38360700892E+02  0.51100000000E-03 0. -1.
        -11    1    3    3    0    0 -0.58126921747E+01 -0.86771283724E+01 -0.50551478508E+00  0.10456361345E+02  0.51100000000E-03 0.  1.
         12    1    3    3    0    0 -0.21048584499E+02 -0.45798867603E+01  0.97491576734E+01  0.23644541600E+02  0.00000000000E+00 0. -1.
</event>
<event>
 7    1  0.1920603E-013  0.7246154E+02  0.7816164E-02  0.1226708E+00
        -11   -1    0    0    0    0  0.00000000000E+00  0.00000000000E+00  0.45593999997E+02  0.45594000000E+02  0.51100000000E-03 0.  1.
         11   -1    0    0    0    0 -0.00000000000E+00 -0.00000000000E+00 -0.45593999997E+02  0.45594000000E+02  0.51100000000E-03 0. -1.
    9900012    2    1    2    0    0  0.14955014757E+02 -0.48545404418E+01 -0.10171584739E+02  0.72461543704E+02  0.69999965361E+02 0.  0.
        -12    1    1    2    0    0 -0.14955014757E+02  0.48545404418E+01  0.10171584739E+02  0.18726456296E+02  0.00000000000E+00 0.  1.
         11    1    3    3    0    0  0.14863117777E+02  0.22255539569E+00 -0.17311841790E+02  0.22818011907E+02  0.51100000000E-03 0. -1.
        -11    1    3    3    0    0 -0.20780812828E+02  0.90153592312E+01 -0.22535939109E+01  0.22763953295E+02  0.51100000000E-03 0.  1.
        -12    1    3    3    0    0  0.20872709808E+02 -0.14092455069E+02  0.93938509615E+01  0.26879578503E+02  0.00000000000E+00 0.  1.
</event>
<event>
 7    1  0.1920603E-013  0.7246156E+02  0.7816164E-02  0.1226708E+00
        -11   -1    0    0    0    0  0.00000000000E+00  0.00000000000E+00  0.45593999997E+02  0.45594000000E+02  0.51100000000E-03 0.  1.
         11   -1    0    0    0    0 -0.00000000000E+00 -0.00000000000E+00 -0.45593999997E+02  0.45594000000E+02  0.51100000000E-03 0. -1.
    9900012    2    1    2    0    0  0.14180837284E+02 -0.88731028898E+01  0.84173347044E+01  0.72461558146E+02  0.69999984175E+02 0.  0.
        -12    1    1    2    0    0 -0.14180837284E+02  0.88731028898E+01 -0.84173347044E+01  0.18726441854E+02  0.00000000000E+00 0.  1.
         11    1    3    3    0    0  0.14410165536E+02 -0.28430542915E+02 -0.12341034196E+02  0.34179668905E+02  0.51100000000E-03 0. -1.
        -11    1    3    3    0    0 -0.87104382442E+01 -0.11284723718E+01  0.10484193222E+02  0.13677115634E+02  0.51100000000E-03 0.  1.
         12    1    3    3    0    0  0.84811099922E+01  0.20685912396E+02  0.10274175679E+02  0.24604773607E+02  0.00000000000E+00 0. -1.
</event>
<event>
 7    1  0.1920603E-013  0.7246158E+02  0.7816164E-02  0.1226708E+00
        -11   -1    0    0    0    0  0.00000000000E+00  0.00000000000E+00  0.45593999997E+02  0.45594000000E+02  0.51100000000E-03 0. -1.
         11   -1    0    0    0    0 -0.00000000000E+00 -0.00000000000E+00 -0.45593999997E+02  0.45594000000E+02  0.51100000000E-03 0.  1.
    9900012    2    1    2    0    0 -0.14435687190E+02  0.10004947339E+02  0.64954467148E+01  0.72461578454E+02  0.70000010629E+02 0.  0.
        -12    1    1    2    0    0  0.14435687190E+02 -0.10004947339E+02 -0.64954467148E+01  0.18726421546E+02  0.00000000000E+00 0.  1.
         11    1    3    3    0    0 -0.19379330436E+02  0.10457206607E+02 -0.21390239952E+02  0.30699413409E+02  0.51100000000E-03 0. -1.
        -11    1    3    3    0    0  0.17062800257E+02  0.12469815841E+01  0.91982328785E+01  0.19424252985E+02  0.51100000000E-03 0.  1.
         12    1    3    3    0    0 -0.12119157011E+02 -0.16992408524E+01  0.18687453789E+02  0.22337912060E+02  0.00000000000E+00 0. -1.
</event>
<event>
 7    1  0.1920603E-013  0.7246158E+02  0.7816164E-02  0.1226708E+00
        -11   -1    0    0    0    0  0.00000000000E+00  0.00000000000E+00  0.45593999997E+02  0.45594000000E+02  0.51100000000E-03 0. -1.
         11   -1    0    0    0    0 -0.00000000000E+00 -0.00000000000E+00 -0.45593999997E+02  0.45594000000E+02  0.51100000000E-03 0.  1.
    9900012    2    1    2    0    0 -0.23141531410E+00  0.78520971175E+01  0.16999113952E+02  0.72461578630E+02  0.70000010859E+02 0.  0.
        -12    1    1    2    0    0  0.23141531410E+00 -0.78520971175E+01 -0.16999113952E+02  0.18726421370E+02  0.00000000000E+00 0.  1.
         11    1    3    3    0    0 -0.97527728376E+01 -0.46173922060E+01  0.41228800113E+01  0.11551408081E+02  0.51100000000E-03 0. -1.
        -11    1    3    3    0    0  0.25052079692E+02 -0.11425775714E+02 -0.39472588788E+01  0.27816108651E+02  0.51100000000E-03 0.  1.
        -12    1    3    3    0    0 -0.15530722169E+02  0.23895265037E+02  0.16823492819E+02  0.33094061898E+02  0.00000000000E+00 0.  1.
</event>
<event>
 7    1  0.1920603E-013  0.7246158E+02  0.7816164E-02  0.1226708E+00
        -11   -1    0    0    0    0  0.00000000000E+00  0.00000000000E+00  0.45593999997E+02  0.45594000000E+02  0.51100000000E-03 0. -1.
         11   -1    0    0    0    0 -0.00000000000E+00 -0.00000000000E+00 -0.45593999997E+02  0.45594000000E+02  0.51100000000E-03 0.  1.
    9900012    2    1    2    0    0 -0.17790539534E+02  0.26094419093E+01  0.52312989825E+01  0.72461575541E+02  0.70000006835E+02 0.  0.
        -12    1    1    2    0    0  0.17790539534E+02 -0.26094419093E+01 -0.52312989825E+01  0.18726424459E+02  0.00000000000E+00 0.  1.
         11    1    3    3    0    0 -0.24465574708E+01 -0.30030336143E+02  0.65179585736E+01  0.30826782455E+02  0.51100000000E-03 0. -1.
        -11    1    3    3    0    0 -0.16230700233E+02  0.23690809586E+02  0.68325298224E+01  0.29519037128E+02  0.51100000000E-03 0.  1.
         12    1    3    3    0    0  0.88671817035E+00  0.89489684657E+01 -0.81191894135E+01  0.12115755959E+02  0.00000000000E+00 0. -1.
</event>
<event>
 7    1  0.1920603E-013  0.7246156E+02  0.7816164E-02  0.1226708E+00
        -11   -1    0    0    0    0  0.00000000000E+00  0.00000000000E+00  0.45593999997E+02  0.45594000000E+02  0.51100000000E-03 0.  1.
         11   -1    0    0    0    0 -0.00000000000E+00 -0.00000000000E+00 -0.45593999997E+02  0.45594000000E+02  0.51100000000E-03 0. -1.
    9900012    2    1    2    0    0 -0.15106641110E+02 -0.11274827674E+01 -0.11008986675E+02  0.72461558517E+02  0.69999984658E+02 0.  0.
        -12    1    1    2    0    0  0.15106641110E+02  0.11274827674E+01  0.11008986675E+02  0.18726441483E+02  0.00000000000E+00 0.  1.
         11    1    3    3    0    0  0.16638194508E+02 -0.14707993496E+02  0.51643708159E+01  0.22799677966E+02  0.51100000000E-03 0. -1.
        -11    1    3    3    0    0 -0.20428677906E+02  0.16971898600E+02  0.34245671133E+01  0.26778795403E+02  0.51100000000E-03 0.  1.
         12    1    3    3    0    0 -0.11316157712E+02 -0.33913878713E+01 -0.19597924604E+02  0.22883085147E+02  0.00000000000E+00 0. -1.
</event>
<event>
 7    1  0.1920603E-013  0.7246161E+02  0.7816164E-02  0.1226708E+00
        -11   -1    0    0    0    0  0.00000000000E+00  0.00000000000E+00  0.45593999997E+02  0.45594000000E+02  0.51100000000E-03 0.  1.
         11   -1    0    0    0    0 -0.00000000000E+00 -0.00000000000E+00 -0.45593999997E+02  0.45594000000E+02  0.51100000000E-03 0. -1.
    9900012    2    1    2    0    0  0.12531742514E+02 -0.41616588059E+01 -0.13278318473E+02  0.72461609106E+02  0.70000050559E+02 0.  0.
        -12    1    1    2    0    0 -0.12531742514E+02  0.41616588059E+01  0.13278318473E+02  0.18726390894E+02  0.00000000000E+00 0.  1.
         11    1    3    3    0    0  0.21017333744E+02 -0.95265131986E+01 -0.36878094885E+02  0.43502605141E+02  0.51100000000E-03 0. -1.
        -11    1    3    3    0    0  0.25505227009E+01  0.24521239772E+01  0.12674098529E+02  0.13158679715E+02  0.51100000000E-03 0.  1.
         12    1    3    3    0    0 -0.11036113931E+02  0.29127304155E+01  0.10925677883E+02  0.15800324249E+02  0.00000000000E+00 0. -1.
</event>
<event>
 7    1  0.1920603E-013  0.7246161E+02  0.7816164E-02  0.1226708E+00
        -11   -1    0    0    0    0  0.00000000000E+00  0.00000000000E+00  0.45593999997E+02  0.45594000000E+02  0.51100000000E-03 0. -1.
         11   -1    0    0    0    0 -0.00000000000E+00 -0.00000000000E+00 -0.45593999997E+02  0.45594000000E+02  0.51100000000E-03 0.  1.
    9900012    2    1    2    0    0  0.20208331751E+01 -0.97700909435E+01  0.15847369025E+02  0.72461613569E+02  0.70000056373E+02 0.  0.
        -12    1    1    2    0    0 -0.20208331751E+01  0.97700909435E+01 -0.15847369025E+02  0.18726386431E+02  0.00000000000E+00 0.  1.
         11    1    3    3    0    0  0.31311407253E+02 -0.10500837262E+01 -0.31457212791E+00  0.31330589779E+02  0.51100000000E-03 0. -1.
        -11    1    3    3    0    0 -0.20731344831E+02  0.26503052106E+01  0.19054512261E+01  0.20986746314E+02  0.51100000000E-03 0.  1.
         12    1    3    3    0    0 -0.85592292471E+01 -0.11370312428E+02  0.14256489927E+02  0.20144277476E+02  0.00000000000E+00 0. -1.
</event>
<event>
 7    1  0.1920603E-013  0.7246160E+02  0.7816164E-02  0.1226708E+00
        -11   -1    0    0    0    0  0.00000000000E+00  0.00000000000E+00  0.45593999997E+02  0.45594000000E+02  0.51100000000E-03 0.  1.
         11   -1    0    0    0    0 -0.00000000000E+00 -0.00000000000E+00 -0.45593999997E+02  0.45594000000E+02  0.51100000000E-03 0. -1.
    9900012    2    1    2    0    0 -0.49131473416E+01 -0.74562456003E+01 -0.16460360366E+02  0.72461599421E+02  0.70000037943E+02 0.  0.
        -12    1    1    2    0    0  0.49131473416E+01  0.74562456003E+01  0.16460360366E+02  0.18726400579E+02  0.00000000000E+00 0.  1.
         11    1    3    3    0    0 -0.69464016594E+01  0.51654647812E+01 -0.68080367287E+01  0.11012896385E+02  0.51100000000E-03 0. -1.
        -11    1    3    3    0    0  0.30598039593E+02 -0.80872872233E+01 -0.69285122103E+01  0.32398279634E+02  0.51100000000E-03 0.  1.
        -12    1    3    3    0    0 -0.28564785275E+02 -0.45344231582E+01 -0.27238114270E+01  0.29050423402E+02  0.00000000000E+00 0.  1.
</event>
<event>
 7    1  0.1920603E-013  0.7246157E+02  0.7816164E-02  0.1226708E+00
        -11   -1    0    0    0    0  0.00000000000E+00  0.00000000000E+00  0.45593999997E+02  0.45594000000E+02  0.51100000000E-03 0. -1.
         11   -1    0    0    0    0 -0.00000000000E+00 -0.00000000000E+00 -0.45593999997E+02  0.45594000000E+02  0.51100000000E-03 0.  1.
    9900012    2    1    2    0    0 -0.66681212298E+01  0.11485629183E+02  0.13202107109E+02  0.72461570800E+02  0.70000000659E+02 0.  0.
        -12    1    1    2    0    0  0.66681212298E+01 -0.11485629183E+02 -0.13202107109E+02  0.18726429200E+02  0.00000000000E+00 0.  1.
         11    1    3    3    0    0  0.21825491399E+02  0.30991642350E+01 -0.17099093627E+02  0.27898671955E+02  0.51100000000E-03 0. -1.
        -11    1    3    3    0    0 -0.52622535737E+01 -0.27266496298E+01  0.18982209505E+01  0.62232767828E+01  0.51100000000E-03 0.  1.
         12    1    3    3    0    0 -0.23231359055E+02  0.11113114578E+02  0.28402979785E+02  0.38339622062E+02  0.00000000000E+00 0. -1.
</event>
<event>
 7    1  0.1920603E-013  0.7246158E+02  0.7816164E-02  0.1226708E+00
        -11   -1    0    0    0    0  0.00000000000E+00  0.00000000000E+00  0.45593999997E+02  0.45594000000E+02  0.51100000000E-03 0.  1.
         11   -1    0    0    0    0 -0.00000000000E+00 -0.00000000000E+00 -0.45593999997E+02  0.45594000000E+02  0.51100000000E-03 0. -1.
    9900012    2    1    2    0    0 -0.12906956405E+02 -0.57725712972E+00 -0.13555669801E+02  0.72461576605E+02  0.70000008220E+02 0.  0.
        -12    1    1    2    0    0  0.12906956405E+02  0.57725712972E+00  0.13555669801E+02  0.18726423395E+02  0.00000000000E+00 0.  1.
         11    1    3    3    0    0 -0.28820593486E+02 -0.97279725628E+01 -0.31537114345E+02  0.43816088832E+02  0.51100000000E-03 0. -1.
        -11    1    3    3    0    0  0.35672155209E+01  0.63943457235E+01  0.88162230004E+00  0.73749536911E+01  0.51100000000E-03 0.  1.
         12    1    3    3    0    0  0.12346421561E+02  0.27563697095E+01  0.17099822244E+02  0.21270534081E+02  0.00000000000E+00 0. -1.
</event>
<event>
 8    1  0.1920603E-013  0.7246156E+02  0.7816164E-02  0.1226708E+00
        -11   -1    0    0    0    0  0.00000000000E+00  0.00000000000E+00  0.45593999997E+02  0.45594000000E+02  0.51100000000E-03 0.  1.
         11   -1    0    0    0    0 -0.00000000000E+00 -0.00000000000E+00 -0.45593999997E+02  0.45594000000E+02  0.51100000000E-03 0. -1.
    9900012    2    1    2    0    0  0.66603161277E+00 -0.17648320154E+02 -0.62267865261E+01  0.72461556856E+02  0.69999982494E+02 0.  0.
        -24    2    3    3    0    0  0.41379028637E+01 -0.15153112407E+02  0.11303425858E+02  0.54417491400E+02  0.50860169862E+02 0.  0.
        -12    1    1    2    0    0 -0.66603161277E+00  0.17648320154E+02  0.62267865261E+01  0.18726443144E+02  0.00000000000E+00 0.  1.
         11    1    4    4    0    0 -0.74696526798E+01 -0.29534112278E+02 -0.35998828569E+01  0.30676027384E+02  0.51100000000E-03 0. -1.
        -11    1    3    3    0    0 -0.34718712510E+01 -0.24952077472E+01 -0.17530212384E+02  0.18044065456E+02  0.51100000000E-03 0.  1.
        -12    1    4    4    0    0  0.11607555544E+02  0.14380999871E+02  0.14903308715E+02  0.23741464016E+02  0.00000000000E+00 0.  1.
</event>
<event>
 7    1  0.1920603E-013  0.7246156E+02  0.7816164E-02  0.1226708E+00
        -11   -1    0    0    0    0  0.00000000000E+00  0.00000000000E+00  0.45593999997E+02  0.45594000000E+02  0.51100000000E-03 0.  1.
         11   -1    0    0    0    0 -0.00000000000E+00 -0.00000000000E+00 -0.45593999997E+02  0.45594000000E+02  0.51100000000E-03 0. -1.
    9900012    2    1    2    0    0 -0.13463046984E+02  0.12988838546E+02 -0.84622216217E+00  0.72461557390E+02  0.69999983190E+02 0.  0.
        -12    1    1    2    0    0  0.13463046984E+02 -0.12988838546E+02  0.84622216217E+00  0.18726442610E+02  0.00000000000E+00 0.  1.
         11    1    3    3    0    0  0.25917635892E+00  0.13056087078E+01 -0.29810021390E+02  0.29839724563E+02  0.51100000000E-03 0. -1.
        -11    1    3    3    0    0 -0.15760342781E+01 -0.68738427325E+01  0.14555359114E+02  0.16173808369E+02  0.51100000000E-03 0.  1.
         12    1    3    3    0    0 -0.12146189065E+02  0.18557072571E+02  0.14408440114E+02  0.26448024458E+02  0.00000000000E+00 0. -1.
</event>
<event>
 7    1  0.1920603E-013  0.7246137E+02  0.7816164E-02  0.1226709E+00
        -11   -1    0    0    0    0  0.00000000000E+00  0.00000000000E+00  0.45593999997E+02  0.45594000000E+02  0.51100000000E-03 0.  1.
         11   -1    0    0    0    0 -0.00000000000E+00 -0.00000000000E+00 -0.45593999997E+02  0.45594000000E+02  0.51100000000E-03 0. -1.
    9900012    2    1    2    0    0  0.77870872049E+01  0.16870372562E+02 -0.23320776117E+01  0.72461367001E+02  0.69999735172E+02 0.  0.
        -12    1    1    2    0    0 -0.77870872049E+01 -0.16870372562E+02  0.23320776117E+01  0.18726632999E+02  0.00000000000E+00 0.  1.
         11    1    3    3    0    0 -0.54218964416E+01 -0.10872348767E+02 -0.11064010080E+02  0.16432201558E+02  0.51100000000E-03 0. -1.
        -11    1    3    3    0    0 -0.13150939564E+02  0.93937614725E+01  0.16383102343E+02  0.23012953062E+02  0.51100000000E-03 0.  1.
        -12    1    3    3    0    0  0.26359923211E+02  0.18348959856E+02 -0.76511698742E+01  0.33016212380E+02  0.00000000000E+00 0.  1.
</event>
<event>
 7    1  0.1920603E-013  0.7246157E+02  0.7816164E-02  0.1226708E+00
        -11   -1    0    0    0    0  0.00000000000E+00  0.00000000000E+00  0.45593999997E+02  0.45594000000E+02  0.51100000000E-03 0.  1.
         11   -1    0    0    0    0 -0.00000000000E+00 -0.00000000000E+00 -0.45593999997E+02  0.45594000000E+02  0.51100000000E-03 0. -1.
    9900012    2    1    2    0    0  0.11385104981E+02 -0.10834554486E+02 -0.10181886700E+02  0.72461574737E+02  0.70000005788E+02 0.  0.
        -12    1    1    2    0    0 -0.11385104981E+02  0.10834554486E+02  0.10181886700E+02  0.18726425263E+02  0.00000000000E+00 0.  1.
         11    1    3    3    0    0 -0.22340779041E+02  0.15321685792E+02  0.39126426638E+01  0.27371029146E+02  0.51100000000E-03 0. -1.
        -11    1    3    3    0    0  0.31484074224E+01 -0.13079126429E+01 -0.15112482059E+01  0.37292058377E+01  0.51100000000E-03 0.  1.
         12    1    3    3    0    0  0.30577476599E+02 -0.24848327635E+02 -0.12583281158E+02  0.41361339753E+02  0.00000000000E+00 0. -1.
</event>
<event>
 7    1  0.1920603E-013  0.7246140E+02  0.7816164E-02  0.1226708E+00
        -11   -1    0    0    0    0  0.00000000000E+00  0.00000000000E+00  0.45593999997E+02  0.45594000000E+02  0.51100000000E-03 0.  1.
         11   -1    0    0    0    0 -0.00000000000E+00 -0.00000000000E+00 -0.45593999997E+02  0.45594000000E+02  0.51100000000E-03 0. -1.
    9900012    2    1    2    0    0 -0.41710961751E+01  0.16743244001E+02 -0.72767643167E+01  0.72461399617E+02  0.69999777661E+02 0.  0.
        -12    1    1    2    0    0  0.41710961751E+01 -0.16743244001E+02  0.72767643167E+01  0.18726600383E+02  0.00000000000E+00 0.  1.
         11    1    3    3    0    0 -0.73557796668E+01 -0.19683380082E+01 -0.11861456043E+02  0.14095247026E+02  0.51100000000E-03 0. -1.
        -11    1    3    3    0    0 -0.11389011287E+02  0.15060650887E+02  0.26044993709E+02  0.32169465038E+02  0.51100000000E-03 0.  1.
        -12    1    3    3    0    0  0.14573694779E+02  0.36509311217E+01 -0.21460301983E+02  0.26196687553E+02  0.00000000000E+00 0.  1.
</event>
<event>
 7    1  0.1920603E-013  0.7246158E+02  0.7816164E-02  0.1226708E+00
        -11   -1    0    0    0    0  0.00000000000E+00  0.00000000000E+00  0.45593999997E+02  0.45594000000E+02  0.51100000000E-03 0. -1.
         11   -1    0    0    0    0 -0.00000000000E+00 -0.00000000000E+00 -0.45593999997E+02  0.45594000000E+02  0.51100000000E-03 0.  1.
    9900012    2    1    2    0    0  0.26533684556E+01 -0.31511872145E+01  0.18267685558E+02  0.72461583347E+02  0.70000017003E+02 0.  0.
        -12    1    1    2    0    0 -0.26533684556E+01  0.31511872145E+01 -0.18267685558E+02  0.18726416653E+02  0.00000000000E+00 0.  1.
         11    1    3    3    0    0 -0.24905282646E+01  0.33324913862E+01 -0.89250960993E+00  0.42549739766E+01  0.51100000000E-03 0. -1.
        -11    1    3    3    0    0 -0.13099714555E+02 -0.20955175360E+02  0.32916247039E+02  0.41160675592E+02  0.51100000000E-03 0.  1.
        -12    1    3    3    0    0  0.18243611276E+02  0.14471496759E+02 -0.13756051871E+02  0.27045933778E+02  0.00000000000E+00 0.  1.
</event>
<event>
 7    1  0.1920603E-013  0.7246169E+02  0.7816164E-02  0.1226708E+00
        -11   -1    0    0    0    0  0.00000000000E+00  0.00000000000E+00  0.45593999997E+02  0.45594000000E+02  0.51100000000E-03 0.  1.
         11   -1    0    0    0    0 -0.00000000000E+00 -0.00000000000E+00 -0.45593999997E+02  0.45594000000E+02  0.51100000000E-03 0. -1.
    9900012    2    1    2    0    0 -0.41982962366E+00 -0.14821543734E+02 -0.11437664979E+02  0.72461692416E+02  0.70000159085E+02 0.  0.
        -12    1    1    2    0    0  0.41982962366E+00  0.14821543734E+02  0.11437664979E+02  0.18726307584E+02  0.00000000000E+00 0.  1.
         11    1    3    3    0    0 -0.13143130905E+02 -0.13155035080E+02 -0.32021408123E+02  0.37029277827E+02  0.51100000000E-03 0. -1.
        -11    1    3    3    0    0 -0.38455815683E+01 -0.79758711249E+01  0.13908580667E+02  0.16487923891E+02  0.51100000000E-03 0.  1.
         12    1    3    3    0    0  0.16568882850E+02  0.63093624706E+01  0.66751624771E+01  0.18944490697E+02  0.00000000000E+00 0. -1.
</event>
<event>
 7    1  0.1920603E-013  0.7246155E+02  0.7816164E-02  0.1226708E+00
        -11   -1    0    0    0    0  0.00000000000E+00  0.00000000000E+00  0.45593999997E+02  0.45594000000E+02  0.51100000000E-03 0.  1.
         11   -1    0    0    0    0 -0.00000000000E+00 -0.00000000000E+00 -0.45593999997E+02  0.45594000000E+02  0.51100000000E-03 0. -1.
    9900012    2    1    2    0    0  0.78094648914E+00 -0.15485976419E+02 -0.10500210543E+02  0.72461554408E+02  0.69999979305E+02 0.  0.
        -12    1    1    2    0    0 -0.78094648914E+00  0.15485976419E+02  0.10500210543E+02  0.18726445592E+02  0.00000000000E+00 0.  1.
         11    1    3    3    0    0  0.65808620341E+01  0.47788001264E+01 -0.27030430888E+01  0.85703627672E+01  0.51100000000E-03 0. -1.
        -11    1    3    3    0    0 -0.11237828984E+02 -0.26365907153E+02 -0.29239665482E+02  0.40943960459E+02  0.51100000000E-03 0.  1.
        -12    1    3    3    0    0  0.54379134392E+01  0.61011306076E+01  0.21442498027E+02  0.22947231182E+02  0.00000000000E+00 0.  1.
</event>
<event>
 7    1  0.1920603E-013  0.7246156E+02  0.7816164E-02  0.1226708E+00
        -11   -1    0    0    0    0  0.00000000000E+00  0.00000000000E+00  0.45593999997E+02  0.45594000000E+02  0.51100000000E-03 0.  1.
         11   -1    0    0    0    0 -0.00000000000E+00 -0.00000000000E+00 -0.45593999997E+02  0.45594000000E+02  0.51100000000E-03 0. -1.
    9900012    2    1    2    0    0  0.23917256939E+01 -0.16325435961E+02 -0.88566073718E+01  0.72461555991E+02  0.69999981367E+02 0.  0.
        -12    1    1    2    0    0 -0.23917256939E+01  0.16325435961E+02  0.88566073718E+01  0.18726444009E+02  0.00000000000E+00 0.  1.
         11    1    3    3    0    0 -0.17113926039E+02 -0.18068462636E+02 -0.21972474824E+01  0.24983668731E+02  0.51100000000E-03 0. -1.
        -11    1    3    3    0    0  0.16815574840E+02 -0.19170857230E+02 -0.48112627142E+00  0.25505230971E+02  0.51100000000E-03 0.  1.
        -12    1    3    3    0    0  0.26900768926E+01  0.20913883906E+02 -0.61782336181E+01  0.21972656288E+02  0.00000000000E+00 0.  1.
</event>
<event>
 7    1  0.1920603E-013  0.7246161E+02  0.7816164E-02  0.1226708E+00
        -11   -1    0    0    0    0  0.00000000000E+00  0.00000000000E+00  0.45593999997E+02  0.45594000000E+02  0.51100000000E-03 0. -1.
         11   -1    0    0    0    0 -0.00000000000E+00 -0.00000000000E+00 -0.45593999997E+02  0.45594000000E+02  0.51100000000E-03 0.  1.
    9900012    2    1    2    0    0  0.13986022699E+02  0.10063720886E+02 -0.73341878765E+01  0.72461611646E+02  0.70000053868E+02 0.  0.
        -12    1    1    2    0    0 -0.13986022699E+02 -0.10063720886E+02  0.73341878765E+01  0.18726388354E+02  0.00000000000E+00 0.  1.
         11    1    3    3    0    0 -0.14970257868E+02 -0.49690208799E+01 -0.45987086312E+01  0.16430091615E+02  0.51100000000E-03 0. -1.
        -11    1    3    3    0    0  0.32232741897E+02  0.27885626988E+02 -0.33565120190E+01  0.42753058557E+02  0.51100000000E-03 0.  1.
         12    1    3    3    0    0 -0.32764613304E+01 -0.12852885223E+02  0.62103277372E+00  0.13278461474E+02  0.00000000000E+00 0. -1.
</event>
<event>
 7    1  0.1920603E-013  0.7246149E+02  0.7816164E-02  0.1226708E+00
        -11   -1    0    0    0    0  0.00000000000E+00  0.00000000000E+00  0.45593999997E+02  0.45594000000E+02  0.51100000000E-03 0.  1.
         11   -1    0    0    0    0 -0.00000000000E+00 -0.00000000000E+00 -0.45593999997E+02  0.45594000000E+02  0.51100000000E-03 0. -1.
    9900012    2    1    2    0    0  0.39302731675E+00 -0.60426088766E+01 -0.17720453775E+02  0.72461492731E+02  0.69999898959E+02 0.  0.
        -12    1    1    2    0    0 -0.39302731675E+00  0.60426088766E+01  0.17720453775E+02  0.18726507269E+02  0.00000000000E+00 0.  1.
         11    1    3    3    0    0 -0.88993837513E+00 -0.98576464204E+01 -0.17454894676E+01  0.10050468497E+02  0.51100000000E-03 0. -1.
        -11    1    3    3    0    0 -0.13144960884E+02  0.81999101256E+01 -0.34916878890E+02  0.38199698354E+02  0.51100000000E-03 0.  1.
        -12    1    3    3    0    0  0.14427926575E+02 -0.43848725818E+01  0.18941914582E+02  0.24211325880E+02  0.00000000000E+00 0.  1.
</event>
<event>
 7    1  0.1920603E-013  0.7246157E+02  0.7816164E-02  0.1226708E+00
        -11   -1    0    0    0    0  0.00000000000E+00  0.00000000000E+00  0.45593999997E+02  0.45594000000E+02  0.51100000000E-03 0. -1.
         11   -1    0    0    0    0 -0.00000000000E+00 -0.00000000000E+00 -0.45593999997E+02  0.45594000000E+02  0.51100000000E-03 0.  1.
    9900012    2    1    2    0    0 -0.13972827410E+02 -0.87741164267E+01 -0.88574338902E+01  0.72461570548E+02  0.70000000330E+02 0.  0.
        -12    1    1    2    0    0  0.13972827410E+02  0.87741164267E+01  0.88574338902E+01  0.18726429452E+02  0.00000000000E+00 0.  1.
         11    1    3    3    0    0  0.49829687649E+01  0.32186331317E+01  0.26676833095E+02  0.27328428444E+02  0.51100000000E-03 0. -1.
        -11    1    3    3    0    0 -0.52543430745E+01  0.39501442936E+01 -0.11101057176E+02  0.12901365500E+02  0.51100000000E-03 0.  1.
         12    1    3    3    0    0 -0.13701453101E+02 -0.15942893852E+02 -0.24433209810E+02  0.32231776604E+02  0.00000000000E+00 0. -1.
</event>
<event>
 7    1  0.1920603E-013  0.7246160E+02  0.7816164E-02  0.1226708E+00
        -11   -1    0    0    0    0  0.00000000000E+00  0.00000000000E+00  0.45593999997E+02  0.45594000000E+02  0.51100000000E-03 0. -1.
         11   -1    0    0    0    0 -0.00000000000E+00 -0.00000000000E+00 -0.45593999997E+02  0.45594000000E+02  0.51100000000E-03 0.  1.
    9900012    2    1    2    0    0 -0.12405917094E+02 -0.28111512441E+01  0.13742948552E+02  0.72461601917E+02  0.70000041194E+02 0.  0.
        -12    1    1    2    0    0  0.12405917094E+02  0.28111512441E+01 -0.13742948552E+02  0.18726398083E+02  0.00000000000E+00 0.  1.
         11    1    3    3    0    0  0.31729931223E+01 -0.17387985839E+02  0.28927518715E+02  0.33900018822E+02  0.51100000000E-03 0. -1.
        -11    1    3    3    0    0  0.19534436896E+01 -0.63938899558E+01 -0.77483510635E+01  0.10233998020E+02  0.51100000000E-03 0.  1.
         12    1    3    3    0    0 -0.17532353906E+02  0.20970724551E+02 -0.74362190989E+01  0.28327585074E+02  0.00000000000E+00 0. -1.
</event>
<event>
 7    1  0.1920603E-013  0.7246158E+02  0.7816164E-02  0.1226708E+00
        -11   -1    0    0    0    0  0.00000000000E+00  0.00000000000E+00  0.45593999997E+02  0.45594000000E+02  0.51100000000E-03 0.  1.
         11   -1    0    0    0    0 -0.00000000000E+00 -0.00000000000E+00 -0.45593999997E+02  0.45594000000E+02  0.51100000000E-03 0. -1.
    9900012    2    1    2    0    0  0.13801353390E+01 -0.14483230805E+02 -0.11790249792E+02  0.72461581809E+02  0.70000015000E+02 0.  0.
        -12    1    1    2    0    0 -0.13801353390E+01  0.14483230805E+02  0.11790249792E+02  0.18726418191E+02  0.00000000000E+00 0.  1.
         11    1    3    3    0    0  0.12418045654E+02  0.13220538585E+02 -0.13866753167E+02  0.22831498899E+02  0.51100000000E-03 0. -1.
        -11    1    3    3    0    0 -0.23317616126E+01 -0.35144284352E+02  0.88607641692E+01  0.36319016737E+02  0.51100000000E-03 0.  1.
        -12    1    3    3    0    0 -0.87061487021E+01  0.74405149619E+01 -0.67842607941E+01  0.13311066172E+02  0.00000000000E+00 0.  1.
</event>
<event>
 7    1  0.1920603E-013  0.7246155E+02  0.7816164E-02  0.1226708E+00
        -11   -1    0    0    0    0  0.00000000000E+00  0.00000000000E+00  0.45593999997E+02  0.45594000000E+02  0.51100000000E-03 0. -1.
         11   -1    0    0    0    0 -0.00000000000E+00 -0.00000000000E+00 -0.45593999997E+02  0.45594000000E+02  0.51100000000E-03 0.  1.
    9900012    2    1    2    0    0  0.17240611276E+01 -0.14853209857E+02  0.11273414528E+02  0.72461545318E+02  0.69999967464E+02 0.  0.
        -12    1    1    2    0    0 -0.17240611276E+01  0.14853209857E+02 -0.11273414528E+02  0.18726454682E+02  0.00000000000E+00 0.  1.
         11    1    3    3    0    0  0.87175683032E+01  0.36058709743E+01  0.34510481592E+02  0.35776691331E+02  0.51100000000E-03 0. -1.
        -11    1    3    3    0    0  0.31893999462E+01 -0.15715453799E+02 -0.20037440319E+02  0.25664114536E+02  0.51100000000E-03 0.  1.
         12    1    3    3    0    0 -0.10182907122E+02 -0.27436270329E+01 -0.31996267454E+01  0.11020739451E+02  0.00000000000E+00 0. -1.
</event>
<event>
 7    1  0.1920603E-013  0.7246159E+02  0.7816164E-02  0.1226708E+00
        -11   -1    0    0    0    0  0.00000000000E+00  0.00000000000E+00  0.45593999997E+02  0.45594000000E+02  0.51100000000E-03 0.  1.
         11   -1    0    0    0    0 -0.00000000000E+00 -0.00000000000E+00 -0.45593999997E+02  0.45594000000E+02  0.51100000000E-03 0. -1.
    9900012    2    1    2    0    0  0.17734929839E+02 -0.39956737721E+01 -0.44928123321E+01  0.72461587959E+02  0.70000023011E+02 0.  0.
        -12    1    1    2    0    0 -0.17734929839E+02  0.39956737721E+01  0.44928123321E+01  0.18726412041E+02  0.00000000000E+00 0.  1.
         11    1    3    3    0    0 -0.22046679776E+02  0.35483280346E+00 -0.69396855915E+01  0.23115822110E+02  0.51100000000E-03 0. -1.
        -11    1    3    3    0    0  0.37385118519E+02  0.39516471564E+01  0.88132675100E+01  0.38612644126E+02  0.51100000000E-03 0.  1.
        -12    1    3    3    0    0  0.23964910956E+01 -0.83021537320E+01 -0.63663942506E+01  0.10733121723E+02  0.00000000000E+00 0.  1.
</event>
<event>
 7    1  0.1920603E-013  0.7246162E+02  0.7816164E-02  0.1226708E+00
        -11   -1    0    0    0    0  0.00000000000E+00  0.00000000000E+00  0.45593999997E+02  0.45594000000E+02  0.51100000000E-03 0.  1.
         11   -1    0    0    0    0 -0.00000000000E+00 -0.00000000000E+00 -0.45593999997E+02  0.45594000000E+02  0.51100000000E-03 0. -1.
    9900012    2    1    2    0    0 -0.75833491637E+01  0.11092343835E+02 -0.13043385108E+02  0.72461623646E+02  0.70000069500E+02 0.  0.
        -12    1    1    2    0    0  0.75833491637E+01 -0.11092343835E+02  0.13043385108E+02  0.18726376354E+02  0.00000000000E+00 0.  1.
         11    1    3    3    0    0 -0.22375272899E+02  0.18016313189E+02 -0.24355247993E+02  0.37661896968E+02  0.51100000000E-03 0. -1.
        -11    1    3    3    0    0  0.43251573764E+00 -0.10432444961E+01  0.17904696952E+02  0.17940278764E+02  0.51100000000E-03 0.  1.
         12    1    3    3    0    0  0.14359407997E+02 -0.58807248580E+01 -0.65928340675E+01  0.16859447913E+02  0.00000000000E+00 0. -1.
</event>
<event>
 7    1  0.1920603E-013  0.7246156E+02  0.7816164E-02  0.1226708E+00
        -11   -1    0    0    0    0  0.00000000000E+00  0.00000000000E+00  0.45593999997E+02  0.45594000000E+02  0.51100000000E-03 0. -1.
         11   -1    0    0    0    0 -0.00000000000E+00 -0.00000000000E+00 -0.45593999997E+02  0.45594000000E+02  0.51100000000E-03 0.  1.
    9900012    2    1    2    0    0 -0.17142578120E+02  0.75319774261E+01  0.28437695070E+00  0.72461560434E+02  0.69999987155E+02 0.  0.
        -12    1    1    2    0    0  0.17142578120E+02 -0.75319774261E+01 -0.28437695070E+00  0.18726439566E+02  0.00000000000E+00 0.  1.
         11    1    3    3    0    0  0.18126660066E+02 -0.77825914346E-02 -0.81058472704E+01  0.19856500849E+02  0.51100000000E-03 0. -1.
        -11    1    3    3    0    0 -0.76201091601E+01 -0.14603216372E+02  0.17422693604E+01  0.16563679990E+02  0.51100000000E-03 0.  1.
         12    1    3    3    0    0 -0.27649129027E+02  0.22142976389E+02  0.66479548606E+01  0.36041379596E+02  0.00000000000E+00 0. -1.
</event>
<event>
 7    1  0.1920603E-013  0.7246157E+02  0.7816164E-02  0.1226708E+00
        -11   -1    0    0    0    0  0.00000000000E+00  0.00000000000E+00  0.45593999997E+02  0.45594000000E+02  0.51100000000E-03 0.  1.
         11   -1    0    0    0    0 -0.00000000000E+00 -0.00000000000E+00 -0.45593999997E+02  0.45594000000E+02  0.51100000000E-03 0. -1.
    9900012    2    1    2    0    0 -0.31139198760E+01 -0.67341360257E+01 -0.17194013142E+02  0.72461570204E+02  0.69999999882E+02 0.  0.
        -12    1    1    2    0    0  0.31139198760E+01  0.67341360257E+01  0.17194013142E+02  0.18726429796E+02  0.00000000000E+00 0.  1.
         11    1    3    3    0    0  0.14043887628E+02 -0.14448878434E+01 -0.11927485579E+02  0.18481974816E+02  0.51100000000E-03 0. -1.
        -11    1    3    3    0    0 -0.12963489053E+02 -0.26911440958E+02 -0.99065547494E+01  0.31470899735E+02  0.51100000000E-03 0.  1.
        -12    1    3    3    0    0 -0.41943184509E+01  0.21622192775E+02  0.46400271871E+01  0.22508695653E+02  0.00000000000E+00 0.  1.
</event>
<event>
 7    1  0.1920603E-013  0.7246129E+02  0.7816164E-02  0.1226709E+00
        -11   -1    0    0    0    0  0.00000000000E+00  0.00000000000E+00  0.45593999997E+02  0.45594000000E+02  0.51100000000E-03 0.  1.
         11   -1    0    0    0    0 -0.00000000000E+00 -0.00000000000E+00 -0.45593999997E+02  0.45594000000E+02  0.51100000000E-03 0. -1.
    9900012    2    1    2    0    0  0.13332877405E+02  0.11280138962E+02  0.67588720516E+01  0.72461294302E+02  0.69999640468E+02 0.  0.
        -12    1    1    2    0    0 -0.13332877405E+02 -0.11280138962E+02 -0.67588720516E+01  0.18726705698E+02  0.00000000000E+00 0.  1.
         11    1    3    3    0    0  0.19554019155E+02 -0.15168016025E+02  0.13585114703E+01  0.24784550206E+02  0.51100000000E-03 0. -1.
        -11    1    3    3    0    0  0.20466734894E+01  0.26497259645E+02  0.18362037787E+02  0.32302601645E+02  0.51100000000E-03 0.  1.
         12    1    3    3    0    0 -0.82678152396E+01 -0.49104658203E-01 -0.12961677206E+02  0.15374142451E+02  0.00000000000E+00 0. -1.
</event>
<event>
 7    1  0.1920603E-013  0.7246153E+02  0.7816164E-02  0.1226708E+00
        -11   -1    0    0    0    0  0.00000000000E+00  0.00000000000E+00  0.45593999997E+02  0.45594000000E+02  0.51100000000E-03 0. -1.
         11   -1    0    0    0    0 -0.00000000000E+00 -0.00000000000E+00 -0.45593999997E+02  0.45594000000E+02  0.51100000000E-03 0.  1.
    9900012    2    1    2    0    0  0.13911145869E+02  0.12287023852E+02  0.24879521566E+01  0.72461525680E+02  0.69999941882E+02 0.  0.
        -12    1    1    2    0    0 -0.13911145869E+02 -0.12287023852E+02 -0.24879521566E+01  0.18726474320E+02  0.00000000000E+00 0.  1.
         11    1    3    3    0    0 -0.16511392282E+02  0.16622281922E+02 -0.84383775848E+00  0.23444368062E+02  0.51100000000E-03 0. -1.
        -11    1    3    3    0    0  0.34531548338E+02  0.19883374781E+01 -0.79085820355E+01  0.35481361116E+02  0.51100000000E-03 0.  1.
        -12    1    3    3    0    0 -0.41090101873E+01 -0.63235955478E+01  0.11240371951E+02  0.13535796503E+02  0.00000000000E+00 0.  1.
</event>
<event>
 7    1  0.1920603E-013  0.7246157E+02  0.7816164E-02  0.1226708E+00
        -11   -1    0    0    0    0  0.00000000000E+00  0.00000000000E+00  0.45593999997E+02  0.45594000000E+02  0.51100000000E-03 0.  1.
         11   -1    0    0    0    0 -0.00000000000E+00 -0.00000000000E+00 -0.45593999997E+02  0.45594000000E+02  0.51100000000E-03 0. -1.
    9900012    2    1    2    0    0 -0.18259740220E+02  0.26533467714E+01  0.31970258877E+01  0.72461565835E+02  0.69999994191E+02 0.  0.
        -12    1    1    2    0    0  0.18259740220E+02 -0.26533467714E+01 -0.31970258877E+01  0.18726434165E+02  0.00000000000E+00 0.  1.
         11    1    3    3    0    0 -0.40071013890E+02 -0.12385460062E+02  0.14240979263E+01  0.41965626771E+02  0.51100000000E-03 0. -1.
        -11    1    3    3    0    0  0.58028536874E+01 -0.47572790689E+00  0.53630009126E+01  0.79158832109E+01  0.51100000000E-03 0.  1.
         12    1    3    3    0    0  0.16008419983E+02  0.15514534740E+02 -0.35900729511E+01  0.22580055853E+02  0.00000000000E+00 0. -1.
</event>
<event>
 7    1  0.1920603E-013  0.7246158E+02  0.7816164E-02  0.1226708E+00
        -11   -1    0    0    0    0  0.00000000000E+00  0.00000000000E+00  0.45593999997E+02  0.45594000000E+02  0.51100000000E-03 0.  1.
         11   -1    0    0    0    0 -0.00000000000E+00 -0.00000000000E+00 -0.45593999997E+02  0.45594000000E+02  0.51100000000E-03 0. -1.
    9900012    2    1    2    0    0 -0.50712565863E+01  0.46961708504E+01 -0.17404229980E+02  0.72461577885E+02  0.70000009889E+02 0.  0.
        -12    1    1    2    0    0  0.50712565863E+01 -0.46961708504E+01  0.17404229980E+02  0.18726422115E+02  0.00000000000E+00 0.  1.
         11    1    3    3    0    0 -0.54097639716E+01 -0.64939602530E+01 -0.26756208166E+02  0.28059432312E+02  0.51100000000E-03 0. -1.
        -11    1    3    3    0    0  0.14071163946E+02 -0.23675823645E+01  0.18238287274E+02  0.23156818089E+02  0.51100000000E-03 0.  1.
        -12    1    3    3    0    0 -0.13732656561E+02  0.13557713468E+02 -0.88863090885E+01  0.21245327484E+02  0.00000000000E+00 0.  1.
</event>
<event>
 7    1  0.1920603E-013  0.7246151E+02  0.7816164E-02  0.1226708E+00
        -11   -1    0    0    0    0  0.00000000000E+00  0.00000000000E+00  0.45593999997E+02  0.45594000000E+02  0.51100000000E-03 0.  1.
         11   -1    0    0    0    0 -0.00000000000E+00 -0.00000000000E+00 -0.45593999997E+02  0.45594000000E+02  0.51100000000E-03 0. -1.
    9900012    2    1    2    0    0 -0.98999203672E+01  0.63851893368E+01 -0.14556872851E+02  0.72461505044E+02  0.69999914999E+02 0.  0.
        -12    1    1    2    0    0  0.98999203672E+01 -0.63851893368E+01  0.14556872851E+02  0.18726494956E+02  0.00000000000E+00 0.  1.
         11    1    3    3    0    0 -0.22492182987E+02 -0.42631170091E+01 -0.18566571469E+02  0.29475244503E+02  0.51100000000E-03 0. -1.
        -11    1    3    3    0    0  0.25789142404E+02  0.68396628493E+00  0.55169508745E+01  0.26381516693E+02  0.51100000000E-03 0.  1.
        -12    1    3    3    0    0 -0.13196879784E+02  0.99643400610E+01 -0.15072522563E+01  0.16604743848E+02  0.00000000000E+00 0.  1.
</event>
<event>
 7    1  0.1920603E-013  0.7246156E+02  0.7816164E-02  0.1226708E+00
        -11   -1    0    0    0    0  0.00000000000E+00  0.00000000000E+00  0.45593999997E+02  0.45594000000E+02  0.51100000000E-03 0.  1.
         11   -1    0    0    0    0 -0.00000000000E+00 -0.00000000000E+00 -0.45593999997E+02  0.45594000000E+02  0.51100000000E-03 0. -1.
    9900012    2    1    2    0    0 -0.65449086084E+01  0.17250944252E+02  0.32013658448E+01  0.72461557477E+02  0.69999983303E+02 0.  0.
        -12    1    1    2    0    0  0.65449086084E+01 -0.17250944252E+02 -0.32013658448E+01  0.18726442523E+02  0.00000000000E+00 0.  1.
         11    1    3    3    0    0 -0.15594733165E+02 -0.80702308723E+00  0.17596655687E+02  0.23526352892E+02  0.51100000000E-03 0. -1.
        -11    1    3    3    0    0  0.10508379647E+02  0.54475115679E+01  0.13700044181E+02  0.18105044488E+02  0.51100000000E-03 0.  1.
         12    1    3    3    0    0 -0.14585550904E+01  0.12610455772E+02 -0.28095334024E+02  0.30830160097E+02  0.00000000000E+00 0. -1.
</event>
<event>
 7    1  0.1920603E-013  0.7246153E+02  0.7816164E-02  0.1226708E+00
        -11   -1    0    0    0    0  0.00000000000E+00  0.00000000000E+00  0.45593999997E+02  0.45594000000E+02  0.51100000000E-03 0.  1.
         11   -1    0    0    0    0 -0.00000000000E+00 -0.00000000000E+00 -0.45593999997E+02  0.45594000000E+02  0.51100000000E-03 0. -1.
    9900012    2    1    2    0    0  0.57944554606E+01  0.15404297868E+02  0.89337790257E+01  0.72461534381E+02  0.69999953216E+02 0.  0.
        -12    1    1    2    0    0 -0.57944554606E+01 -0.15404297868E+02 -0.89337790257E+01  0.18726465619E+02  0.00000000000E+00 0.  1.
         11    1    3    3    0    0  0.38369895040E+01  0.30291231188E+02 -0.17578721047E+02  0.35231982761E+02  0.51100000000E-03 0. -1.
        -11    1    3    3    0    0  0.99266244920E+01 -0.94619623310E+00  0.85432745544E+01  0.13130906347E+02  0.51100000000E-03 0.  1.
         12    1    3    3    0    0 -0.79691585353E+01 -0.13940737087E+02  0.17969225518E+02  0.24098645273E+02  0.00000000000E+00 0. -1.
</event>
<event>
 7    1  0.1920603E-013  0.7246159E+02  0.7816164E-02  0.1226708E+00
        -11   -1    0    0    0    0  0.00000000000E+00  0.00000000000E+00  0.45593999997E+02  0.45594000000E+02  0.51100000000E-03 0. -1.
         11   -1    0    0    0    0 -0.00000000000E+00 -0.00000000000E+00 -0.45593999997E+02  0.45594000000E+02  0.51100000000E-03 0.  1.
    9900012    2    1    2    0    0 -0.14675666119E+02 -0.15224459030E+01  0.11531924635E+02  0.72461593421E+02  0.70000030127E+02 0.  0.
        -12    1    1    2    0    0  0.14675666119E+02  0.15224459030E+01 -0.11531924635E+02  0.18726406579E+02  0.00000000000E+00 0.  1.
         11    1    3    3    0    0 -0.13890604070E+02 -0.88524150591E+01  0.25332596279E+02  0.30216792820E+02  0.51100000000E-03 0. -1.
        -11    1    3    3    0    0 -0.18315328609E+02  0.10064874244E+02 -0.12729334582E+02  0.24470163766E+02  0.51100000000E-03 0.  1.
        -12    1    3    3    0    0  0.17530266560E+02 -0.27349050883E+01 -0.10713370628E+01  0.17774636835E+02  0.00000000000E+00 0.  1.
</event>
<event>
 7    1  0.1920603E-013  0.7246158E+02  0.7816164E-02  0.1226708E+00
        -11   -1    0    0    0    0  0.00000000000E+00  0.00000000000E+00  0.45593999997E+02  0.45594000000E+02  0.51100000000E-03 0. -1.
         11   -1    0    0    0    0 -0.00000000000E+00 -0.00000000000E+00 -0.45593999997E+02  0.45594000000E+02  0.51100000000E-03 0.  1.
    9900012    2    1    2    0    0  0.15490356063E+02 -0.10466942315E+02  0.10820710222E+01  0.72461577755E+02  0.70000009719E+02 0.  0.
        -12    1    1    2    0    0 -0.15490356063E+02  0.10466942315E+02 -0.10820710222E+01  0.18726422245E+02  0.00000000000E+00 0.  1.
         11    1    3    3    0    0  0.14941073126E+02 -0.16160633936E+01  0.17228237906E+02  0.22861747717E+02  0.51100000000E-03 0. -1.
        -11    1    3    3    0    0  0.50550048816E+01  0.11329997149E+02 -0.24370355508E+02  0.27346592797E+02  0.51100000000E-03 0.  1.
        -12    1    3    3    0    0 -0.45057219440E+01 -0.20180876071E+02  0.82241886236E+01  0.22253237242E+02  0.00000000000E+00 0.  1.
</event>
<event>
 7    1  0.1920603E-013  0.7246137E+02  0.7816164E-02  0.1226709E+00
        -11   -1    0    0    0    0  0.00000000000E+00  0.00000000000E+00  0.45593999997E+02  0.45594000000E+02  0.51100000000E-03 0. -1.
         11   -1    0    0    0    0 -0.00000000000E+00 -0.00000000000E+00 -0.45593999997E+02  0.45594000000E+02  0.51100000000E-03 0.  1.
    9900012    2    1    2    0    0  0.18812528058E+00 -0.61273557858E+01  0.17694820527E+02  0.72461373141E+02  0.69999743171E+02 0.  0.
        -12    1    1    2    0    0 -0.18812528058E+00  0.61273557858E+01 -0.17694820527E+02  0.18726626859E+02  0.00000000000E+00 0.  1.
         11    1    3    3    0    0  0.71774966575E+01  0.44391277525E+00  0.12948571135E+02  0.14811448664E+02  0.51100000000E-03 0. -1.
        -11    1    3    3    0    0 -0.90946239772E+01 -0.28877797321E+02 -0.87226646334E+01  0.31507526751E+02  0.51100000000E-03 0.  1.
        -12    1    3    3    0    0  0.21052526003E+01  0.22306528760E+02  0.13468914025E+02  0.26142397726E+02  0.00000000000E+00 0.  1.
</event>
<event>
 7    1  0.1920603E-013  0.7246152E+02  0.7816164E-02  0.1226708E+00
        -11   -1    0    0    0    0  0.00000000000E+00  0.00000000000E+00  0.45593999997E+02  0.45594000000E+02  0.51100000000E-03 0.  1.
         11   -1    0    0    0    0 -0.00000000000E+00 -0.00000000000E+00 -0.45593999997E+02  0.45594000000E+02  0.51100000000E-03 0. -1.
    9900012    2    1    2    0    0  0.14318022013E+02  0.10021897114E+02  0.67258323097E+01  0.72461521517E+02  0.69999936458E+02 0.  0.
        -12    1    1    2    0    0 -0.14318022013E+02 -0.10021897114E+02 -0.67258323097E+01  0.18726478483E+02  0.00000000000E+00 0.  1.
         11    1    3    3    0    0 -0.12713437068E+02 -0.93765721733E+01 -0.66538537431E+01  0.17141334770E+02  0.51100000000E-03 0. -1.
        -11    1    3    3    0    0  0.72349853331E+01  0.26522286126E+02  0.19150345685E+02  0.33503916401E+02  0.51100000000E-03 0.  1.
        -12    1    3    3    0    0  0.19796473748E+02 -0.71238168387E+01 -0.57706596323E+01  0.21816270346E+02  0.00000000000E+00 0.  1.
</event>
<event>
 7    1  0.1920603E-013  0.7246163E+02  0.7816164E-02  0.1226708E+00
        -11   -1    0    0    0    0  0.00000000000E+00  0.00000000000E+00  0.45593999997E+02  0.45594000000E+02  0.51100000000E-03 0. -1.
         11   -1    0    0    0    0 -0.00000000000E+00 -0.00000000000E+00 -0.45593999997E+02  0.45594000000E+02  0.51100000000E-03 0.  1.
    9900012    2    1    2    0    0 -0.78191304747E+01  0.16214297042E+02  0.51608861294E+01  0.72461628873E+02  0.70000076310E+02 0.  0.
        -12    1    1    2    0    0  0.78191304747E+01 -0.16214297042E+02 -0.51608861294E+01  0.18726371127E+02  0.00000000000E+00 0.  1.
         11    1    3    3    0    0  0.23854078292E+02  0.16862336963E+02  0.17171891597E+02  0.33885532610E+02  0.51100000000E-03 0. -1.
        -11    1    3    3    0    0 -0.63388170463E+01 -0.53564129369E+01  0.29164203913E+01  0.87964350311E+01  0.51100000000E-03 0.  1.
         12    1    3    3    0    0 -0.25334391720E+02  0.47083730156E+01 -0.14927425859E+02  0.29779661231E+02  0.00000000000E+00 0. -1.
</event>
<event>
 7    1  0.1920603E-013  0.7246144E+02  0.7816164E-02  0.1226708E+00
        -11   -1    0    0    0    0  0.00000000000E+00  0.00000000000E+00  0.45593999997E+02  0.45594000000E+02  0.51100000000E-03 0.  1.
         11   -1    0    0    0    0 -0.00000000000E+00 -0.00000000000E+00 -0.45593999997E+02  0.45594000000E+02  0.51100000000E-03 0. -1.
    9900012    2    1    2    0    0  0.10546134782E+02 -0.32374105815E+00 -0.15471202758E+02  0.72461444473E+02  0.69999836094E+02 0.  0.
        -12    1    1    2    0    0 -0.10546134782E+02  0.32374105815E+00  0.15471202758E+02  0.18726555527E+02  0.00000000000E+00 0.  1.
         11    1    3    3    0    0  0.35964008270E+02 -0.70802744836E+01 -0.30288019686E+01  0.36779258003E+02  0.51100000000E-03 0. -1.
        -11    1    3    3    0    0 -0.14176855650E+02 -0.60520975595E+01 -0.16318608408E+01  0.15500777112E+02  0.51100000000E-03 0.  1.
         12    1    3    3    0    0 -0.11241017837E+02  0.12808630985E+02 -0.10810539948E+02  0.20181409359E+02  0.00000000000E+00 0. -1.
</event>
<event>
 7    1  0.1920603E-013  0.7246142E+02  0.7816164E-02  0.1226708E+00
        -11   -1    0    0    0    0  0.00000000000E+00  0.00000000000E+00  0.45593999997E+02  0.45594000000E+02  0.51100000000E-03 0. -1.
         11   -1    0    0    0    0 -0.00000000000E+00 -0.00000000000E+00 -0.45593999997E+02  0.45594000000E+02  0.51100000000E-03 0.  1.
    9900012    2    1    2    0    0  0.82747575310E+01  0.95468407964E+01 -0.13822837459E+02  0.72461424851E+02  0.69999810533E+02 0.  0.
        -12    1    1    2    0    0 -0.82747575310E+01 -0.95468407964E+01  0.13822837459E+02  0.18726575149E+02  0.00000000000E+00 0.  1.
         11    1    3    3    0    0  0.27378975116E+01 -0.19473829698E+02 -0.12401497548E+02  0.23249156277E+02  0.51100000000E-03 0. -1.
        -11    1    3    3    0    0  0.13581723461E+02  0.34768374812E+02  0.46412000973E+01  0.37614409976E+02  0.51100000000E-03 0.  1.
         12    1    3    3    0    0 -0.80448634418E+01 -0.57477043175E+01 -0.60625400083E+01  0.11597858598E+02  0.00000000000E+00 0. -1.
</event>
<event>
 7    1  0.1920603E-013  0.7246158E+02  0.7816164E-02  0.1226708E+00
        -11   -1    0    0    0    0  0.00000000000E+00  0.00000000000E+00  0.45593999997E+02  0.45594000000E+02  0.51100000000E-03 0. -1.
         11   -1    0    0    0    0 -0.00000000000E+00 -0.00000000000E+00 -0.45593999997E+02  0.45594000000E+02  0.51100000000E-03 0.  1.
    9900012    2    1    2    0    0  0.15336960315E+02 -0.95697396390E+01  0.48863621998E+01  0.72461580054E+02  0.70000012713E+02 0.  0.
        -12    1    1    2    0    0 -0.15336960315E+02  0.95697396390E+01 -0.48863621998E+01  0.18726419946E+02  0.00000000000E+00 0.  1.
         11    1    3    3    0    0 -0.70086699892E+01  0.13845991511E+02 -0.11414900703E+01  0.15560717714E+02  0.51100000000E-03 0. -1.
        -11    1    3    3    0    0  0.30956781449E+02 -0.22005122860E+02  0.18045165591E+02  0.42049681940E+02  0.51100000000E-03 0.  1.
        -12    1    3    3    0    0 -0.86111511452E+01 -0.14106082896E+01 -0.12017313321E+02  0.14851180399E+02  0.00000000000E+00 0.  1.
</event>
<event>
 7    1  0.1920603E-013  0.7246167E+02  0.7816164E-02  0.1226708E+00
        -11   -1    0    0    0    0  0.00000000000E+00  0.00000000000E+00  0.45593999997E+02  0.45594000000E+02  0.51100000000E-03 0.  1.
         11   -1    0    0    0    0 -0.00000000000E+00 -0.00000000000E+00 -0.45593999997E+02  0.45594000000E+02  0.51100000000E-03 0. -1.
    9900012    2    1    2    0    0 -0.82379221542E+01 -0.13326422987E+02 -0.10257615637E+02  0.72461665879E+02  0.70000124517E+02 0.  0.
        -12    1    1    2    0    0  0.82379221542E+01  0.13326422987E+02  0.10257615637E+02  0.18726334121E+02  0.00000000000E+00 0.  1.
         11    1    3    3    0    0 -0.22309046178E+02  0.55975381433E+01 -0.19967308141E+02  0.30458485998E+02  0.51100000000E-03 0. -1.
        -11    1    3    3    0    0  0.16637369980E+02 -0.19004071688E+02  0.19482546491E+02  0.31898690233E+02  0.51100000000E-03 0.  1.
        -12    1    3    3    0    0 -0.25662459558E+01  0.80110557049E-01 -0.97728539864E+01  0.10104489648E+02  0.00000000000E+00 0.  1.
</event>
<event>
 7    1  0.1920603E-013  0.7246160E+02  0.7816164E-02  0.1226708E+00
        -11   -1    0    0    0    0  0.00000000000E+00  0.00000000000E+00  0.45593999997E+02  0.45594000000E+02  0.51100000000E-03 0. -1.
         11   -1    0    0    0    0 -0.00000000000E+00 -0.00000000000E+00 -0.45593999997E+02  0.45594000000E+02  0.51100000000E-03 0.  1.
    9900012    2    1    2    0    0  0.10176739053E+02 -0.68853563466E+00  0.15704714674E+02  0.72461597194E+02  0.70000035042E+02 0.  0.
        -12    1    1    2    0    0 -0.10176739053E+02  0.68853563466E+00 -0.15704714674E+02  0.18726402806E+02  0.00000000000E+00 0.  1.
         11    1    3    3    0    0 -0.20572095333E+00  0.23871429994E+02 -0.48110709415E+01  0.24352287263E+02  0.51100000000E-03 0. -1.
        -11    1    3    3    0    0  0.12454663796E+02 -0.20782811137E+02  0.29482681286E+02  0.38161137104E+02  0.51100000000E-03 0.  1.
        -12    1    3    3    0    0 -0.20722037892E+01 -0.37771544923E+01 -0.89668956714E+01  0.99481728264E+01  0.00000000000E+00 0.  1.
</event>
<event>
 7    1  0.1920603E-013  0.7246160E+02  0.7816164E-02  0.1226708E+00
        -11   -1    0    0    0    0  0.00000000000E+00  0.00000000000E+00  0.45593999997E+02  0.45594000000E+02  0.51100000000E-03 0.  1.
         11   -1    0    0    0    0 -0.00000000000E+00 -0.00000000000E+00 -0.45593999997E+02  0.45594000000E+02  0.51100000000E-03 0. -1.
    9900012    2    1    2    0    0  0.11577657333E+00  0.15591330953E+02 -0.10371842007E+02  0.72461598538E+02  0.70000036792E+02 0.  0.
        -12    1    1    2    0    0 -0.11577657333E+00 -0.15591330953E+02  0.10371842007E+02  0.18726401462E+02  0.00000000000E+00 0.  1.
         11    1    3    3    0    0 -0.28040189014E+02  0.20583965182E+02  0.44598401747E+01  0.35069103171E+02  0.51100000000E-03 0. -1.
        -11    1    3    3    0    0  0.54555728044E+01 -0.65766450226E+01 -0.11601641613E+02  0.14408803654E+02  0.51100000000E-03 0.  1.
         12    1    3    3    0    0  0.22700392783E+02  0.15840107936E+01 -0.32300405692E+01  0.22983691713E+02  0.00000000000E+00 0. -1.
</event>
<event>
 7    1  0.1920603E-013  0.7246158E+02  0.7816164E-02  0.1226708E+00
        -11   -1    0    0    0    0  0.00000000000E+00  0.00000000000E+00  0.45593999997E+02  0.45594000000E+02  0.51100000000E-03 0.  1.
         11   -1    0    0    0    0 -0.00000000000E+00 -0.00000000000E+00 -0.45593999997E+02  0.45594000000E+02  0.51100000000E-03 0. -1.
    9900012    2    1    2    0    0  0.56008323442E+01  0.17453345253E+02  0.38327856283E+01  0.72461579383E+02  0.70000011839E+02 0.  0.
        -12    1    1    2    0    0 -0.56008323442E+01 -0.17453345253E+02 -0.38327856283E+01  0.18726420617E+02  0.00000000000E+00 0.  1.
         11    1    3    3    0    0  0.66758901185E+01  0.25450903244E+02 -0.27031897136E+01  0.26450391673E+02  0.51100000000E-03 0. -1.
        -11    1    3    3    0    0 -0.89305505896E+01  0.93439680778E+01  0.19200544373E+02  0.23145742109E+02  0.51100000000E-03 0.  1.
         12    1    3    3    0    0  0.78554928154E+01 -0.17341526069E+02 -0.12664569031E+02  0.22865445600E+02  0.00000000000E+00 0. -1.
</event>
<event>
 7    1  0.1920603E-013  0.7246158E+02  0.7816164E-02  0.1226708E+00
        -11   -1    0    0    0    0  0.00000000000E+00  0.00000000000E+00  0.45593999997E+02  0.45594000000E+02  0.51100000000E-03 0.  1.
         11   -1    0    0    0    0 -0.00000000000E+00 -0.00000000000E+00 -0.45593999997E+02  0.45594000000E+02  0.51100000000E-03 0. -1.
    9900012    2    1    2    0    0  0.13214082131E+02  0.11840632625E+02  0.59888550315E+01  0.72461576633E+02  0.70000008257E+02 0.  0.
        -12    1    1    2    0    0 -0.13214082131E+02 -0.11840632625E+02 -0.59888550315E+01  0.18726423367E+02  0.00000000000E+00 0.  1.
         11    1    3    3    0    0 -0.11220973366E+02 -0.18324357009E+01 -0.64121757167E+01  0.13053124590E+02  0.51100000000E-03 0. -1.
        -11    1    3    3    0    0  0.36383070417E+02  0.16824157278E+02 -0.23649889470E+01  0.40154367808E+02  0.51100000000E-03 0.  1.
        -12    1    3    3    0    0 -0.11948014920E+02 -0.31510889519E+01  0.14766019695E+02  0.19254084236E+02  0.00000000000E+00 0.  1.
</event>
<event>
 7    1  0.1920603E-013  0.7246173E+02  0.7816164E-02  0.1226708E+00
        -11   -1    0    0    0    0  0.00000000000E+00  0.00000000000E+00  0.45593999997E+02  0.45594000000E+02  0.51100000000E-03 0. -1.
         11   -1    0    0    0    0 -0.00000000000E+00 -0.00000000000E+00 -0.45593999997E+02  0.45594000000E+02  0.51100000000E-03 0.  1.
    9900012    2    1    2    0    0 -0.49435147711E+01 -0.62521804780E+01  0.16945350759E+02  0.72461734720E+02  0.70000214194E+02 0.  0.
        -12    1    1    2    0    0  0.49435147711E+01  0.62521804780E+01 -0.16945350759E+02  0.18726265280E+02  0.00000000000E+00 0.  1.
         11    1    3    3    0    0  0.12613224438E+02  0.35319670483E+01 -0.15841923307E+02  0.20555650227E+02  0.51100000000E-03 0.  1.
        -11    1    3    3    0    0 -0.18894687223E+02  0.61347245158E+00  0.15632458729E+01  0.18969166867E+02  0.51100000000E-03 0. -1.
         12    1    3    3    0    0  0.13379480143E+01 -0.10397619978E+02  0.31224028192E+02  0.32936917625E+02  0.00000000000E+00 0. -1.
</event>
<event>
 7    1  0.1920603E-013  0.7246157E+02  0.7816164E-02  0.1226708E+00
        -11   -1    0    0    0    0  0.00000000000E+00  0.00000000000E+00  0.45593999997E+02  0.45594000000E+02  0.51100000000E-03 0.  1.
         11   -1    0    0    0    0 -0.00000000000E+00 -0.00000000000E+00 -0.45593999997E+02  0.45594000000E+02  0.51100000000E-03 0. -1.
    9900012    2    1    2    0    0 -0.74478595220E+01  0.16686324411E+02 -0.40957513641E+01  0.72461569133E+02  0.69999998487E+02 0.  0.
        -12    1    1    2    0    0  0.74478595220E+01 -0.16686324411E+02  0.40957513641E+01  0.18726430867E+02  0.00000000000E+00 0.  1.
         11    1    3    3    0    0 -0.21897076606E+01  0.22138976794E+02  0.12168147351E+02  0.25357305128E+02  0.51100000000E-03 0. -1.
        -11    1    3    3    0    0 -0.56281099919E+01 -0.24441017375E+02 -0.11069000298E+02  0.27414626029E+02  0.51100000000E-03 0.  1.
        -12    1    3    3    0    0  0.36995813046E+00  0.18988364992E+02 -0.51948984165E+01  0.19689637976E+02  0.00000000000E+00 0.  1.
</event>
<event>
 7    1  0.1920603E-013  0.7246160E+02  0.7816164E-02  0.1226708E+00
        -11   -1    0    0    0    0  0.00000000000E+00  0.00000000000E+00  0.45593999997E+02  0.45594000000E+02  0.51100000000E-03 0. -1.
         11   -1    0    0    0    0 -0.00000000000E+00 -0.00000000000E+00 -0.45593999997E+02  0.45594000000E+02  0.51100000000E-03 0.  1.
    9900012    2    1    2    0    0  0.28288603273E+01 -0.14330817893E+02  0.11717645758E+02  0.72461601138E+02  0.70000040180E+02 0.  0.
        -12    1    1    2    0    0 -0.28288603273E+01  0.14330817893E+02 -0.11717645758E+02  0.18726398862E+02  0.00000000000E+00 0.  1.
         11    1    3    3    0    0 -0.11902135861E+02 -0.19547376337E+02  0.96941606494E+01  0.24854325794E+02  0.51100000000E-03 0. -1.
        -11    1    3    3    0    0 -0.21915004633E+01  0.22346780822E+02 -0.39482540465E+01  0.22798464809E+02  0.51100000000E-03 0.  1.
        -12    1    3    3    0    0  0.16922496651E+02 -0.17130222377E+02  0.59717391551E+01  0.24808810535E+02  0.00000000000E+00 0.  1.
</event>
<event>
 7    1  0.1920603E-013  0.7246157E+02  0.7816164E-02  0.1226708E+00
        -11   -1    0    0    0    0  0.00000000000E+00  0.00000000000E+00  0.45593999997E+02  0.45594000000E+02  0.51100000000E-03 0.  1.
         11   -1    0    0    0    0 -0.00000000000E+00 -0.00000000000E+00 -0.45593999997E+02  0.45594000000E+02  0.51100000000E-03 0. -1.
    9900012    2    1    2    0    0 -0.14052685156E+02 -0.12328623659E+02 -0.10982187088E+01  0.72461574667E+02  0.70000005696E+02 0.  0.
        -12    1    1    2    0    0  0.14052685156E+02  0.12328623659E+02  0.10982187088E+01  0.18726425333E+02  0.00000000000E+00 0.  1.
         11    1    3    3    0    0 -0.93807365986E+01  0.15464178979E+02  0.13520574138E+02  0.22581961294E+02  0.51100000000E-03 0. -1.
        -11    1    3    3    0    0  0.45152296636E+01 -0.29362208358E+02 -0.22823508406E+02  0.37462502783E+02  0.51100000000E-03 0.  1.
        -12    1    3    3    0    0 -0.91871782212E+01  0.15694057200E+01  0.82047155590E+01  0.12417110589E+02  0.00000000000E+00 0.  1.
</event>
<event>
 7    1  0.1920603E-013  0.7246159E+02  0.7816164E-02  0.1226708E+00
        -11   -1    0    0    0    0  0.00000000000E+00  0.00000000000E+00  0.45593999997E+02  0.45594000000E+02  0.51100000000E-03 0. -1.
         11   -1    0    0    0    0 -0.00000000000E+00 -0.00000000000E+00 -0.45593999997E+02  0.45594000000E+02  0.51100000000E-03 0.  1.
    9900012    2    1    2    0    0  0.79494370474E+01  0.16718272695E+02 -0.28256517924E+01  0.72461588188E+02  0.70000023310E+02 0.  0.
        -12    1    1    2    0    0 -0.79494370474E+01 -0.16718272695E+02  0.28256517924E+01  0.18726411812E+02  0.00000000000E+00 0.  1.
         11    1    3    3    0    0 -0.11537340664E+02 -0.17301363327E+02 -0.60429269802E+01  0.21655585176E+02  0.51100000000E-03 0. -1.
        -11    1    3    3    0    0  0.95660746616E+01  0.35819768651E+02  0.10305877386E+02  0.38480861732E+02  0.51100000000E-03 0.  1.
         12    1    3    3    0    0  0.99207030493E+01 -0.18001326287E+01 -0.70886021983E+01  0.12325141281E+02  0.00000000000E+00 0. -1.
</event>
<event>
 7    1  0.1920603E-013  0.7246156E+02  0.7816164E-02  0.1226708E+00
        -11   -1    0    0    0    0  0.00000000000E+00  0.00000000000E+00  0.45593999997E+02  0.45594000000E+02  0.51100000000E-03 0. -1.
         11   -1    0    0    0    0 -0.00000000000E+00 -0.00000000000E+00 -0.45593999997E+02  0.45594000000E+02  0.51100000000E-03 0.  1.
    9900012    2    1    2    0    0 -0.13709360866E+02  0.59522310205E+01  0.11282909821E+02  0.72461556571E+02  0.69999982122E+02 0.  0.
        -12    1    1    2    0    0  0.13709360866E+02 -0.59522310205E+01 -0.11282909821E+02  0.18726443429E+02  0.00000000000E+00 0.  1.
         11    1    3    3    0    0 -0.12558757721E+02  0.13152602242E+02 -0.12845550271E+02  0.22264804137E+02  0.51100000000E-03 0. -1.
        -11    1    3    3    0    0  0.10061127875E+02  0.13487151360E+02  0.20283555230E+02  0.26354357495E+02  0.51100000000E-03 0.  1.
         12    1    3    3    0    0 -0.11211731020E+02 -0.20687522582E+02  0.38449048617E+01  0.23842394939E+02  0.00000000000E+00 0. -1.
</event>
<event>
 7    1  0.1920603E-013  0.7246160E+02  0.7816164E-02  0.1226708E+00
        -11   -1    0    0    0    0  0.00000000000E+00  0.00000000000E+00  0.45593999997E+02  0.45594000000E+02  0.51100000000E-03 0. -1.
         11   -1    0    0    0    0 -0.00000000000E+00 -0.00000000000E+00 -0.45593999997E+02  0.45594000000E+02  0.51100000000E-03 0.  1.
    9900012    2    1    2    0    0 -0.13031128149E+02 -0.11767039426E+02  0.65118657314E+01  0.72461603844E+02  0.70000043704E+02 0.  0.
        -12    1    1    2    0    0  0.13031128149E+02  0.11767039426E+02 -0.65118657314E+01  0.18726396156E+02  0.00000000000E+00 0.  1.
         11    1    3    3    0    0  0.45079591103E+01 -0.46952602913E+01  0.77977349450E+01  0.10157353744E+02  0.51100000000E-03 0. -1.
        -11    1    3    3    0    0 -0.93087655032E+01  0.24259747133E+02 -0.11389178332E+02  0.28370791838E+02  0.51100000000E-03 0.  1.
        -12    1    3    3    0    0 -0.82303217562E+01 -0.31331526268E+02  0.10103309119E+02  0.33933458262E+02  0.00000000000E+00 0.  1.
</event>
<event>
 7    1  0.1920603E-013  0.7246158E+02  0.7816164E-02  0.1226708E+00
        -11   -1    0    0    0    0  0.00000000000E+00  0.00000000000E+00  0.45593999997E+02  0.45594000000E+02  0.51100000000E-03 0. -1.
         11   -1    0    0    0    0 -0.00000000000E+00 -0.00000000000E+00 -0.45593999997E+02  0.45594000000E+02  0.51100000000E-03 0.  1.
    9900012    2    1    2    0    0 -0.17663023962E+02  0.43251308510E+01  0.44709619595E+01  0.72461583546E+02  0.70000017263E+02 0.  0.
        -12    1    1    2    0    0  0.17663023962E+02 -0.43251308510E+01 -0.44709619595E+01  0.18726416454E+02  0.00000000000E+00 0.  1.
         11    1    3    3    0    0 -0.68558524855E+01 -0.87008891281E+01  0.19962485398E+02  0.22830002375E+02  0.51100000000E-03 0. -1.
        -11    1    3    3    0    0 -0.87961197375E+01 -0.11178829109E+02 -0.20382997681E+02  0.24855674149E+02  0.51100000000E-03 0.  1.
        -12    1    3    3    0    0 -0.20110517391E+01  0.24204849089E+02  0.48914742421E+01  0.24775907022E+02  0.00000000000E+00 0.  1.
</event>
<event>
 7    1  0.1920603E-013  0.7246157E+02  0.7816164E-02  0.1226708E+00
        -11   -1    0    0    0    0  0.00000000000E+00  0.00000000000E+00  0.45593999997E+02  0.45594000000E+02  0.51100000000E-03 0. -1.
         11   -1    0    0    0    0 -0.00000000000E+00 -0.00000000000E+00 -0.45593999997E+02  0.45594000000E+02  0.51100000000E-03 0.  1.
    9900012    2    1    2    0    0 -0.11226364349E+02 -0.52533766549E+01  0.14037444000E+02  0.72461573303E+02  0.70000003919E+02 0.  0.
        -12    1    1    2    0    0  0.11226364349E+02  0.52533766549E+01 -0.14037444000E+02  0.18726426697E+02  0.00000000000E+00 0.  1.
         11    1    3    3    0    0 -0.14686802429E+02  0.10761258950E+00  0.30130940686E+02  0.33519954250E+02  0.51100000000E-03 0. -1.
        -11    1    3    3    0    0 -0.12187594706E+02 -0.26472820723E+00 -0.18656585259E+02  0.22286222640E+02  0.51100000000E-03 0.  1.
         12    1    3    3    0    0  0.15648032786E+02 -0.50962610372E+01  0.25630885736E+01  0.16655396413E+02  0.00000000000E+00 0. -1.
</event>
<event>
 7    1  0.1920603E-013  0.7246156E+02  0.7816164E-02  0.1226708E+00
        -11   -1    0    0    0    0  0.00000000000E+00  0.00000000000E+00  0.45593999997E+02  0.45594000000E+02  0.51100000000E-03 0. -1.
         11   -1    0    0    0    0 -0.00000000000E+00 -0.00000000000E+00 -0.45593999997E+02  0.45594000000E+02  0.51100000000E-03 0.  1.
    9900012    2    1    2    0    0 -0.11315204924E+02 -0.58465154955E+01 -0.13728219484E+02  0.72461558370E+02  0.69999984466E+02 0.  0.
        -12    1    1    2    0    0  0.11315204924E+02  0.58465154955E+01  0.13728219484E+02  0.18726441630E+02  0.00000000000E+00 0.  1.
         11    1    3    3    0    0  0.95280870993E+01 -0.24370867845E+02  0.96384333287E+01  0.27885893218E+02  0.51100000000E-03 0. -1.
        -11    1    3    3    0    0 -0.29271604122E+01  0.19765286389E+02 -0.13035700992E+02  0.23857164851E+02  0.51100000000E-03 0.  1.
         12    1    3    3    0    0 -0.17916131612E+02 -0.12409340393E+01 -0.10330951820E+02  0.20718500301E+02  0.00000000000E+00 0. -1.
</event>
<event>
 7    1  0.1920603E-013  0.7246163E+02  0.7816164E-02  0.1226708E+00
        -11   -1    0    0    0    0  0.00000000000E+00  0.00000000000E+00  0.45593999997E+02  0.45594000000E+02  0.51100000000E-03 0. -1.
         11   -1    0    0    0    0 -0.00000000000E+00 -0.00000000000E+00 -0.45593999997E+02  0.45594000000E+02  0.51100000000E-03 0.  1.
    9900012    2    1    2    0    0  0.17088186947E+02 -0.14936406375E-02 -0.76596948856E+01  0.72461626590E+02  0.70000073335E+02 0.  0.
        -12    1    1    2    0    0 -0.17088186947E+02  0.14936406375E-02  0.76596948856E+01  0.18726373410E+02  0.00000000000E+00 0.  1.
         11    1    3    3    0    0  0.13466474068E+02 -0.22735390193E+02  0.99801652717E+01  0.28246196030E+02  0.51100000000E-03 0. -1.
        -11    1    3    3    0    0 -0.14423990161E+02  0.90200338627E+01 -0.31138318848E+01  0.17294752161E+02  0.51100000000E-03 0.  1.
         12    1    3    3    0    0  0.18045703040E+02  0.13713862690E+02 -0.14526028272E+02  0.26920678399E+02  0.00000000000E+00 0. -1.
</event>
<event>
 7    1  0.1920603E-013  0.7246158E+02  0.7816164E-02  0.1226708E+00
        -11   -1    0    0    0    0  0.00000000000E+00  0.00000000000E+00  0.45593999997E+02  0.45594000000E+02  0.51100000000E-03 0.  1.
         11   -1    0    0    0    0 -0.00000000000E+00 -0.00000000000E+00 -0.45593999997E+02  0.45594000000E+02  0.51100000000E-03 0. -1.
    9900012    2    1    2    0    0  0.28478198753E+01 -0.18360004234E+02 -0.23407434739E+01  0.72461577129E+02  0.70000008904E+02 0.  0.
        -12    1    1    2    0    0 -0.28478198753E+01  0.18360004234E+02  0.23407434739E+01  0.18726422871E+02  0.00000000000E+00 0.  1.
         11    1    3    3    0    0  0.36998940992E+01 -0.19533429337E+02 -0.11217258236E+02  0.22826978789E+02  0.51100000000E-03 0. -1.
        -11    1    3    3    0    0 -0.16187172379E+02 -0.95643562732E+01  0.20327442869E+02  0.27689463599E+02  0.51100000000E-03 0.  1.
        -12    1    3    3    0    0  0.15335098155E+02  0.10737781376E+02 -0.11450928107E+02  0.21945134741E+02  0.00000000000E+00 0.  1.
</event>
<event>
 7    1  0.1920603E-013  0.7246157E+02  0.7816164E-02  0.1226708E+00
        -11   -1    0    0    0    0  0.00000000000E+00  0.00000000000E+00  0.45593999997E+02  0.45594000000E+02  0.51100000000E-03 0. -1.
         11   -1    0    0    0    0 -0.00000000000E+00 -0.00000000000E+00 -0.45593999997E+02  0.45594000000E+02  0.51100000000E-03 0.  1.
    9900012    2    1    2    0    0 -0.15749183858E+02 -0.96814857953E+01  0.29851653702E+01  0.72461570237E+02  0.69999999925E+02 0.  0.
        -12    1    1    2    0    0  0.15749183858E+02  0.96814857953E+01 -0.29851653702E+01  0.18726429763E+02  0.00000000000E+00 0.  1.
         11    1    3    3    0    0  0.10235351845E+02 -0.25793812239E+01  0.10997821273E+02  0.15243612036E+02  0.51100000000E-03 0. -1.
        -11    1    3    3    0    0 -0.10369850343E+02  0.80134984857E+01 -0.25928802819E+02  0.29052586288E+02  0.51100000000E-03 0.  1.
        -12    1    3    3    0    0 -0.15614685360E+02 -0.15115603057E+02  0.17916146917E+02  0.28165371913E+02  0.00000000000E+00 0.  1.
</event>
<event>
 7    1  0.1920603E-013  0.7246157E+02  0.7816164E-02  0.1226708E+00
        -11   -1    0    0    0    0  0.00000000000E+00  0.00000000000E+00  0.45593999997E+02  0.45594000000E+02  0.51100000000E-03 0.  1.
         11   -1    0    0    0    0 -0.00000000000E+00 -0.00000000000E+00 -0.45593999997E+02  0.45594000000E+02  0.51100000000E-03 0. -1.
    9900012    2    1    2    0    0 -0.14766817325E+02  0.62904422695E+01  0.96462735939E+01  0.72461570759E+02  0.70000000606E+02 0.  0.
        -12    1    1    2    0    0  0.14766817325E+02 -0.62904422695E+01 -0.96462735939E+01  0.18726429241E+02  0.00000000000E+00 0.  1.
         11    1    3    3    0    0  0.33876113330E+01 -0.19955031686E+01  0.18869964205E+01  0.43610433604E+01  0.51100000000E-03 0. -1.
        -11    1    3    3    0    0 -0.18755379021E+02 -0.51936650969E+01 -0.25575840391E+02  0.32138170628E+02  0.51100000000E-03 0.  1.
        -12    1    3    3    0    0  0.60095036326E+00  0.13479610535E+02  0.33335117564E+02  0.35962356771E+02  0.00000000000E+00 0.  1.
</event>
<event>
 7    1  0.1920603E-013  0.7246166E+02  0.7816164E-02  0.1226708E+00
        -11   -1    0    0    0    0  0.00000000000E+00  0.00000000000E+00  0.45593999997E+02  0.45594000000E+02  0.51100000000E-03 0.  1.
         11   -1    0    0    0    0 -0.00000000000E+00 -0.00000000000E+00 -0.45593999997E+02  0.45594000000E+02  0.51100000000E-03 0. -1.
    9900012    2    1    2    0    0 -0.13883930439E+02  0.46083065776E+01 -0.11690844370E+02  0.72461658766E+02  0.70000115250E+02 0.  0.
        -12    1    1    2    0    0  0.13883930439E+02 -0.46083065776E+01  0.11690844370E+02  0.18726341234E+02  0.00000000000E+00 0.  1.
         11    1    3    3    0    0 -0.18497616666E+02  0.15507325333E+02  0.58588144329E+01  0.24838773483E+02  0.51100000000E-03 0.  1.
        -11    1    3    3    0    0 -0.36168864997E+01 -0.25338496254E+02 -0.34487496702E+01  0.25826636152E+02  0.51100000000E-03 0. -1.
        -12    1    3    3    0    0  0.82305727267E+01  0.14439477499E+02 -0.14100909132E+02  0.21796249132E+02  0.00000000000E+00 0.  1.
</event>
<event>
 7    1  0.1920603E-013  0.7246157E+02  0.7816164E-02  0.1226708E+00
        -11   -1    0    0    0    0  0.00000000000E+00  0.00000000000E+00  0.45593999997E+02  0.45594000000E+02  0.51100000000E-03 0.  1.
         11   -1    0    0    0    0 -0.00000000000E+00 -0.00000000000E+00 -0.45593999997E+02  0.45594000000E+02  0.51100000000E-03 0. -1.
    9900012    2    1    2    0    0  0.94168751917E+01 -0.56908576104E+01  0.15153084100E+02  0.72461565303E+02  0.69999993498E+02 0.  0.
        -12    1    1    2    0    0 -0.94168751917E+01  0.56908576104E+01 -0.15153084100E+02  0.18726434697E+02  0.00000000000E+00 0.  1.
         11    1    3    3    0    0  0.13821511456E+02 -0.26112012956E+02  0.15689456510E+02  0.33451912433E+02  0.51100000000E-03 0. -1.
        -11    1    3    3    0    0 -0.96051348557E+01  0.11843725786E+02  0.14429012079E+02  0.20993542958E+02  0.51100000000E-03 0.  1.
         12    1    3    3    0    0  0.52004985916E+01  0.85774295599E+01 -0.14965384490E+02  0.18016109912E+02  0.00000000000E+00 0. -1.
</event>
<event>
 7    1  0.1920603E-013  0.7246153E+02  0.7816164E-02  0.1226708E+00
        -11   -1    0    0    0    0  0.00000000000E+00  0.00000000000E+00  0.45593999997E+02  0.45594000000E+02  0.51100000000E-03 0. -1.
         11   -1    0    0    0    0 -0.00000000000E+00 -0.00000000000E+00 -0.45593999997E+02  0.45594000000E+02  0.51100000000E-03 0.  1.
    9900012    2    1    2    0    0 -0.98632890005E+01  0.15436132702E+01  0.15843400682E+02  0.72461533248E+02  0.69999951740E+02 0.  0.
        -12    1    1    2    0    0  0.98632890005E+01 -0.15436132702E+01 -0.15843400682E+02  0.18726466752E+02  0.00000000000E+00 0.  1.
         11    1    3    3    0    0  0.44749293669E+01  0.21429707154E+01  0.20248659124E+01  0.53588616842E+01  0.51100000000E-03 0. -1.
        -11    1    3    3    0    0 -0.14415408887E+02 -0.61927592505E+01 -0.24109165108E+02  0.28764667962E+02  0.51100000000E-03 0.  1.
        -12    1    3    3    0    0  0.77190519119E-01  0.55934018052E+01  0.37927699878E+02  0.38338003602E+02  0.00000000000E+00 0.  1.
</event>
<event>
 8    1  0.1920603E-013  0.7246157E+02  0.7816164E-02  0.1226708E+00
        -11   -1    0    0    0    0  0.00000000000E+00  0.00000000000E+00  0.45593999997E+02  0.45594000000E+02  0.51100000000E-03 0.  1.
         11   -1    0    0    0    0 -0.00000000000E+00 -0.00000000000E+00 -0.45593999997E+02  0.45594000000E+02  0.51100000000E-03 0. -1.
    9900012    2    1    2    0    0 -0.98029017478E+01 -0.10341338775E+02 -0.12150681454E+02  0.72461568676E+02  0.69999997892E+02 0.  0.
        -24    2    3    3    0    0 -0.10354206628E+02  0.30832190475E+01  0.51604597221E+01  0.50548141311E+02  0.49109758815E+02 0.  0.
        -12    1    1    2    0    0  0.98029017478E+01  0.10341338775E+02  0.12150681454E+02  0.18726431324E+02  0.00000000000E+00 0.  1.
         11    1    4    4    0    0 -0.25576096843E+02 -0.55669580555E+01  0.15297355690E+02  0.30317269716E+02  0.51100000000E-03 0. -1.
        -11    1    3    3    0    0  0.55130487994E+00 -0.13424557822E+02 -0.17311141176E+02  0.21913427365E+02  0.51100000000E-03 0.  1.
        -12    1    4    4    0    0  0.15221890215E+02  0.86501771030E+01 -0.10136895968E+02  0.20230871595E+02  0.00000000000E+00 0.  1.
</event>
<event>
 7    1  0.1920603E-013  0.7246166E+02  0.7816164E-02  0.1226708E+00
        -11   -1    0    0    0    0  0.00000000000E+00  0.00000000000E+00  0.45593999997E+02  0.45594000000E+02  0.51100000000E-03 0.  1.
         11   -1    0    0    0    0 -0.00000000000E+00 -0.00000000000E+00 -0.45593999997E+02  0.45594000000E+02  0.51100000000E-03 0. -1.
    9900012    2    1    2    0    0 -0.18558091113E+02  0.53929286324E+00 -0.24458916911E+01  0.72461655756E+02  0.70000111330E+02 0.  0.
        -12    1    1    2    0    0  0.18558091113E+02 -0.53929286324E+00  0.24458916911E+01  0.18726344244E+02  0.00000000000E+00 0.  1.
         11    1    3    3    0    0  0.86434926176E+00  0.13065593152E+01 -0.15305989652E+02  0.15385951917E+02  0.51100000000E-03 0. -1.
        -11    1    3    3    0    0 -0.26544244636E+01 -0.15783705956E+02  0.26352721037E+02  0.30832405830E+02  0.51100000000E-03 0.  1.
        -12    1    3    3    0    0 -0.16768015912E+02  0.15016439504E+02 -0.13492623075E+02  0.26243298010E+02  0.00000000000E+00 0.  1.
</event>
<event>
 7    1  0.1920603E-013  0.7246152E+02  0.7816164E-02  0.1226708E+00
        -11   -1    0    0    0    0  0.00000000000E+00  0.00000000000E+00  0.45593999997E+02  0.45594000000E+02  0.51100000000E-03 0. -1.
         11   -1    0    0    0    0 -0.00000000000E+00 -0.00000000000E+00 -0.45593999997E+02  0.45594000000E+02  0.51100000000E-03 0.  1.
    9900012    2    1    2    0    0  0.12770894336E+02 -0.13043842433E+01  0.13633927156E+02  0.72461517947E+02  0.69999931808E+02 0.  0.
        -12    1    1    2    0    0 -0.12770894336E+02  0.13043842433E+01 -0.13633927156E+02  0.18726482053E+02  0.00000000000E+00 0.  1.
         11    1    3    3    0    0  0.17573969106E+02 -0.22888575159E+02  0.19810276696E+02  0.35002547422E+02  0.51100000000E-03 0. -1.
        -11    1    3    3    0    0  0.11125964113E+02  0.16984283468E+02 -0.44810476830E+01  0.20792612895E+02  0.51100000000E-03 0.  1.
         12    1    3    3    0    0 -0.15929038884E+02  0.45999074472E+01 -0.16953018575E+01  0.16666357631E+02  0.00000000000E+00 0. -1.
</event>
<event>
 7    1  0.1920603E-013  0.7246190E+02  0.7816164E-02  0.1226707E+00
        -11   -1    0    0    0    0  0.00000000000E+00  0.00000000000E+00  0.45593999997E+02  0.45594000000E+02  0.51100000000E-03 0. -1.
         11   -1    0    0    0    0 -0.00000000000E+00 -0.00000000000E+00 -0.45593999997E+02  0.45594000000E+02  0.51100000000E-03 0.  1.
    9900012    2    1    2    0    0 -0.38227213041E+01  0.10290737432E+02  0.15170840463E+02  0.72461898553E+02  0.70000427617E+02 0.  0.
        -12    1    1    2    0    0  0.38227213041E+01 -0.10290737432E+02 -0.15170840463E+02  0.18726101447E+02  0.00000000000E+00 0.  1.
         11    1    3    3    0    0  0.11390434432E+02  0.25611724042E+02 -0.77226807029E+00  0.28041020010E+02  0.51100000000E-03 0. -1.
        -11    1    3    3    0    0 -0.14803446710E+02 -0.15632281716E+02  0.26335523692E+02  0.34015732751E+02  0.51100000000E-03 0.  1.
        -12    1    3    3    0    0 -0.40970902601E+00  0.31129510596E+00 -0.10392415159E+02  0.10405145793E+02  0.00000000000E+00 0.  1.
</event>
<event>
 7    1  0.1920603E-013  0.7246147E+02  0.7816164E-02  0.1226708E+00
        -11   -1    0    0    0    0  0.00000000000E+00  0.00000000000E+00  0.45593999997E+02  0.45594000000E+02  0.51100000000E-03 0.  1.
         11   -1    0    0    0    0 -0.00000000000E+00 -0.00000000000E+00 -0.45593999997E+02  0.45594000000E+02  0.51100000000E-03 0. -1.
    9900012    2    1    2    0    0  0.13972803854E+02 -0.11567633349E+02  0.46511976087E+01  0.72461467271E+02  0.69999865793E+02 0.  0.
        -12    1    1    2    0    0 -0.13972803854E+02  0.11567633349E+02 -0.46511976087E+01  0.18726532729E+02  0.00000000000E+00 0.  1.
         11    1    3    3    0    0 -0.85701623745E+01 -0.31427809909E+02 -0.48780839456E+01  0.32938588647E+02  0.51100000000E-03 0. -1.
        -11    1    3    3    0    0  0.42359931149E+00  0.13729488604E+02 -0.19251633926E+01  0.13870275702E+02  0.51100000000E-03 0.  1.
         12    1    3    3    0    0  0.22119366917E+02  0.61306879570E+01  0.11454444947E+02  0.25652602922E+02  0.00000000000E+00 0. -1.
</event>
<event>
 7    1  0.1920603E-013  0.7246157E+02  0.7816164E-02  0.1226708E+00
        -11   -1    0    0    0    0  0.00000000000E+00  0.00000000000E+00  0.45593999997E+02  0.45594000000E+02  0.51100000000E-03 0. -1.
         11   -1    0    0    0    0 -0.00000000000E+00 -0.00000000000E+00 -0.45593999997E+02  0.45594000000E+02  0.51100000000E-03 0.  1.
    9900012    2    1    2    0    0  0.65340834067E+01  0.49033654967E+01  0.16850575408E+02  0.72461571330E+02  0.70000001349E+02 0.  0.
        -12    1    1    2    0    0 -0.65340834067E+01 -0.49033654967E+01 -0.16850575408E+02  0.18726428670E+02  0.00000000000E+00 0.  1.
         11    1    3    3    0    0  0.11311592842E+02  0.81359438884E+01  0.21678105642E+02  0.25769865736E+02  0.51100000000E-03 0. -1.
        -11    1    3    3    0    0  0.57514644250E+01  0.31972082501E+01 -0.23448701365E+02  0.24354528934E+02  0.51100000000E-03 0.  1.
        -12    1    3    3    0    0 -0.10528973860E+02 -0.64297866418E+01  0.18621171132E+02  0.22337176660E+02  0.00000000000E+00 0.  1.
</event>
<event>
 7    1  0.1920603E-013  0.7246158E+02  0.7816164E-02  0.1226708E+00
        -11   -1    0    0    0    0  0.00000000000E+00  0.00000000000E+00  0.45593999997E+02  0.45594000000E+02  0.51100000000E-03 0.  1.
         11   -1    0    0    0    0 -0.00000000000E+00 -0.00000000000E+00 -0.45593999997E+02  0.45594000000E+02  0.51100000000E-03 0. -1.
    9900012    2    1    2    0    0  0.36057083383E+00  0.17850689866E+02  0.56481716008E+01  0.72461575289E+02  0.70000006507E+02 0.  0.
        -12    1    1    2    0    0 -0.36057083383E+00 -0.17850689866E+02 -0.56481716008E+01  0.18726424711E+02  0.00000000000E+00 0.  1.
         11    1    3    3    0    0  0.79061470955E+01  0.36189109453E+02 -0.83272753330E+01  0.37967121561E+02  0.51100000000E-03 0. -1.
        -11    1    3    3    0    0  0.89095245107E+01 -0.78610842313E+01  0.36906836007E+01  0.12441761049E+02  0.51100000000E-03 0.  1.
         12    1    3    3    0    0 -0.16455100772E+02 -0.10477335356E+02  0.10284763333E+02  0.22052692679E+02  0.00000000000E+00 0. -1.
</event>
<event>
 7    1  0.1920603E-013  0.7246217E+02  0.7816164E-02  0.1226706E+00
        -11   -1    0    0    0    0  0.00000000000E+00  0.00000000000E+00  0.45593999997E+02  0.45594000000E+02  0.51100000000E-03 0. -1.
         11   -1    0    0    0    0 -0.00000000000E+00 -0.00000000000E+00 -0.45593999997E+02  0.45594000000E+02  0.51100000000E-03 0.  1.
    9900012    2    1    2    0    0  0.57158685748E+01 -0.11150166616E+02  0.13916158613E+02  0.72462166516E+02  0.70000776685E+02 0.  0.
        -12    1    1    2    0    0 -0.57158685748E+01  0.11150166616E+02 -0.13916158613E+02  0.18725833484E+02  0.00000000000E+00 0.  1.
         11    1    3    3    0    0  0.74679400519E+01 -0.39053130974E+02  0.12518210685E+02  0.41684802585E+02  0.51100000000E-03 0. -1.
        -11    1    3    3    0    0  0.48688144474E+01  0.18947285521E+02  0.16943280357E+01  0.19636082361E+02  0.51100000000E-03 0.  1.
         12    1    3    3    0    0 -0.66208859245E+01  0.89556788373E+01 -0.29638010798E+00  0.11141281570E+02  0.00000000000E+00 0. -1.
</event>
<event>
 7    1  0.1920603E-013  0.7246124E+02  0.7816164E-02  0.1226709E+00
        -11   -1    0    0    0    0  0.00000000000E+00  0.00000000000E+00  0.45593999997E+02  0.45594000000E+02  0.51100000000E-03 0.  1.
         11   -1    0    0    0    0 -0.00000000000E+00 -0.00000000000E+00 -0.45593999997E+02  0.45594000000E+02  0.51100000000E-03 0. -1.
    9900012    2    1    2    0    0  0.15353621760E+02  0.84485460939E+00 -0.10688493396E+02  0.72461244501E+02  0.69999575592E+02 0.  0.
        -12    1    1    2    0    0 -0.15353621760E+02 -0.84485460939E+00  0.10688493396E+02  0.18726755499E+02  0.00000000000E+00 0.  1.
         11    1    3    3    0    0  0.41405060511E+01 -0.56872239102E+01 -0.38022761458E+01  0.79965999221E+01  0.51100000000E-03 0. -1.
        -11    1    3    3    0    0 -0.17948216144E+02  0.16962616678E+02 -0.19051734820E+02  0.31190341890E+02  0.51100000000E-03 0.  1.
        -12    1    3    3    0    0  0.29161331852E+02 -0.10430538158E+02  0.12165517570E+02  0.33274302689E+02  0.00000000000E+00 0.  1.
</event>
<event>
 7    1  0.1920603E-013  0.7246157E+02  0.7816164E-02  0.1226708E+00
        -11   -1    0    0    0    0  0.00000000000E+00  0.00000000000E+00  0.45593999997E+02  0.45594000000E+02  0.51100000000E-03 0. -1.
         11   -1    0    0    0    0 -0.00000000000E+00 -0.00000000000E+00 -0.45593999997E+02  0.45594000000E+02  0.51100000000E-03 0.  1.
    9900012    2    1    2    0    0 -0.99687665578E+01 -0.11363037977E+02  0.11053692316E+02  0.72461573417E+02  0.70000004068E+02 0.  0.
        -12    1    1    2    0    0  0.99687665578E+01  0.11363037977E+02 -0.11053692316E+02  0.18726426583E+02  0.00000000000E+00 0.  1.
         11    1    3    3    0    0  0.12521821274E+02 -0.36795660625E+01 -0.21995965567E+02  0.25576507109E+02  0.51100000000E-03 0. -1.
        -11    1    3    3    0    0 -0.10571546688E+02 -0.15186453834E+02  0.14043779673E+02  0.23229587323E+02  0.51100000000E-03 0.  1.
         12    1    3    3    0    0 -0.11919041144E+02  0.75029819198E+01  0.19005878209E+02  0.23655478984E+02  0.00000000000E+00 0. -1.
</event>
<event>
 7    1  0.1920603E-013  0.7246156E+02  0.7816164E-02  0.1226708E+00
        -11   -1    0    0    0    0  0.00000000000E+00  0.00000000000E+00  0.45593999997E+02  0.45594000000E+02  0.51100000000E-03 0.  1.
         11   -1    0    0    0    0 -0.00000000000E+00 -0.00000000000E+00 -0.45593999997E+02  0.45594000000E+02  0.51100000000E-03 0. -1.
    9900012    2    1    2    0    0  0.13915408250E+02 -0.58022289961E+01 -0.11107438193E+02  0.72461557965E+02  0.69999983939E+02 0.  0.
        -12    1    1    2    0    0 -0.13915408250E+02  0.58022289961E+01  0.11107438193E+02  0.18726442035E+02  0.00000000000E+00 0.  1.
         11    1    3    3    0    0  0.72784203748E+00  0.23300128793E+02  0.16274280044E+02  0.28430229457E+02  0.51100000000E-03 0.  1.
        -11    1    3    3    0    0  0.62802711330E+01 -0.23519623634E+02 -0.14341839436E+02  0.28254253840E+02  0.51100000000E-03 0. -1.
        -12    1    3    3    0    0  0.69072950795E+01 -0.55827341549E+01 -0.13039878800E+02  0.15777074668E+02  0.00000000000E+00 0.  1.
</event>
<event>
 7    1  0.1920603E-013  0.7246155E+02  0.7816164E-02  0.1226708E+00
        -11   -1    0    0    0    0  0.00000000000E+00  0.00000000000E+00  0.45593999997E+02  0.45594000000E+02  0.51100000000E-03 0.  1.
         11   -1    0    0    0    0 -0.00000000000E+00 -0.00000000000E+00 -0.45593999997E+02  0.45594000000E+02  0.51100000000E-03 0. -1.
    9900012    2    1    2    0    0 -0.94680442000E+01  0.57406179798E+01 -0.15102364878E+02  0.72461548636E+02  0.69999971786E+02 0.  0.
        -12    1    1    2    0    0  0.94680442000E+01 -0.57406179798E+01  0.15102364878E+02  0.18726451364E+02  0.00000000000E+00 0.  1.
         11    1    3    3    0    0 -0.67119792555E+01 -0.23635656721E+02 -0.51777428529E+01  0.25109837823E+02  0.51100000000E-03 0. -1.
        -11    1    3    3    0    0 -0.18456114085E+02  0.22652057706E+02 -0.64558734896E+01  0.29923605535E+02  0.51100000000E-03 0.  1.
        -12    1    3    3    0    0  0.15700049140E+02  0.67242169953E+01 -0.34687485359E+01  0.17428105279E+02  0.00000000000E+00 0.  1.
</event>
<event>
 7    1  0.1920603E-013  0.7246169E+02  0.7816164E-02  0.1226708E+00
        -11   -1    0    0    0    0  0.00000000000E+00  0.00000000000E+00  0.45593999997E+02  0.45594000000E+02  0.51100000000E-03 0.  1.
         11   -1    0    0    0    0 -0.00000000000E+00 -0.00000000000E+00 -0.45593999997E+02  0.45594000000E+02  0.51100000000E-03 0. -1.
    9900012    2    1    2    0    0  0.11392561285E+02 -0.43362402892E+01 -0.14215529876E+02  0.72461689041E+02  0.70000154690E+02 0.  0.
        -12    1    1    2    0    0 -0.11392561285E+02  0.43362402892E+01  0.14215529876E+02  0.18726310959E+02  0.00000000000E+00 0.  1.
         11    1    3    3    0    0 -0.22977616957E+02  0.16031435325E+02  0.39288683281E+01  0.28291585431E+02  0.51100000000E-03 0.  1.
        -11    1    3    3    0    0  0.18683263790E+02 -0.13520862101E+02 -0.89265864182E+01  0.24729779683E+02  0.51100000000E-03 0. -1.
        -12    1    3    3    0    0  0.15686914451E+02 -0.68468135134E+01 -0.92178117856E+01  0.19440323928E+02  0.00000000000E+00 0.  1.
</event>
<event>
 7    1  0.1920603E-013  0.7246158E+02  0.7816164E-02  0.1226708E+00
        -11   -1    0    0    0    0  0.00000000000E+00  0.00000000000E+00  0.45593999997E+02  0.45594000000E+02  0.51100000000E-03 0.  1.
         11   -1    0    0    0    0 -0.00000000000E+00 -0.00000000000E+00 -0.45593999997E+02  0.45594000000E+02  0.51100000000E-03 0. -1.
    9900012    2    1    2    0    0  0.18398424277E+02 -0.34221117572E+01 -0.68247292006E+00  0.72461584592E+02  0.70000018625E+02 0.  0.
        -12    1    1    2    0    0 -0.18398424277E+02  0.34221117572E+01  0.68247292006E+00  0.18726415408E+02  0.00000000000E+00 0.  1.
         11    1    3    3    0    0 -0.90518746844E+01 -0.73412315415E+01  0.12863684578E+02  0.17358124813E+02  0.51100000000E-03 0. -1.
        -11    1    3    3    0    0  0.15894690719E+02  0.32024590709E+01 -0.30518467047E+02  0.34558266281E+02  0.51100000000E-03 0.  1.
        -12    1    3    3    0    0  0.11555608243E+02  0.71666071344E+00  0.16972309549E+02  0.20545193498E+02  0.00000000000E+00 0.  1.
</event>
<event>
 7    1  0.1920603E-013  0.7246172E+02  0.7816164E-02  0.1226708E+00
        -11   -1    0    0    0    0  0.00000000000E+00  0.00000000000E+00  0.45593999997E+02  0.45594000000E+02  0.51100000000E-03 0.  1.
         11   -1    0    0    0    0 -0.00000000000E+00 -0.00000000000E+00 -0.45593999997E+02  0.45594000000E+02  0.51100000000E-03 0. -1.
    9900012    2    1    2    0    0  0.73813779583E+01 -0.10190067983E+02 -0.13869081598E+02  0.72461717655E+02  0.70000191965E+02 0.  0.
        -12    1    1    2    0    0 -0.73813779583E+01  0.10190067983E+02  0.13869081598E+02  0.18726282345E+02  0.00000000000E+00 0.  1.
         11    1    3    3    0    0  0.50765717612E+01  0.13045909863E+02  0.35859381309E+01  0.14450823420E+02  0.51100000000E-03 0. -1.
        -11    1    3    3    0    0 -0.75637242958E+01 -0.37303266357E+02 -0.13429606981E+02  0.40362085552E+02  0.51100000000E-03 0.  1.
        -12    1    3    3    0    0  0.98685304929E+01  0.14067288511E+02 -0.40254127480E+01  0.17648808683E+02  0.00000000000E+00 0.  1.
</event>
<event>
 7    1  0.1920603E-013  0.7246156E+02  0.7816164E-02  0.1226708E+00
        -11   -1    0    0    0    0  0.00000000000E+00  0.00000000000E+00  0.45593999997E+02  0.45594000000E+02  0.51100000000E-03 0.  1.
         11   -1    0    0    0    0 -0.00000000000E+00 -0.00000000000E+00 -0.45593999997E+02  0.45594000000E+02  0.51100000000E-03 0. -1.
    9900012    2    1    2    0    0 -0.17080345405E+02 -0.51113449809E+01 -0.57284877688E+01  0.72461558299E+02  0.69999984373E+02 0.  0.
        -12    1    1    2    0    0  0.17080345405E+02  0.51113449809E+01  0.57284877688E+01  0.18726441701E+02  0.00000000000E+00 0.  1.
         11    1    3    3    0    0 -0.97066748537E+01  0.68729414828E+01  0.23016561179E+02  0.25907893587E+02  0.51100000000E-03 0. -1.
        -11    1    3    3    0    0  0.11580533153E+02 -0.12333417115E+02 -0.89283420854E+01  0.19129485578E+02  0.51100000000E-03 0.  1.
         12    1    3    3    0    0 -0.18954203704E+02  0.34913065107E+00 -0.19816706862E+02  0.27424179134E+02  0.00000000000E+00 0. -1.
</event>
<event>
 7    1  0.1920603E-013  0.7246153E+02  0.7816164E-02  0.1226708E+00
        -11   -1    0    0    0    0  0.00000000000E+00  0.00000000000E+00  0.45593999997E+02  0.45594000000E+02  0.51100000000E-03 0. -1.
         11   -1    0    0    0    0 -0.00000000000E+00 -0.00000000000E+00 -0.45593999997E+02  0.45594000000E+02  0.51100000000E-03 0.  1.
    9900012    2    1    2    0    0 -0.11751172720E+02  0.14039079537E+02  0.39363696493E+01  0.72461526212E+02  0.69999942574E+02 0.  0.
        -12    1    1    2    0    0  0.11751172720E+02 -0.14039079537E+02 -0.39363696493E+01  0.18726473788E+02  0.00000000000E+00 0.  1.
         11    1    3    3    0    0  0.68501379227E-01  0.74553744805E+01  0.11915022234E+02  0.14055427997E+02  0.51100000000E-03 0. -1.
        -11    1    3    3    0    0 -0.17216138787E+02 -0.47148610412E+01 -0.28932729577E+02  0.33996002565E+02  0.51100000000E-03 0.  1.
        -12    1    3    3    0    0  0.53964646881E+01  0.11298566097E+02  0.20954076992E+02  0.24410095649E+02  0.00000000000E+00 0.  1.
</event>
<event>
 7    1  0.1920603E-013  0.7246157E+02  0.7816164E-02  0.1226708E+00
        -11   -1    0    0    0    0  0.00000000000E+00  0.00000000000E+00  0.45593999997E+02  0.45594000000E+02  0.51100000000E-03 0.  1.
         11   -1    0    0    0    0 -0.00000000000E+00 -0.00000000000E+00 -0.45593999997E+02  0.45594000000E+02  0.51100000000E-03 0. -1.
    9900012    2    1    2    0    0  0.17223274157E+02  0.72888753945E+01  0.95407303624E+00  0.72461571281E+02  0.70000001285E+02 0.  0.
        -12    1    1    2    0    0 -0.17223274157E+02 -0.72888753945E+01 -0.95407303624E+00  0.18726428719E+02  0.00000000000E+00 0.  1.
         11    1    3    3    0    0 -0.68768869230E+01 -0.18054132150E+02  0.32949906251E+01  0.19598475066E+02  0.51100000000E-03 0. -1.
        -11    1    3    3    0    0  0.14253074518E+02  0.27032678831E+02 -0.17116256118E+02  0.35026876563E+02  0.51100000000E-03 0.  1.
        -12    1    3    3    0    0  0.98470865620E+01 -0.16896712864E+01  0.14775338529E+02  0.17836219652E+02  0.00000000000E+00 0.  1.
</event>
<event>
 8    1  0.1920603E-013  0.7246150E+02  0.7816164E-02  0.1226708E+00
        -11   -1    0    0    0    0  0.00000000000E+00  0.00000000000E+00  0.45593999997E+02  0.45594000000E+02  0.51100000000E-03 0. -1.
         11   -1    0    0    0    0 -0.00000000000E+00 -0.00000000000E+00 -0.45593999997E+02  0.45594000000E+02  0.51100000000E-03 0.  1.
    9900012    2    1    2    0    0  0.17298194473E+02 -0.26735742456E+01  0.66562936924E+01  0.72461500674E+02  0.69999909307E+02 0.  0.
         24    2    3    3    0    0 -0.41063614379E+01 -0.50525610932E+01  0.83485963070E+01  0.50858758242E+02  0.49744584145E+02 0.  0.
        -12    1    1    2    0    0 -0.17298194473E+02  0.26735742456E+01 -0.66562936924E+01  0.18726499326E+02  0.00000000000E+00 0.  1.
         11    1    3    3    0    0  0.21404555911E+02  0.23789868476E+01 -0.16923026146E+01  0.21602742432E+02  0.51100000000E-03 0. -1.
        -11    1    4    4    0    0 -0.10808842550E+02  0.32446326639E+00 -0.19181030897E+02  0.22019271110E+02  0.51100000000E-03 0.  1.
         12    1    4    4    0    0  0.67024811117E+01 -0.53770243596E+01  0.27529627204E+02  0.28839487132E+02  0.00000000000E+00 0. -1.
</event>
<event>
 8    1  0.1920603E-013  0.7246084E+02  0.7816164E-02  0.1226710E+00
        -11   -1    0    0    0    0  0.00000000000E+00  0.00000000000E+00  0.45593999997E+02  0.45594000000E+02  0.51100000000E-03 0.  1.
         11   -1    0    0    0    0 -0.00000000000E+00 -0.00000000000E+00 -0.45593999997E+02  0.45594000000E+02  0.51100000000E-03 0. -1.
    9900012    2    1    2    0    0 -0.14669780597E+02  0.92117205649E+01 -0.71167697644E+01  0.72460836029E+02  0.69999043476E+02 0.  0.
        -24    2    3    3    0    0  0.48454291472E+01  0.33603236035E+00 -0.12408095791E+01  0.50231392472E+02  0.49980617042E+02 0.  0.
        -12    1    1    2    0    0  0.14669780597E+02 -0.92117205649E+01  0.71167697644E+01  0.18727163971E+02  0.00000000000E+00 0.  1.
         11    1    4    4    0    0  0.21716691151E+02  0.23117168567E+01  0.15186802283E+02  0.26600708134E+02  0.51100000000E-03 0.  1.
        -11    1    3    3    0    0 -0.19515209744E+02  0.88756882046E+01 -0.58759601853E+01  0.22229443556E+02  0.51100000000E-03 0. -1.
        -12    1    4    4    0    0 -0.16871262003E+02 -0.19756844963E+01 -0.16427611862E+02  0.23630684339E+02  0.00000000000E+00 0.  1.
</event>
<event>
 7    1  0.1920603E-013  0.7246163E+02  0.7816164E-02  0.1226708E+00
        -11   -1    0    0    0    0  0.00000000000E+00  0.00000000000E+00  0.45593999997E+02  0.45594000000E+02  0.51100000000E-03 0.  1.
         11   -1    0    0    0    0 -0.00000000000E+00 -0.00000000000E+00 -0.45593999997E+02  0.45594000000E+02  0.51100000000E-03 0. -1.
    9900012    2    1    2    0    0 -0.11584260801E+01 -0.52611486628E+01 -0.17934752163E+02  0.72461628985E+02  0.70000076456E+02 0.  0.
        -12    1    1    2    0    0  0.11584260801E+01  0.52611486628E+01  0.17934752163E+02  0.18726371015E+02  0.00000000000E+00 0.  1.
         11    1    3    3    0    0 -0.90660229002E+00 -0.17313664497E+01 -0.28705159694E+02  0.28771613629E+02  0.51100000000E-03 0. -1.
        -11    1    3    3    0    0  0.58827050820E+01 -0.20205363158E+02  0.14472237599E+02  0.25540332434E+02  0.51100000000E-03 0.  1.
        -12    1    3    3    0    0 -0.61345288721E+01  0.16675580945E+02 -0.37018300683E+01  0.18149682923E+02  0.00000000000E+00 0.  1.
</event>
<event>
 7    1  0.1920603E-013  0.7246161E+02  0.7816164E-02  0.1226708E+00
        -11   -1    0    0    0    0  0.00000000000E+00  0.00000000000E+00  0.45593999997E+02  0.45594000000E+02  0.51100000000E-03 0.  1.
         11   -1    0    0    0    0 -0.00000000000E+00 -0.00000000000E+00 -0.45593999997E+02  0.45594000000E+02  0.51100000000E-03 0. -1.
    9900012    2    1    2    0    0  0.95656158438E+00 -0.18055187901E+02 -0.48757444677E+01  0.72461609416E+02  0.70000050963E+02 0.  0.
        -12    1    1    2    0    0 -0.95656158438E+00  0.18055187901E+02  0.48757444677E+01  0.18726390584E+02  0.00000000000E+00 0.  1.
         11    1    3    3    0    0 -0.22658112009E+02 -0.10220279165E+02 -0.73751911380E+01  0.25927545017E+02  0.51100000000E-03 0. -1.
        -11    1    3    3    0    0  0.20431692055E+02 -0.14247449791E+02 -0.13982180222E+02  0.28564755027E+02  0.51100000000E-03 0.  1.
        -12    1    3    3    0    0  0.31829815391E+01  0.64125410543E+01  0.16481626892E+02  0.17969309371E+02  0.00000000000E+00 0.  1.
</event>
<event>
 7    1  0.1920603E-013  0.7246156E+02  0.7816164E-02  0.1226708E+00
        -11   -1    0    0    0    0  0.00000000000E+00  0.00000000000E+00  0.45593999997E+02  0.45594000000E+02  0.51100000000E-03 0.  1.
         11   -1    0    0    0    0 -0.00000000000E+00 -0.00000000000E+00 -0.45593999997E+02  0.45594000000E+02  0.51100000000E-03 0. -1.
    9900012    2    1    2    0    0  0.13244168810E+02  0.89135336223E+00 -0.13208971952E+02  0.72461562584E+02  0.69999989955E+02 0.  0.
        -12    1    1    2    0    0 -0.13244168810E+02 -0.89135336223E+00  0.13208971952E+02  0.18726437416E+02  0.00000000000E+00 0.  1.
         11    1    3    3    0    0  0.17257512766E+02 -0.16177372171E+02 -0.12215690208E+02  0.26622400432E+02  0.51100000000E-03 0. -1.
        -11    1    3    3    0    0 -0.22863872337E+02  0.13314100106E+02 -0.24023561796E+01  0.26566769381E+02  0.51100000000E-03 0.  1.
        -12    1    3    3    0    0  0.18850528380E+02  0.37546254274E+01  0.14090744358E+01  0.19272392770E+02  0.00000000000E+00 0.  1.
</event>
<event>
 7    1  0.1920603E-013  0.7246154E+02  0.7816164E-02  0.1226708E+00
        -11   -1    0    0    0    0  0.00000000000E+00  0.00000000000E+00  0.45593999997E+02  0.45594000000E+02  0.51100000000E-03 0.  1.
         11   -1    0    0    0    0 -0.00000000000E+00 -0.00000000000E+00 -0.45593999997E+02  0.45594000000E+02  0.51100000000E-03 0. -1.
    9900012    2    1    2    0    0 -0.10283256009E+02  0.14197556758E+02 -0.65851603928E+01  0.72461539858E+02  0.69999960351E+02 0.  0.
        -12    1    1    2    0    0  0.10283256009E+02 -0.14197556758E+02  0.65851603928E+01  0.18726460142E+02  0.00000000000E+00 0.  1.
         11    1    3    3    0    0 -0.46454191623E+01  0.13361437706E+02 -0.17715547361E+02  0.22670433505E+02  0.51100000000E-03 0. -1.
        -11    1    3    3    0    0 -0.20795964953E+02 -0.97604715422E+01  0.18882897558E+02  0.29737228914E+02  0.51100000000E-03 0.  1.
        -12    1    3    3    0    0  0.15158128106E+02  0.10596590594E+02 -0.77525105899E+01  0.20053877439E+02  0.00000000000E+00 0.  1.
</event>
<event>
 7    1  0.1920603E-013  0.7246155E+02  0.7816164E-02  0.1226708E+00
        -11   -1    0    0    0    0  0.00000000000E+00  0.00000000000E+00  0.45593999997E+02  0.45594000000E+02  0.51100000000E-03 0.  1.
         11   -1    0    0    0    0 -0.00000000000E+00 -0.00000000000E+00 -0.45593999997E+02  0.45594000000E+02  0.51100000000E-03 0. -1.
    9900012    2    1    2    0    0  0.16363183165E+02  0.50400286323E+01 -0.75844661650E+01  0.72461554023E+02  0.69999978804E+02 0.  0.
        -12    1    1    2    0    0 -0.16363183165E+02 -0.50400286323E+01  0.75844661650E+01  0.18726445977E+02  0.00000000000E+00 0.  1.
         11    1    3    3    0    0  0.32379612044E+02 -0.42772217119E+00 -0.27263928169E+02  0.42331359556E+02  0.51100000000E-03 0. -1.
        -11    1    3    3    0    0 -0.14569730867E+02  0.49982659575E+01  0.62630652212E+01  0.16627859343E+02  0.51100000000E-03 0.  1.
         12    1    3    3    0    0 -0.14466980124E+01  0.46948484605E+00  0.13416396783E+02  0.13502335124E+02  0.00000000000E+00 0. -1.
</event>
<event>
 7    1  0.1920603E-013  0.7246159E+02  0.7816164E-02  0.1226708E+00
        -11   -1    0    0    0    0  0.00000000000E+00  0.00000000000E+00  0.45593999997E+02  0.45594000000E+02  0.51100000000E-03 0.  1.
         11   -1    0    0    0    0 -0.00000000000E+00 -0.00000000000E+00 -0.45593999997E+02  0.45594000000E+02  0.51100000000E-03 0. -1.
    9900012    2    1    2    0    0  0.65477243003E+01  0.12293832638E+02 -0.12516692449E+02  0.72461585386E+02  0.70000019660E+02 0.  0.
        -12    1    1    2    0    0 -0.65477243003E+01 -0.12293832638E+02  0.12516692449E+02  0.18726414614E+02  0.00000000000E+00 0.  1.
         11    1    3    3    0    0 -0.17252392308E+02  0.20315476603E+02 -0.29977865160E+01  0.26820707563E+02  0.51100000000E-03 0. -1.
        -11    1    3    3    0    0  0.82934690048E+00 -0.16466052889E+02  0.49450259201E+01  0.17212553432E+02  0.51100000000E-03 0.  1.
         12    1    3    3    0    0  0.22970769708E+02  0.84444089240E+01 -0.14463931853E+02  0.28428324391E+02  0.00000000000E+00 0. -1.
</event>
<event>
 7    1  0.1920603E-013  0.7246159E+02  0.7816164E-02  0.1226708E+00
        -11   -1    0    0    0    0  0.00000000000E+00  0.00000000000E+00  0.45593999997E+02  0.45594000000E+02  0.51100000000E-03 0.  1.
         11   -1    0    0    0    0 -0.00000000000E+00 -0.00000000000E+00 -0.45593999997E+02  0.45594000000E+02  0.51100000000E-03 0. -1.
    9900012    2    1    2    0    0 -0.18417925844E+02  0.15966512386E+01  0.29848178075E+01  0.72461590175E+02  0.70000025898E+02 0.  0.
        -12    1    1    2    0    0  0.18417925844E+02 -0.15966512386E+01 -0.29848178075E+01  0.18726409825E+02  0.00000000000E+00 0.  1.
         11    1    3    3    0    0 -0.12379489206E+02  0.75869176676E+00 -0.28731847340E+02  0.31294510989E+02  0.51100000000E-03 0. -1.
        -11    1    3    3    0    0 -0.14428774304E+02  0.17337346078E+01  0.93979812971E+01  0.17306571478E+02  0.51100000000E-03 0.  1.
         12    1    3    3    0    0  0.83903376657E+01 -0.89577513594E+00  0.22318683851E+02  0.23860507708E+02  0.00000000000E+00 0. -1.
</event>
<event>
 7    1  0.1920603E-013  0.7246174E+02  0.7816164E-02  0.1226708E+00
        -11   -1    0    0    0    0  0.00000000000E+00  0.00000000000E+00  0.45593999997E+02  0.45594000000E+02  0.51100000000E-03 0. -1.
         11   -1    0    0    0    0 -0.00000000000E+00 -0.00000000000E+00 -0.45593999997E+02  0.45594000000E+02  0.51100000000E-03 0.  1.
    9900012    2    1    2    0    0  0.15215303049E+02 -0.56321966633E+01  0.93512415220E+01  0.72461740253E+02  0.70000221402E+02 0.  0.
        -12    1    1    2    0    0 -0.15215303049E+02  0.56321966633E+01 -0.93512415220E+01  0.18726259747E+02  0.00000000000E+00 0.  1.
         11    1    3    3    0    0 -0.73201847868E+01  0.19392321533E+02 -0.72682409888E+01  0.21965303710E+02  0.51100000000E-03 0. -1.
        -11    1    3    3    0    0  0.11026150576E+02  0.20092771178E+01  0.17863461626E+02  0.21088301320E+02  0.51100000000E-03 0.  1.
         12    1    3    3    0    0  0.11509337260E+02 -0.27033795314E+02 -0.12439791150E+01  0.29408135222E+02  0.00000000000E+00 0. -1.
</event>
<event>
 7    1  0.1920603E-013  0.7246154E+02  0.7816164E-02  0.1226708E+00
        -11   -1    0    0    0    0  0.00000000000E+00  0.00000000000E+00  0.45593999997E+02  0.45594000000E+02  0.51100000000E-03 0.  1.
         11   -1    0    0    0    0 -0.00000000000E+00 -0.00000000000E+00 -0.45593999997E+02  0.45594000000E+02  0.51100000000E-03 0. -1.
    9900012    2    1    2    0    0 -0.16229157246E+02 -0.78742584553E+01  0.50289803269E+01  0.72461544536E+02  0.69999966445E+02 0.  0.
        -12    1    1    2    0    0  0.16229157246E+02  0.78742584553E+01 -0.50289803269E+01  0.18726455464E+02  0.00000000000E+00 0.  1.
         11    1    3    3    0    0 -0.11300389075E+01  0.62367088128E+01  0.32628562294E-01  0.63383428144E+01  0.51100000000E-03 0. -1.
        -11    1    3    3    0    0 -0.69598911416E+00 -0.17206309511E+02  0.31443246315E+02  0.35849954350E+02  0.51100000000E-03 0.  1.
        -12    1    3    3    0    0 -0.14403129224E+02  0.30953422429E+01 -0.26446894550E+02  0.30273247371E+02  0.00000000000E+00 0.  1.
</event>
<event>
 7    1  0.1920603E-013  0.7246158E+02  0.7816164E-02  0.1226708E+00
        -11   -1    0    0    0    0  0.00000000000E+00  0.00000000000E+00  0.45593999997E+02  0.45594000000E+02  0.51100000000E-03 0. -1.
         11   -1    0    0    0    0 -0.00000000000E+00 -0.00000000000E+00 -0.45593999997E+02  0.45594000000E+02  0.51100000000E-03 0.  1.
    9900012    2    1    2    0    0  0.39209042365E+01  0.17062947262E+02  0.66453898141E+01  0.72461578423E+02  0.70000010589E+02 0.  0.
        -12    1    1    2    0    0 -0.39209042365E+01 -0.17062947262E+02 -0.66453898141E+01  0.18726421577E+02  0.00000000000E+00 0.  1.
         11    1    3    3    0    0 -0.18600000211E+01 -0.16355150830E+02 -0.10703671653E+02  0.19634641475E+02  0.51100000000E-03 0.  1.
        -11    1    3    3    0    0 -0.11749647587E+02  0.29497867111E+02  0.88997458819E+01  0.32975503932E+02  0.51100000000E-03 0. -1.
         12    1    3    3    0    0  0.17530551845E+02  0.39202309812E+01  0.84493155847E+01  0.19851433016E+02  0.00000000000E+00 0. -1.
</event>
<event>
 7    1  0.1920603E-013  0.7246164E+02  0.7816164E-02  0.1226708E+00
        -11   -1    0    0    0    0  0.00000000000E+00  0.00000000000E+00  0.45593999997E+02  0.45594000000E+02  0.51100000000E-03 0. -1.
         11   -1    0    0    0    0 -0.00000000000E+00 -0.00000000000E+00 -0.45593999997E+02  0.45594000000E+02  0.51100000000E-03 0.  1.
    9900012    2    1    2    0    0  0.12741703691E+01 -0.14242934867E+02  0.12090979649E+02  0.72461641768E+02  0.70000093108E+02 0.  0.
        -12    1    1    2    0    0 -0.12741703691E+01  0.14242934867E+02 -0.12090979649E+02  0.18726358232E+02  0.00000000000E+00 0.  1.
         11    1    3    3    0    0  0.13685333042E+02 -0.11346641012E+02  0.29330879520E+02  0.34297741856E+02  0.51100000000E-03 0. -1.
        -11    1    3    3    0    0  0.76964905411E+01 -0.51077073401E+01 -0.15260532769E+02  0.17838399636E+02  0.51100000000E-03 0.  1.
         12    1    3    3    0    0 -0.20107653214E+02  0.22114134852E+01 -0.19793671021E+01  0.20325500277E+02  0.00000000000E+00 0. -1.
</event>
<event>
 7    1  0.1920603E-013  0.7246162E+02  0.7816164E-02  0.1226708E+00
        -11   -1    0    0    0    0  0.00000000000E+00  0.00000000000E+00  0.45593999997E+02  0.45594000000E+02  0.51100000000E-03 0.  1.
         11   -1    0    0    0    0 -0.00000000000E+00 -0.00000000000E+00 -0.45593999997E+02  0.45594000000E+02  0.51100000000E-03 0. -1.
    9900012    2    1    2    0    0 -0.13318319279E+02  0.11734032159E+02 -0.59675829152E+01  0.72461623282E+02  0.70000069026E+02 0.  0.
        -12    1    1    2    0    0  0.13318319279E+02 -0.11734032159E+02  0.59675829152E+01  0.18726376718E+02  0.00000000000E+00 0.  1.
         11    1    3    3    0    0  0.32363174189E+01  0.45770664260E+01  0.60835797504E+00  0.56385625110E+01  0.51100000000E-03 0. -1.
        -11    1    3    3    0    0 -0.33591072347E+02 -0.88214730206E+01  0.12246289968E+02  0.36825943924E+02  0.51100000000E-03 0.  1.
        -12    1    3    3    0    0  0.17036435648E+02  0.15978438754E+02 -0.18822230859E+02  0.29997116847E+02  0.00000000000E+00 0.  1.
</event>
<event>
 7    1  0.1920603E-013  0.7246155E+02  0.7816164E-02  0.1226708E+00
        -11   -1    0    0    0    0  0.00000000000E+00  0.00000000000E+00  0.45593999997E+02  0.45594000000E+02  0.51100000000E-03 0.  1.
         11   -1    0    0    0    0 -0.00000000000E+00 -0.00000000000E+00 -0.45593999997E+02  0.45594000000E+02  0.51100000000E-03 0. -1.
    9900012    2    1    2    0    0 -0.43784532252E+01  0.17396218047E+02 -0.53740722810E+01  0.72461550581E+02  0.69999974319E+02 0.  0.
        -12    1    1    2    0    0  0.43784532252E+01 -0.17396218047E+02  0.53740722810E+01  0.18726449419E+02  0.00000000000E+00 0.  1.
         11    1    3    3    0    0 -0.29687144149E+02  0.75512710291E+01 -0.93960043734E+01  0.32041116091E+02  0.51100000000E-03 0. -1.
        -11    1    3    3    0    0  0.28431074342E+02  0.71345244198E+01 -0.56947396198E+01  0.29860634396E+02  0.51100000000E-03 0.  1.
         12    1    3    3    0    0 -0.31223834179E+01  0.27104225979E+01  0.97166717122E+01  0.10559800094E+02  0.00000000000E+00 0. -1.
</event>
<event>
 7    1  0.1920603E-013  0.7246172E+02  0.7816164E-02  0.1226708E+00
        -11   -1    0    0    0    0  0.00000000000E+00  0.00000000000E+00  0.45593999997E+02  0.45594000000E+02  0.51100000000E-03 0.  1.
         11   -1    0    0    0    0 -0.00000000000E+00 -0.00000000000E+00 -0.45593999997E+02  0.45594000000E+02  0.51100000000E-03 0. -1.
    9900012    2    1    2    0    0 -0.37143279321E+01 -0.17952477476E+02 -0.38191404563E+01  0.72461721317E+02  0.70000196735E+02 0.  0.
        -12    1    1    2    0    0  0.37143279321E+01  0.17952477476E+02  0.38191404563E+01  0.18726278683E+02  0.00000000000E+00 0.  1.
         11    1    3    3    0    0 -0.32529843081E+02 -0.55444228459E+01 -0.10139070805E+02  0.34521472631E+02  0.51100000000E-03 0. -1.
        -11    1    3    3    0    0  0.15533170024E+02 -0.16095271648E+02  0.86073037507E+01  0.23967119529E+02  0.51100000000E-03 0.  1.
         12    1    3    3    0    0  0.13282345125E+02  0.36872170182E+01 -0.22873734022E+01  0.13973129157E+02  0.00000000000E+00 0. -1.
</event>
<event>
 7    1  0.1920603E-013  0.7246154E+02  0.7816164E-02  0.1226708E+00
        -11   -1    0    0    0    0  0.00000000000E+00  0.00000000000E+00  0.45593999997E+02  0.45594000000E+02  0.51100000000E-03 0.  1.
         11   -1    0    0    0    0 -0.00000000000E+00 -0.00000000000E+00 -0.45593999997E+02  0.45594000000E+02  0.51100000000E-03 0. -1.
    9900012    2    1    2    0    0 -0.55142585038E+01  0.29123624641E+01 -0.17657611286E+02  0.72461544427E+02  0.69999966304E+02 0.  0.
        -12    1    1    2    0    0  0.55142585038E+01 -0.29123624641E+01  0.17657611286E+02  0.18726455573E+02  0.00000000000E+00 0.  1.
         11    1    3    3    0    0 -0.16666778744E+02  0.28250929532E+02 -0.61184592207E+01  0.33366631185E+02  0.51100000000E-03 0.  1.
        -11    1    3    3    0    0  0.13329602683E+02 -0.29133213966E+02 -0.12863869012E+02  0.34523927788E+02  0.51100000000E-03 0. -1.
         12    1    3    3    0    0 -0.21770824424E+01  0.37946468975E+01  0.13247169468E+01  0.45709854547E+01  0.00000000000E+00 0. -1.
</event>
<event>
 7    1  0.1920603E-013  0.7246160E+02  0.7816164E-02  0.1226708E+00
        -11   -1    0    0    0    0  0.00000000000E+00  0.00000000000E+00  0.45593999997E+02  0.45594000000E+02  0.51100000000E-03 0. -1.
         11   -1    0    0    0    0 -0.00000000000E+00 -0.00000000000E+00 -0.45593999997E+02  0.45594000000E+02  0.51100000000E-03 0.  1.
    9900012    2    1    2    0    0  0.13039467217E+02 -0.12836742126E+02  0.39834944768E+01  0.72461604673E+02  0.70000044784E+02 0.  0.
        -12    1    1    2    0    0 -0.13039467217E+02  0.12836742126E+02 -0.39834944768E+01  0.18726395327E+02  0.00000000000E+00 0.  1.
         11    1    3    3    0    0  0.75716991690E+01 -0.12214207320E+02 -0.93880183395E+01  0.17165441368E+02  0.51100000000E-03 0. -1.
        -11    1    3    3    0    0 -0.75523973240E+01 -0.18105893389E+02  0.24038268015E+02  0.31027413849E+02  0.51100000000E-03 0.  1.
        -12    1    3    3    0    0  0.13020165372E+02  0.17483358583E+02 -0.10666755199E+02  0.24268749455E+02  0.00000000000E+00 0.  1.
</event>
<event>
 7    1  0.1920603E-013  0.7246153E+02  0.7816164E-02  0.1226708E+00
        -11   -1    0    0    0    0  0.00000000000E+00  0.00000000000E+00  0.45593999997E+02  0.45594000000E+02  0.51100000000E-03 0.  1.
         11   -1    0    0    0    0 -0.00000000000E+00 -0.00000000000E+00 -0.45593999997E+02  0.45594000000E+02  0.51100000000E-03 0. -1.
    9900012    2    1    2    0    0  0.18454420404E+02 -0.23205369825E+01 -0.21749098554E+01  0.72461527903E+02  0.69999944777E+02 0.  0.
        -12    1    1    2    0    0 -0.18454420404E+02  0.23205369825E+01  0.21749098554E+01  0.18726472097E+02  0.00000000000E+00 0.  1.
         11    1    3    3    0    0  0.37284771837E+02  0.24841298744E+01  0.93535824972E+01  0.38520314354E+02  0.51100000000E-03 0. -1.
        -11    1    3    3    0    0 -0.81341711804E+01 -0.10818833714E+02  0.40329529273E+01  0.14123618987E+02  0.51100000000E-03 0.  1.
         12    1    3    3    0    0 -0.10696180253E+02  0.60141668570E+01 -0.15561445280E+02  0.19817594561E+02  0.00000000000E+00 0. -1.
</event>
<event>
 7    1  0.1920603E-013  0.7246145E+02  0.7816164E-02  0.1226708E+00
        -11   -1    0    0    0    0  0.00000000000E+00  0.00000000000E+00  0.45593999997E+02  0.45594000000E+02  0.51100000000E-03 0.  1.
         11   -1    0    0    0    0 -0.00000000000E+00 -0.00000000000E+00 -0.45593999997E+02  0.45594000000E+02  0.51100000000E-03 0. -1.
    9900012    2    1    2    0    0  0.58993741166E+01 -0.17485995420E+02 -0.31813613567E+01  0.72461449040E+02  0.69999842043E+02 0.  0.
        -12    1    1    2    0    0 -0.58993741166E+01  0.17485995420E+02  0.31813613567E+01  0.18726550960E+02  0.00000000000E+00 0.  1.
         11    1    3    3    0    0 -0.64567052691E+01  0.67116437198E+01 -0.27197555352E+02  0.28747908128E+02  0.51100000000E-03 0. -1.
        -11    1    3    3    0    0  0.46753483892E+01  0.32580795857E+00  0.16183172521E+02  0.16848148459E+02  0.51100000000E-03 0.  1.
         12    1    3    3    0    0  0.76807309966E+01 -0.24523447098E+02  0.78330214741E+01  0.26865392452E+02  0.00000000000E+00 0. -1.
</event>
<event>
 7    1  0.1920603E-013  0.7246156E+02  0.7816164E-02  0.1226708E+00
        -11   -1    0    0    0    0  0.00000000000E+00  0.00000000000E+00  0.45593999997E+02  0.45594000000E+02  0.51100000000E-03 0.  1.
         11   -1    0    0    0    0 -0.00000000000E+00 -0.00000000000E+00 -0.45593999997E+02  0.45594000000E+02  0.51100000000E-03 0. -1.
    9900012    2    1    2    0    0  0.54633569483E+01  0.71570083563E+01 -0.16419759474E+02  0.72461560431E+02  0.69999987151E+02 0.  0.
        -12    1    1    2    0    0 -0.54633569483E+01 -0.71570083563E+01  0.16419759474E+02  0.18726439569E+02  0.00000000000E+00 0.  1.
         11    1    3    3    0    0  0.28981310505E+02 -0.16653876767E+01 -0.14289469172E+02  0.32355506551E+02  0.51100000000E-03 0. -1.
        -11    1    3    3    0    0 -0.11736192063E+02  0.17908920867E+02  0.71456390766E+01  0.22572722672E+02  0.51100000000E-03 0.  1.
        -12    1    3    3    0    0 -0.11781761493E+02 -0.90865248336E+01 -0.92759293778E+01  0.17533331208E+02  0.00000000000E+00 0.  1.
</event>
<event>
 7    1  0.1920603E-013  0.7246158E+02  0.7816164E-02  0.1226708E+00
        -11   -1    0    0    0    0  0.00000000000E+00  0.00000000000E+00  0.45593999997E+02  0.45594000000E+02  0.51100000000E-03 0.  1.
         11   -1    0    0    0    0 -0.00000000000E+00 -0.00000000000E+00 -0.45593999997E+02  0.45594000000E+02  0.51100000000E-03 0. -1.
    9900012    2    1    2    0    0 -0.26881221159E+01  0.35681731692E+01 -0.18185737023E+02  0.72461577722E+02  0.70000009676E+02 0.  0.
        -12    1    1    2    0    0  0.26881221159E+01 -0.35681731692E+01  0.18185737023E+02  0.18726422278E+02  0.00000000000E+00 0.  1.
         11    1    3    3    0    0  0.19088671680E+02 -0.13509697971E+02 -0.12093576790E+02  0.26327626661E+02  0.51100000000E-03 0. -1.
        -11    1    3    3    0    0 -0.89545100940E+01  0.17058040157E+02  0.12923843890E+02  0.23198830276E+02  0.51100000000E-03 0.  1.
         12    1    3    3    0    0 -0.12822283702E+02  0.19830983093E-01 -0.19016004123E+02  0.22935120784E+02  0.00000000000E+00 0. -1.
</event>
<event>
 7    1  0.1920603E-013  0.7246155E+02  0.7816164E-02  0.1226708E+00
        -11   -1    0    0    0    0  0.00000000000E+00  0.00000000000E+00  0.45593999997E+02  0.45594000000E+02  0.51100000000E-03 0. -1.
         11   -1    0    0    0    0 -0.00000000000E+00 -0.00000000000E+00 -0.45593999997E+02  0.45594000000E+02  0.51100000000E-03 0.  1.
    9900012    2    1    2    0    0  0.13759248329E+02  0.32736562240E+01  0.12273807524E+02  0.72461545696E+02  0.69999967956E+02 0.  0.
        -12    1    1    2    0    0 -0.13759248329E+02 -0.32736562240E+01 -0.12273807524E+02  0.18726454304E+02  0.00000000000E+00 0.  1.
         11    1    3    3    0    0  0.65082479691E+01  0.22642907880E+02  0.26885560173E+02  0.35747614116E+02  0.51100000000E-03 0. -1.
        -11    1    3    3    0    0 -0.27906582964E+01 -0.15074049708E+02 -0.19452772187E+02  0.24767420018E+02  0.51100000000E-03 0.  1.
         12    1    3    3    0    0  0.10041658657E+02 -0.42952019475E+01  0.48410195375E+01  0.11946511562E+02  0.00000000000E+00 0. -1.
</event>
<event>
 7    1  0.2181647E-013  0.7246156E+02  0.7816164E-02  0.1226708E+00
        -11   -1    0    0    0    0  0.00000000000E+00  0.00000000000E+00  0.45593999997E+02  0.45594000000E+02  0.51100000000E-03 0. -1.
         11   -1    0    0    0    0 -0.00000000000E+00 -0.00000000000E+00 -0.45593999997E+02  0.45594000000E+02  0.51100000000E-03 0.  1.
    9900012    2    1    2    0    0  0.60933186566E+01  0.25339169370E+00  0.17705557682E+02  0.72461561138E+02  0.69999988072E+02 0.  0.
        -12    1    1    2    0    0 -0.60933186566E+01 -0.25339169370E+00 -0.17705557682E+02  0.18726438862E+02  0.00000000000E+00 0.  1.
         11    1    3    3    0    0 -0.30898188792E+01  0.61110156520E+01  0.26076495091E+02  0.26960621088E+02  0.51100000000E-03 0. -1.
        -11    1    3    3    0    0 -0.37495222862E+01  0.10971962143E+02 -0.18616997204E+02  0.21932520507E+02  0.51100000000E-03 0.  1.
         12    1    3    3    0    0  0.12932659822E+02 -0.16829586101E+02  0.10246059796E+02  0.23568419543E+02  0.00000000000E+00 0. -1.
</event>
<event>
 7    1  0.1920603E-013  0.7246157E+02  0.7816164E-02  0.1226708E+00
        -11   -1    0    0    0    0  0.00000000000E+00  0.00000000000E+00  0.45593999997E+02  0.45594000000E+02  0.51100000000E-03 0.  1.
         11   -1    0    0    0    0 -0.00000000000E+00 -0.00000000000E+00 -0.45593999997E+02  0.45594000000E+02  0.51100000000E-03 0. -1.
    9900012    2    1    2    0    0 -0.44595833282E+01 -0.18030881742E+02 -0.23829744727E+01  0.72461570891E+02  0.70000000777E+02 0.  0.
        -12    1    1    2    0    0  0.44595833282E+01  0.18030881742E+02  0.23829744727E+01  0.18726429109E+02  0.00000000000E+00 0.  1.
         11    1    3    3    0    0 -0.41446091729E+01  0.89127149975E+01  0.19575695676E+02  0.21904842736E+02  0.51100000000E-03 0. -1.
        -11    1    3    3    0    0 -0.45151929171E+01 -0.31680657228E+02 -0.49160852513E+01  0.32376208919E+02  0.51100000000E-03 0.  1.
         12    1    3    3    0    0  0.42002187618E+01  0.47370604888E+01 -0.17042584897E+02  0.18180519236E+02  0.00000000000E+00 0. -1.
</event>
<event>
 7    1  0.1920603E-013  0.7246110E+02  0.7816164E-02  0.1226709E+00
        -11   -1    0    0    0    0  0.00000000000E+00  0.00000000000E+00  0.45593999997E+02  0.45594000000E+02  0.51100000000E-03 0.  1.
         11   -1    0    0    0    0 -0.00000000000E+00 -0.00000000000E+00 -0.45593999997E+02  0.45594000000E+02  0.51100000000E-03 0. -1.
    9900012    2    1    2    0    0 -0.13853804710E+02 -0.96813669691E+01 -0.80647462767E+01  0.72461096790E+02  0.69999383170E+02 0.  0.
        -12    1    1    2    0    0  0.13853804710E+02  0.96813669691E+01  0.80647462767E+01  0.18726903210E+02  0.00000000000E+00 0.  1.
         11    1    3    3    0    0 -0.15712675479E+02 -0.54249124660E+01  0.26609087483E+02  0.31374533987E+02  0.51100000000E-03 0.  1.
        -11    1    3    3    0    0  0.69148146289E+01 -0.88838084681E+01 -0.87112747398E+01  0.14234571371E+02  0.51100000000E-03 0. -1.
         12    1    3    3    0    0 -0.50559438597E+01  0.46273539650E+01 -0.25962559019E+02  0.26851991432E+02  0.00000000000E+00 0. -1.
</event>
<event>
 7    1  0.1920603E-013  0.7246157E+02  0.7816164E-02  0.1226708E+00
        -11   -1    0    0    0    0  0.00000000000E+00  0.00000000000E+00  0.45593999997E+02  0.45594000000E+02  0.51100000000E-03 0.  1.
         11   -1    0    0    0    0 -0.00000000000E+00 -0.00000000000E+00 -0.45593999997E+02  0.45594000000E+02  0.51100000000E-03 0. -1.
    9900012    2    1    2    0    0  0.86315082533E+01 -0.50939043924E+01 -0.15818611470E+02  0.72461567731E+02  0.69999996661E+02 0.  0.
        -12    1    1    2    0    0 -0.86315082533E+01  0.50939043924E+01  0.15818611470E+02  0.18726432269E+02  0.00000000000E+00 0.  1.
         11    1    3    3    0    0  0.67794334817E+00 -0.11019645574E+01 -0.12078269912E+02  0.12147367509E+02  0.51100000000E-03 0. -1.
        -11    1    3    3    0    0  0.30237220777E+02 -0.13462934574E+02  0.69920158941E+01  0.33829401623E+02  0.51100000000E-03 0.  1.
        -12    1    3    3    0    0 -0.22283655872E+02  0.94709947385E+01 -0.10732357452E+02  0.26484798599E+02  0.00000000000E+00 0.  1.
</event>
<event>
 7    1  0.1920603E-013  0.7246159E+02  0.7816164E-02  0.1226708E+00
        -11   -1    0    0    0    0  0.00000000000E+00  0.00000000000E+00  0.45593999997E+02  0.45594000000E+02  0.51100000000E-03 0.  1.
         11   -1    0    0    0    0 -0.00000000000E+00 -0.00000000000E+00 -0.45593999997E+02  0.45594000000E+02  0.51100000000E-03 0. -1.
    9900012    2    1    2    0    0  0.53903457960E+01  0.16041957795E+02 -0.80173711273E+01  0.72461588771E+02  0.70000024070E+02 0.  0.
        -12    1    1    2    0    0 -0.53903457960E+01 -0.16041957795E+02  0.80173711273E+01  0.18726411229E+02  0.00000000000E+00 0.  1.
         11    1    3    3    0    0 -0.11558443296E+01 -0.19899190286E+02 -0.68838382264E+00  0.19944613877E+02  0.51100000000E-03 0. -1.
        -11    1    3    3    0    0 -0.10398546065E+02  0.29098027477E+02  0.37805713194E+01  0.31130655038E+02  0.51100000000E-03 0.  1.
        -12    1    3    3    0    0  0.16944736191E+02  0.68431206042E+01 -0.11109558624E+02  0.21386319857E+02  0.00000000000E+00 0.  1.
</event>
<event>
 7    1  0.1920603E-013  0.7246129E+02  0.7816164E-02  0.1226709E+00
        -11   -1    0    0    0    0  0.00000000000E+00  0.00000000000E+00  0.45593999997E+02  0.45594000000E+02  0.51100000000E-03 0. -1.
         11   -1    0    0    0    0 -0.00000000000E+00 -0.00000000000E+00 -0.45593999997E+02  0.45594000000E+02  0.51100000000E-03 0.  1.
    9900012    2    1    2    0    0  0.38137544347E+01 -0.59832724364E+01  0.17330481270E+02  0.72461285045E+02  0.69999628409E+02 0.  0.
        -12    1    1    2    0    0 -0.38137544347E+01  0.59832724364E+01 -0.17330481270E+02  0.18726714955E+02  0.00000000000E+00 0.  1.
         11    1    3    3    0    0  0.32251949028E+02 -0.37912383479E+01 -0.43781403171E+01  0.32767816791E+02  0.51100000000E-03 0. -1.
        -11    1    3    3    0    0 -0.14634669988E+02 -0.96269009863E+01  0.10538687347E+02  0.20442962592E+02  0.51100000000E-03 0.  1.
         12    1    3    3    0    0 -0.13803524605E+02  0.74348668978E+01  0.11169934241E+02  0.19250505663E+02  0.00000000000E+00 0. -1.
</event>
<event>
 7    1  0.1920603E-013  0.7246158E+02  0.7816164E-02  0.1226708E+00
        -11   -1    0    0    0    0  0.00000000000E+00  0.00000000000E+00  0.45593999997E+02  0.45594000000E+02  0.51100000000E-03 0.  1.
         11   -1    0    0    0    0 -0.00000000000E+00 -0.00000000000E+00 -0.45593999997E+02  0.45594000000E+02  0.51100000000E-03 0. -1.
    9900012    2    1    2    0    0  0.56305020782E+01  0.17543014724E+02  0.33494731347E+01  0.72461577770E+02  0.70000009738E+02 0.  0.
        -12    1    1    2    0    0 -0.56305020782E+01 -0.17543014724E+02 -0.33494731347E+01  0.18726422230E+02  0.00000000000E+00 0.  1.
         11    1    3    3    0    0  0.23078985949E+02  0.18210687759E+02 -0.42843041046E+01  0.29708988590E+02  0.51100000000E-03 0. -1.
        -11    1    3    3    0    0 -0.22614208964E+02  0.70567683293E+01  0.17307615675E+02  0.29338609151E+02  0.51100000000E-03 0.  1.
        -12    1    3    3    0    0  0.51657250927E+01 -0.77244413641E+01 -0.96738384361E+01  0.13413980029E+02  0.00000000000E+00 0.  1.
</event>
<event>
 7    1  0.1920603E-013  0.7246167E+02  0.7816164E-02  0.1226708E+00
        -11   -1    0    0    0    0  0.00000000000E+00  0.00000000000E+00  0.45593999997E+02  0.45594000000E+02  0.51100000000E-03 0. -1.
         11   -1    0    0    0    0 -0.00000000000E+00 -0.00000000000E+00 -0.45593999997E+02  0.45594000000E+02  0.51100000000E-03 0.  1.
    9900012    2    1    2    0    0 -0.96950289204E+01 -0.12798087151E+02  0.96379908374E+01  0.72461668595E+02  0.70000128055E+02 0.  0.
        -12    1    1    2    0    0  0.96950289204E+01  0.12798087151E+02 -0.96379908374E+01  0.18726331405E+02  0.00000000000E+00 0.  1.
         11    1    3    3    0    0 -0.58325386990E+01 -0.13870493865E+00  0.45181110319E+01  0.73790971191E+01  0.51100000000E-03 0. -1.
        -11    1    3    3    0    0  0.29025101239E+01 -0.30349943676E+02  0.23649868414E+02  0.38585747659E+02  0.51100000000E-03 0.  1.
        -12    1    3    3    0    0 -0.67650003452E+01  0.17690561463E+02 -0.18529988609E+02  0.26496823817E+02  0.00000000000E+00 0.  1.
</event>
<event>
 7    1  0.1920603E-013  0.7246153E+02  0.7816164E-02  0.1226708E+00
        -11   -1    0    0    0    0  0.00000000000E+00  0.00000000000E+00  0.45593999997E+02  0.45594000000E+02  0.51100000000E-03 0.  1.
         11   -1    0    0    0    0 -0.00000000000E+00 -0.00000000000E+00 -0.45593999997E+02  0.45594000000E+02  0.51100000000E-03 0. -1.
    9900012    2    1    2    0    0 -0.10216614418E+02 -0.83037713895E+00  0.15672008917E+02  0.72461532104E+02  0.69999950250E+02 0.  0.
        -12    1    1    2    0    0  0.10216614418E+02  0.83037713895E+00 -0.15672008917E+02  0.18726467896E+02  0.00000000000E+00 0.  1.
         11    1    3    3    0    0 -0.94102561552E+00 -0.25128539043E+02 -0.12379937263E+02  0.28028411488E+02  0.51100000000E-03 0. -1.
        -11    1    3    3    0    0 -0.14195135631E+02  0.21129028664E+02  0.13640980578E+02  0.28879301918E+02  0.51100000000E-03 0.  1.
         12    1    3    3    0    0  0.49195468283E+01  0.31691332397E+01  0.14410965603E+02  0.15553818698E+02  0.00000000000E+00 0. -1.
</event>
<event>
 7    1  0.1920603E-013  0.7246159E+02  0.7816164E-02  0.1226708E+00
        -11   -1    0    0    0    0  0.00000000000E+00  0.00000000000E+00  0.45593999997E+02  0.45594000000E+02  0.51100000000E-03 0.  1.
         11   -1    0    0    0    0 -0.00000000000E+00 -0.00000000000E+00 -0.45593999997E+02  0.45594000000E+02  0.51100000000E-03 0. -1.
    9900012    2    1    2    0    0 -0.53167274742E+01  0.17422522152E+02 -0.43435751012E+01  0.72461587802E+02  0.70000022807E+02 0.  0.
        -12    1    1    2    0    0  0.53167274742E+01 -0.17422522152E+02  0.43435751012E+01  0.18726412198E+02  0.00000000000E+00 0.  1.
         11    1    3    3    0    0  0.14589978094E+02 -0.28095188736E+01 -0.20316806228E+02  0.25170090835E+02  0.51100000000E-03 0. -1.
        -11    1    3    3    0    0 -0.21184045660E+02 -0.20250344131E+01  0.12635987204E+02  0.24749398533E+02  0.51100000000E-03 0.  1.
        -12    1    3    3    0    0  0.12773400917E+01  0.22257075438E+02  0.33372439231E+01  0.22542098433E+02  0.00000000000E+00 0.  1.
</event>
<event>
 7    1  0.1920603E-013  0.7246152E+02  0.7816164E-02  0.1226708E+00
        -11   -1    0    0    0    0  0.00000000000E+00  0.00000000000E+00  0.45593999997E+02  0.45594000000E+02  0.51100000000E-03 0.  1.
         11   -1    0    0    0    0 -0.00000000000E+00 -0.00000000000E+00 -0.45593999997E+02  0.45594000000E+02  0.51100000000E-03 0. -1.
    9900012    2    1    2    0    0  0.82612203750E+01 -0.16635985983E+02 -0.23827251219E+01  0.72461516862E+02  0.69999930394E+02 0.  0.
        -12    1    1    2    0    0 -0.82612203750E+01  0.16635985983E+02  0.23827251219E+01  0.18726483138E+02  0.00000000000E+00 0.  1.
         11    1    3    3    0    0 -0.19605409275E+02 -0.23401263023E+01  0.22893185686E+02  0.30231543379E+02  0.51100000000E-03 0. -1.
        -11    1    3    3    0    0  0.15312617389E+02 -0.42633103840E+01 -0.56621336823E+01  0.16873405846E+02  0.51100000000E-03 0.  1.
         12    1    3    3    0    0  0.12554012261E+02 -0.10032549297E+02 -0.19613777126E+02  0.25356567638E+02  0.00000000000E+00 0. -1.
</event>
<event>
 7    1  0.1920603E-013  0.7246157E+02  0.7816164E-02  0.1226708E+00
        -11   -1    0    0    0    0  0.00000000000E+00  0.00000000000E+00  0.45593999997E+02  0.45594000000E+02  0.51100000000E-03 0. -1.
         11   -1    0    0    0    0 -0.00000000000E+00 -0.00000000000E+00 -0.45593999997E+02  0.45594000000E+02  0.51100000000E-03 0.  1.
    9900012    2    1    2    0    0  0.74284428401E+01  0.14005431428E+02  0.99672186790E+01  0.72461566258E+02  0.69999994741E+02 0.  0.
        -12    1    1    2    0    0 -0.74284428401E+01 -0.14005431428E+02 -0.99672186790E+01  0.18726433742E+02  0.00000000000E+00 0.  1.
         11    1    3    3    0    0 -0.35402261079E+01  0.30288152012E+02  0.22210645923E+02  0.37725563558E+02  0.51100000000E-03 0.  1.
        -11    1    3    3    0    0  0.14816762553E+02 -0.20292729892E+02 -0.50215458396E+01  0.25623178216E+02  0.51100000000E-03 0. -1.
        -12    1    3    3    0    0 -0.38480936048E+01  0.40100093086E+01 -0.72218814041E+01  0.91128244831E+01  0.00000000000E+00 0.  1.
</event>
<event>
 7    1  0.1920603E-013  0.7246158E+02  0.7816164E-02  0.1226708E+00
        -11   -1    0    0    0    0  0.00000000000E+00  0.00000000000E+00  0.45593999997E+02  0.45594000000E+02  0.51100000000E-03 0.  1.
         11   -1    0    0    0    0 -0.00000000000E+00 -0.00000000000E+00 -0.45593999997E+02  0.45594000000E+02  0.51100000000E-03 0. -1.
    9900012    2    1    2    0    0 -0.15616530006E+02  0.41438293767E+01 -0.94673820475E+01  0.72461584054E+02  0.70000017925E+02 0.  0.
        -12    1    1    2    0    0  0.15616530006E+02 -0.41438293767E+01  0.94673820475E+01  0.18726415946E+02  0.00000000000E+00 0.  1.
         11    1    3    3    0    0 -0.12010066203E+02  0.20248069182E+02 -0.93568152746E+01  0.25333298012E+02  0.51100000000E-03 0. -1.
        -11    1    3    3    0    0  0.18081114257E+02 -0.64114889404E+01  0.96157772219E+01  0.21459195117E+02  0.51100000000E-03 0.  1.
         12    1    3    3    0    0 -0.21687578060E+02 -0.96927508653E+01 -0.97263439947E+01  0.25669090926E+02  0.00000000000E+00 0. -1.
</event>
<event>
 7    1  0.1920603E-013  0.7246159E+02  0.7816164E-02  0.1226708E+00
        -11   -1    0    0    0    0  0.00000000000E+00  0.00000000000E+00  0.45593999997E+02  0.45594000000E+02  0.51100000000E-03 0.  1.
         11   -1    0    0    0    0 -0.00000000000E+00 -0.00000000000E+00 -0.45593999997E+02  0.45594000000E+02  0.51100000000E-03 0. -1.
    9900012    2    1    2    0    0  0.74999581409E+01 -0.11526487985E+02 -0.12710977692E+02  0.72461594811E+02  0.70000031938E+02 0.  0.
        -12    1    1    2    0    0 -0.74999581409E+01  0.11526487985E+02  0.12710977692E+02  0.18726405189E+02  0.00000000000E+00 0.  1.
         11    1    3    3    0    0  0.26466512910E+02  0.18944774092E+00 -0.25014170317E+02  0.36417316114E+02  0.51100000000E-03 0. -1.
        -11    1    3    3    0    0 -0.24040032013E+02 -0.38340840736E+01  0.72772027027E+01  0.25408286430E+02  0.51100000000E-03 0.  1.
         12    1    3    3    0    0  0.50734772441E+01 -0.78818516528E+01  0.50259899215E+01  0.10635992267E+02  0.00000000000E+00 0. -1.
</event>
<event>
 7    1  0.1920603E-013  0.7246165E+02  0.7816164E-02  0.1226708E+00
        -11   -1    0    0    0    0  0.00000000000E+00  0.00000000000E+00  0.45593999997E+02  0.45594000000E+02  0.51100000000E-03 0.  1.
         11   -1    0    0    0    0 -0.00000000000E+00 -0.00000000000E+00 -0.45593999997E+02  0.45594000000E+02  0.51100000000E-03 0. -1.
    9900012    2    1    2    0    0  0.43203425204E+01  0.68506491007E+00 -0.18208282514E+02  0.72461648900E+02  0.70000102398E+02 0.  0.
        -12    1    1    2    0    0 -0.43203425204E+01 -0.68506491007E+00  0.18208282514E+02  0.18726351100E+02  0.00000000000E+00 0.  1.
         11    1    3    3    0    0  0.30302387414E+01  0.18398340117E+02 -0.96451536605E+01  0.20993100183E+02  0.51100000000E-03 0. -1.
        -11    1    3    3    0    0 -0.13942410358E+02 -0.24984744855E+02  0.59314457250E+01  0.29220033037E+02  0.51100000000E-03 0.  1.
        -12    1    3    3    0    0  0.15232514137E+02  0.72714696476E+01 -0.14494574578E+02  0.22248515680E+02  0.00000000000E+00 0.  1.
</event>
<event>
 7    1  0.1920603E-013  0.7246155E+02  0.7816164E-02  0.1226708E+00
        -11   -1    0    0    0    0  0.00000000000E+00  0.00000000000E+00  0.45593999997E+02  0.45594000000E+02  0.51100000000E-03 0.  1.
         11   -1    0    0    0    0 -0.00000000000E+00 -0.00000000000E+00 -0.45593999997E+02  0.45594000000E+02  0.51100000000E-03 0. -1.
    9900012    2    1    2    0    0 -0.99045209219E+01 -0.14774106581E+02  0.58571432910E+01  0.72461551124E+02  0.69999975027E+02 0.  0.
        -12    1    1    2    0    0  0.99045209219E+01  0.14774106581E+02 -0.58571432910E+01  0.18726448876E+02  0.00000000000E+00 0.  1.
         11    1    3    3    0    0 -0.64009735700E+01 -0.16889096650E+02 -0.23559917164E+02  0.29686423585E+02  0.51100000000E-03 0. -1.
        -11    1    3    3    0    0 -0.15798323826E+02  0.75248691307E+00  0.25111346790E+02  0.29677146261E+02  0.51100000000E-03 0.  1.
        -12    1    3    3    0    0  0.12294776474E+02  0.13625031552E+01  0.43057136641E+01  0.13097981278E+02  0.00000000000E+00 0.  1.
</event>
<event>
 7    1  0.1920603E-013  0.7246156E+02  0.7816164E-02  0.1226708E+00
        -11   -1    0    0    0    0  0.00000000000E+00  0.00000000000E+00  0.45593999997E+02  0.45594000000E+02  0.51100000000E-03 0. -1.
         11   -1    0    0    0    0 -0.00000000000E+00 -0.00000000000E+00 -0.45593999997E+02  0.45594000000E+02  0.51100000000E-03 0.  1.
    9900012    2    1    2    0    0 -0.51536422760E+01 -0.13201373680E+02 -0.12241046214E+02  0.72461561253E+02  0.69999988222E+02 0.  0.
        -12    1    1    2    0    0  0.51536422760E+01  0.13201373680E+02  0.12241046214E+02  0.18726438747E+02  0.00000000000E+00 0.  1.
         11    1    3    3    0    0  0.10764487701E+02  0.10458389193E+02  0.13304108119E+02  0.20056205849E+02  0.51100000000E-03 0. -1.
        -11    1    3    3    0    0 -0.23968262178E+01 -0.29558104707E+02 -0.10834827734E+02  0.31572453532E+02  0.51100000000E-03 0.  1.
        -12    1    3    3    0    0 -0.13521303759E+02  0.58983418341E+01 -0.14710326599E+02  0.20832901871E+02  0.00000000000E+00 0.  1.
</event>
<event>
 7    1  0.1920603E-013  0.7246158E+02  0.7816164E-02  0.1226708E+00
        -11   -1    0    0    0    0  0.00000000000E+00  0.00000000000E+00  0.45593999997E+02  0.45594000000E+02  0.51100000000E-03 0. -1.
         11   -1    0    0    0    0 -0.00000000000E+00 -0.00000000000E+00 -0.45593999997E+02  0.45594000000E+02  0.51100000000E-03 0.  1.
    9900012    2    1    2    0    0 -0.18222047828E+02 -0.14212088926E+01  0.40762503541E+01  0.72461583399E+02  0.70000017071E+02 0.  0.
        -12    1    1    2    0    0  0.18222047828E+02  0.14212088926E+01 -0.40762503541E+01  0.18726416601E+02  0.00000000000E+00 0.  1.
         11    1    3    3    0    0 -0.69379307152E+01  0.10128027698E+02  0.23834090078E+02  0.26809992125E+02  0.51100000000E-03 0. -1.
        -11    1    3    3    0    0 -0.25192212651E+02 -0.64367854269E+01 -0.15338846959E+02  0.30188739808E+02  0.51100000000E-03 0.  1.
         12    1    3    3    0    0  0.13908095539E+02 -0.51124511634E+01 -0.44189927642E+01  0.15462851466E+02  0.00000000000E+00 0. -1.
</event>
<event>
 7    1  0.1920603E-013  0.7246156E+02  0.7816164E-02  0.1226708E+00
        -11   -1    0    0    0    0  0.00000000000E+00  0.00000000000E+00  0.45593999997E+02  0.45594000000E+02  0.51100000000E-03 0.  1.
         11   -1    0    0    0    0 -0.00000000000E+00 -0.00000000000E+00 -0.45593999997E+02  0.45594000000E+02  0.51100000000E-03 0. -1.
    9900012    2    1    2    0    0 -0.54021148957E+01 -0.66408352842E+01 -0.16655206715E+02  0.72461562823E+02  0.69999990267E+02 0.  0.
        -12    1    1    2    0    0  0.54021148957E+01  0.66408352842E+01  0.16655206715E+02  0.18726437177E+02  0.00000000000E+00 0.  1.
         11    1    3    3    0    0  0.20475791402E+00  0.72988067534E+01 -0.18181619484E+02  0.19593003679E+02  0.51100000000E-03 0. -1.
        -11    1    3    3    0    0 -0.20619139033E+02 -0.17536985723E+02  0.16220258959E+02  0.31556165224E+02  0.51100000000E-03 0.  1.
        -12    1    3    3    0    0  0.15012266223E+02  0.35973436850E+01 -0.14693846190E+02  0.21312393920E+02  0.00000000000E+00 0.  1.
</event>
<event>
 7    1  0.1920603E-013  0.7246122E+02  0.7816164E-02  0.1226709E+00
        -11   -1    0    0    0    0  0.00000000000E+00  0.00000000000E+00  0.45593999997E+02  0.45594000000E+02  0.51100000000E-03 0.  1.
         11   -1    0    0    0    0 -0.00000000000E+00 -0.00000000000E+00 -0.45593999997E+02  0.45594000000E+02  0.51100000000E-03 0. -1.
    9900012    2    1    2    0    0  0.76305384607E+01  0.40285147945E+01 -0.16620411022E+02  0.72461224752E+02  0.69999549865E+02 0.  0.
        -12    1    1    2    0    0 -0.76305384607E+01 -0.40285147945E+01  0.16620411022E+02  0.18726775248E+02  0.00000000000E+00 0.  1.
         11    1    3    3    0    0  0.47100006480E+01 -0.24741682984E+02  0.10659608268E+02  0.27348898180E+02  0.51100000000E-03 0. -1.
        -11    1    3    3    0    0 -0.46488502872E+01  0.74835341994E+01  0.10550919253E+01  0.88728976292E+01  0.51100000000E-03 0.  1.
         12    1    3    3    0    0  0.75693880999E+01  0.21286663579E+02 -0.28335111215E+02  0.36239428943E+02  0.00000000000E+00 0. -1.
</event>
<event>
 7    1  0.1920603E-013  0.7246148E+02  0.7816164E-02  0.1226708E+00
        -11   -1    0    0    0    0  0.00000000000E+00  0.00000000000E+00  0.45593999997E+02  0.45594000000E+02  0.51100000000E-03 0.  1.
         11   -1    0    0    0    0 -0.00000000000E+00 -0.00000000000E+00 -0.45593999997E+02  0.45594000000E+02  0.51100000000E-03 0. -1.
    9900012    2    1    2    0    0  0.17054240193E+02 -0.77332447780E+01 -0.17995602064E+00  0.72461479567E+02  0.69999881810E+02 0.  0.
        -12    1    1    2    0    0 -0.17054240193E+02  0.77332447780E+01  0.17995602064E+00  0.18726520433E+02  0.00000000000E+00 0.  1.
         11    1    3    3    0    0 -0.21714076365E+02 -0.54920466217E+01  0.53012218097E+01  0.23016660084E+02  0.51100000000E-03 0. -1.
        -11    1    3    3    0    0  0.25629296657E+02  0.13063886102E+02 -0.54231765695E+01  0.29273483080E+02  0.51100000000E-03 0.  1.
         12    1    3    3    0    0  0.13139019901E+02 -0.15305084259E+02 -0.58001260838E-01  0.20171336403E+02  0.00000000000E+00 0. -1.
</event>
<event>
 7    1  0.1920603E-013  0.7246168E+02  0.7816164E-02  0.1226708E+00
        -11   -1    0    0    0    0  0.00000000000E+00  0.00000000000E+00  0.45593999997E+02  0.45594000000E+02  0.51100000000E-03 0.  1.
         11   -1    0    0    0    0 -0.00000000000E+00 -0.00000000000E+00 -0.45593999997E+02  0.45594000000E+02  0.51100000000E-03 0. -1.
    9900012    2    1    2    0    0  0.40278371914E+01 -0.99443666018E+01  0.15348000111E+02  0.72461681436E+02  0.70000144783E+02 0.  0.
        -12    1    1    2    0    0 -0.40278371914E+01  0.99443666018E+01 -0.15348000111E+02  0.18726318564E+02  0.00000000000E+00 0.  1.
         11    1    3    3    0    0 -0.15062704554E+01  0.24740530500E+02  0.95434253757E+01  0.26560114237E+02  0.51100000000E-03 0. -1.
        -11    1    3    3    0    0  0.96166409342E+01 -0.14963177025E+02  0.15460143292E+02  0.23566766439E+02  0.51100000000E-03 0.  1.
         12    1    3    3    0    0 -0.40825332874E+01 -0.19721720077E+02 -0.96555685568E+01  0.22334800760E+02  0.00000000000E+00 0. -1.
</event>
<event>
 7    1  0.1920603E-013  0.7246156E+02  0.7816164E-02  0.1226708E+00
        -11   -1    0    0    0    0  0.00000000000E+00  0.00000000000E+00  0.45593999997E+02  0.45594000000E+02  0.51100000000E-03 0.  1.
         11   -1    0    0    0    0 -0.00000000000E+00 -0.00000000000E+00 -0.45593999997E+02  0.45594000000E+02  0.51100000000E-03 0. -1.
    9900012    2    1    2    0    0 -0.40653077307E+01  0.99091161193E+01 -0.15361063457E+02  0.72461559341E+02  0.69999985732E+02 0.  0.
        -12    1    1    2    0    0  0.40653077307E+01 -0.99091161193E+01  0.15361063457E+02  0.18726440659E+02  0.00000000000E+00 0.  1.
         11    1    3    3    0    0 -0.12608584408E+02  0.90045263858E+01 -0.18019375787E+02  0.23764591312E+02  0.51100000000E-03 0. -1.
        -11    1    3    3    0    0  0.31491540642E+01  0.89007721947E+01  0.23720935319E+02  0.25530838013E+02  0.51100000000E-03 0.  1.
        -12    1    3    3    0    0  0.53941226136E+01 -0.79961824612E+01 -0.21062622989E+02  0.23166130016E+02  0.00000000000E+00 0.  1.
</event>
<event>
 7    1  0.1920603E-013  0.7246174E+02  0.7816164E-02  0.1226708E+00
        -11   -1    0    0    0    0  0.00000000000E+00  0.00000000000E+00  0.45593999997E+02  0.45594000000E+02  0.51100000000E-03 0.  1.
         11   -1    0    0    0    0 -0.00000000000E+00 -0.00000000000E+00 -0.45593999997E+02  0.45594000000E+02  0.51100000000E-03 0. -1.
    9900012    2    1    2    0    0 -0.12638263737E+02 -0.80034244138E+01 -0.11264655426E+02  0.72461735704E+02  0.70000215476E+02 0.  0.
        -12    1    1    2    0    0  0.12638263737E+02  0.80034244138E+01  0.11264655426E+02  0.18726264296E+02  0.00000000000E+00 0.  1.
         11    1    3    3    0    0  0.20568046640E+02  0.59610866676E+01  0.54910685828E+01  0.22107259696E+02  0.51100000000E-03 0. -1.
        -11    1    3    3    0    0 -0.29771426679E+02  0.16756745539E+01 -0.44272025037E+01  0.30145411823E+02  0.51100000000E-03 0.  1.
         12    1    3    3    0    0 -0.34348836976E+01 -0.15640185635E+02 -0.12328521505E+02  0.20209064185E+02  0.00000000000E+00 0. -1.
</event>
<event>
 7    1  0.1920603E-013  0.7246159E+02  0.7816164E-02  0.1226708E+00
        -11   -1    0    0    0    0  0.00000000000E+00  0.00000000000E+00  0.45593999997E+02  0.45594000000E+02  0.51100000000E-03 0.  1.
         11   -1    0    0    0    0 -0.00000000000E+00 -0.00000000000E+00 -0.45593999997E+02  0.45594000000E+02  0.51100000000E-03 0. -1.
    9900012    2    1    2    0    0  0.12303648056E+01 -0.16635301682E+02 -0.85106523773E+01  0.72461594485E+02  0.70000031513E+02 0.  0.
        -12    1    1    2    0    0 -0.12303648056E+01  0.16635301682E+02  0.85106523773E+01  0.18726405515E+02  0.00000000000E+00 0.  1.
         11    1    3    3    0    0 -0.83096936541E+01  0.20388945848E+01  0.23026775077E+02  0.24565025351E+02  0.51100000000E-03 0. -1.
        -11    1    3    3    0    0 -0.87323005694E+01 -0.11293656327E+02 -0.56300075304E+01  0.15345902760E+02  0.51100000000E-03 0.  1.
         12    1    3    3    0    0  0.18272359029E+02 -0.73805399397E+01 -0.25907419924E+02  0.32550666375E+02  0.00000000000E+00 0. -1.
</event>
<event>
 7    1  0.1920603E-013  0.7246159E+02  0.7816164E-02  0.1226708E+00
        -11   -1    0    0    0    0  0.00000000000E+00  0.00000000000E+00  0.45593999997E+02  0.45594000000E+02  0.51100000000E-03 0.  1.
         11   -1    0    0    0    0 -0.00000000000E+00 -0.00000000000E+00 -0.45593999997E+02  0.45594000000E+02  0.51100000000E-03 0. -1.
    9900012    2    1    2    0    0  0.10295988844E+02 -0.15283626907E+02 -0.33289422510E+01  0.72461588325E+02  0.70000023488E+02 0.  0.
        -12    1    1    2    0    0 -0.10295988844E+02  0.15283626907E+02  0.33289422510E+01  0.18726411675E+02  0.00000000000E+00 0.  1.
         11    1    3    3    0    0  0.40382036237E+01 -0.13938878528E+01 -0.10549154071E+01  0.44003248323E+01  0.51100000000E-03 0. -1.
        -11    1    3    3    0    0  0.50163560963E+01 -0.32516689899E+02  0.20383385404E+02  0.38703764045E+02  0.51100000000E-03 0.  1.
        -12    1    3    3    0    0  0.12414291238E+01  0.18626950844E+02 -0.22657412248E+02  0.29357499447E+02  0.00000000000E+00 0.  1.
</event>
<event>
 7    1  0.1920603E-013  0.7246144E+02  0.7816164E-02  0.1226708E+00
        -11   -1    0    0    0    0  0.00000000000E+00  0.00000000000E+00  0.45593999997E+02  0.45594000000E+02  0.51100000000E-03 0.  1.
         11   -1    0    0    0    0 -0.00000000000E+00 -0.00000000000E+00 -0.45593999997E+02  0.45594000000E+02  0.51100000000E-03 0. -1.
    9900012    2    1    2    0    0  0.10827153795E+02 -0.10786156971E+02 -0.10821988401E+02  0.72461444672E+02  0.69999836353E+02 0.  0.
        -12    1    1    2    0    0 -0.10827153795E+02  0.10786156971E+02  0.10821988401E+02  0.18726555328E+02  0.00000000000E+00 0.  1.
         11    1    3    3    0    0 -0.24980857819E+02 -0.75288763791E+00  0.73571354335E+01  0.26052591794E+02  0.51100000000E-03 0. -1.
        -11    1    3    3    0    0  0.11428070872E+02  0.16806174566E+01  0.31387058600E+01  0.11969826800E+02  0.51100000000E-03 0.  1.
         12    1    3    3    0    0  0.24379940742E+02 -0.11713886790E+02 -0.21317829695E+02  0.34439026078E+02  0.00000000000E+00 0. -1.
</event>
<event>
 7    1  0.1920603E-013  0.7246156E+02  0.7816164E-02  0.1226708E+00
        -11   -1    0    0    0    0  0.00000000000E+00  0.00000000000E+00  0.45593999997E+02  0.45594000000E+02  0.51100000000E-03 0.  1.
         11   -1    0    0    0    0 -0.00000000000E+00 -0.00000000000E+00 -0.45593999997E+02  0.45594000000E+02  0.51100000000E-03 0. -1.
    9900012    2    1    2    0    0 -0.68838549734E+01  0.43211615294E+01 -0.16870674676E+02  0.72461559861E+02  0.69999986408E+02 0.  0.
        -12    1    1    2    0    0  0.68838549734E+01 -0.43211615294E+01  0.16870674676E+02  0.18726440139E+02  0.00000000000E+00 0.  1.
         11    1    3    3    0    0  0.24115692479E+02 -0.10934011277E+02 -0.41693007997E+01  0.26804893131E+02  0.51100000000E-03 0. -1.
        -11    1    3    3    0    0 -0.17067638674E+02  0.19412962270E+02 -0.16453481159E+02  0.30641221198E+02  0.51100000000E-03 0.  1.
        -12    1    3    3    0    0 -0.13931908778E+02 -0.41577894638E+01  0.37521072820E+01  0.15015445531E+02  0.00000000000E+00 0.  1.
</event>
<event>
 7    1  0.1920603E-013  0.7246169E+02  0.7816164E-02  0.1226708E+00
        -11   -1    0    0    0    0  0.00000000000E+00  0.00000000000E+00  0.45593999997E+02  0.45594000000E+02  0.51100000000E-03 0. -1.
         11   -1    0    0    0    0 -0.00000000000E+00 -0.00000000000E+00 -0.45593999997E+02  0.45594000000E+02  0.51100000000E-03 0.  1.
    9900012    2    1    2    0    0  0.12567973035E+02 -0.19980266494E+01 -0.13737850246E+02  0.72461692674E+02  0.70000159422E+02 0.  0.
        -12    1    1    2    0    0 -0.12567973035E+02  0.19980266494E+01  0.13737850246E+02  0.18726307326E+02  0.00000000000E+00 0.  1.
         11    1    3    3    0    0 -0.42938299033E+01  0.14924344185E+02  0.14673603541E+02  0.21365571973E+02  0.51100000000E-03 0. -1.
        -11    1    3    3    0    0  0.26353542408E+00  0.38510664078E+01 -0.23797576221E+02  0.24108604225E+02  0.51100000000E-03 0.  1.
         12    1    3    3    0    0  0.16598267514E+02 -0.20773437243E+02 -0.46138775653E+01  0.26987516476E+02  0.00000000000E+00 0. -1.
</event>
<event>
 7    1  0.1920603E-013  0.7246157E+02  0.7816164E-02  0.1226708E+00
        -11   -1    0    0    0    0  0.00000000000E+00  0.00000000000E+00  0.45593999997E+02  0.45594000000E+02  0.51100000000E-03 0. -1.
         11   -1    0    0    0    0 -0.00000000000E+00 -0.00000000000E+00 -0.45593999997E+02  0.45594000000E+02  0.51100000000E-03 0.  1.
    9900012    2    1    2    0    0 -0.13328817065E+02  0.49873247493E+01  0.12171628013E+02  0.72461566784E+02  0.69999995427E+02 0.  0.
        -12    1    1    2    0    0  0.13328817065E+02 -0.49873247493E+01 -0.12171628013E+02  0.18726433216E+02  0.00000000000E+00 0.  1.
         11    1    3    3    0    0 -0.62221053781E+01  0.32718433324E+01  0.21895841659E+02  0.22996683160E+02  0.51100000000E-03 0. -1.
        -11    1    3    3    0    0  0.10879367058E+02 -0.13973372404E+02 -0.16964573485E+02  0.24523713375E+02  0.51100000000E-03 0.  1.
        -12    1    3    3    0    0 -0.17986078745E+02  0.15688853821E+02  0.72403598388E+01  0.24941170249E+02  0.00000000000E+00 0.  1.
</event>
<event>
 7    1  0.1920603E-013  0.7246147E+02  0.7816164E-02  0.1226708E+00
        -11   -1    0    0    0    0  0.00000000000E+00  0.00000000000E+00  0.45593999997E+02  0.45594000000E+02  0.51100000000E-03 0.  1.
         11   -1    0    0    0    0 -0.00000000000E+00 -0.00000000000E+00 -0.45593999997E+02  0.45594000000E+02  0.51100000000E-03 0. -1.
    9900012    2    1    2    0    0  0.96557303511E+01  0.14729077952E+02 -0.63642903164E+01  0.72461466494E+02  0.69999864780E+02 0.  0.
        -12    1    1    2    0    0 -0.96557303511E+01 -0.14729077952E+02  0.63642903164E+01  0.18726533506E+02  0.00000000000E+00 0.  1.
         11    1    3    3    0    0 -0.19572639057E+01 -0.97834873739E-01 -0.27612266386E+02  0.27681721566E+02  0.51100000000E-03 0. -1.
        -11    1    3    3    0    0  0.13251046841E+02 -0.86879327275E+01  0.84211857891E+01  0.17943990298E+02  0.51100000000E-03 0.  1.
         12    1    3    3    0    0 -0.16380525843E+01  0.23514845553E+02  0.12826790280E+02  0.26835754630E+02  0.00000000000E+00 0. -1.
</event>
<event>
 7    1  0.1920603E-013  0.7246143E+02  0.7816164E-02  0.1226708E+00
        -11   -1    0    0    0    0  0.00000000000E+00  0.00000000000E+00  0.45593999997E+02  0.45594000000E+02  0.51100000000E-03 0.  1.
         11   -1    0    0    0    0 -0.00000000000E+00 -0.00000000000E+00 -0.45593999997E+02  0.45594000000E+02  0.51100000000E-03 0. -1.
    9900012    2    1    2    0    0 -0.14584322612E+02 -0.93103591764E+01  0.71623339427E+01  0.72461433802E+02  0.69999822194E+02 0.  0.
        -12    1    1    2    0    0  0.14584322612E+02  0.93103591764E+01 -0.71623339427E+01  0.18726566198E+02  0.00000000000E+00 0.  1.
         11    1    3    3    0    0 -0.96198076848E+01 -0.10628219443E+02  0.41646824088E+01  0.14927971337E+02  0.51100000000E-03 0. -1.
        -11    1    3    3    0    0  0.26053806272E+02  0.19244999516E+01 -0.15838158109E+01  0.26172752895E+02  0.51100000000E-03 0.  1.
        -12    1    3    3    0    0 -0.31018321199E+02 -0.60663968504E+00  0.45814673448E+01  0.31360709570E+02  0.00000000000E+00 0.  1.
</event>
<event>
 7    1  0.1920603E-013  0.7246155E+02  0.7816164E-02  0.1226708E+00
        -11   -1    0    0    0    0  0.00000000000E+00  0.00000000000E+00  0.45593999997E+02  0.45594000000E+02  0.51100000000E-03 0.  1.
         11   -1    0    0    0    0 -0.00000000000E+00 -0.00000000000E+00 -0.45593999997E+02  0.45594000000E+02  0.51100000000E-03 0. -1.
    9900012    2    1    2    0    0  0.82864172922E+01 -0.81203083259E+01 -0.14699511874E+02  0.72461554310E+02  0.69999979178E+02 0.  0.
        -12    1    1    2    0    0 -0.82864172922E+01  0.81203083259E+01  0.14699511874E+02  0.18726445690E+02  0.00000000000E+00 0.  1.
         11    1    3    3    0    0  0.26227884572E+02  0.10125255408E+02 -0.28398365083E+02  0.39961104412E+02  0.51100000000E-03 0. -1.
        -11    1    3    3    0    0 -0.91936206548E+00 -0.85548607814E+01  0.10444942571E-01  0.86041256938E+01  0.51100000000E-03 0.  1.
         12    1    3    3    0    0 -0.17022105214E+02 -0.96907029522E+01  0.13688408266E+02  0.23896324205E+02  0.00000000000E+00 0. -1.
</event>
<event>
 7    1  0.1920603E-013  0.7246154E+02  0.7816164E-02  0.1226708E+00
        -11   -1    0    0    0    0  0.00000000000E+00  0.00000000000E+00  0.45593999997E+02  0.45594000000E+02  0.51100000000E-03 0.  1.
         11   -1    0    0    0    0 -0.00000000000E+00 -0.00000000000E+00 -0.45593999997E+02  0.45594000000E+02  0.51100000000E-03 0. -1.
    9900012    2    1    2    0    0 -0.10723231738E+02  0.15113708157E+02 -0.26960205475E+01  0.72461537442E+02  0.69999957203E+02 0.  0.
        -12    1    1    2    0    0  0.10723231738E+02 -0.15113708157E+02  0.26960205475E+01  0.18726462558E+02  0.00000000000E+00 0.  1.
         11    1    3    3    0    0 -0.71851048654E+01 -0.25833745696E+02 -0.12463410336E+02  0.29569321028E+02  0.51100000000E-03 0. -1.
        -11    1    3    3    0    0 -0.28813455901E+01  0.37072497811E+02  0.10993173091E+02  0.38775276933E+02  0.51100000000E-03 0.  1.
         12    1    3    3    0    0 -0.65678128225E+00  0.38749560415E+01 -0.12257833034E+01  0.41169394802E+01  0.00000000000E+00 0. -1.
</event>
<event>
 7    1  0.1920603E-013  0.7246144E+02  0.7816164E-02  0.1226708E+00
        -11   -1    0    0    0    0  0.00000000000E+00  0.00000000000E+00  0.45593999997E+02  0.45594000000E+02  0.51100000000E-03 0. -1.
         11   -1    0    0    0    0 -0.00000000000E+00 -0.00000000000E+00 -0.45593999997E+02  0.45594000000E+02  0.51100000000E-03 0.  1.
    9900012    2    1    2    0    0  0.14780352106E+01  0.18650893298E+02  0.80237997771E+00  0.72461435378E+02  0.69999824246E+02 0.  0.
        -12    1    1    2    0    0 -0.14780352106E+01 -0.18650893298E+02 -0.80237997771E+00  0.18726564622E+02  0.00000000000E+00 0.  1.
         11    1    3    3    0    0  0.32406814182E+02 -0.25061162368E+01 -0.51895770579E+01  0.32915253824E+02  0.51100000000E-03 0. -1.
        -11    1    3    3    0    0 -0.32949460344E+01  0.44417683431E+01 -0.26230042551E+01  0.61209580106E+01  0.51100000000E-03 0.  1.
         12    1    3    3    0    0 -0.27633832937E+02  0.16715241192E+02  0.86149612908E+01  0.33425223543E+02  0.00000000000E+00 0. -1.
</event>
<event>
 7    1  0.1920603E-013  0.7246156E+02  0.7816164E-02  0.1226708E+00
        -11   -1    0    0    0    0  0.00000000000E+00  0.00000000000E+00  0.45593999997E+02  0.45594000000E+02  0.51100000000E-03 0. -1.
         11   -1    0    0    0    0 -0.00000000000E+00 -0.00000000000E+00 -0.45593999997E+02  0.45594000000E+02  0.51100000000E-03 0.  1.
    9900012    2    1    2    0    0  0.12667502791E+02 -0.13405629870E+02  0.32408347380E+01  0.72461560163E+02  0.69999986801E+02 0.  0.
        -12    1    1    2    0    0 -0.12667502791E+02  0.13405629870E+02 -0.32408347380E+01  0.18726439837E+02  0.00000000000E+00 0.  1.
         11    1    3    3    0    0 -0.19092564722E+01 -0.98752013177E+01  0.11149087409E+02  0.15015558986E+02  0.51100000000E-03 0. -1.
        -11    1    3    3    0    0 -0.91407066243E+01 -0.13782090085E+02 -0.22382828947E+02  0.27829652471E+02  0.51100000000E-03 0.  1.
        -12    1    3    3    0    0  0.23717465888E+02  0.10251661532E+02  0.14474576276E+02  0.29616348706E+02  0.00000000000E+00 0.  1.
</event>
<event>
 7    1  0.1920603E-013  0.7246159E+02  0.7816164E-02  0.1226708E+00
        -11   -1    0    0    0    0  0.00000000000E+00  0.00000000000E+00  0.45593999997E+02  0.45594000000E+02  0.51100000000E-03 0.  1.
         11   -1    0    0    0    0 -0.00000000000E+00 -0.00000000000E+00 -0.45593999997E+02  0.45594000000E+02  0.51100000000E-03 0. -1.
    9900012    2    1    2    0    0 -0.72699885822E+01 -0.53027831126E+01 -0.16422739302E+02  0.72461585263E+02  0.70000019500E+02 0.  0.
        -12    1    1    2    0    0  0.72699885822E+01  0.53027831126E+01  0.16422739302E+02  0.18726414737E+02  0.00000000000E+00 0.  1.
         11    1    3    3    0    0 -0.84668116902E+01  0.25761394056E+02  0.75385790642E+01  0.28145452536E+02  0.51100000000E-03 0.  1.
        -11    1    3    3    0    0  0.46996313955E+01 -0.32938009113E+02 -0.20789224872E+02  0.39232522869E+02  0.51100000000E-03 0. -1.
         12    1    3    3    0    0 -0.35028082875E+01  0.18738319445E+01 -0.31720934934E+01  0.50836098578E+01  0.00000000000E+00 0. -1.
</event>
<event>
 8    1  0.1920603E-013  0.7246161E+02  0.7816164E-02  0.1226708E+00
        -11   -1    0    0    0    0  0.00000000000E+00  0.00000000000E+00  0.45593999997E+02  0.45594000000E+02  0.51100000000E-03 0.  1.
         11   -1    0    0    0    0 -0.00000000000E+00 -0.00000000000E+00 -0.45593999997E+02  0.45594000000E+02  0.51100000000E-03 0. -1.
    9900012    2    1    2    0    0  0.10826770968E+02 -0.10861982851E+02 -0.10745972825E+02  0.72461612922E+02  0.70000055530E+02 0.  0.
        -24    2    3    3    0    0 -0.12504442724E+01 -0.20088310927E+01 -0.19711638587E+02  0.55008229673E+02  0.51300659087E+02 0.  0.
        -12    1    1    2    0    0 -0.10826770968E+02  0.10861982851E+02  0.10745972825E+02  0.18726387078E+02  0.00000000000E+00 0.  1.
         11    1    4    4    0    0 -0.14062032890E+02 -0.12872626826E+02 -0.29827734986E+02  0.35399704308E+02  0.51100000000E-03 0. -1.
        -11    1    3    3    0    0  0.12077215240E+02 -0.88531517582E+01  0.89656657619E+01  0.17453383249E+02  0.51100000000E-03 0.  1.
        -12    1    4    4    0    0  0.12811588618E+02  0.10863795733E+02  0.10116096399E+02  0.19608525366E+02  0.00000000000E+00 0.  1.
</event>
<event>
 8    1  0.1920603E-013  0.7246154E+02  0.7816164E-02  0.1226708E+00
        -11   -1    0    0    0    0  0.00000000000E+00  0.00000000000E+00  0.45593999997E+02  0.45594000000E+02  0.51100000000E-03 0.  1.
         11   -1    0    0    0    0 -0.00000000000E+00 -0.00000000000E+00 -0.45593999997E+02  0.45594000000E+02  0.51100000000E-03 0. -1.
    9900012    2    1    2    0    0 -0.15105529655E+02  0.36716604885E+01 -0.10441363277E+02  0.72461543208E+02  0.69999964715E+02 0.  0.
         24    2    3    3    0    0 -0.37974567087E+01 -0.38266976292E+01  0.70016303882E+01  0.50362766851E+02  0.49581459888E+02 0.  0.
        -12    1    1    2    0    0  0.15105529655E+02 -0.36716604885E+01  0.10441363277E+02  0.18726456792E+02  0.00000000000E+00 0.  1.
         11    1    3    3    0    0 -0.11308072946E+02  0.74983581177E+01 -0.17442993666E+02  0.22098776357E+02  0.51100000000E-03 0. -1.
        -11    1    4    4    0    0 -0.14022391986E+02  0.62665465715E+01  0.23757944800E+02  0.28290228425E+02  0.51100000000E-03 0.  1.
         12    1    4    4    0    0  0.10224935277E+02 -0.10093244201E+02 -0.16756314412E+02  0.22072538426E+02  0.00000000000E+00 0. -1.
</event>
<event>
 7    1  0.1920603E-013  0.7246163E+02  0.7816164E-02  0.1226708E+00
        -11   -1    0    0    0    0  0.00000000000E+00  0.00000000000E+00  0.45593999997E+02  0.45594000000E+02  0.51100000000E-03 0.  1.
         11   -1    0    0    0    0 -0.00000000000E+00 -0.00000000000E+00 -0.45593999997E+02  0.45594000000E+02  0.51100000000E-03 0. -1.
    9900012    2    1    2    0    0  0.11535405057E+02 -0.12187918922E+02 -0.83105914078E+01  0.72461631772E+02  0.70000080086E+02 0.  0.
        -12    1    1    2    0    0 -0.11535405057E+02  0.12187918922E+02  0.83105914078E+01  0.18726368228E+02  0.00000000000E+00 0.  1.
         11    1    3    3    0    0  0.86885436848E+01  0.10742235883E+02 -0.24497892062E+02  0.28125311356E+02  0.51100000000E-03 0. -1.
        -11    1    3    3    0    0  0.18503918100E+02 -0.13416781261E+02  0.10504459259E+02  0.25154496001E+02  0.51100000000E-03 0.  1.
         12    1    3    3    0    0 -0.15657056728E+02 -0.95133735441E+01  0.56828413953E+01  0.19181824416E+02  0.00000000000E+00 0. -1.
</event>
<event>
 7    1  0.1920603E-013  0.7246164E+02  0.7816164E-02  0.1226708E+00
        -11   -1    0    0    0    0  0.00000000000E+00  0.00000000000E+00  0.45593999997E+02  0.45594000000E+02  0.51100000000E-03 0.  1.
         11   -1    0    0    0    0 -0.00000000000E+00 -0.00000000000E+00 -0.45593999997E+02  0.45594000000E+02  0.51100000000E-03 0. -1.
    9900012    2    1    2    0    0 -0.82657622935E+01 -0.12884908276E+02 -0.10785771392E+02  0.72461640180E+02  0.70000091039E+02 0.  0.
        -12    1    1    2    0    0  0.82657622935E+01  0.12884908276E+02  0.10785771392E+02  0.18726359820E+02  0.00000000000E+00 0.  1.
         11    1    3    3    0    0 -0.43424447828E+01 -0.84156255597E+01  0.10933678529E+02  0.14464608764E+02  0.51100000000E-03 0. -1.
        -11    1    3    3    0    0  0.10533713877E+02  0.21562915467E+02 -0.95088886204E+01  0.25813512247E+02  0.51100000000E-03 0.  1.
        -12    1    3    3    0    0 -0.14457031387E+02 -0.26032198184E+02 -0.12210561301E+02  0.32183519169E+02  0.00000000000E+00 0.  1.
</event>
<event>
 7    1  0.1920603E-013  0.7246157E+02  0.7816164E-02  0.1226708E+00
        -11   -1    0    0    0    0  0.00000000000E+00  0.00000000000E+00  0.45593999997E+02  0.45594000000E+02  0.51100000000E-03 0.  1.
         11   -1    0    0    0    0 -0.00000000000E+00 -0.00000000000E+00 -0.45593999997E+02  0.45594000000E+02  0.51100000000E-03 0. -1.
    9900012    2    1    2    0    0 -0.59485616041E+01  0.12073853138E+02 -0.13019830121E+02  0.72461567048E+02  0.69999995771E+02 0.  0.
        -12    1    1    2    0    0  0.59485616041E+01 -0.12073853138E+02  0.13019830121E+02  0.18726432952E+02  0.00000000000E+00 0.  1.
         11    1    3    3    0    0 -0.27323939200E+01  0.39011525123E+01 -0.12866366731E+02  0.13719634127E+02  0.51100000000E-03 0. -1.
        -11    1    3    3    0    0  0.11326129746E+02  0.21271268935E+02  0.19504136955E+02  0.31002571760E+02  0.51100000000E-03 0.  1.
        -12    1    3    3    0    0 -0.14542297430E+02 -0.13098568309E+02 -0.19657600344E+02  0.27739361161E+02  0.00000000000E+00 0.  1.
</event>
<event>
 7    1  0.1920603E-013  0.7246160E+02  0.7816164E-02  0.1226708E+00
        -11   -1    0    0    0    0  0.00000000000E+00  0.00000000000E+00  0.45593999997E+02  0.45594000000E+02  0.51100000000E-03 0.  1.
         11   -1    0    0    0    0 -0.00000000000E+00 -0.00000000000E+00 -0.45593999997E+02  0.45594000000E+02  0.51100000000E-03 0. -1.
    9900012    2    1    2    0    0  0.30718593511E+01  0.18456528520E+02 -0.77358709378E+00  0.72461596131E+02  0.70000033657E+02 0.  0.
        -12    1    1    2    0    0 -0.30718593511E+01 -0.18456528520E+02  0.77358709378E+00  0.18726403869E+02  0.00000000000E+00 0.  1.
         11    1    3    3    0    0 -0.76835356724E+01  0.29530736677E+02 -0.14783144856E+02  0.33906378473E+02  0.51100000000E-03 0. -1.
        -11    1    3    3    0    0  0.15098083962E+02 -0.12521296230E+02  0.21920745226E+02  0.29415201345E+02  0.51100000000E-03 0.  1.
        -12    1    3    3    0    0 -0.43426889385E+01  0.14470880730E+01 -0.79111874641E+01  0.91400163129E+01  0.00000000000E+00 0.  1.
</event>
<event>
 7    1  0.1920603E-013  0.7246160E+02  0.7816164E-02  0.1226708E+00
        -11   -1    0    0    0    0  0.00000000000E+00  0.00000000000E+00  0.45593999997E+02  0.45594000000E+02  0.51100000000E-03 0.  1.
         11   -1    0    0    0    0 -0.00000000000E+00 -0.00000000000E+00 -0.45593999997E+02  0.45594000000E+02  0.51100000000E-03 0. -1.
    9900012    2    1    2    0    0 -0.18176421177E+02  0.19554362773E+01 -0.40585717168E+01  0.72461600928E+02  0.70000039906E+02 0.  0.
        -12    1    1    2    0    0  0.18176421177E+02 -0.19554362773E+01  0.40585717168E+01  0.18726399072E+02  0.00000000000E+00 0.  1.
         11    1    3    3    0    0 -0.20208719599E+02 -0.14662955242E+02 -0.12727219767E+02  0.28024573637E+02  0.51100000000E-03 0. -1.
        -11    1    3    3    0    0  0.68730779953E+01  0.21653352421E+02 -0.97625562117E+01  0.24726794702E+02  0.51100000000E-03 0.  1.
        -12    1    3    3    0    0 -0.48407795731E+01 -0.50349609014E+01  0.18431204262E+02  0.19710232589E+02  0.00000000000E+00 0.  1.
</event>
<event>
 7    1  0.1920603E-013  0.7246159E+02  0.7816164E-02  0.1226708E+00
        -11   -1    0    0    0    0  0.00000000000E+00  0.00000000000E+00  0.45593999997E+02  0.45594000000E+02  0.51100000000E-03 0. -1.
         11   -1    0    0    0    0 -0.00000000000E+00 -0.00000000000E+00 -0.45593999997E+02  0.45594000000E+02  0.51100000000E-03 0.  1.
    9900012    2    1    2    0    0  0.15537142825E+02 -0.50956623320E+01 -0.91274175028E+01  0.72461592655E+02  0.70000029130E+02 0.  0.
        -12    1    1    2    0    0 -0.15537142825E+02  0.50956623320E+01  0.91274175028E+01  0.18726407345E+02  0.00000000000E+00 0.  1.
         11    1    3    3    0    0 -0.12860292243E+02  0.32706685751E+01  0.92713947913E+01  0.16187746945E+02  0.51100000000E-03 0. -1.
        -11    1    3    3    0    0  0.22554886569E+02  0.15318310492E+02 -0.16354392948E+02  0.31793705563E+02  0.51100000000E-03 0.  1.
        -12    1    3    3    0    0  0.58425484995E+01 -0.23684641400E+02 -0.20444193459E+01  0.24480140148E+02  0.00000000000E+00 0.  1.
</event>
<event>
 7    1  0.1920603E-013  0.7246151E+02  0.7816164E-02  0.1226708E+00
        -11   -1    0    0    0    0  0.00000000000E+00  0.00000000000E+00  0.45593999997E+02  0.45594000000E+02  0.51100000000E-03 0.  1.
         11   -1    0    0    0    0 -0.00000000000E+00 -0.00000000000E+00 -0.45593999997E+02  0.45594000000E+02  0.51100000000E-03 0. -1.
    9900012    2    1    2    0    0  0.86097345741E+01 -0.16629777337E+02 -0.64944727592E-01  0.72461514972E+02  0.69999927932E+02 0.  0.
        -12    1    1    2    0    0 -0.86097345741E+01  0.16629777337E+02  0.64944727592E-01  0.18726485028E+02  0.00000000000E+00 0.  1.
         11    1    3    3    0    0  0.18749823943E+02 -0.11437681153E+02  0.11171121212E+02  0.24640827856E+02  0.51100000000E-03 0. -1.
        -11    1    3    3    0    0 -0.25971241325E+02 -0.61489624294E+01 -0.16176619583E+02  0.31208943210E+02  0.51100000000E-03 0.  1.
         12    1    3    3    0    0  0.15831151956E+02  0.95686624545E+00  0.49405536440E+01  0.16611743905E+02  0.00000000000E+00 0. -1.
</event>
<event>
 7    1  0.1920603E-013  0.7246157E+02  0.7816164E-02  0.1226708E+00
        -11   -1    0    0    0    0  0.00000000000E+00  0.00000000000E+00  0.45593999997E+02  0.45594000000E+02  0.51100000000E-03 0. -1.
         11   -1    0    0    0    0 -0.00000000000E+00 -0.00000000000E+00 -0.45593999997E+02  0.45594000000E+02  0.51100000000E-03 0.  1.
    9900012    2    1    2    0    0 -0.68997732952E+01 -0.15070128452E+02  0.87157073086E+01  0.72461569561E+02  0.69999999045E+02 0.  0.
        -12    1    1    2    0    0  0.68997732952E+01  0.15070128452E+02 -0.87157073086E+01  0.18726430439E+02  0.00000000000E+00 0.  1.
         11    1    3    3    0    0  0.14731361937E+02  0.98079236791E+01 -0.11301582191E+02  0.20998432125E+02  0.51100000000E-03 0.  1.
        -11    1    3    3    0    0 -0.89636924518E+00 -0.25502519179E+02  0.16592009399E+02  0.30438080400E+02  0.51100000000E-03 0. -1.
        -12    1    3    3    0    0 -0.20734765987E+02  0.62446704773E+00  0.34252801012E+01  0.21025057037E+02  0.00000000000E+00 0.  1.
</event>
<event>
 7    1  0.1920603E-013  0.7246158E+02  0.7816164E-02  0.1226708E+00
        -11   -1    0    0    0    0  0.00000000000E+00  0.00000000000E+00  0.45593999997E+02  0.45594000000E+02  0.51100000000E-03 0. -1.
         11   -1    0    0    0    0 -0.00000000000E+00 -0.00000000000E+00 -0.45593999997E+02  0.45594000000E+02  0.51100000000E-03 0.  1.
    9900012    2    1    2    0    0 -0.15955412961E+02 -0.65237376986E+00  0.97815232995E+01  0.72461575025E+02  0.70000006163E+02 0.  0.
        -12    1    1    2    0    0  0.15955412961E+02  0.65237376986E+00 -0.97815232995E+01  0.18726424975E+02  0.00000000000E+00 0.  1.
         11    1    3    3    0    0  0.70271040684E+01  0.25610636588E+02 -0.93909965499E+01  0.28168700973E+02  0.51100000000E-03 0. -1.
        -11    1    3    3    0    0 -0.10647705314E+02 -0.84240756807E+00  0.98773794367E+01  0.14548054982E+02  0.51100000000E-03 0.  1.
         12    1    3    3    0    0 -0.12334811715E+02 -0.25420602790E+02  0.92951404127E+01  0.29744819070E+02  0.00000000000E+00 0. -1.
</event>
<event>
 7    1  0.1920603E-013  0.7246157E+02  0.7816164E-02  0.1226708E+00
        -11   -1    0    0    0    0  0.00000000000E+00  0.00000000000E+00  0.45593999997E+02  0.45594000000E+02  0.51100000000E-03 0. -1.
         11   -1    0    0    0    0 -0.00000000000E+00 -0.00000000000E+00 -0.45593999997E+02  0.45594000000E+02  0.51100000000E-03 0.  1.
    9900012    2    1    2    0    0 -0.16770527491E+02  0.60778559026E+01 -0.56998402711E+01  0.72461572049E+02  0.70000002285E+02 0.  0.
        -12    1    1    2    0    0  0.16770527491E+02 -0.60778559026E+01  0.56998402711E+01  0.18726427951E+02  0.00000000000E+00 0.  1.
         11    1    3    3    0    0 -0.11350319436E+02 -0.19917911121E+01  0.30760377879E+02  0.32848102390E+02  0.51100000000E-03 0. -1.
        -11    1    3    3    0    0 -0.75355708434E+01  0.72203108599E+01 -0.16500040832E+02  0.19523551536E+02  0.51100000000E-03 0.  1.
         12    1    3    3    0    0  0.21153627885E+01  0.84933615484E+00 -0.19960177317E+02  0.20089918122E+02  0.00000000000E+00 0. -1.
</event>
<event>
 7    1  0.1920603E-013  0.7246154E+02  0.7816164E-02  0.1226708E+00
        -11   -1    0    0    0    0  0.00000000000E+00  0.00000000000E+00  0.45593999997E+02  0.45594000000E+02  0.51100000000E-03 0. -1.
         11   -1    0    0    0    0 -0.00000000000E+00 -0.00000000000E+00 -0.45593999997E+02  0.45594000000E+02  0.51100000000E-03 0.  1.
    9900012    2    1    2    0    0  0.40125970794E+01 -0.18285313958E+02 -0.47601663571E+00  0.72461541880E+02  0.69999962986E+02 0.  0.
        -12    1    1    2    0    0 -0.40125970794E+01  0.18285313958E+02  0.47601663571E+00  0.18726458120E+02  0.00000000000E+00 0.  1.
         11    1    3    3    0    0 -0.23822135514E+02  0.24453435341E+01 -0.18700405188E+01  0.24020218509E+02  0.51100000000E-03 0. -1.
        -11    1    3    3    0    0  0.27530252836E+02 -0.18773904173E+02  0.13662232471E+02  0.36014315146E+02  0.51100000000E-03 0.  1.
         12    1    3    3    0    0  0.30447975733E+00 -0.19567533190E+01 -0.12268208588E+02  0.12427008225E+02  0.00000000000E+00 0. -1.
</event>
<event>
 7    1  0.1920603E-013  0.7246172E+02  0.7816164E-02  0.1226708E+00
        -11   -1    0    0    0    0  0.00000000000E+00  0.00000000000E+00  0.45593999997E+02  0.45594000000E+02  0.51100000000E-03 0.  1.
         11   -1    0    0    0    0 -0.00000000000E+00 -0.00000000000E+00 -0.45593999997E+02  0.45594000000E+02  0.51100000000E-03 0. -1.
    9900012    2    1    2    0    0 -0.17200607210E+02  0.37559380371E+01  0.63800872484E+01  0.72461722414E+02  0.70000198164E+02 0.  0.
        -12    1    1    2    0    0  0.17200607210E+02 -0.37559380371E+01 -0.63800872484E+01  0.18726277586E+02  0.00000000000E+00 0.  1.
         11    1    3    3    0    0 -0.17890593453E+02  0.30339067777E+02 -0.26546226987E+01  0.35321089870E+02  0.51100000000E-03 0. -1.
        -11    1    3    3    0    0 -0.92947294650E+01 -0.19473286138E+02  0.11773715458E+02  0.24580912204E+02  0.51100000000E-03 0.  1.
         12    1    3    3    0    0  0.99847157087E+01 -0.71098436023E+01 -0.27390055107E+01  0.12559720340E+02  0.00000000000E+00 0. -1.
</event>
<event>
 7    1  0.1920603E-013  0.7246166E+02  0.7816164E-02  0.1226708E+00
        -11   -1    0    0    0    0  0.00000000000E+00  0.00000000000E+00  0.45593999997E+02  0.45594000000E+02  0.51100000000E-03 0.  1.
         11   -1    0    0    0    0 -0.00000000000E+00 -0.00000000000E+00 -0.45593999997E+02  0.45594000000E+02  0.51100000000E-03 0. -1.
    9900012    2    1    2    0    0  0.77881873483E+01 -0.15267288005E+02  0.75451937205E+01  0.72461657766E+02  0.70000113948E+02 0.  0.
        -12    1    1    2    0    0 -0.77881873483E+01  0.15267288005E+02 -0.75451937205E+01  0.18726342234E+02  0.00000000000E+00 0.  1.
         11    1    3    3    0    0 -0.87822823564E+01 -0.19150426333E+02 -0.18004273725E+02  0.27713195138E+02  0.51100000000E-03 0. -1.
        -11    1    3    3    0    0  0.22721244582E+02  0.27705803982E+01  0.29511601108E+02  0.37347900494E+02  0.51100000000E-03 0.  1.
        -12    1    3    3    0    0 -0.61507748775E+01  0.11125579302E+01 -0.39621336626E+01  0.74005621342E+01  0.00000000000E+00 0.  1.
</event>
<event>
 7    1  0.1920603E-013  0.7246158E+02  0.7816164E-02  0.1226708E+00
        -11   -1    0    0    0    0  0.00000000000E+00  0.00000000000E+00  0.45593999997E+02  0.45594000000E+02  0.51100000000E-03 0. -1.
         11   -1    0    0    0    0 -0.00000000000E+00 -0.00000000000E+00 -0.45593999997E+02  0.45594000000E+02  0.51100000000E-03 0.  1.
    9900012    2    1    2    0    0 -0.49883646018E+01  0.12802688814E+02  0.12723449650E+02  0.72461580341E+02  0.70000013087E+02 0.  0.
        -12    1    1    2    0    0  0.49883646018E+01 -0.12802688814E+02 -0.12723449650E+02  0.18726419659E+02  0.00000000000E+00 0.  1.
         11    1    3    3    0    0  0.67466531148E+01 -0.19782744951E+02  0.12757913737E+02  0.24487521092E+02  0.51100000000E-03 0. -1.
        -11    1    3    3    0    0 -0.75854996359E+01  0.65740461470E+01 -0.14719849066E+02  0.17816617082E+02  0.51100000000E-03 0.  1.
         12    1    3    3    0    0 -0.41495180807E+01  0.26011387617E+02  0.14685384979E+02  0.30157442167E+02  0.00000000000E+00 0. -1.
</event>
<event>
 7    1  0.1920603E-013  0.7246151E+02  0.7816164E-02  0.1226708E+00
        -11   -1    0    0    0    0  0.00000000000E+00  0.00000000000E+00  0.45593999997E+02  0.45594000000E+02  0.51100000000E-03 0. -1.
         11   -1    0    0    0    0 -0.00000000000E+00 -0.00000000000E+00 -0.45593999997E+02  0.45594000000E+02  0.51100000000E-03 0.  1.
    9900012    2    1    2    0    0  0.15426055470E+02 -0.71070066026E+00  0.10593077697E+02  0.72461505990E+02  0.69999916232E+02 0.  0.
        -12    1    1    2    0    0 -0.15426055470E+02  0.71070066026E+00 -0.10593077697E+02  0.18726494010E+02  0.00000000000E+00 0.  1.
         11    1    3    3    0    0  0.62692136360E+01  0.15673157103E+02  0.30480692734E+02  0.34842840340E+02  0.51100000000E-03 0. -1.
        -11    1    3    3    0    0  0.23648979677E+01  0.37056452128E+01 -0.15303401111E+02  0.15922268515E+02  0.51100000000E-03 0.  1.
         12    1    3    3    0    0  0.67919438667E+01 -0.20089502976E+02 -0.45842139259E+01  0.21696397135E+02  0.00000000000E+00 0. -1.
</event>
<event>
 7    1  0.1920603E-013  0.7246156E+02  0.7816164E-02  0.1226708E+00
        -11   -1    0    0    0    0  0.00000000000E+00  0.00000000000E+00  0.45593999997E+02  0.45594000000E+02  0.51100000000E-03 0. -1.
         11   -1    0    0    0    0 -0.00000000000E+00 -0.00000000000E+00 -0.45593999997E+02  0.45594000000E+02  0.51100000000E-03 0.  1.
    9900012    2    1    2    0    0 -0.85051587941E+01 -0.16180809008E+02  0.40648630992E+01  0.72461563652E+02  0.69999991347E+02 0.  0.
        -12    1    1    2    0    0  0.85051587941E+01  0.16180809008E+02 -0.40648630992E+01  0.18726436348E+02  0.00000000000E+00 0.  1.
         11    1    3    3    0    0  0.72044997285E+01 -0.30409236270E+02  0.10869599517E+02  0.33087379176E+02  0.51100000000E-03 0.  1.
        -11    1    3    3    0    0 -0.15116037121E+02  0.20783475946E+02  0.46945913936E+01  0.26124445243E+02  0.51100000000E-03 0. -1.
        -12    1    3    3    0    0 -0.59362140158E+00 -0.65550486849E+01 -0.11499327811E+02  0.13249739233E+02  0.00000000000E+00 0.  1.
</event>
<event>
 7    1  0.1920603E-013  0.7246150E+02  0.7816164E-02  0.1226708E+00
        -11   -1    0    0    0    0  0.00000000000E+00  0.00000000000E+00  0.45593999997E+02  0.45594000000E+02  0.51100000000E-03 0.  1.
         11   -1    0    0    0    0 -0.00000000000E+00 -0.00000000000E+00 -0.45593999997E+02  0.45594000000E+02  0.51100000000E-03 0. -1.
    9900012    2    1    2    0    0 -0.94333576880E+01  0.21531013022E+01 -0.16033024292E+02  0.72461496043E+02  0.69999903274E+02 0.  0.
        -12    1    1    2    0    0  0.94333576880E+01 -0.21531013022E+01  0.16033024292E+02  0.18726503957E+02  0.00000000000E+00 0.  1.
         11    1    3    3    0    0  0.83387801400E+01  0.24339850626E+02 -0.18246300413E+02  0.31541893757E+02  0.51100000000E-03 0. -1.
        -11    1    3    3    0    0 -0.88336744440E+01 -0.28126195324E+02  0.48287222055E+01  0.29873620905E+02  0.51100000000E-03 0.  1.
        -12    1    3    3    0    0 -0.89384633840E+01  0.59394460000E+01 -0.26154460841E+01  0.11045981381E+02  0.00000000000E+00 0.  1.
</event>
<event>
 7    1  0.1920603E-013  0.7246158E+02  0.7816164E-02  0.1226708E+00
        -11   -1    0    0    0    0  0.00000000000E+00  0.00000000000E+00  0.45593999997E+02  0.45594000000E+02  0.51100000000E-03 0.  1.
         11   -1    0    0    0    0 -0.00000000000E+00 -0.00000000000E+00 -0.45593999997E+02  0.45594000000E+02  0.51100000000E-03 0. -1.
    9900012    2    1    2    0    0  0.35631593603E+01  0.16076061683E+02 -0.89186867416E+01  0.72461579171E+02  0.70000011564E+02 0.  0.
        -12    1    1    2    0    0 -0.35631593603E+01 -0.16076061683E+02  0.89186867416E+01  0.18726420829E+02  0.00000000000E+00 0.  1.
         11    1    3    3    0    0 -0.25456093356E+02  0.21259026933E+02  0.99564921053E+01  0.34627888333E+02  0.51100000000E-03 0. -1.
        -11    1    3    3    0    0  0.24568727602E+02  0.11703079657E+01 -0.11583881427E+02  0.27187833784E+02  0.51100000000E-03 0.  1.
        -12    1    3    3    0    0  0.44505251146E+01 -0.63532732156E+01 -0.72912974200E+01  0.10645857054E+02  0.00000000000E+00 0.  1.
</event>
<event>
 7    1  0.1920603E-013  0.7246155E+02  0.7816164E-02  0.1226708E+00
        -11   -1    0    0    0    0  0.00000000000E+00  0.00000000000E+00  0.45593999997E+02  0.45594000000E+02  0.51100000000E-03 0.  1.
         11   -1    0    0    0    0 -0.00000000000E+00 -0.00000000000E+00 -0.45593999997E+02  0.45594000000E+02  0.51100000000E-03 0. -1.
    9900012    2    1    2    0    0  0.11531175221E+02 -0.52764366638E+01 -0.13779368239E+02  0.72461554130E+02  0.69999978943E+02 0.  0.
        -12    1    1    2    0    0 -0.11531175221E+02  0.52764366638E+01  0.13779368239E+02  0.18726445870E+02  0.00000000000E+00 0.  1.
         11    1    3    3    0    0  0.12930929991E+02 -0.18517338343E+02  0.10215496529E+02  0.24788245992E+02  0.51100000000E-03 0. -1.
        -11    1    3    3    0    0 -0.12155180924E+02  0.76985730192E+01 -0.30653778639E+02  0.33862524935E+02  0.51100000000E-03 0.  1.
         12    1    3    3    0    0  0.10755426155E+02  0.55423286605E+01  0.66589138708E+01  0.13810783203E+02  0.00000000000E+00 0. -1.
</event>
<event>
 7    1  0.1920603E-013  0.7246157E+02  0.7816164E-02  0.1226708E+00
        -11   -1    0    0    0    0  0.00000000000E+00  0.00000000000E+00  0.45593999997E+02  0.45594000000E+02  0.51100000000E-03 0. -1.
         11   -1    0    0    0    0 -0.00000000000E+00 -0.00000000000E+00 -0.45593999997E+02  0.45594000000E+02  0.51100000000E-03 0.  1.
    9900012    2    1    2    0    0 -0.13004293716E+02  0.13381791882E+02 -0.15796223652E+01  0.72461569057E+02  0.69999998388E+02 0.  0.
        -12    1    1    2    0    0  0.13004293716E+02 -0.13381791882E+02  0.15796223652E+01  0.18726430943E+02  0.00000000000E+00 0.  1.
         11    1    3    3    0    0 -0.35231404254E+02 -0.74411045280E+01  0.26378826816E+00  0.36009602425E+02  0.51100000000E-03 0. -1.
        -11    1    3    3    0    0  0.95023050054E+01  0.18746543628E+02 -0.75771168987E+01  0.22341427867E+02  0.51100000000E-03 0.  1.
        -12    1    3    3    0    0  0.12724805532E+02  0.20763527826E+01  0.57337062654E+01  0.14110538765E+02  0.00000000000E+00 0.  1.
</event>
<event>
 7    1  0.1920603E-013  0.7246158E+02  0.7816164E-02  0.1226708E+00
        -11   -1    0    0    0    0  0.00000000000E+00  0.00000000000E+00  0.45593999997E+02  0.45594000000E+02  0.51100000000E-03 0.  1.
         11   -1    0    0    0    0 -0.00000000000E+00 -0.00000000000E+00 -0.45593999997E+02  0.45594000000E+02  0.51100000000E-03 0. -1.
    9900012    2    1    2    0    0 -0.57347275173E+01 -0.13930444948E+02 -0.11123603175E+02  0.72461576323E+02  0.70000007853E+02 0.  0.
        -12    1    1    2    0    0  0.57347275173E+01  0.13930444948E+02  0.11123603175E+02  0.18726423677E+02  0.00000000000E+00 0.  1.
         11    1    3    3    0    0  0.66010921497E+01  0.18028429306E+02 -0.27444740548E+02  0.33493468987E+02  0.51100000000E-03 0. -1.
        -11    1    3    3    0    0 -0.53490308637E+01 -0.56768859172E+01  0.61522761060E+01  0.99342672826E+01  0.51100000000E-03 0.  1.
         12    1    3    3    0    0 -0.69867888033E+01 -0.26281988337E+02  0.10168861267E+02  0.29033840053E+02  0.00000000000E+00 0. -1.
</event>
<event>
 7    1  0.1920603E-013  0.7246159E+02  0.7816164E-02  0.1226708E+00
        -11   -1    0    0    0    0  0.00000000000E+00  0.00000000000E+00  0.45593999997E+02  0.45594000000E+02  0.51100000000E-03 0.  1.
         11   -1    0    0    0    0 -0.00000000000E+00 -0.00000000000E+00 -0.45593999997E+02  0.45594000000E+02  0.51100000000E-03 0. -1.
    9900012    2    1    2    0    0 -0.14363424858E+02 -0.11934921261E+02 -0.13885517488E+01  0.72461590972E+02  0.70000026936E+02 0.  0.
        -12    1    1    2    0    0  0.14363424858E+02  0.11934921261E+02  0.13885517488E+01  0.18726409028E+02  0.00000000000E+00 0.  1.
         11    1    3    3    0    0 -0.26345436455E+02  0.47689637854E+01 -0.14192740018E+02  0.30302787117E+02  0.51100000000E-03 0. -1.
        -11    1    3    3    0    0  0.30647899326E+00  0.61590630002E+01  0.15172845855E+02  0.16378132922E+02  0.51100000000E-03 0.  1.
         12    1    3    3    0    0  0.11675532604E+02 -0.22862948046E+02 -0.23686575858E+01  0.25780670932E+02  0.00000000000E+00 0. -1.
</event>
<event>
 7    1  0.1920603E-013  0.7246156E+02  0.7816164E-02  0.1226708E+00
        -11   -1    0    0    0    0  0.00000000000E+00  0.00000000000E+00  0.45593999997E+02  0.45594000000E+02  0.51100000000E-03 0. -1.
         11   -1    0    0    0    0 -0.00000000000E+00 -0.00000000000E+00 -0.45593999997E+02  0.45594000000E+02  0.51100000000E-03 0.  1.
    9900012    2    1    2    0    0  0.15734436450E+02  0.10096298465E+02  0.10825008422E+01  0.72461560371E+02  0.69999987074E+02 0.  0.
        -12    1    1    2    0    0 -0.15734436450E+02 -0.10096298465E+02 -0.10825008422E+01  0.18726439629E+02  0.00000000000E+00 0.  1.
         11    1    3    3    0    0  0.26624838769E+01 -0.11154175407E+02  0.28662960016E+02  0.30871827392E+02  0.51100000000E-03 0. -1.
        -11    1    3    3    0    0  0.76866283454E+01 -0.12762226533E+01 -0.89392297438E+01  0.11858449656E+02  0.51100000000E-03 0.  1.
         12    1    3    3    0    0  0.53853242279E+01  0.22526696525E+02 -0.18641229430E+02  0.29731283323E+02  0.00000000000E+00 0. -1.
</event>
<event>
 7    1  0.1920603E-013  0.7246143E+02  0.7816164E-02  0.1226708E+00
        -11   -1    0    0    0    0  0.00000000000E+00  0.00000000000E+00  0.45593999997E+02  0.45594000000E+02  0.51100000000E-03 0.  1.
         11   -1    0    0    0    0 -0.00000000000E+00 -0.00000000000E+00 -0.45593999997E+02  0.45594000000E+02  0.51100000000E-03 0. -1.
    9900012    2    1    2    0    0 -0.13478472417E+02 -0.50933535999E+01 -0.11961309412E+02  0.72461430842E+02  0.69999818337E+02 0.  0.
        -12    1    1    2    0    0  0.13478472417E+02  0.50933535999E+01  0.11961309412E+02  0.18726569158E+02  0.00000000000E+00 0.  1.
         11    1    3    3    0    0  0.90575030642E-01 -0.16688903019E+01 -0.12660060489E+02  0.12769907225E+02  0.51100000000E-03 0. -1.
        -11    1    3    3    0    0 -0.49169939972E+01 -0.20525864166E+02  0.22373870387E+02  0.30758381071E+02  0.51100000000E-03 0.  1.
        -12    1    3    3    0    0 -0.86520534505E+01  0.17101400868E+02 -0.21675119309E+02  0.28933142547E+02  0.00000000000E+00 0.  1.
</event>
<event>
 7    1  0.1920603E-013  0.7246150E+02  0.7816164E-02  0.1226708E+00
        -11   -1    0    0    0    0  0.00000000000E+00  0.00000000000E+00  0.45593999997E+02  0.45594000000E+02  0.51100000000E-03 0.  1.
         11   -1    0    0    0    0 -0.00000000000E+00 -0.00000000000E+00 -0.45593999997E+02  0.45594000000E+02  0.51100000000E-03 0. -1.
    9900012    2    1    2    0    0 -0.34407414006E+01  0.18398807164E+02  0.57178563415E+00  0.72461501522E+02  0.69999910411E+02 0.  0.
        -12    1    1    2    0    0  0.34407414006E+01 -0.18398807164E+02 -0.57178563415E+00  0.18726498478E+02  0.00000000000E+00 0.  1.
         11    1    3    3    0    0 -0.21516010628E+02  0.17735472200E+02  0.78950757937E+00  0.27894605392E+02  0.51100000000E-03 0. -1.
        -11    1    3    3    0    0  0.14723793448E+02 -0.10474590074E+02  0.16320024352E+02  0.24348517939E+02  0.51100000000E-03 0.  1.
        -12    1    3    3    0    0  0.33514757796E+01  0.11137925038E+02 -0.16537746298E+02  0.20218378191E+02  0.00000000000E+00 0.  1.
</event>
<event>
 7    1  0.1920603E-013  0.7246197E+02  0.7816164E-02  0.1226707E+00
        -11   -1    0    0    0    0  0.00000000000E+00  0.00000000000E+00  0.45593999997E+02  0.45594000000E+02  0.51100000000E-03 0. -1.
         11   -1    0    0    0    0 -0.00000000000E+00 -0.00000000000E+00 -0.45593999997E+02  0.45594000000E+02  0.51100000000E-03 0.  1.
    9900012    2    1    2    0    0 -0.10306806547E+02  0.35438602466E+01  0.15227440683E+02  0.72461971153E+02  0.70000522190E+02 0.  0.
        -12    1    1    2    0    0  0.10306806547E+02 -0.35438602466E+01 -0.15227440683E+02  0.18726028847E+02  0.00000000000E+00 0.  1.
         11    1    3    3    0    0  0.10613459992E+01 -0.83463665774E+01  0.10522013768E+02  0.13472233088E+02  0.51100000000E-03 0. -1.
        -11    1    3    3    0    0  0.22695536046E+02  0.60356730074E+01 -0.27094762612E+01  0.23640176965E+02  0.51100000000E-03 0.  1.
        -12    1    3    3    0    0 -0.34063688592E+02  0.58545538166E+01  0.74149031760E+01  0.35349561100E+02  0.00000000000E+00 0.  1.
</event>
<event>
 7    1  0.1920603E-013  0.7246163E+02  0.7816164E-02  0.1226708E+00
        -11   -1    0    0    0    0  0.00000000000E+00  0.00000000000E+00  0.45593999997E+02  0.45594000000E+02  0.51100000000E-03 0.  1.
         11   -1    0    0    0    0 -0.00000000000E+00 -0.00000000000E+00 -0.45593999997E+02  0.45594000000E+02  0.51100000000E-03 0. -1.
    9900012    2    1    2    0    0  0.54782645039E+01 -0.51033197273E+01 -0.17164550087E+02  0.72461627316E+02  0.70000074281E+02 0.  0.
        -12    1    1    2    0    0 -0.54782645039E+01  0.51033197273E+01  0.17164550087E+02  0.18726372684E+02  0.00000000000E+00 0.  1.
         11    1    3    3    0    0  0.14879936867E+02  0.81803411287E+01 -0.26921996194E+02  0.31829614850E+02  0.51100000000E-03 0. -1.
        -11    1    3    3    0    0 -0.13077984243E+02 -0.15135854258E+02 -0.86328982153E+01  0.21786571273E+02  0.51100000000E-03 0.  1.
         12    1    3    3    0    0  0.36763118803E+01  0.18521934023E+01  0.18390344322E+02  0.18845441192E+02  0.00000000000E+00 0. -1.
</event>
<event>
 7    1  0.1920603E-013  0.7246163E+02  0.7816164E-02  0.1226708E+00
        -11   -1    0    0    0    0  0.00000000000E+00  0.00000000000E+00  0.45593999997E+02  0.45594000000E+02  0.51100000000E-03 0. -1.
         11   -1    0    0    0    0 -0.00000000000E+00 -0.00000000000E+00 -0.45593999997E+02  0.45594000000E+02  0.51100000000E-03 0.  1.
    9900012    2    1    2    0    0  0.55641876978E+01  0.84427037789E+01  0.15761897151E+02  0.72461632663E+02  0.70000081246E+02 0.  0.
        -12    1    1    2    0    0 -0.55641876978E+01 -0.84427037789E+01 -0.15761897151E+02  0.18726367337E+02  0.00000000000E+00 0.  1.
         11    1    3    3    0    0 -0.56498354554E+01  0.16845304493E+02  0.52083731710E+01  0.18515184997E+02  0.51100000000E-03 0. -1.
        -11    1    3    3    0    0  0.24375761513E+02 -0.21891325465E+02  0.90819195158E+00  0.32775489208E+02  0.51100000000E-03 0.  1.
        -12    1    3    3    0    0 -0.13161738360E+02  0.13488724751E+02  0.96453320289E+01  0.21170958457E+02  0.00000000000E+00 0.  1.
</event>
<event>
 7    1  0.1920603E-013  0.7246156E+02  0.7816164E-02  0.1226708E+00
        -11   -1    0    0    0    0  0.00000000000E+00  0.00000000000E+00  0.45593999997E+02  0.45594000000E+02  0.51100000000E-03 0.  1.
         11   -1    0    0    0    0 -0.00000000000E+00 -0.00000000000E+00 -0.45593999997E+02  0.45594000000E+02  0.51100000000E-03 0. -1.
    9900012    2    1    2    0    0  0.46860446528E-01  0.90230158367E+01 -0.16409223552E+02  0.72461558046E+02  0.69999984044E+02 0.  0.
        -12    1    1    2    0    0 -0.46860446528E-01 -0.90230158367E+01  0.16409223552E+02  0.18726441954E+02  0.00000000000E+00 0.  1.
         11    1    3    3    0    0  0.31067081893E+02  0.46781424574E+01 -0.12413919366E+02  0.33780970805E+02  0.51100000000E-03 0. -1.
        -11    1    3    3    0    0 -0.44512182433E+01  0.10191044954E+02 -0.27072609637E+01  0.11445523286E+02  0.51100000000E-03 0.  1.
         12    1    3    3    0    0 -0.26569003203E+02 -0.58461715747E+01 -0.12880432223E+01  0.27235063955E+02  0.00000000000E+00 0. -1.
</event>
<event>
 7    1  0.1920603E-013  0.7246160E+02  0.7816164E-02  0.1226708E+00
        -11   -1    0    0    0    0  0.00000000000E+00  0.00000000000E+00  0.45593999997E+02  0.45594000000E+02  0.51100000000E-03 0.  1.
         11   -1    0    0    0    0 -0.00000000000E+00 -0.00000000000E+00 -0.45593999997E+02  0.45594000000E+02  0.51100000000E-03 0. -1.
    9900012    2    1    2    0    0 -0.16505589415E+02 -0.74800655580E+01 -0.47214690858E+01  0.72461597969E+02  0.70000036051E+02 0.  0.
        -12    1    1    2    0    0  0.16505589415E+02  0.74800655580E+01  0.47214690858E+01  0.18726402031E+02  0.00000000000E+00 0.  1.
         11    1    3    3    0    0 -0.97611227939E+01  0.17427208227E+02 -0.19008651360E+02  0.27573826930E+02  0.51100000000E-03 0. -1.
        -11    1    3    3    0    0 -0.69438576076E+01  0.56104519998E+01  0.11039084042E+02  0.14197031622E+02  0.51100000000E-03 0.  1.
         12    1    3    3    0    0  0.19939098594E+00 -0.30517725785E+02  0.32480982315E+01  0.30690739417E+02  0.00000000000E+00 0. -1.
</event>
<event>
 7    1  0.1920603E-013  0.7246146E+02  0.7816164E-02  0.1226708E+00
        -11   -1    0    0    0    0  0.00000000000E+00  0.00000000000E+00  0.45593999997E+02  0.45594000000E+02  0.51100000000E-03 0.  1.
         11   -1    0    0    0    0 -0.00000000000E+00 -0.00000000000E+00 -0.45593999997E+02  0.45594000000E+02  0.51100000000E-03 0. -1.
    9900012    2    1    2    0    0  0.36830880969E+01  0.22731183053E+01 -0.18219526737E+02  0.72461458427E+02  0.69999854272E+02 0.  0.
        -12    1    1    2    0    0 -0.36830880969E+01 -0.22731183053E+01  0.18219526737E+02  0.18726541573E+02  0.00000000000E+00 0.  1.
         11    1    3    3    0    0  0.17527734429E+01  0.31427719619E+02 -0.96671531347E+01  0.32927611896E+02  0.51100000000E-03 0.  1.
        -11    1    3    3    0    0 -0.71317043101E+01 -0.50593883635E+01  0.53759228635E+01  0.10264461207E+02  0.51100000000E-03 0. -1.
         12    1    3    3    0    0  0.90620189641E+01 -0.24095212950E+02 -0.13928296466E+02  0.29269385324E+02  0.00000000000E+00 0. -1.
</event>
<event>
 7    1  0.1920603E-013  0.7246159E+02  0.7816164E-02  0.1226708E+00
        -11   -1    0    0    0    0  0.00000000000E+00  0.00000000000E+00  0.45593999997E+02  0.45594000000E+02  0.51100000000E-03 0.  1.
         11   -1    0    0    0    0 -0.00000000000E+00 -0.00000000000E+00 -0.45593999997E+02  0.45594000000E+02  0.51100000000E-03 0. -1.
    9900012    2    1    2    0    0 -0.16079163066E+02 -0.83598555239E+01 -0.47171579197E+01  0.72461594896E+02  0.70000032049E+02 0.  0.
        -12    1    1    2    0    0  0.16079163066E+02  0.83598555239E+01  0.47171579197E+01  0.18726405104E+02  0.00000000000E+00 0.  1.
         11    1    3    3    0    0 -0.29843569591E+02  0.78973412374E+01 -0.48485339598E+01  0.31249238813E+02  0.51100000000E-03 0. -1.
        -11    1    3    3    0    0  0.33457697247E+00 -0.24923446175E+02  0.25153864238E+01  0.25052290915E+02  0.51100000000E-03 0.  1.
         12    1    3    3    0    0  0.13429829553E+02  0.86662494134E+01 -0.23840103837E+01  0.16160065168E+02  0.00000000000E+00 0. -1.
</event>
<event>
 7    1  0.1920603E-013  0.7246154E+02  0.7816164E-02  0.1226708E+00
        -11   -1    0    0    0    0  0.00000000000E+00  0.00000000000E+00  0.45593999997E+02  0.45594000000E+02  0.51100000000E-03 0.  1.
         11   -1    0    0    0    0 -0.00000000000E+00 -0.00000000000E+00 -0.45593999997E+02  0.45594000000E+02  0.51100000000E-03 0. -1.
    9900012    2    1    2    0    0  0.69676285614E+01  0.16865289423E+02 -0.42064651686E+01  0.72461543199E+02  0.69999964703E+02 0.  0.
        -12    1    1    2    0    0 -0.69676285614E+01 -0.16865289423E+02  0.42064651686E+01  0.18726456801E+02  0.00000000000E+00 0.  1.
         11    1    3    3    0    0  0.15689322961E+02 -0.90327957852E+00 -0.30440983954E+02  0.34258200089E+02  0.51100000000E-03 0. -1.
        -11    1    3    3    0    0 -0.74930768169E+01 -0.83623747831E+00  0.14003887552E+02  0.15904538979E+02  0.51100000000E-03 0.  1.
        -12    1    3    3    0    0 -0.12286175822E+01  0.18604806480E+02  0.12230631234E+02  0.22298804132E+02  0.00000000000E+00 0.  1.
</event>
<event>
 7    1  0.1920603E-013  0.7246156E+02  0.7816164E-02  0.1226708E+00
        -11   -1    0    0    0    0  0.00000000000E+00  0.00000000000E+00  0.45593999997E+02  0.45594000000E+02  0.51100000000E-03 0. -1.
         11   -1    0    0    0    0 -0.00000000000E+00 -0.00000000000E+00 -0.45593999997E+02  0.45594000000E+02  0.51100000000E-03 0.  1.
    9900012    2    1    2    0    0 -0.16044949453E+02 -0.93645210463E+01  0.23547966618E+01  0.72461555472E+02  0.69999980691E+02 0.  0.
        -12    1    1    2    0    0  0.16044949453E+02  0.93645210463E+01 -0.23547966618E+01  0.18726444528E+02  0.00000000000E+00 0.  1.
         11    1    3    3    0    0 -0.45186869337E+01  0.18126707391E+02  0.42125734259E+01  0.19150504630E+02  0.51100000000E-03 0. -1.
        -11    1    3    3    0    0 -0.11049555966E+01 -0.21010844304E+02  0.19494818385E+02  0.28683173628E+02  0.51100000000E-03 0.  1.
        -12    1    3    3    0    0 -0.10421306922E+02 -0.64803841329E+01 -0.21352595149E+02  0.24627877214E+02  0.00000000000E+00 0.  1.
</event>
<event>
 7    1  0.1920603E-013  0.7246141E+02  0.7816164E-02  0.1226708E+00
        -11   -1    0    0    0    0  0.00000000000E+00  0.00000000000E+00  0.45593999997E+02  0.45594000000E+02  0.51100000000E-03 0.  1.
         11   -1    0    0    0    0 -0.00000000000E+00 -0.00000000000E+00 -0.45593999997E+02  0.45594000000E+02  0.51100000000E-03 0. -1.
    9900012    2    1    2    0    0 -0.14046790527E+02  0.78223384330E+01 -0.96012457087E+01  0.72461408697E+02  0.69999789489E+02 0.  0.
        -12    1    1    2    0    0  0.14046790527E+02 -0.78223384330E+01  0.96012457087E+01  0.18726591303E+02  0.00000000000E+00 0.  1.
         11    1    3    3    0    0 -0.12079683533E+02  0.75331648513E+01 -0.24117108237E+01  0.14438963824E+02  0.51100000000E-03 0. -1.
        -11    1    3    3    0    0  0.26669196564E+02  0.75604587132E+01 -0.64869291864E+01  0.28469050421E+02  0.51100000000E-03 0.  1.
        -12    1    3    3    0    0 -0.28636303558E+02 -0.72712851315E+01 -0.70260569862E+00  0.29553394453E+02  0.00000000000E+00 0.  1.
</event>
<event>
 7    1  0.1920603E-013  0.7246151E+02  0.7816164E-02  0.1226708E+00
        -11   -1    0    0    0    0  0.00000000000E+00  0.00000000000E+00  0.45593999997E+02  0.45594000000E+02  0.51100000000E-03 0. -1.
         11   -1    0    0    0    0 -0.00000000000E+00 -0.00000000000E+00 -0.45593999997E+02  0.45594000000E+02  0.51100000000E-03 0.  1.
    9900012    2    1    2    0    0  0.13358124820E+02  0.11314257425E+02  0.66505279772E+01  0.72461509614E+02  0.69999920953E+02 0.  0.
        -12    1    1    2    0    0 -0.13358124820E+02 -0.11314257425E+02 -0.66505279772E+01  0.18726490386E+02  0.00000000000E+00 0.  1.
         11    1    3    3    0    0  0.25363328518E+02 -0.11076171108E+02 -0.39872608346E+01  0.27962085923E+02  0.51100000000E-03 0. -1.
        -11    1    3    3    0    0  0.19378955881E+01  0.26722324868E+02  0.12880161157E+02  0.29727708242E+02  0.51100000000E-03 0.  1.
        -12    1    3    3    0    0 -0.13943099286E+02 -0.43318963351E+01 -0.22423723453E+01  0.14771715449E+02  0.00000000000E+00 0.  1.
</event>
<event>
 7    1  0.1920603E-013  0.7246158E+02  0.7816164E-02  0.1226708E+00
        -11   -1    0    0    0    0  0.00000000000E+00  0.00000000000E+00  0.45593999997E+02  0.45594000000E+02  0.51100000000E-03 0.  1.
         11   -1    0    0    0    0 -0.00000000000E+00 -0.00000000000E+00 -0.45593999997E+02  0.45594000000E+02  0.51100000000E-03 0. -1.
    9900012    2    1    2    0    0  0.89628533441E+00 -0.94225302049E+01 -0.16158320939E+02  0.72461581805E+02  0.70000014995E+02 0.  0.
        -12    1    1    2    0    0 -0.89628533441E+00  0.94225302049E+01  0.16158320939E+02  0.18726418195E+02  0.00000000000E+00 0.  1.
         11    1    3    3    0    0  0.10070245987E+02 -0.10880329338E+02 -0.15880252551E+02  0.21724958967E+02  0.51100000000E-03 0. -1.
        -11    1    3    3    0    0  0.93253538848E+01 -0.94572618976E+01  0.18112193218E+02  0.22460043880E+02  0.51100000000E-03 0.  1.
        -12    1    3    3    0    0 -0.18499314537E+02  0.10915061031E+02 -0.18390261605E+02  0.28276578958E+02  0.00000000000E+00 0.  1.
</event>
<event>
 7    1  0.1920603E-013  0.7246160E+02  0.7816164E-02  0.1226708E+00
        -11   -1    0    0    0    0  0.00000000000E+00  0.00000000000E+00  0.45593999997E+02  0.45594000000E+02  0.51100000000E-03 0. -1.
         11   -1    0    0    0    0 -0.00000000000E+00 -0.00000000000E+00 -0.45593999997E+02  0.45594000000E+02  0.51100000000E-03 0.  1.
    9900012    2    1    2    0    0  0.16851979279E+02 -0.61781217958E+01  0.53403883181E+01  0.72461597731E+02  0.70000035741E+02 0.  0.
        -12    1    1    2    0    0 -0.16851979279E+02  0.61781217958E+01 -0.53403883181E+01  0.18726402269E+02  0.00000000000E+00 0.  1.
         11    1    3    3    0    0  0.20097264111E+02  0.10299745052E+02  0.14431866778E+02  0.26800439397E+02  0.51100000000E-03 0. -1.
        -11    1    3    3    0    0 -0.59849456931E+01  0.56273362584E+01 -0.19436839782E+02  0.21101593051E+02  0.51100000000E-03 0.  1.
        -12    1    3    3    0    0  0.27396608611E+01 -0.22105203106E+02  0.10345361322E+02  0.24559565283E+02  0.00000000000E+00 0.  1.
</event>
<event>
 7    1  0.1920603E-013  0.7246160E+02  0.7816164E-02  0.1226708E+00
        -11   -1    0    0    0    0  0.00000000000E+00  0.00000000000E+00  0.45593999997E+02  0.45594000000E+02  0.51100000000E-03 0. -1.
         11   -1    0    0    0    0 -0.00000000000E+00 -0.00000000000E+00 -0.45593999997E+02  0.45594000000E+02  0.51100000000E-03 0.  1.
    9900012    2    1    2    0    0  0.14600027952E+02  0.11716150191E+02  0.49898804109E+00  0.72461602040E+02  0.70000041354E+02 0.  0.
        -12    1    1    2    0    0 -0.14600027952E+02 -0.11716150191E+02 -0.49898804109E+00  0.18726397960E+02  0.00000000000E+00 0.  1.
         11    1    3    3    0    0  0.16032141849E+02  0.27608296230E+02 -0.63692096723E+01  0.32554791123E+02  0.51100000000E-03 0. -1.
        -11    1    3    3    0    0 -0.27432224716E+01 -0.24032605382E+02 -0.57226389578E+01  0.24856387265E+02  0.51100000000E-03 0.  1.
        -12    1    3    3    0    0  0.13111085751E+01  0.81404593427E+01  0.12590836671E+02  0.15050423651E+02  0.00000000000E+00 0.  1.
</event>
<event>
 7    1  0.1920603E-013  0.7246157E+02  0.7816164E-02  0.1226708E+00
        -11   -1    0    0    0    0  0.00000000000E+00  0.00000000000E+00  0.45593999997E+02  0.45594000000E+02  0.51100000000E-03 0. -1.
         11   -1    0    0    0    0 -0.00000000000E+00 -0.00000000000E+00 -0.45593999997E+02  0.45594000000E+02  0.51100000000E-03 0.  1.
    9900012    2    1    2    0    0 -0.58645426744E+01  0.58598571812E+01 -0.16791321321E+02  0.72461567914E+02  0.69999996900E+02 0.  0.
        -12    1    1    2    0    0  0.58645426744E+01 -0.58598571812E+01  0.16791321321E+02  0.18726432086E+02  0.00000000000E+00 0.  1.
         11    1    3    3    0    0 -0.12848847027E+02  0.24983551302E+02 -0.86774313170E+01  0.29403546047E+02  0.51100000000E-03 0. -1.
        -11    1    3    3    0    0  0.17925297625E+01 -0.18298316921E+02 -0.21728651265E+02  0.28463588164E+02  0.51100000000E-03 0.  1.
         12    1    3    3    0    0  0.51917745898E+01 -0.82537719970E+00  0.13614761262E+02  0.14594433704E+02  0.00000000000E+00 0. -1.
</event>
<event>
 7    1  0.1920603E-013  0.7246158E+02  0.7816164E-02  0.1226708E+00
        -11   -1    0    0    0    0  0.00000000000E+00  0.00000000000E+00  0.45593999997E+02  0.45594000000E+02  0.51100000000E-03 0. -1.
         11   -1    0    0    0    0 -0.00000000000E+00 -0.00000000000E+00 -0.45593999997E+02  0.45594000000E+02  0.51100000000E-03 0.  1.
    9900012    2    1    2    0    0 -0.95166310725E+01 -0.14891846051E+02 -0.61923781903E+01  0.72461577666E+02  0.70000009603E+02 0.  0.
        -12    1    1    2    0    0  0.95166310725E+01  0.14891846051E+02  0.61923781903E+01  0.18726422334E+02  0.00000000000E+00 0.  1.
         11    1    3    3    0    0 -0.12465404770E+02  0.28242173728E-03  0.45506647010E+01  0.13270074063E+02  0.51100000000E-03 0. -1.
        -11    1    3    3    0    0  0.16386683456E+02 -0.17412261666E+02  0.16266271004E+02  0.28918883513E+02  0.51100000000E-03 0.  1.
        -12    1    3    3    0    0 -0.13437909759E+02  0.25201331928E+01 -0.27009313895E+02  0.30272620090E+02  0.00000000000E+00 0.  1.
</event>
<event>
 8    1  0.1920603E-013  0.7246158E+02  0.7816164E-02  0.1226708E+00
        -11   -1    0    0    0    0  0.00000000000E+00  0.00000000000E+00  0.45593999997E+02  0.45594000000E+02  0.51100000000E-03 0.  1.
         11   -1    0    0    0    0 -0.00000000000E+00 -0.00000000000E+00 -0.45593999997E+02  0.45594000000E+02  0.51100000000E-03 0. -1.
    9900012    2    1    2    0    0  0.80964625035E+01 -0.11266182713E+02 -0.12577726573E+02  0.72461580595E+02  0.70000013418E+02 0.  0.
         24    2    3    3    0    0 -0.47663373980E+01 -0.25472634881E+01 -0.21773089539E+02  0.54405394007E+02  0.49564835776E+02 0.  0.
        -12    1    1    2    0    0 -0.80964625035E+01  0.11266182713E+02  0.12577726573E+02  0.18726419405E+02  0.00000000000E+00 0.  1.
         11    1    3    3    0    0  0.12862799901E+02 -0.87189192254E+01  0.91953629662E+01  0.18056186588E+02  0.51100000000E-03 0.  1.
        -11    1    4    4    0    0 -0.25153653615E+02  0.86307061464E+01 -0.12278891604E+02  0.29291066181E+02  0.51100000000E-03 0. -1.
         12    1    4    4    0    0  0.20387316217E+02 -0.11177969635E+02 -0.94941979350E+01  0.25114327825E+02  0.00000000000E+00 0. -1.
</event>
<event>
 7    1  0.1920603E-013  0.7246160E+02  0.7816164E-02  0.1226708E+00
        -11   -1    0    0    0    0  0.00000000000E+00  0.00000000000E+00  0.45593999997E+02  0.45594000000E+02  0.51100000000E-03 0. -1.
         11   -1    0    0    0    0 -0.00000000000E+00 -0.00000000000E+00 -0.45593999997E+02  0.45594000000E+02  0.51100000000E-03 0.  1.
    9900012    2    1    2    0    0  0.12298436468E+02  0.24491710172E+01  0.13907847487E+02  0.72461596182E+02  0.70000033724E+02 0.  0.
        -12    1    1    2    0    0 -0.12298436468E+02 -0.24491710172E+01 -0.13907847487E+02  0.18726403818E+02  0.00000000000E+00 0.  1.
         11    1    3    3    0    0 -0.14261765876E+02  0.43647886688E+01  0.17694146321E+02  0.23141567802E+02  0.51100000000E-03 0. -1.
        -11    1    3    3    0    0  0.32628009752E+02 -0.15620393640E+01 -0.15474918492E+02  0.36145540388E+02  0.51100000000E-03 0.  1.
        -12    1    3    3    0    0 -0.60678074084E+01 -0.35357828764E+00  0.11688619658E+02  0.13174487993E+02  0.00000000000E+00 0.  1.
</event>
<event>
 7    1  0.1920603E-013  0.7246149E+02  0.7816164E-02  0.1226708E+00
        -11   -1    0    0    0    0  0.00000000000E+00  0.00000000000E+00  0.45593999997E+02  0.45594000000E+02  0.51100000000E-03 0.  1.
         11   -1    0    0    0    0 -0.00000000000E+00 -0.00000000000E+00 -0.45593999997E+02  0.45594000000E+02  0.51100000000E-03 0. -1.
    9900012    2    1    2    0    0 -0.31132413191E+01 -0.17010389322E+02 -0.71858561413E+01  0.72461490852E+02  0.69999896512E+02 0.  0.
        -12    1    1    2    0    0  0.31132413191E+01  0.17010389322E+02  0.71858561413E+01  0.18726509148E+02  0.00000000000E+00 0.  1.
         11    1    3    3    0    0 -0.55299060183E+01 -0.22150303462E+02 -0.22870924864E+01  0.22944424080E+02  0.51100000000E-03 0. -1.
        -11    1    3    3    0    0  0.17183839380E+01  0.12981398514E+02 -0.24838866076E+02  0.28079152747E+02  0.51100000000E-03 0.  1.
        -12    1    3    3    0    0  0.69828076117E+00 -0.78414843734E+01  0.19940102422E+02  0.21437914026E+02  0.00000000000E+00 0.  1.
</event>
